 Gaussian 16, Revision C.01,

 ----------------------------------------------------------------------
 #t hf aug-cc-pvdz symm=none int=(grid=ultrafine) guess=(read,tcheck) s
 table=(opt,rrhf)
 ----------------------------------------------------------------------
 -----
 title
 -----
 Symbolic Z-matrix:
 Charge =  0 Multiplicity = 1

 SCF Done:  E(RHF) =  -306.624703167     A.U. after   16 cycles
 Normal termination of Gaussian 16 at Wed Apr  9 03:59:49 2025.
 Gaussian 16:  ES64L-G16RevC.01  3-Jul-2019

 ----------------------------------------------------------------------
 #t hf aug-cc-pvdz iop(5/13=1,5/36=2,99/5=2) pseudo=read geom=check gue
 ss=(read,tcheck) scf=(maxcycle=1)
 ----------------------------------------------------------------------
 -----
 title
 -----
 Structure from the checkpoint file:  "Grambow2020_wb97xd3_008800_forward_mol1.chk"
 Charge =  0 Multiplicity = 1

                         Standard orientation:
 ---------------------------------------------------------------------
 Center     Atomic      Atomic             Coordinates (Angstroms)
 Number     Number       Type             X           Y           Z
 ---------------------------------------------------------------------
      1          8           0       -2.297429    0.023506   -0.028707
      2          6           0       -1.022687    0.120280    0.041905
      3          6           0       -0.435573   -1.165025    0.149909
      4          6           0        1.007153   -1.257941   -0.304423
      5          6           0        1.796397   -0.033641    0.178711
      6          6           0        1.057304    1.263758    0.001228
      7          6           0       -0.274753    1.354498   -0.070505
      8          1           0       -0.662805   -1.611691    1.119910
      9          1           0       -1.906419   -1.170107   -0.178599
     10          1           0        1.482602   -2.171059    0.055597
     11          1           0        1.053499   -1.295386   -1.397699
     12          1           0        2.031972   -0.126050    1.247868
     13          1           0        2.759396    0.031536   -0.333481
     14          1           0        1.651112    2.171540   -0.050664
     15          1           0       -0.796977    2.291599   -0.214229
 ---------------------------------------------------------------------

 SCF Done:  E(RHF) =  -306.717789846     A.U. after    2 cycles

 The electronic state is 1-A.
 Alpha  occ. eigenvalues --  -20.57971 -11.35026 -11.29079 -11.25526 -11.25520
 Alpha  occ. eigenvalues --  -11.23881 -11.20103  -1.37057  -1.13324  -1.02679
 Alpha  occ. eigenvalues --   -0.98992  -0.86955  -0.83177  -0.70213  -0.70143
 Alpha  occ. eigenvalues --   -0.67826  -0.63402  -0.59917  -0.58547  -0.56447
 Alpha  occ. eigenvalues --   -0.54881  -0.52853  -0.48092  -0.45965  -0.40435
 Alpha  occ. eigenvalues --   -0.32128
 Alpha virt. eigenvalues --    0.02882   0.04054   0.04520   0.04721   0.06094
 Alpha virt. eigenvalues --    0.06316   0.06775   0.07070   0.07777   0.11187
 Alpha virt. eigenvalues --    0.12553   0.12985   0.13552   0.14091   0.14226

 Mulliken charges:
               1
     1  O   -0.727271
     2  C   -0.187475
     3  C    0.056345
     4  C    0.393881
     5  C    0.213267
     6  C    0.176486
     7  C    0.619121
     8  H   -0.203064
     9  H    0.498416
    10  H    0.003548
    11  H   -0.078688
    12  H    0.027343
    13  H    0.031342
    14  H   -0.393096
    15  H   -0.430156
 Sum of Mulliken charges =  -0.00000

 Dipole moment (field-independent basis, Debye):
    X=              3.7705    Y=              1.1151    Z=              0.3906  Tot=              3.9513

 Test job not archived.
 1\1\GINC-SE059\SP\RHF\Aug-CC-pVDZ\C6H8O1\OHZDE\09-Apr-2025\0\\#t hf au
 g-cc-pvdz iop(5/13=1,5/36=2,99/5=2) pseudo=read geom=check guess=(read
 ,tcheck) scf=(maxcycle=1)\\title\\0,1\O,0,0.40284499,-2.59111016,0.469
 11249\C,0,0.37183409,-1.33832296,0.2066602\C,0,-0.95292897,-0.92799384
 ,-0.08490756\C,0,-1.23635313,0.54515465,0.12960602\C,0,-0.06291847,1.3
 9204032,-0.3813456\C,0,1.28348365,0.84413566,0.00336723\C,0,1.50611543
 ,-0.44284526,0.28949622\H,0,-1.28480611,-1.34672191,-1.03704743\H,0,-0
 .83368543,-2.32453972,0.46896018\H,0,-2.15824767,0.8521043,-0.36571399

 Normal termination of Gaussian 16 at Wed Apr  9 03:59:54 2025.
