 Gaussian 16, Revision C.01,

 ----------------------------------------------------------------------
 #t hf aug-cc-pvdz symm=none int=(grid=ultrafine) guess=(read,tcheck) s
 table=(opt,rrhf)
 ----------------------------------------------------------------------
 -----
 title
 -----
 Symbolic Z-matrix:
 Charge =  0 Multiplicity = 1

 SCF Done:  E(RHF) =  -321.534048312     A.U. after   15 cycles
 Normal termination of Gaussian 16 at Wed Apr  9 16:24:49 2025.
 Gaussian 16:  ES64L-G16RevC.01  3-Jul-2019

 ----------------------------------------------------------------------
 #t hf aug-cc-pvdz iop(5/13=1,5/36=2,99/5=2) pseudo=read geom=check gue
 ss=(read,tcheck) scf=(maxcycle=1)
 ----------------------------------------------------------------------
 -----
 title
 -----
 Structure from the checkpoint file:  "Grambow2020_wb97xd3_008188_reverse_mol2.chk"
 Charge =  0 Multiplicity = 1

                         Standard orientation:
 ---------------------------------------------------------------------
 Center     Atomic      Atomic             Coordinates (Angstroms)
 Number     Number       Type             X           Y           Z
 ---------------------------------------------------------------------
      1          8           0        1.470706   -0.743547   -0.378193
      2          6           0        0.311082   -1.514810   -0.007672
      3          6           0       -0.343548   -0.255408    0.600135
      4          6           0        0.901629    0.425750    0.062209
      5          6           0        1.366502    1.654473   -0.009714
      6          6           0       -1.625978    0.159376    0.056998
      7          7           0       -2.642784    0.470637   -0.372355
      8          1           0        2.323854    1.857484   -0.469106
      9          1           0       -0.197391   -1.920830   -0.882061
     10          1           0        0.560381   -2.305609    0.698951
     11          1           0       -0.393059   -0.266631    1.688841
     12          1           0        0.781943    2.473225    0.383672
 ---------------------------------------------------------------------

 SCF Done:  E(RHF) =  -321.633143270     A.U. after    2 cycles

 The electronic state is 1-A.
 Alpha  occ. eigenvalues --  -20.61937 -15.65189 -11.33817 -11.33805 -11.31969
 Alpha  occ. eigenvalues --  -11.30033 -11.24164  -1.41588  -1.21064  -1.08711
 Alpha  occ. eigenvalues --   -1.04563  -0.91308  -0.81721  -0.74676  -0.71210
 Alpha  occ. eigenvalues --   -0.68440  -0.64029  -0.59123  -0.56973  -0.55963
 Alpha  occ. eigenvalues --   -0.54725  -0.54444  -0.47111  -0.46748  -0.37104
 Alpha virt. eigenvalues --    0.02642   0.03940   0.04455   0.05558   0.06332
 Alpha virt. eigenvalues --    0.07764   0.09016   0.09972   0.10971   0.12304
 Alpha virt. eigenvalues --    0.12701   0.12958   0.14236   0.14557   0.14925

 Mulliken charges:
               1
     1  O   -0.763198
     2  C    1.017696
     3  C    0.350544
     4  C    0.031538
     5  C    1.096128
     6  C   -0.565379
     7  N   -0.106915
     8  H   -0.311276
     9  H   -0.230500
    10  H   -0.170993
    11  H   -0.045157
    12  H   -0.302489
 Sum of Mulliken charges =  -0.00000

 Dipole moment (field-independent basis, Debye):
    X=              1.6975    Y=             -1.4416    Z=              2.0908  Tot=              3.0547

 Test job not archived.
 1\1\GINC-SE026\SP\RHF\Aug-CC-pVDZ\C5H5N1O1\OHZDE\09-Apr-2025\0\\#t hf
 aug-cc-pvdz iop(5/13=1,5/36=2,99/5=2) pseudo=read geom=check guess=(re
 ad,tcheck) scf=(maxcycle=1)\\title\\0,1\O,0,-1.52123164,0.26123019,0.1
 0755043\C,0,-1.04882281,-1.09980982,0.14305248\C,0,0.36009144,-0.63138
 974,-0.28074894\C,0,-0.26935129,0.74610154,-0.18011534\C,0,0.13041264,
 1.99360743,-0.30241683\C,0,1.46293028,-0.93496384,0.61549826\N,0,2.326
 66335,-1.18971022,1.32556235\H,0,-0.56318213,2.81211817,-0.16921332\H,
 0,-1.11098628,-1.52047725,1.14660975\H,0,-1.57361932,-1.7287804,-0.575

 Normal termination of Gaussian 16 at Wed Apr  9 16:24:54 2025.
