 Gaussian 16, Revision C.01,

 ----------------------------------------------------------------------
 #t hf aug-cc-pvdz symm=none int=(grid=ultrafine) guess=(read,tcheck) s
 table=(opt,rrhf)
 ----------------------------------------------------------------------
 -----
 title
 -----
 Symbolic Z-matrix:
 Charge =  0 Multiplicity = 1

 SCF Done:  E(RHF) =  -260.103539614     A.U. after   14 cycles
 Normal termination of Gaussian 16 at Wed Apr  9 03:02:32 2025.
 Gaussian 16:  ES64L-G16RevC.01  3-Jul-2019

 ----------------------------------------------------------------------
 #t hf aug-cc-pvdz iop(5/13=1,5/36=2,99/5=2) pseudo=read geom=check gue
 ss=(read,tcheck) scf=(maxcycle=1)
 ----------------------------------------------------------------------
 -----
 title
 -----
 Structure from the checkpoint file:  "Grambow2020_b97d3_006466_reverse_mol2.chk"
 Charge =  0 Multiplicity = 1

                         Standard orientation:
 ---------------------------------------------------------------------
 Center     Atomic      Atomic             Coordinates (Angstroms)
 Number     Number       Type             X           Y           Z
 ---------------------------------------------------------------------
      1          6           0       -0.725043    0.001734    0.000522
      2          6           0       -2.031739    0.000113    0.000468
      3          6           0       -3.328262   -0.002718   -0.000470
      4          7           0        2.953302   -0.002942    0.000066
      5          6           0        0.542107    0.004108   -0.000485
      6          7           0        1.797786    0.000167   -0.000095
 ---------------------------------------------------------------------

 SCF Done:  E(RHF) =  -260.179797297     A.U. after    2 cycles

 The electronic state is 1-A.
 Alpha  occ. eigenvalues --  -15.90419 -15.82461 -11.40323 -11.34030 -11.31475
 Alpha  occ. eigenvalues --  -11.24494  -1.47963  -1.20002  -1.09568  -0.99122
 Alpha  occ. eigenvalues --   -0.85899  -0.72577  -0.72473  -0.72473  -0.51609
 Alpha  occ. eigenvalues --   -0.51609  -0.46412  -0.35773  -0.35773
 Alpha virt. eigenvalues --   -0.02192  -0.02192   0.04731   0.06082   0.06082
 Alpha virt. eigenvalues --    0.06647   0.08402   0.11389   0.12296   0.12296
 Alpha virt. eigenvalues --    0.14439   0.14439   0.15907   0.20213   0.20214

 Mulliken charges:
               1
     1  C    1.617031
     2  C   -0.393987
     3  C   -0.519133
     4  N   -0.109334
     5  C   -0.700542
     6  N    0.105965
 Sum of Mulliken charges =  -0.00000

 Dipole moment (field-independent basis, Debye):
    X=              5.4230    Y=              0.0014    Z=              0.0015  Tot=              5.4230

 Test job not archived.
 1\1\GINC-SE177\SP\RHF\Aug-CC-pVDZ\C4N2\OHZDE\09-Apr-2025\0\\#t hf aug-
 cc-pvdz iop(5/13=1,5/36=2,99/5=2) pseudo=read geom=check guess=(read,t
 check) scf=(maxcycle=1)\\title\\0,1\C,0,0.31286224,-0.1545556,0.500265
 42\C,0,0.99545857,-0.48296278,1.56500447\C,0,1.67177835,-0.80803121,2.
 62231366\N,0,-1.61642821,0.76994338,-2.49195524\C,0,-0.34830752,0.1649
 8355,-0.53241318\N,0,-1.00894442,0.47991266,-1.55276714\\Version=ES64L
 -G16RevC.01\State=1-A\HF=-260.1797973\RMSD=1.395e-02\Dipole=-1.1163534
 ,0.5356132,-1.7375252\Quadrupole=0.6457745,2.9084014,-3.5541759,1.4127

 Normal termination of Gaussian 16 at Wed Apr  9 03:02:34 2025.
