 Gaussian 16, Revision C.01,

 ----------------------------------------------------------------------
 #t hf aug-cc-pvdz symm=none int=(grid=ultrafine) guess=(read,tcheck) s
 table=(opt,rrhf)
 ----------------------------------------------------------------------
 -----
 title
 -----
 Symbolic Z-matrix:
 Charge =  0 Multiplicity = 1

 SCF Done:  E(RHF) =  -271.061488615     A.U. after   15 cycles

 1\1\GINC-SE231\Stability\RHF\Aug-CC-pVDZ\C5H12O1\OHZDE\09-Apr-2025\0\\
 #t hf aug-cc-pvdz symm=none int=(grid=ultrafine) guess=(read,tcheck) s
 table=(opt,rrhf)\\title\\0,1\C,0,-0.94862311,1.27163245,-0.23605966\C,
 0,-0.3269663,-0.11171957,-0.08493441\C,0,-0.94123208,-1.1412566,-1.023
 76417\C,0,-0.24659028,-0.55714957,1.35643022\C,0,1.99646575,0.06568044
 ,-0.48515152\O,0,2.40362334,0.85226892,0.56252599\H,0,-0.95837975,1.60
 40268,-1.28474223\H,0,-0.41299426,2.02031825,0.36628151\H,0,-1.9957485
 6,1.25655083,0.11499488\H,0,-0.91009007,-0.80804621,-2.07184905\H,0,-0

 Normal termination of Gaussian 16 at Wed Apr  9 14:15:35 2025.
 Gaussian 16:  ES64L-G16RevC.01  3-Jul-2019

 ----------------------------------------------------------------------
 #t hf aug-cc-pvdz iop(5/13=1,5/36=2,99/5=2) pseudo=read geom=check gue
 ss=(read,tcheck) scf=(maxcycle=1)
 ----------------------------------------------------------------------
 -----
 title
 -----
 Structure from the checkpoint file:  "Grambow2020_b97d3_006881_forward_mol1.chk"
 Charge =  0 Multiplicity = 1

                         Standard orientation:
 ---------------------------------------------------------------------
 Center     Atomic      Atomic             Coordinates (Angstroms)
 Number     Number       Type             X           Y           Z
 ---------------------------------------------------------------------
      1          6           0       -0.850923    1.463328   -0.412489
      2          6           0       -0.651219    0.011966    0.007781
      3          6           0       -1.712972   -0.919373   -0.561393
      4          6           0       -0.429528   -0.135991    1.494845
      5          6           0        1.496651   -0.680956   -0.696841
      6          8           0        2.313644    0.117640    0.062695
      7          1           0       -0.964188    1.562362   -1.502296
      8          1           0       -0.011201    2.094777   -0.086325
      9          1           0       -1.766644    1.869595    0.052635
     10          1           0       -1.787636   -0.833128   -1.655682
     11          1           0       -1.506616   -1.969625   -0.312113
     12          1           0       -2.706640   -0.669776   -0.145753
     13          1           0       -1.265350    0.333203    2.048085
     14          1           0       -0.382559   -1.191382    1.794916
     15          1           0        0.498782    0.362196    1.809084
     16          1           0        1.359722   -1.611046   -0.117118
     17          1           0        0.406432   -0.236762   -0.910640
     18          1           0        2.504678    0.914627   -0.467770
 ---------------------------------------------------------------------

 SCF Done:  E(RHF) =  -271.147456084     A.U. after    2 cycles

 The electronic state is 1-A.
 Alpha  occ. eigenvalues --  -20.59973 -11.29028 -11.27969 -11.24067 -11.23919
 Alpha  occ. eigenvalues --  -11.23314  -1.34792  -1.08888  -0.94085  -0.93868
 Alpha  occ. eigenvalues --   -0.89213  -0.76048  -0.69317  -0.63964  -0.61924
 Alpha  occ. eigenvalues --   -0.61306  -0.60011  -0.56789  -0.54773  -0.54246
 Alpha  occ. eigenvalues --   -0.52550  -0.49563  -0.48792  -0.47714  -0.28958
 Alpha virt. eigenvalues --    0.03115   0.04264   0.04733   0.05015   0.06446
 Alpha virt. eigenvalues --    0.06801   0.06942   0.06971   0.07449   0.09035
 Alpha virt. eigenvalues --    0.09388   0.10010   0.11166   0.12694   0.13581

 Mulliken charges:
               1
     1  C    0.800888
     2  C   -3.033715
     3  C    0.908446
     4  C    1.114227
     5  C    0.419091
     6  O   -0.532034
     7  H   -0.063774
     8  H   -0.039820
     9  H   -0.038405
    10  H   -0.073006
    11  H   -0.071671
    12  H    0.041124
    13  H    0.079728
    14  H   -0.079490
    15  H    0.048184
    16  H   -0.091688
    17  H    0.361404
    18  H    0.250511
 Sum of Mulliken charges =  -0.00000

 Dipole moment (field-independent basis, Debye):
    X=             -1.8686    Y=              1.2313    Z=              0.3604  Tot=              2.2667

 Test job not archived.
 1\1\GINC-SE231\SP\RHF\Aug-CC-pVDZ\C5H12O1\OHZDE\09-Apr-2025\0\\#t hf a
 ug-cc-pvdz iop(5/13=1,5/36=2,99/5=2) pseudo=read geom=check guess=(rea
 d,tcheck) scf=(maxcycle=1)\\title\\0,1\C,0,-0.94862311,1.27163245,-0.2
 3605966\C,0,-0.3269663,-0.11171957,-0.08493441\C,0,-0.94123208,-1.1412
 566,-1.02376417\C,0,-0.24659028,-0.55714957,1.35643022\C,0,1.99646575,
 0.06568044,-0.48515152\O,0,2.40362334,0.85226892,0.56252599\H,0,-0.958
 37975,1.6040268,-1.28474223\H,0,-0.41299426,2.02031825,0.36628151\H,0,
 -1.99574856,1.25655083,0.11499488\H,0,-0.91009007,-0.80804621,-2.07184

 Normal termination of Gaussian 16 at Wed Apr  9 14:15:41 2025.
