 Gaussian 16, Revision C.01,

 ----------------------------------------------------------------------
 #t hf aug-cc-pvdz symm=none int=(grid=ultrafine) guess=(read,tcheck) s
 table=(opt,rrhf)
 ----------------------------------------------------------------------
 -----
 title
 -----
 Symbolic Z-matrix:
 Charge =  0 Multiplicity = 1

 SCF Done:  E(RHF) =  -318.734810464     A.U. after   14 cycles
 Normal termination of Gaussian 16 at Wed Apr  9 15:29:53 2025.
 Gaussian 16:  ES64L-G16RevC.01  3-Jul-2019

 ----------------------------------------------------------------------
 #t hf aug-cc-pvdz iop(5/13=1,5/36=2,99/5=2) pseudo=read geom=check gue
 ss=(read,tcheck) scf=(maxcycle=1)
 ----------------------------------------------------------------------
 -----
 title
 -----
 Structure from the checkpoint file:  "Grambow2020_wb97xd3_006935_reverse_mol2.chk"
 Charge =  0 Multiplicity = 1

                         Standard orientation:
 ---------------------------------------------------------------------
 Center     Atomic      Atomic             Coordinates (Angstroms)
 Number     Number       Type             X           Y           Z
 ---------------------------------------------------------------------
      1          7           0       -2.961900    0.475202   -0.003345
      2          6           0       -1.680282    0.382701    0.364402
      3          6           0        1.831514    1.161888   -0.398029
      4          6           0        1.208703   -0.040911   -0.111846
      5          7           0        2.639373   -0.062101    0.172847
      6          6           0        0.291283   -0.988159    0.031183
      7          7           0       -1.087594   -0.712918   -0.118328
      8          1           0       -3.440678   -0.185493   -0.607935
      9          1           0       -3.501114    1.255236    0.317781
     10          1           0        1.766196    1.962087    0.334168
     11          1           0        3.279422   -0.503976   -0.468774
     12          1           0        2.888510   -0.148535    1.149435
     13          1           0        0.570497   -1.998579    0.301142
     14          1           0       -1.599292   -1.375132   -0.698294
 ---------------------------------------------------------------------

 SCF Done:  E(RHF) =  -318.830715644     A.U. after    2 cycles

 The electronic state is 1-A.
 Alpha  occ. eigenvalues --  -15.70753 -15.64369 -15.63437 -11.28970 -11.26474
 Alpha  occ. eigenvalues --  -11.25943 -11.22675  -1.27489  -1.23969  -1.14250
 Alpha  occ. eigenvalues --   -0.99350  -0.93320  -0.82939  -0.75094  -0.73326
 Alpha  occ. eigenvalues --   -0.70903  -0.68620  -0.65663  -0.60852  -0.52479
 Alpha  occ. eigenvalues --   -0.50976  -0.50363  -0.43274  -0.37758  -0.34152
 Alpha  occ. eigenvalues --   -0.27234
 Alpha virt. eigenvalues --    0.02593   0.03177   0.04011   0.05008   0.05900
 Alpha virt. eigenvalues --    0.06392   0.08605   0.10223   0.11149   0.12217
 Alpha virt. eigenvalues --    0.13148   0.13926   0.14274   0.14697   0.15226

 Mulliken charges:
               1
     1  N   -0.047764
     2  C    0.146027
     3  C   -0.085976
     4  C    0.051920
     5  N   -0.148960
     6  C    1.106580
     7  N   -0.397552
     8  H   -0.063166
     9  H   -0.000335
    10  H   -0.188929
    11  H    0.044648
    12  H    0.015925
    13  H   -0.344075
    14  H   -0.088343
 Sum of Mulliken charges =  -0.00000

 Dipole moment (field-independent basis, Debye):
    X=              0.2741    Y=             -3.6389    Z=              0.6790  Tot=              3.7119

 Test job not archived.
 1\1\GINC-SE113\SP\RHF\Aug-CC-pVDZ\C4H7N3\OHZDE\09-Apr-2025\0\\#t hf au
 g-cc-pvdz iop(5/13=1,5/36=2,99/5=2) pseudo=read geom=check guess=(read
 ,tcheck) scf=(maxcycle=1)\\title\\0,1\N,0,-3.02012662,0.02175373,-0.15
 505974\C,0,-1.72865615,-0.2487761,-0.36779254\C,0,1.50950463,-1.247125
 58,1.06005792\C,0,1.15745699,-0.16142595,0.27657979\N,0,2.57601154,-0.
 48955967,0.18521902\C,0,0.45829753,0.79626216,-0.31790067\N,0,-0.95365
 877,0.83312184,-0.25132195\H,0,-3.3870988,0.93376347,0.09958916\H,0,-3
 .68775404,-0.72034118,-0.23184515\H,0,1.32288466,-2.24439358,0.6710512

 Normal termination of Gaussian 16 at Wed Apr  9 15:29:57 2025.
