 Gaussian 16, Revision C.01,

 ----------------------------------------------------------------------
 #t hf aug-cc-pvdz symm=none int=(grid=ultrafine) guess=(read,tcheck) s
 table=(opt,rrhf)
 ----------------------------------------------------------------------
 -----
 title
 -----
 Symbolic Z-matrix:
 Charge =  0 Multiplicity = 1

 SCF Done:  E(RHF) =  -269.475152854     A.U. after   17 cycles
 Normal termination of Gaussian 16 at Wed Apr  9 16:22:10 2025.
 Gaussian 16:  ES64L-G16RevC.01  3-Jul-2019

 ----------------------------------------------------------------------
 #t hf aug-cc-pvdz iop(5/13=1,5/36=2,99/5=2) pseudo=read geom=check gue
 ss=(read,tcheck) scf=(maxcycle=1)
 ----------------------------------------------------------------------
 -----
 title
 -----
 Structure from the checkpoint file:  "Grambow2020_wb97xd3_008145_forward_mol1.chk"
 Charge =  0 Multiplicity = 1

                         Standard orientation:
 ---------------------------------------------------------------------
 Center     Atomic      Atomic             Coordinates (Angstroms)
 Number     Number       Type             X           Y           Z
 ---------------------------------------------------------------------
      1          6           0       -2.230803    0.016119   -0.264079
      2          6           0       -0.752751    0.037720   -0.104028
      3          6           0        0.357782   -0.979435   -0.437775
      4          6           0        0.821884   -0.797871    0.961197
      5          6           0        1.418697   -0.003476   -0.800058
      6          6           0        0.841006    1.166466   -0.247754
      7          6           0        0.149156    0.589477    0.934668
      8          1           0       -2.678760    0.913608    0.163520
      9          1           0       -2.518190   -0.053977   -1.314399
     10          1           0       -2.657164   -0.849940    0.253766
     11          1           0        0.229375   -1.931454   -0.941580
     12          1           0        0.886123   -1.534239    1.759492
     13          1           0        2.207844   -0.118712   -1.529723
     14          1           0        1.064878    2.208926   -0.424636
     15          1           0       -0.163937    1.191790    1.780532
 ---------------------------------------------------------------------

 SCF Done:  E(RHF) =  -269.552938057     A.U. after    2 cycles

 The electronic state is 1-A.
 Alpha  occ. eigenvalues --  -11.27891 -11.25563 -11.24695 -11.24638 -11.24516
 Alpha  occ. eigenvalues --  -11.24344 -11.24332  -1.22843  -1.01170  -0.95231
 Alpha  occ. eigenvalues --   -0.93628  -0.81999  -0.72856  -0.71814  -0.69153
 Alpha  occ. eigenvalues --   -0.59972  -0.59708  -0.57009  -0.56101  -0.53932
 Alpha  occ. eigenvalues --   -0.53441  -0.47988  -0.44850  -0.29450  -0.24392
 Alpha virt. eigenvalues --    0.03132   0.04087   0.04271   0.04539   0.06066
 Alpha virt. eigenvalues --    0.06158   0.06640   0.07126   0.09717   0.10319
 Alpha virt. eigenvalues --    0.11915   0.12246   0.12841   0.13310   0.13754

 Mulliken charges:
               1
     1  C    0.686597
     2  C   -0.940825
     3  C    0.812426
     4  C    0.026554
     5  C    0.212006
     6  C    0.298818
     7  C    0.811198
     8  H    0.005190
     9  H    0.048314
    10  H    0.118891
    11  H   -0.439333
    12  H   -0.424884
    13  H   -0.362342
    14  H   -0.400518
    15  H   -0.452092
 Sum of Mulliken charges =  -0.00000

 Dipole moment (field-independent basis, Debye):
    X=             -1.8341    Y=             -0.1144    Z=             -0.2828  Tot=              1.8593

 Test job not archived.
 1\1\GINC-SE043\SP\RHF\Aug-CC-pVDZ\C7H8\OHZDE\09-Apr-2025\0\\#t hf aug-
 cc-pvdz iop(5/13=1,5/36=2,99/5=2) pseudo=read geom=check guess=(read,t
 check) scf=(maxcycle=1)\\title\\0,1\C,0,2.03386339,-0.11705261,-0.1743
 1163\C,0,0.5601932,-0.01148873,-0.00735668\C,0,-0.58596929,-1.04013154
 ,-0.09385091\C,0,-1.24455154,-0.09509923,-1.03122155\C,0,-1.46445989,-
 0.44673773,0.94798541\C,0,-0.85956094,0.83076347,1.04606197\C,0,-0.430
 86963,1.03160408,-0.36304408\H,0,2.50197982,0.86518776,-0.10315273\H,0
 ,2.47552428,-0.77227602,0.57821386\H,0,2.2766848,-0.53294983,-1.158217

 Normal termination of Gaussian 16 at Wed Apr  9 16:22:15 2025.
