 Gaussian 16, Revision C.01,

 ----------------------------------------------------------------------
 #t hf aug-cc-pvdz symm=none int=(grid=ultrafine) guess=(read,tcheck) s
 table=(opt,rrhf)
 ----------------------------------------------------------------------
 -----
 title
 -----
 Symbolic Z-matrix:
 Charge =  0 Multiplicity = 1

 SCF Done:  E(RHF) =  -343.551958960     A.U. after   16 cycles
 Normal termination of Gaussian 16 at Wed Apr  9 16:22:13 2025.
 Gaussian 16:  ES64L-G16RevC.01  3-Jul-2019

 ----------------------------------------------------------------------
 #t hf aug-cc-pvdz iop(5/13=1,5/36=2,99/5=2) pseudo=read geom=check gue
 ss=(read,tcheck) scf=(maxcycle=1)
 ----------------------------------------------------------------------
 -----
 title
 -----
 Structure from the checkpoint file:  "Grambow2020_wb97xd3_008130_reverse_mol1.chk"
 Charge =  0 Multiplicity = 1

                         Standard orientation:
 ---------------------------------------------------------------------
 Center     Atomic      Atomic             Coordinates (Angstroms)
 Number     Number       Type             X           Y           Z
 ---------------------------------------------------------------------
      1          6           0       -1.392451   -0.584993    0.896610
      2          8           0       -1.470607   -0.236073   -0.391077
      3          6           0       -0.583298    0.547103   -0.915799
      4          6           0        1.183742   -1.080648   -0.817654
      5          6           0        1.091830   -0.751604    0.489592
      6          6           0        1.084960    0.709999    0.774947
      7          8           0        0.134081    1.364338   -0.149623
      8          1           0       -2.127092   -1.337017    1.146467
      9          1           0       -1.195926    0.212366    1.599448
     10          1           0       -0.775243    0.844833   -1.935754
     11          1           0        1.550725   -0.368788   -1.546556
     12          1           0        1.073856   -2.103134   -1.157354
     13          1           0        1.039976   -1.461703    1.300378
     14          1           0        0.778890    0.952545    1.790921
     15          1           0        2.038318    1.195631    0.561872
 ---------------------------------------------------------------------

 SCF Done:  E(RHF) =  -343.662332200     A.U. after    2 cycles

 The electronic state is 1-A.
 Alpha  occ. eigenvalues --  -20.66912 -20.61595 -11.38770 -11.30981 -11.25894
 Alpha  occ. eigenvalues --  -11.24920 -11.22822  -1.46451  -1.36753  -1.07046
 Alpha  occ. eigenvalues --   -1.01043  -0.93914  -0.82727  -0.77322  -0.75765
 Alpha  occ. eigenvalues --   -0.72347  -0.69462  -0.65724  -0.63610  -0.60624
 Alpha  occ. eigenvalues --   -0.58201  -0.57451  -0.53261  -0.50932  -0.49167
 Alpha  occ. eigenvalues --   -0.35856  -0.25155
 Alpha virt. eigenvalues --    0.03475   0.04276   0.04620   0.04925   0.06087
 Alpha virt. eigenvalues --    0.06530   0.06858   0.07881   0.09735   0.10295
 Alpha virt. eigenvalues --    0.11764   0.12484   0.12611   0.13578   0.14468

 Mulliken charges:
               1
     1  C    0.607524
     2  O   -0.318451
     3  C    0.902346
     4  C    0.453615
     5  C    0.484523
     6  C    0.882041
     7  O   -0.624969
     8  H   -0.374731
     9  H   -0.221989
    10  H   -0.383419
    11  H   -0.234181
    12  H   -0.360230
    13  H   -0.398671
    14  H   -0.247140
    15  H   -0.166269
 Sum of Mulliken charges =  -0.00000

 Dipole moment (field-independent basis, Debye):
    X=              0.9885    Y=              0.4176    Z=             -0.1420  Tot=              1.0824

 Test job not archived.
 1\1\GINC-SE125\SP\RHF\Aug-CC-pVDZ\C5H8O2\OHZDE\09-Apr-2025\0\\#t hf au
 g-cc-pvdz iop(5/13=1,5/36=2,99/5=2) pseudo=read geom=check guess=(read
 ,tcheck) scf=(maxcycle=1)\\title\\0,1\C,0,-1.45116523,1.01672695,0.293
 38509\O,0,-0.94514108,1.06740176,-0.94247977\C,0,0.30664824,0.81227326
 ,-1.15212081\C,0,0.10469727,-1.53209697,-0.65736932\C,0,0.01088759,-1.
 01804472,0.588648\C,0,1.06268122,-0.02555007,0.9442346\O,0,1.19527041,
 0.93758315,-0.1701949\H,0,-2.52591798,1.12846878,0.28410261\H,0,-0.878
 02969,1.50685309,1.06777248\H,0,0.64533819,0.96319,-2.166176\H,0,1.033

 Normal termination of Gaussian 16 at Wed Apr  9 16:22:19 2025.
