 Gaussian 16, Revision C.01,

 ----------------------------------------------------------------------
 #t hf aug-cc-pvdz symm=none int=(grid=ultrafine) guess=(read,tcheck) s
 table=(opt,rrhf)
 ----------------------------------------------------------------------
 -----
 title
 -----
 Symbolic Z-matrix:
 Charge =  0 Multiplicity = 1

 SCF Done:  E(RHF) =  -302.696847452     A.U. after   16 cycles
 Normal termination of Gaussian 16 at Wed Apr  9 03:34:30 2025.
 Gaussian 16:  ES64L-G16RevC.01  3-Jul-2019

 ----------------------------------------------------------------------
 #t hf aug-cc-pvdz iop(5/13=1,5/36=2,99/5=2) pseudo=read geom=check gue
 ss=(read,tcheck) scf=(maxcycle=1)
 ----------------------------------------------------------------------
 -----
 title
 -----
 Structure from the checkpoint file:  "Grambow2020_wb97xd3_007173_forward_mol1.chk"
 Charge =  0 Multiplicity = 1

                         Standard orientation:
 ---------------------------------------------------------------------
 Center     Atomic      Atomic             Coordinates (Angstroms)
 Number     Number       Type             X           Y           Z
 ---------------------------------------------------------------------
      1          6           0       -1.826440    1.450652   -0.174400
      2          6           0       -1.181499    0.243829    0.448508
      3          6           0       -1.400460   -1.165742    0.064635
      4          7           0       -0.311197   -0.567954   -0.393339
      5          6           0        0.990993   -0.892522   -0.290095
      6          6           0        1.922611    0.160583   -0.055927
      7          7           0        2.678376    0.997549    0.173197
      8          1           0       -2.118626    1.247127   -1.204772
      9          1           0       -1.142704    2.301647   -0.163480
     10          1           0       -2.718408    1.727964    0.389750
     11          1           0       -0.820189    0.380782    1.470935
     12          1           0       -0.430790   -1.983528    1.160710
     13          1           0       -2.135896   -1.831813   -0.355199
     14          1           0        0.431412   -1.885483    1.149254
     15          1           0        1.333715   -1.744674   -0.862531
 ---------------------------------------------------------------------

 SCF Done:  E(RHF) =  -302.790042571     A.U. after    2 cycles

 The electronic state is 1-A.
 Alpha  occ. eigenvalues --  -15.71563 -15.63623 -11.32660 -11.32177 -11.31935
 Alpha  occ. eigenvalues --  -11.28819 -11.25094  -1.34714  -1.19375  -1.08530
 Alpha  occ. eigenvalues --   -1.00403  -0.85574  -0.84426  -0.75929  -0.70985
 Alpha  occ. eigenvalues --   -0.69230  -0.60704  -0.60045  -0.56734  -0.54801
 Alpha  occ. eigenvalues --   -0.52718  -0.49858  -0.49319  -0.46806  -0.43566
 Alpha  occ. eigenvalues --   -0.31094
 Alpha virt. eigenvalues --    0.02633   0.03470   0.04317   0.04768   0.05281
 Alpha virt. eigenvalues --    0.06607   0.07218   0.07737   0.08598   0.09330
 Alpha virt. eigenvalues --    0.11279   0.11800   0.12800   0.13272   0.14028

 Mulliken charges:
               1
     1  C    0.205531
     2  C    0.432537
     3  C    0.315177
     4  N   -0.377691
     5  C    0.839445
     6  C   -0.591624
     7  N   -0.164029
     8  H   -0.047865
     9  H    0.028389
    10  H    0.063130
    11  H   -0.403436
    12  H    0.323328
    13  H   -0.343882
    14  H   -0.005175
    15  H   -0.273836
 Sum of Mulliken charges =  -0.00000

 Dipole moment (field-independent basis, Debye):
    X=             -4.5227    Y=             -1.6363    Z=             -1.1698  Tot=              4.9498

 Test job not archived.
 1\1\GINC-SE073\SP\RHF\Aug-CC-pVDZ\C5H8N2\OHZDE\09-Apr-2025\0\\#t hf au
 g-cc-pvdz iop(5/13=1,5/36=2,99/5=2) pseudo=read geom=check guess=(read
 ,tcheck) scf=(maxcycle=1)\\title\\0,1\C,0,-1.78487328,-1.06871419,0.25
 055126\C,0,-0.82702557,-0.05406982,-0.30927851\C,0,-0.55481999,1.29155
 572,0.23605547\N,0,0.3108333,0.32969891,0.51723379\C,0,1.63862581,0.24
 174091,0.31491218\C,0,2.16402009,-1.01026251,-0.11893821\N,0,2.5933071
 5,-2.00455843,-0.50788118\H,0,-1.92878617,-0.91861527,1.32070144\H,0,-
 1.4140619,-2.08182287,0.08347384\H,0,-2.75304641,-0.97844464,-0.244692

 Normal termination of Gaussian 16 at Wed Apr  9 03:34:35 2025.
