 Gaussian 16, Revision C.01,

 ----------------------------------------------------------------------
 #t hf aug-cc-pvdz symm=none int=(grid=ultrafine) guess=(read,tcheck) s
 table=(opt,rrhf)
 ----------------------------------------------------------------------
 -----
 title
 -----
 Symbolic Z-matrix:
 Charge =  0 Multiplicity = 1

 SCF Done:  E(RHF) =  -307.906903125     A.U. after   13 cycles

 1\1\GINC-SE220\Stability\RHF\Aug-CC-pVDZ\C6H10O1\OHZDE\09-Apr-2025\0\\
 #t hf aug-cc-pvdz symm=none int=(grid=ultrafine) guess=(read,tcheck) s
 table=(opt,rrhf)\\title\\0,1\C,0,-2.22582284,0.25499692,0.17210604\C,0
 ,-0.73415474,0.17401523,0.40603197\C,0,-0.15721563,-1.20935892,0.12626
 898\C,0,1.34134574,-1.15300728,0.06687612\C,0,1.98345824,-0.00072301,-
 0.04955574\C,0,1.25109545,1.30066818,-0.18240604\O,0,-0.12235533,1.135
 17739,-0.43800034\H,0,-2.75179514,-0.4763595,0.78867652\H,0,-2.4514605
 8,0.05204667,-0.8766209\H,0,-2.59825024,1.24988823,0.41729469\H,0,-0.5

 Normal termination of Gaussian 16 at Wed Apr  9 16:52:23 2025.
 Gaussian 16:  ES64L-G16RevC.01  3-Jul-2019

 ----------------------------------------------------------------------
 #t hf aug-cc-pvdz iop(5/13=1,5/36=2,99/5=2) pseudo=read geom=check gue
 ss=(read,tcheck) scf=(maxcycle=1)
 ----------------------------------------------------------------------
 -----
 title
 -----
 Structure from the checkpoint file:  "Grambow2020_wb97xd3_009030_forward_mol2.chk"
 Charge =  0 Multiplicity = 1

                         Standard orientation:
 ---------------------------------------------------------------------
 Center     Atomic      Atomic             Coordinates (Angstroms)
 Number     Number       Type             X           Y           Z
 ---------------------------------------------------------------------
      1          6           0        2.354236   -0.076410   -0.009405
      2          6           0        0.880860   -0.005793    0.323052
      3          6           0        0.231811    1.306361   -0.103371
      4          6           0       -1.263833    1.199065   -0.040719
      5          6           0       -1.866951    0.023981    0.054418
      6          6           0       -1.095426   -1.261459    0.050245
      7          8           0        0.248932   -1.094716   -0.329203
      8          1           0        2.893508    0.750237    0.456994
      9          1           0        2.496901   -0.018745   -1.090262
     10          1           0        2.781778   -1.015028    0.343912
     11          1           0        0.743626   -0.120780    1.410440
     12          1           0        0.551352    1.564853   -1.119574
     13          1           0        0.578049    2.114887    0.547553
     14          1           0       -1.846889    2.113658   -0.067370
     15          1           0       -2.946781   -0.047803    0.132920
     16          1           0       -1.156274   -1.738343    1.042190
     17          1           0       -1.530912   -1.959676   -0.668495
 ---------------------------------------------------------------------

 SCF Done:  E(RHF) =  -308.003263570     A.U. after    2 cycles

 The electronic state is 1-A.
 Alpha  occ. eigenvalues --  -20.56497 -11.28623 -11.28585 -11.23738 -11.23451
 Alpha  occ. eigenvalues --  -11.23307 -11.22144  -1.33969  -1.07782  -1.05125
 Alpha  occ. eigenvalues --   -0.94219  -0.88798  -0.82334  -0.72982  -0.68769
 Alpha  occ. eigenvalues --   -0.66019  -0.63603  -0.59886  -0.58423  -0.56317
 Alpha  occ. eigenvalues --   -0.53904  -0.53395  -0.50956  -0.50047  -0.46011
 Alpha  occ. eigenvalues --   -0.41960  -0.35486
 Alpha virt. eigenvalues --    0.03482   0.04242   0.04484   0.05000   0.06067
 Alpha virt. eigenvalues --    0.06272   0.06699   0.07349   0.07937   0.08687
 Alpha virt. eigenvalues --    0.11807   0.12754   0.13106   0.14347   0.14573

 Mulliken charges:
               1
     1  C    0.523480
     2  C    0.146104
     3  C   -0.064208
     4  C    0.291410
     5  C    0.038435
     6  C    0.849106
     7  O   -0.699976
     8  H    0.000056
     9  H   -0.007922
    10  H   -0.035121
    11  H   -0.180726
    12  H    0.004553
    13  H    0.004085
    14  H   -0.385380
    15  H   -0.381819
    16  H    0.038040
    17  H   -0.140117
 Sum of Mulliken charges =  -0.00000

 Dipole moment (field-independent basis, Debye):
    X=             -0.4634    Y=              0.9703    Z=              0.9255  Tot=              1.4187

 Test job not archived.
 1\1\GINC-SE220\SP\RHF\Aug-CC-pVDZ\C6H10O1\OHZDE\09-Apr-2025\0\\#t hf a
 ug-cc-pvdz iop(5/13=1,5/36=2,99/5=2) pseudo=read geom=check guess=(rea
 d,tcheck) scf=(maxcycle=1)\\title\\0,1\C,0,-2.22582284,0.25499692,0.17
 210604\C,0,-0.73415474,0.17401523,0.40603197\C,0,-0.15721563,-1.209358
 92,0.12626898\C,0,1.34134574,-1.15300728,0.06687612\C,0,1.98345824,-0.
 00072301,-0.04955574\C,0,1.25109545,1.30066818,-0.18240604\O,0,-0.1223
 5533,1.13517739,-0.43800034\H,0,-2.75179514,-0.4763595,0.78867652\H,0,
 -2.45146058,0.05204667,-0.8766209\H,0,-2.59825024,1.24988823,0.4172946

 Normal termination of Gaussian 16 at Wed Apr  9 16:52:30 2025.
