 Gaussian 16, Revision C.01,

 ----------------------------------------------------------------------
 #t hf aug-cc-pvdz symm=none int=(grid=ultrafine) guess=(read,tcheck) s
 table=(opt,rrhf)
 ----------------------------------------------------------------------
 -----
 title
 -----
 Symbolic Z-matrix:
 Charge =  0 Multiplicity = 1

 SCF Done:  E(RHF) =  -302.785979041     A.U. after   14 cycles
 Normal termination of Gaussian 16 at Wed Apr  9 16:48:40 2025.
 Gaussian 16:  ES64L-G16RevC.01  3-Jul-2019

 ----------------------------------------------------------------------
 #t hf aug-cc-pvdz iop(5/13=1,5/36=2,99/5=2) pseudo=read geom=check gue
 ss=(read,tcheck) scf=(maxcycle=1)
 ----------------------------------------------------------------------
 -----
 title
 -----
 Structure from the checkpoint file:  "Grambow2020_wb97xd3_008909_reverse_mol2.chk"
 Charge =  0 Multiplicity = 1

                         Standard orientation:
 ---------------------------------------------------------------------
 Center     Atomic      Atomic             Coordinates (Angstroms)
 Number     Number       Type             X           Y           Z
 ---------------------------------------------------------------------
      1          6           0        1.984831   -0.691423   -0.183380
      2          7           0        0.563032   -0.686814   -0.499891
      3          6           0       -0.309266   -0.714639    0.699132
      4          6           0       -1.732781   -0.785916    0.182709
      5          6           0       -1.605686    0.338304   -0.524109
      6          6           0       -0.159992    0.538743   -0.062915
      7          7           0        0.540616    1.711348    0.291064
      8          1           0        2.241939   -0.172303    0.746204
      9          1           0        2.314071   -1.729881   -0.120557
     10          1           0        2.528117   -0.210367   -0.998198
     11          1           0        0.096920   -0.959741    1.670755
     12          1           0       -2.477811   -1.569678    0.211755
     13          1           0       -2.211864    0.817038   -1.282955
     14          1           0        0.624950    2.346468   -0.490557
     15          1           0        0.095513    2.196322    1.056718
 ---------------------------------------------------------------------

 SCF Done:  E(RHF) =  -302.875521036     A.U. after    2 cycles

 The electronic state is 1-A.
 Alpha  occ. eigenvalues --  -15.62381 -15.62264 -11.29970 -11.26485 -11.24549
 Alpha  occ. eigenvalues --  -11.24381 -11.24180  -1.27914  -1.14133  -1.07957
 Alpha  occ. eigenvalues --   -0.92923  -0.84975  -0.79051  -0.71893  -0.70558
 Alpha  occ. eigenvalues --   -0.66707  -0.62852  -0.59884  -0.58006  -0.53598
 Alpha  occ. eigenvalues --   -0.51624  -0.49219  -0.45573  -0.39448  -0.37195
 Alpha  occ. eigenvalues --   -0.32539
 Alpha virt. eigenvalues --    0.03214   0.03842   0.04157   0.04735   0.06206
 Alpha virt. eigenvalues --    0.06952   0.07253   0.08018   0.10676   0.11523
 Alpha virt. eigenvalues --    0.12012   0.12604   0.14022   0.14321   0.15229

 Mulliken charges:
               1
     1  C    0.807670
     2  N   -0.993393
     3  C    0.570297
     4  C    0.499090
     5  C    0.678277
     6  C   -0.002593
     7  N   -0.324112
     8  H   -0.089313
     9  H   -0.190547
    10  H   -0.214346
    11  H   -0.364810
    12  H   -0.208827
    13  H   -0.243320
    14  H    0.052647
    15  H    0.023279
 Sum of Mulliken charges =  -0.00000

 Dipole moment (field-independent basis, Debye):
    X=             -0.3656    Y=              1.3711    Z=              0.8354  Tot=              1.6467

 Test job not archived.
 1\1\GINC-SE097\SP\RHF\Aug-CC-pVDZ\C5H8N2\OHZDE\09-Apr-2025\0\\#t hf au
 g-cc-pvdz iop(5/13=1,5/36=2,99/5=2) pseudo=read geom=check guess=(read
 ,tcheck) scf=(maxcycle=1)\\title\\0,1\C,0,-1.26528466,-1.26986849,0.80
 891895\N,0,-0.01046355,-0.53034733,0.79325331\C,0,0.72739391,-0.645760
 64,-0.48798852\C,0,2.02684318,0.11083709,-0.29522354\C,0,1.39954452,1.
 24694869,0.0135841\C,0,0.02051185,0.60747018,-0.16597223\N,0,-1.168344
 91,1.12168773,-0.72575416\H,0,-1.77099938,-1.32125921,-0.16130216\H,0,
 -1.05760524,-2.28112751,1.16242428\H,0,-1.94512606,-0.79408688,1.51740

 Normal termination of Gaussian 16 at Wed Apr  9 16:48:58 2025.
