 Gaussian 16, Revision C.01,

 ----------------------------------------------------------------------
 #t hf aug-cc-pvdz symm=none int=(grid=ultrafine) guess=(read,tcheck) s
 table=(opt,rrhf)
 ----------------------------------------------------------------------
 -----
 title
 -----
 Symbolic Z-matrix:
 Charge =  0 Multiplicity = 1

 SCF Done:  E(RHF) =  -339.817381914     A.U. after   14 cycles
 Normal termination of Gaussian 16 at Wed Apr  9 15:35:05 2025.
 Gaussian 16:  ES64L-G16RevC.01  3-Jul-2019

 ----------------------------------------------------------------------
 #t hf aug-cc-pvdz iop(5/13=1,5/36=2,99/5=2) pseudo=read geom=check gue
 ss=(read,tcheck) scf=(maxcycle=1)
 ----------------------------------------------------------------------
 -----
 title
 -----
 Structure from the checkpoint file:  "Grambow2020_wb97xd3_007000_reverse_mol2.chk"
 Charge =  0 Multiplicity = 1

                         Standard orientation:
 ---------------------------------------------------------------------
 Center     Atomic      Atomic             Coordinates (Angstroms)
 Number     Number       Type             X           Y           Z
 ---------------------------------------------------------------------
      1          6           0        0.970192    1.718729   -0.194240
      2          6           0        0.426744    0.377393    0.210580
      3          8           0       -2.774589   -0.482313   -0.602693
      4          6           0        1.412404   -0.720587    0.540780
      5          7           0        2.352679   -0.941191   -0.552862
      6          6           0       -0.853814    0.152107    0.289281
      7          7           0       -2.051584   -0.027189    0.509349
      8          1           0        0.174153    2.448640   -0.328850
      9          1           0        1.518873    1.633797   -1.135153
     10          1           0        1.660137    2.094882    0.567198
     11          1           0       -3.663387   -0.562234   -0.248327
     12          1           0        0.866461   -1.647419    0.716115
     13          1           0        1.907248   -0.453641    1.487682
     14          1           0        2.831415   -1.822449   -0.432706
     15          1           0        3.060990   -0.220253   -0.578236
 ---------------------------------------------------------------------

 SCF Done:  E(RHF) =  -339.922262205     A.U. after    2 cycles

 The electronic state is 1-A.
 Alpha  occ. eigenvalues --  -20.61526 -15.69323 -15.61634 -11.29351 -11.28030
 Alpha  occ. eigenvalues --  -11.26569 -11.24605  -1.38176  -1.17400  -1.14825
 Alpha  occ. eigenvalues --   -1.05877  -0.93737  -0.87329  -0.73039  -0.70464
 Alpha  occ. eigenvalues --   -0.69012  -0.64044  -0.62522  -0.61737  -0.58905
 Alpha  occ. eigenvalues --   -0.57412  -0.54762  -0.51454  -0.50148  -0.41598
 Alpha  occ. eigenvalues --   -0.39181  -0.35085
 Alpha virt. eigenvalues --    0.03074   0.04148   0.04238   0.04789   0.06032
 Alpha virt. eigenvalues --    0.07102   0.07541   0.09117   0.10215   0.11001
 Alpha virt. eigenvalues --    0.12576   0.13933   0.14088   0.15310   0.15430

 Mulliken charges:
               1
     1  C    0.297309
     2  C    0.872294
     3  O   -0.497487
     4  C    0.671642
     5  N   -0.347976
     6  C   -0.860668
     7  N   -0.077078
     8  H   -0.096374
     9  H    0.066252
    10  H    0.029275
    11  H    0.194208
    12  H   -0.236871
    13  H   -0.004740
    14  H   -0.036058
    15  H    0.026274
 Sum of Mulliken charges =   0.00000

 Dipole moment (field-independent basis, Debye):
    X=              2.1297    Y=              0.2302    Z=              1.1876  Tot=              2.4493

 Test job not archived.
 1\1\GINC-SE026\SP\RHF\Aug-CC-pVDZ\C4H8N2O1\OHZDE\09-Apr-2025\0\\#t hf
 aug-cc-pvdz iop(5/13=1,5/36=2,99/5=2) pseudo=read geom=check guess=(re
 ad,tcheck) scf=(maxcycle=1)\\title\\0,1\C,0,0.36202348,1.56777961,-0.5
 3723053\C,0,0.29347754,0.11026342,-0.17758322\O,0,1.97193607,-1.052793
 29,2.55721366\C,0,-0.85464511,-0.70594301,-0.72689183\N,0,-2.14316687,
 -0.11064396,-0.38900549\C,0,1.19395223,-0.4525901,0.5768143\N,0,2.1136
 0618,-1.0240821,1.16235977\H,0,1.26867078,2.03205613,-0.15381632\H,0,-
 0.49676474,2.09885674,-0.1200735\H,0,0.34181706,1.69246857,-1.62412847

 Normal termination of Gaussian 16 at Wed Apr  9 15:35:11 2025.
