 Gaussian 16, Revision C.01,

 ----------------------------------------------------------------------
 #t hf aug-cc-pvdz symm=none int=(grid=ultrafine) guess=(read,tcheck) s
 table=(opt,rrhf)
 ----------------------------------------------------------------------
 -----
 title
 -----
 Symbolic Z-matrix:
 Charge =  0 Multiplicity = 1

 SCF Done:  E(RHF) =  -338.598093023     A.U. after   16 cycles
 Normal termination of Gaussian 16 at Wed Apr  9 16:30:02 2025.
 Gaussian 16:  ES64L-G16RevC.01  3-Jul-2019

 ----------------------------------------------------------------------
 #t hf aug-cc-pvdz iop(5/13=1,5/36=2,99/5=2) pseudo=read geom=check gue
 ss=(read,tcheck) scf=(maxcycle=1)
 ----------------------------------------------------------------------
 -----
 title
 -----
 Structure from the checkpoint file:  "Grambow2020_wb97xd3_008478_reverse_mol1.chk"
 Charge =  0 Multiplicity = 1

                         Standard orientation:
 ---------------------------------------------------------------------
 Center     Atomic      Atomic             Coordinates (Angstroms)
 Number     Number       Type             X           Y           Z
 ---------------------------------------------------------------------
      1          7           0       -0.689480    1.927293   -0.164387
      2          6           0       -0.206435    0.725325    0.123865
      3          6           0        0.849883   -0.140452    0.122097
      4          8           0        2.167235    0.209886   -0.072959
      5          6           0        0.302793   -1.464835   -0.102627
      6          6           0       -1.041335   -1.441055   -0.139502
      7          7           0       -1.437282   -0.070930    0.151249
      8          1           0       -1.755492    1.010807   -0.402314
      9          1           0       -0.064620    2.700072   -0.322276
     10          1           0        2.641758    0.125470    0.755511
     11          1           0        0.909720   -2.345551   -0.265636
     12          1           0       -1.774476   -2.226500   -0.198898
     13          1           0       -1.836875   -0.011828    1.086260
 ---------------------------------------------------------------------

 SCF Done:  E(RHF) =  -338.699493942     A.U. after    2 cycles

 The electronic state is 1-A.
 Alpha  occ. eigenvalues --  -20.58553 -15.69824 -15.58591 -11.32373 -11.26941
 Alpha  occ. eigenvalues --  -11.26801 -11.26511  -1.34219  -1.29562  -1.13190
 Alpha  occ. eigenvalues --   -1.05042  -0.94602  -0.81854  -0.79206  -0.74291
 Alpha  occ. eigenvalues --   -0.70691  -0.65206  -0.61762  -0.60401  -0.59459
 Alpha  occ. eigenvalues --   -0.56600  -0.50439  -0.45113  -0.44044  -0.40297
 Alpha  occ. eigenvalues --   -0.25869
 Alpha virt. eigenvalues --    0.02966   0.03709   0.04225   0.05166   0.06175
 Alpha virt. eigenvalues --    0.06966   0.10471   0.11186   0.11919   0.12423
 Alpha virt. eigenvalues --    0.13697   0.14198   0.14791   0.15051   0.15488

 Mulliken charges:
               1
     1  N   -0.537624
     2  C    0.153628
     3  C    0.636491
     4  O   -0.600012
     5  C    0.634827
     6  C    0.329207
     7  N   -0.562898
     8  H    0.438096
     9  H   -0.116480
    10  H    0.119921
    11  H   -0.327447
    12  H   -0.280877
    13  H    0.113167
 Sum of Mulliken charges =  -0.00000

 Dipole moment (field-independent basis, Debye):
    X=             -1.0843    Y=             -1.8618    Z=              2.0141  Tot=              2.9494

 Test job not archived.
 1\1\GINC-SE219\SP\RHF\Aug-CC-pVDZ\C4H6N2O1\OHZDE\09-Apr-2025\0\\#t hf
 aug-cc-pvdz iop(5/13=1,5/36=2,99/5=2) pseudo=read geom=check guess=(re
 ad,tcheck) scf=(maxcycle=1)\\title\\0,1\N,0,1.92672453,0.78071881,-0.0
 9594085\C,0,0.76181088,0.19235087,0.14478588\C,0,0.03576971,-0.9589342
 ,0.25786569\O,0,0.56316892,-2.22557662,0.37477251\C,0,-1.29933982,-0.6
 585095,-0.22278793\C,0,-1.42962679,0.64476305,-0.52793202\N,0,-0.17023
 715,1.27991387,-0.16866445\H,0,0.93313297,1.64161409,-0.64782283\H,0,2
 .78237064,0.25470686,-0.03473294\H,0,0.42017832,-2.54536237,1.26693379

 Normal termination of Gaussian 16 at Wed Apr  9 16:30:06 2025.
