 Gaussian 16, Revision C.01,

 ----------------------------------------------------------------------
 #t hf aug-cc-pvdz symm=none int=(grid=ultrafine) guess=(read,tcheck) s
 table=(opt,rrhf)
 ----------------------------------------------------------------------
 -----
 title
 -----
 Symbolic Z-matrix:
 Charge =  0 Multiplicity = 1

 SCF Done:  E(RHF) =  -360.818870649     A.U. after   15 cycles
 Normal termination of Gaussian 16 at Wed Apr  9 14:46:04 2025.
 Gaussian 16:  ES64L-G16RevC.01  3-Jul-2019

 ----------------------------------------------------------------------
 #t hf aug-cc-pvdz iop(5/13=1,5/36=2,99/5=2) pseudo=read geom=check gue
 ss=(read,tcheck) scf=(maxcycle=1)
 ----------------------------------------------------------------------
 -----
 title
 -----
 Structure from the checkpoint file:  "Grambow2020_wb97xd3_006606_forward_mol1.chk"
 Charge =  0 Multiplicity = 1

                         Standard orientation:
 ---------------------------------------------------------------------
 Center     Atomic      Atomic             Coordinates (Angstroms)
 Number     Number       Type             X           Y           Z
 ---------------------------------------------------------------------
      1          6           0       -2.202837    0.115017    0.598876
      2          6           0       -0.856575   -0.117324   -0.042821
      3          8           0       -0.668890   -1.254424   -0.617388
      4          6           0       -0.134928    1.102303   -0.721738
      5          7           0        1.179607    1.191757   -0.096265
      6          6           0        1.371433   -0.000592    0.647543
      7          8           0        1.580413   -1.118877    0.032872
      8          1           0       -2.188762    0.969052    1.277025
      9          1           0       -2.519392   -0.778705    1.134396
     10          1           0       -2.931405    0.315295   -0.191441
     11          1           0        0.030937   -0.128875    1.003499
     12          1           0        0.585540   -1.365579   -0.477518
     13          1           0       -0.064279    0.876480   -1.786902
     14          1           0       -0.683578    2.038538   -0.602093
     15          1           0        1.255608    1.996970    0.506938
     16          1           0        1.903344    0.124507    1.594922
 ---------------------------------------------------------------------

 SCF Done:  E(RHF) =  -360.929845357     A.U. after    2 cycles

 The electronic state is 1-A.
 Alpha  occ. eigenvalues --  -20.56266 -20.54313 -15.64452 -11.38635 -11.35446
 Alpha  occ. eigenvalues --  -11.28607 -11.24970  -1.38027  -1.31638  -1.21315
 Alpha  occ. eigenvalues --   -1.02558  -0.95736  -0.87925  -0.78712  -0.74873
 Alpha  occ. eigenvalues --   -0.73129  -0.67832  -0.63690  -0.62534  -0.60588
 Alpha  occ. eigenvalues --   -0.58868  -0.57215  -0.55211  -0.51442  -0.49479
 Alpha  occ. eigenvalues --   -0.46499  -0.41515  -0.38883
 Alpha virt. eigenvalues --    0.02360   0.03753   0.04026   0.05060   0.06285
 Alpha virt. eigenvalues --    0.06480   0.07297   0.08363   0.08510   0.09263
 Alpha virt. eigenvalues --    0.11432   0.12720   0.13393   0.13784   0.13938

 Mulliken charges:
               1
     1  C    0.564607
     2  C   -0.586034
     3  O   -0.822105
     4  C    0.871678
     5  N   -0.592292
     6  C    0.905174
     7  O   -0.688617
     8  H   -0.012924
     9  H   -0.030630
    10  H    0.049805
    11  H    0.425490
    12  H    0.475544
    13  H   -0.143774
    14  H   -0.162223
    15  H   -0.000399
    16  H   -0.253300
 Sum of Mulliken charges =  -0.00000

 Dipole moment (field-independent basis, Debye):
    X=             -1.6228    Y=              4.6067    Z=              2.5417  Tot=              5.5060

 Test job not archived.
 1\1\GINC-SE113\SP\RHF\Aug-CC-pVDZ\C4H9N1O2\OHZDE\09-Apr-2025\0\\#t hf
 aug-cc-pvdz iop(5/13=1,5/36=2,99/5=2) pseudo=read geom=check guess=(re
 ad,tcheck) scf=(maxcycle=1)\\title\\0,1\C,0,-1.66089731,-0.93806489,-0
 .55056954\C,0,-0.64030112,0.14059533,-0.28027859\O,0,-0.75836907,1.239
 0821,-0.94189389\C,0,-0.09277959,0.29742838,1.18424076\N,0,1.35891226,
 0.19818504,1.08442506\C,0,1.69076605,0.2828436,-0.29196521\O,0,1.58052
 421,1.4106145,-0.91488799\H,0,-1.3428101,-1.90621374,-0.16202371\H,0,-
 1.85047632,-1.01179846,-1.620313\H,0,-2.59580481,-0.65952746,-0.056719

 Normal termination of Gaussian 16 at Wed Apr  9 14:46:09 2025.
