 Gaussian 16, Revision C.01,

 ----------------------------------------------------------------------
 #t hf aug-cc-pvdz symm=none int=(grid=ultrafine) guess=(read,tcheck) s
 table=(opt,rrhf)
 ----------------------------------------------------------------------
 -----
 title
 -----
 Symbolic Z-matrix:
 Charge =  0 Multiplicity = 1

 SCF Done:  E(RHF) =  -355.833676997     A.U. after   15 cycles
 Normal termination of Gaussian 16 at Wed Apr  9 03:58:12 2025.
 Gaussian 16:  ES64L-G16RevC.01  3-Jul-2019

 ----------------------------------------------------------------------
 #t hf aug-cc-pvdz iop(5/13=1,5/36=2,99/5=2) pseudo=read geom=check gue
 ss=(read,tcheck) scf=(maxcycle=1)
 ----------------------------------------------------------------------
 -----
 title
 -----
 Structure from the checkpoint file:  "Grambow2020_wb97xd3_008721_forward_mol1.chk"
 Charge =  0 Multiplicity = 1

                         Standard orientation:
 ---------------------------------------------------------------------
 Center     Atomic      Atomic             Coordinates (Angstroms)
 Number     Number       Type             X           Y           Z
 ---------------------------------------------------------------------
      1          6           0       -2.344692   -0.544881   -0.098484
      2          7           0       -1.071881   -0.823595    0.017829
      3          6           0       -0.248091    0.239414   -0.086803
      4          7           0       -0.710996    1.445445   -0.094782
      5          6           0        1.250606   -0.012987   -0.005463
      6          8           0        2.029822    0.916073    0.014578
      7          7           0        1.586399   -1.313300    0.021906
      8          1           0       -2.694046    0.178367   -0.836394
      9          1           0       -2.565491    0.712647    1.021064
     10          1           0       -3.062924   -1.275892    0.262072
     11          1           0        0.040648    2.118128    0.045236
     12          1           0       -1.939097    1.262212    0.742045
     13          1           0        0.857008   -2.002776    0.084413
     14          1           0        2.553733   -1.570390    0.094772
 ---------------------------------------------------------------------

 SCF Done:  E(RHF) =  -355.943591465     A.U. after    2 cycles

 The electronic state is 1-A.
 Alpha  occ. eigenvalues --  -20.55039 -15.65706 -15.63506 -15.63224 -11.37935
 Alpha  occ. eigenvalues --  -11.34483 -11.34084  -1.36768  -1.27458  -1.19484
 Alpha  occ. eigenvalues --   -1.14879  -0.96233  -0.85777  -0.77033  -0.76309
 Alpha  occ. eigenvalues --   -0.71710  -0.67325  -0.65887  -0.65415  -0.61339
 Alpha  occ. eigenvalues --   -0.59718  -0.50719  -0.47493  -0.45291  -0.42990
 Alpha  occ. eigenvalues --   -0.40609  -0.38370
 Alpha virt. eigenvalues --    0.02825   0.03418   0.04591   0.05705   0.06765
 Alpha virt. eigenvalues --    0.07309   0.08123   0.09509   0.10316   0.11121
 Alpha virt. eigenvalues --    0.11845   0.12400   0.13599   0.14384   0.15020

 Mulliken charges:
               1
     1  C    0.588880
     2  N   -0.528653
     3  C    0.387164
     4  N   -0.463360
     5  C    0.649352
     6  O   -0.524419
     7  N   -0.103947
     8  H   -0.136372
     9  H    0.081242
    10  H   -0.294159
    11  H    0.042437
    12  H    0.258364
    13  H    0.038275
    14  H    0.005196
 Sum of Mulliken charges =   0.00000

 Dipole moment (field-independent basis, Debye):
    X=             -2.1660    Y=             -3.0620    Z=             -0.1866  Tot=              3.7553

 Test job not archived.
 1\1\GINC-SE162\SP\RHF\Aug-CC-pVDZ\C3H7N3O1\OHZDE\09-Apr-2025\0\\#t hf
 aug-cc-pvdz iop(5/13=1,5/36=2,99/5=2) pseudo=read geom=check guess=(re
 ad,tcheck) scf=(maxcycle=1)\\title\\0,1\C,0,1.72079009,0.6235317,-0.70
 663249\N,0,0.43704886,0.7415772,-0.48452613\C,0,-0.15383571,-0.3616751
 6,0.01871848\N,0,0.54648004,-1.36627874,0.4300386\C,0,-1.65543066,-0.3
 1443166,0.26243237\O,0,-2.21784719,-1.23745947,0.81237784\N,0,-2.24972
 224,0.80017119,-0.19451295\H,0,2.13415438,-0.29485511,-1.12537142\H,0,
 2.31385258,0.0406321,0.77391535\H,0,2.30476518,1.53206501,-0.82400279\

 Normal termination of Gaussian 16 at Wed Apr  9 03:58:16 2025.
