 Gaussian 16, Revision C.01,

 ----------------------------------------------------------------------
 #t hf aug-cc-pvdz symm=none int=(grid=ultrafine) guess=(read,tcheck) s
 table=(opt,rrhf)
 ----------------------------------------------------------------------
 -----
 title
 -----
 Symbolic Z-matrix:
 Charge =  0 Multiplicity = 1

 SCF Done:  E(RHF) =  -380.781059759     A.U. after   13 cycles
 Normal termination of Gaussian 16 at Wed Apr  9 16:30:04 2025.
 Gaussian 16:  ES64L-G16RevC.01  3-Jul-2019

 ----------------------------------------------------------------------
 #t hf aug-cc-pvdz iop(5/13=1,5/36=2,99/5=2) pseudo=read geom=check gue
 ss=(read,tcheck) scf=(maxcycle=1)
 ----------------------------------------------------------------------
 -----
 title
 -----
 Structure from the checkpoint file:  "Grambow2020_wb97xd3_008483_forward_mol2.chk"
 Charge =  0 Multiplicity = 1

                         Standard orientation:
 ---------------------------------------------------------------------
 Center     Atomic      Atomic             Coordinates (Angstroms)
 Number     Number       Type             X           Y           Z
 ---------------------------------------------------------------------
      1          6           0        2.913925   -0.168809    0.006744
      2          8           0        1.606925   -0.739469    0.000132
      3          6           0        0.592067    0.133911   -0.004968
      4          8           0        0.746536    1.326458   -0.004410
      5          6           0       -0.735402   -0.572356   -0.009273
      6          6           0       -1.901730    0.391392    0.004235
      7          8           0       -3.083423   -0.388258    0.004174
      8          1           0        3.060264    0.444175    0.896224
      9          1           0        3.603085   -1.009164    0.005815
     10          1           0        3.067279    0.450133   -0.877444
     11          1           0       -0.785626   -1.217287   -0.889851
     12          1           0       -0.780926   -1.237318    0.856347
     13          1           0       -1.844150    1.030645    0.892072
     14          1           0       -1.853936    1.044602   -0.873966
     15          1           0       -3.839459    0.199544    0.011210
 ---------------------------------------------------------------------

 SCF Done:  E(RHF) =  -380.905015027     A.U. after    2 cycles

 The electronic state is 1-A.
 Alpha  occ. eigenvalues --  -20.61900 -20.57739 -20.56260 -11.39406 -11.29795
 Alpha  occ. eigenvalues --  -11.29218 -11.25165  -1.42875  -1.33219  -1.32910
 Alpha  occ. eigenvalues --   -1.05997  -0.97705  -0.87020  -0.78347  -0.74247
 Alpha  occ. eigenvalues --   -0.69986  -0.69783  -0.67648  -0.66034  -0.60562
 Alpha  occ. eigenvalues --   -0.58001  -0.57898  -0.54007  -0.52819  -0.50925
 Alpha  occ. eigenvalues --   -0.48398  -0.46988  -0.46069
 Alpha virt. eigenvalues --    0.03380   0.03957   0.05155   0.05313   0.05901
 Alpha virt. eigenvalues --    0.06849   0.06947   0.07510   0.10410   0.12122
 Alpha virt. eigenvalues --    0.13325   0.14420   0.14545   0.14840   0.15358

 Mulliken charges:
               1
     1  C    0.790970
     2  O   -0.528534
     3  C    0.300240
     4  O   -0.443192
     5  C   -0.036795
     6  C    0.992341
     7  O   -0.567943
     8  H   -0.065940
     9  H   -0.265890
    10  H   -0.065267
    11  H    0.024090
    12  H    0.020919
    13  H   -0.151303
    14  H   -0.150394
    15  H    0.146699
 Sum of Mulliken charges =  -0.00000

 Dipole moment (field-independent basis, Debye):
    X=              0.3310    Y=             -0.2352    Z=              0.0127  Tot=              0.4062

 Test job not archived.
 1\1\GINC-SE043\SP\RHF\Aug-CC-pVDZ\C4H8O3\OHZDE\09-Apr-2025\0\\#t hf au
 g-cc-pvdz iop(5/13=1,5/36=2,99/5=2) pseudo=read geom=check guess=(read
 ,tcheck) scf=(maxcycle=1)\\title\\0,1\C,0,-2.8589994,-0.00371978,-0.21
 666892\O,0,-1.63055555,-0.21052944,0.47766548\C,0,-0.51852456,0.066822
 99,-0.214592\O,0,-0.52853996,0.46577341,-1.34894916\C,0,0.71399615,-0.
 18763946,0.60829711\C,0,1.98765548,0.09954267,-0.15631647\O,0,3.066781
 58,-0.18074554,0.71613712\H,0,-2.90950138,-0.63586193,-1.10333937\H,0,
 -3.64395836,-0.27018042,0.48616591\H,0,-2.95779982,1.0385879,-0.520359

 Normal termination of Gaussian 16 at Wed Apr  9 16:30:09 2025.
