 Gaussian 16, Revision C.01,

 ----------------------------------------------------------------------
 #t hf aug-cc-pvdz symm=none int=(grid=ultrafine) guess=(read,tcheck) s
 table=(opt,rrhf)
 ----------------------------------------------------------------------
 -----
 title
 -----
 Symbolic Z-matrix:
 Charge =  0 Multiplicity = 1

 SCF Done:  E(RHF) =  -337.581747437     A.U. after   15 cycles
 Normal termination of Gaussian 16 at Wed Apr  9 04:03:59 2025.
 Gaussian 16:  ES64L-G16RevC.01  3-Jul-2019

 ----------------------------------------------------------------------
 #t hf aug-cc-pvdz iop(5/13=1,5/36=2,99/5=2) pseudo=read geom=check gue
 ss=(read,tcheck) scf=(maxcycle=1)
 ----------------------------------------------------------------------
 -----
 title
 -----
 Structure from the checkpoint file:  "Grambow2020_wb97xd3_009183_reverse_mol2.chk"
 Charge =  0 Multiplicity = 1

                         Standard orientation:
 ---------------------------------------------------------------------
 Center     Atomic      Atomic             Coordinates (Angstroms)
 Number     Number       Type             X           Y           Z
 ---------------------------------------------------------------------
      1          8           0        2.180129   -0.033321   -0.303422
      2          6           0        1.029732   -0.042261    0.029819
      3          6           0        0.241591    1.215013    0.312833
      4          6           0       -1.178633    1.054854   -0.123338
      5          7           0       -1.744738   -0.074811   -0.262030
      6          6           0       -0.947984   -1.192364    0.068162
      7          7           0        0.316882   -1.247002    0.202582
      8          1           0        0.722552    2.076179   -0.149205
      9          1           0       -1.766033    1.947340   -0.335710
     10          1           0        0.249576    1.390915    1.397311
     11          1           0       -1.520369   -2.106629    0.206268
 ---------------------------------------------------------------------

 SCF Done:  E(RHF) =  -337.680907253     A.U. after    2 cycles

 The electronic state is 1-A.
 Alpha  occ. eigenvalues --  -20.57208 -15.66318 -15.64478 -11.38141 -11.36013
 Alpha  occ. eigenvalues --  -11.35035 -11.28710  -1.38228  -1.29460  -1.18618
 Alpha  occ. eigenvalues --   -1.06813  -0.92051  -0.86749  -0.74000  -0.72409
 Alpha  occ. eigenvalues --   -0.69120  -0.65903  -0.64284  -0.61735  -0.56186
 Alpha  occ. eigenvalues --   -0.53230  -0.50393  -0.46335  -0.42125  -0.41169
 Alpha virt. eigenvalues --    0.02299   0.03654   0.03952   0.04399   0.05185
 Alpha virt. eigenvalues --    0.08319   0.09678   0.10094   0.10994   0.11538
 Alpha virt. eigenvalues --    0.12809   0.13563   0.13925   0.14252   0.15120

 Mulliken charges:
               1
     1  O   -0.438697
     2  C    0.449113
     3  C    0.076477
     4  C    0.459461
     5  N   -0.472980
     6  C    0.709847
     7  N   -0.434215
     8  H   -0.004793
     9  H   -0.243792
    10  H    0.142182
    11  H   -0.242602
 Sum of Mulliken charges =  -0.00000

 Dipole moment (field-independent basis, Debye):
    X=             -3.4854    Y=              2.9735    Z=              1.2291  Tot=              4.7435

 Test job not archived.
 1\1\GINC-SE162\SP\RHF\Aug-CC-pVDZ\C4H4N2O1\OHZDE\09-Apr-2025\0\\#t hf
 aug-cc-pvdz iop(5/13=1,5/36=2,99/5=2) pseudo=read geom=check guess=(re
 ad,tcheck) scf=(maxcycle=1)\\title\\0,1\O,0,2.27086608,-0.94365606,-0.
 05020042\C,0,1.12749977,-0.63043718,0.1205384\C,0,0.67408059,0.8048970
 1,0.24792198\C,0,-0.67170237,0.98860291,-0.37501559\N,0,-1.49657178,0.
 03767807,-0.55161544\C,0,-1.07401313,-1.22237688,-0.07572282\N,0,0.103
 60052,-1.59379214,0.23446712\H,0,1.42079002,1.47723321,-0.17255224\H,0
 ,-0.96881881,1.9857986,-0.69749664\H,0,0.59360129,1.04818624,1.3163002

 Normal termination of Gaussian 16 at Wed Apr  9 04:04:03 2025.
