 Gaussian 16, Revision C.01,

 ----------------------------------------------------------------------
 #t hf aug-cc-pvdz symm=none int=(grid=ultrafine) guess=(read,tcheck) s
 table=(opt,rrhf)
 ----------------------------------------------------------------------
 -----
 title
 -----
 Symbolic Z-matrix:
 Charge =  0 Multiplicity = 1

 SCF Done:  E(RHF) =  -287.903124034     A.U. after   15 cycles

 1\1\GINC-SE126\Stability\RHF\Aug-CC-pVDZ\C6H11N1\OHZDE\09-Apr-2025\0\\
 #t hf aug-cc-pvdz symm=none int=(grid=ultrafine) guess=(read,tcheck) s
 table=(opt,rrhf)\\title\\0,1\C,0,2.19561172,-0.30792081,-0.18292637\C,
 0,1.2572104,-0.68697523,0.73113235\C,0,-0.95051982,0.32083238,0.145277
 98\C,0,-1.69089801,-0.99592258,0.10434684\C,0,-0.73209147,1.06593118,-
 0.9945067\C,0,-0.96169674,1.01603004,1.39889004\N,0,-0.98506465,1.5598
 2106,2.41321769\H,0,2.90484919,0.47695397,0.05633492\H,0,1.44975596,0.
 57136098,-1.17870714\H,0,2.50110203,-0.99505873,-0.96501881\H,0,1.1729

 Normal termination of Gaussian 16 at Wed Apr  9 03:40:51 2025.
 Gaussian 16:  ES64L-G16RevC.01  3-Jul-2019

 ----------------------------------------------------------------------
 #t hf aug-cc-pvdz iop(5/13=1,5/36=2,99/5=2) pseudo=read geom=check gue
 ss=(read,tcheck) scf=(maxcycle=1)
 ----------------------------------------------------------------------
 -----
 title
 -----
 Structure from the checkpoint file:  "Grambow2020_wb97xd3_007527_forward_mol1.chk"
 Charge =  0 Multiplicity = 1

                         Standard orientation:
 ---------------------------------------------------------------------
 Center     Atomic      Atomic             Coordinates (Angstroms)
 Number     Number       Type             X           Y           Z
 ---------------------------------------------------------------------
      1          6           0       -2.461920    0.441233    0.074889
      2          6           0       -1.421096    0.613344   -0.789313
      3          6           0        0.624237   -0.494169    0.117882
      4          6           0        0.863416   -1.351905   -1.103085
      5          6           0        0.249358   -1.041692    1.326880
      6          6           0        1.294252    0.772861    0.144023
      7          7           0        1.843342    1.784595    0.147124
      8          1           0       -2.764066    1.248548    0.733101
      9          1           0       -1.893120   -0.379501    1.225488
     10          1           0       -3.220431   -0.306957   -0.130109
     11          1           0       -0.852515    1.532321   -0.798367
     12          1           0       -1.309780   -0.036810   -1.646089
     13          1           0        0.797645   -0.776174   -2.025824
     14          1           0        1.861143   -1.797376   -1.065712
     15          1           0        0.133622   -2.161375   -1.148346
     16          1           0        0.130327   -2.118629    1.390368
     17          1           0        0.526280   -0.544463    2.248744
     18          1           0       -1.201975   -0.789784    1.559207
 ---------------------------------------------------------------------

 SCF Done:  E(RHF) =  -287.995841493     A.U. after    2 cycles

 The electronic state is 1-A.
 Alpha  occ. eigenvalues --  -15.62333 -11.28920 -11.27803 -11.27748 -11.25864
 Alpha  occ. eigenvalues --  -11.25705 -11.25380  -1.18725  -1.10110  -1.04273
 Alpha  occ. eigenvalues --   -0.96447  -0.86432  -0.81886  -0.69468  -0.65927
 Alpha  occ. eigenvalues --   -0.64398  -0.63016  -0.60219  -0.57855  -0.57227
 Alpha  occ. eigenvalues --   -0.54960  -0.53084  -0.52390  -0.48069  -0.45442
 Alpha  occ. eigenvalues --   -0.37169  -0.32828
 Alpha virt. eigenvalues --    0.02740   0.04060   0.04206   0.04827   0.05924
 Alpha virt. eigenvalues --    0.06370   0.06619   0.07218   0.08060   0.08763
 Alpha virt. eigenvalues --    0.09572   0.10060   0.11063   0.11853   0.12776

 Mulliken charges:
               1
     1  C    0.045302
     2  C    0.880049
     3  C    0.418330
     4  C    0.668027
     5  C    0.055754
     6  C   -0.713326
     7  N   -0.224728
     8  H   -0.119917
     9  H   -0.015039
    10  H   -0.113691
    11  H   -0.299518
    12  H   -0.318243
    13  H   -0.059018
    14  H   -0.011333
    15  H   -0.045375
    16  H   -0.158609
    17  H   -0.143911
    18  H    0.155248
 Sum of Mulliken charges =   0.00000

 Dipole moment (field-independent basis, Debye):
    X=             -2.6831    Y=             -3.7601    Z=              0.0508  Tot=              4.6195

 Test job not archived.
 1\1\GINC-SE126\SP\RHF\Aug-CC-pVDZ\C6H11N1\OHZDE\09-Apr-2025\0\\#t hf a
 ug-cc-pvdz iop(5/13=1,5/36=2,99/5=2) pseudo=read geom=check guess=(rea
 d,tcheck) scf=(maxcycle=1)\\title\\0,1\C,0,2.19561172,-0.30792081,-0.1
 8292637\C,0,1.2572104,-0.68697523,0.73113235\C,0,-0.95051982,0.3208323
 8,0.14527798\C,0,-1.69089801,-0.99592258,0.10434684\C,0,-0.73209147,1.
 06593118,-0.9945067\C,0,-0.96169674,1.01603004,1.39889004\N,0,-0.98506
 465,1.55982106,2.41321769\H,0,2.90484919,0.47695397,0.05633492\H,0,1.4
 4975596,0.57136098,-1.17870714\H,0,2.50110203,-0.99505873,-0.96501881\

 Normal termination of Gaussian 16 at Wed Apr  9 03:40:58 2025.
