 Gaussian 16, Revision C.01,

 ----------------------------------------------------------------------
 #t hf aug-cc-pvdz symm=none int=(grid=ultrafine) guess=(read,tcheck) s
 table=(opt,rrhf)
 ----------------------------------------------------------------------
 -----
 title
 -----
 Symbolic Z-matrix:
 Charge =  0 Multiplicity = 1

 SCF Done:  E(RHF) =  -306.803084300     A.U. after   15 cycles

 1\1\GINC-SE084\Stability\RHF\Aug-CC-pVDZ\C4H10O2\OHZDE\09-Apr-2025\0\\
 #t hf aug-cc-pvdz symm=none int=(grid=ultrafine) guess=(read,tcheck) s
 table=(opt,rrhf)\\title\\0,1\O,0,-1.35160665,0.50105622,-1.4955634\C,0
 ,-1.48461357,-0.25921661,-0.30611008\C,0,-0.21378898,-0.95967332,0.183
 11661\C,0,0.85019231,0.14330362,1.75780747\C,0,1.1590551,0.29568379,-0
 .23852536\O,0,0.95003747,1.66924816,-0.22792776\H,0,-0.81531744,1.2861
 0976,-1.25501516\H,0,-1.88748176,0.35089783,0.52210091\H,0,-2.23177542
 ,-1.03733674,-0.52834409\H,0,0.20709397,-1.68878629,-0.51857853\H,0,-0

 Normal termination of Gaussian 16 at Wed Apr  9 14:19:25 2025.
 Gaussian 16:  ES64L-G16RevC.01  3-Jul-2019

 ----------------------------------------------------------------------
 #t hf aug-cc-pvdz iop(5/13=1,5/36=2,99/5=2) pseudo=read geom=check gue
 ss=(read,tcheck) scf=(maxcycle=1)
 ----------------------------------------------------------------------
 -----
 title
 -----
 Structure from the checkpoint file:  "Grambow2020_b97d3_007159_reverse_mol1.chk"
 Charge =  0 Multiplicity = 1

                         Standard orientation:
 ---------------------------------------------------------------------
 Center     Atomic      Atomic             Coordinates (Angstroms)
 Number     Number       Type             X           Y           Z
 ---------------------------------------------------------------------
      1          8           0       -1.859125   -0.689128   -0.034249
      2          6           0       -1.394566    0.618758   -0.324290
      3          6           0       -0.196013    1.098534    0.499277
      4          6           0        1.730794    0.868265   -0.531576
      5          6           0        0.852088   -0.483038    0.695542
      6          8           0        0.895357   -1.480295   -0.270939
      7          1           0       -1.172288   -1.300736   -0.374792
      8          1           0       -1.150263    0.733948   -1.395516
      9          1           0       -2.239309    1.292414   -0.110501
     10          1           0       -0.370748    1.143205    1.580293
     11          1           0        0.061082    2.115407    0.196796
     12          1           0        2.163227    1.701694    0.055545
     13          1           0        1.122654    1.312691   -1.342024
     14          1           0        0.014381   -0.811317    1.330114
     15          1           0        1.727255   -0.341991    1.337805
     16          1           0        1.600336   -1.105040   -0.869932
 ---------------------------------------------------------------------

 SCF Done:  E(RHF) =  -306.898695517     A.U. after    2 cycles

 The electronic state is 1-A.
 Alpha  occ. eigenvalues --  -20.58647 -20.57092 -11.34125 -11.30226 -11.28679
 Alpha  occ. eigenvalues --  -11.26519  -1.34528  -1.31776  -1.03857  -0.92942
 Alpha  occ. eigenvalues --   -0.87971  -0.82770  -0.73200  -0.69510  -0.66214
 Alpha  occ. eigenvalues --   -0.63783  -0.60372  -0.58999  -0.57416  -0.54691
 Alpha  occ. eigenvalues --   -0.51863  -0.50781  -0.46562  -0.42255  -0.34357
 Alpha virt. eigenvalues --    0.03114   0.04024   0.04468   0.04934   0.06627
 Alpha virt. eigenvalues --    0.06827   0.07251   0.07348   0.07429   0.10046
 Alpha virt. eigenvalues --    0.11005   0.12969   0.13191   0.14096   0.14424

 Mulliken charges:
               1
     1  O   -0.571581
     2  C    0.853097
     3  C   -0.071583
     4  C    0.081934
     5  C    0.871557
     6  O   -0.606730
     7  H    0.199102
     8  H   -0.116125
     9  H   -0.120215
    10  H   -0.130592
    11  H   -0.218258
    12  H   -0.121886
    13  H   -0.093204
    14  H   -0.161186
    15  H   -0.137602
    16  H    0.343272
 Sum of Mulliken charges =  -0.00000

 Dipole moment (field-independent basis, Debye):
    X=              0.9019    Y=              2.9532    Z=              0.4198  Tot=              3.1162

 Test job not archived.
 1\1\GINC-SE084\SP\RHF\Aug-CC-pVDZ\C4H10O2\OHZDE\09-Apr-2025\0\\#t hf a
 ug-cc-pvdz iop(5/13=1,5/36=2,99/5=2) pseudo=read geom=check guess=(rea
 d,tcheck) scf=(maxcycle=1)\\title\\0,1\O,0,-1.35160665,0.50105622,-1.4
 955634\C,0,-1.48461357,-0.25921661,-0.30611008\C,0,-0.21378898,-0.9596
 7332,0.18311661\C,0,0.85019231,0.14330362,1.75780747\C,0,1.1590551,0.2
 9568379,-0.23852536\O,0,0.95003747,1.66924816,-0.22792776\H,0,-0.81531
 744,1.28610976,-1.25501516\H,0,-1.88748176,0.35089783,0.52210091\H,0,-
 2.23177542,-1.03733674,-0.52834409\H,0,0.20709397,-1.68878629,-0.51857

 Normal termination of Gaussian 16 at Wed Apr  9 14:19:29 2025.
