 Gaussian 16, Revision C.01,

 ----------------------------------------------------------------------
 #t hf aug-cc-pvdz symm=none int=(grid=ultrafine) guess=(read,tcheck) s
 table=(opt,rrhf)
 ----------------------------------------------------------------------
 -----
 title
 -----
 Symbolic Z-matrix:
 Charge =  0 Multiplicity = 1

 SCF Done:  E(RHF) =  -306.863019154     A.U. after   16 cycles

 1\1\GINC-SE457\Stability\RHF\Aug-CC-pVDZ\C4H10O2\OHZDE\09-Apr-2025\0\\
 #t hf aug-cc-pvdz symm=none int=(grid=ultrafine) guess=(read,tcheck) s
 table=(opt,rrhf)\\title\\0,1\C,0,2.36462763,-0.07283256,-0.1674676\O,0
 ,1.77341782,-0.70662894,-1.10853675\C,0,-0.39314636,-0.49342923,-1.148
 53026\C,0,-0.83291518,-0.11704585,0.11988591\C,0,-1.75207954,1.0791739
 9,0.32627771\O,0,-1.09420174,-1.08382977,1.09318942\H,0,2.80853609,-0.
 64543235,0.67512754\H,0,2.87294321,0.89028324,-0.38805462\H,0,1.349869
 18,0.52373074,0.64790094\H,0,-0.32222015,-1.53490909,-1.44709938\H,0,-

 Normal termination of Gaussian 16 at Wed Apr  9 03:06:00 2025.
 Gaussian 16:  ES64L-G16RevC.01  3-Jul-2019

 ----------------------------------------------------------------------
 #t hf aug-cc-pvdz iop(5/13=1,5/36=2,99/5=2) pseudo=read geom=check gue
 ss=(read,tcheck) scf=(maxcycle=1)
 ----------------------------------------------------------------------
 -----
 title
 -----
 Structure from the checkpoint file:  "Grambow2020_b97d3_006573_forward_mol1.chk"
 Charge =  0 Multiplicity = 1

                         Standard orientation:
 ---------------------------------------------------------------------
 Center     Atomic      Atomic             Coordinates (Angstroms)
 Number     Number       Type             X           Y           Z
 ---------------------------------------------------------------------
      1          6           0        2.206664   -0.168471   -0.737920
      2          8           0        2.004893    0.009110    0.512916
      3          6           0       -0.069281   -0.172013    1.150138
      4          6           0       -0.899250    0.036799    0.049460
      5          6           0       -2.005220   -0.943583   -0.316716
      6          8           0       -1.278777    1.330580   -0.314340
      7          1           0        2.474423    0.703835   -1.372176
      8          1           0        2.608747   -1.139914   -1.097451
      9          1           0        0.926820   -0.344992   -1.355405
     10          1           0        0.235684    0.640294    1.802830
     11          1           0        0.056443   -1.179325    1.535398
     12          1           0        0.100092   -0.331603   -0.959206
     13          1           0       -2.296816   -0.845821   -1.369533
     14          1           0       -2.890863   -0.719629    0.296474
     15          1           0       -1.700198   -1.977308   -0.118656
     16          1           0       -0.720742    1.960550    0.179348
 ---------------------------------------------------------------------

 SCF Done:  E(RHF) =  -306.962052392     A.U. after    2 cycles

 The electronic state is 1-A.
 Alpha  occ. eigenvalues --  -20.59642 -20.54264 -11.31887 -11.31458 -11.28703
 Alpha  occ. eigenvalues --  -11.24965  -1.34940  -1.29328  -1.05731  -0.95295
 Alpha  occ. eigenvalues --   -0.86823  -0.80245  -0.70970  -0.68263  -0.66029
 Alpha  occ. eigenvalues --   -0.64196  -0.60536  -0.58263  -0.56287  -0.55860
 Alpha  occ. eigenvalues --   -0.54725  -0.53249  -0.43307  -0.42208  -0.33182
 Alpha virt. eigenvalues --    0.03070   0.04322   0.04527   0.04918   0.06192
 Alpha virt. eigenvalues --    0.06604   0.06975   0.07662   0.08371   0.08857
 Alpha virt. eigenvalues --    0.11349   0.13372   0.13677   0.14075   0.14431

 Mulliken charges:
               1
     1  C    0.479468
     2  O   -0.610276
     3  C    0.903825
     4  C   -0.326856
     5  C    0.496589
     6  O   -0.606424
     7  H   -0.039425
     8  H   -0.074453
     9  H   -0.615172
    10  H   -0.292011
    11  H   -0.279266
    12  H    0.841980
    13  H   -0.043790
    14  H    0.031671
    15  H   -0.043191
    16  H    0.177330
 Sum of Mulliken charges =  -0.00000

 Dipole moment (field-independent basis, Debye):
    X=             -1.0753    Y=             -0.8195    Z=             -0.1224  Tot=              1.3575

 Test job not archived.
 1\1\GINC-SE457\SP\RHF\Aug-CC-pVDZ\C4H10O2\OHZDE\09-Apr-2025\0\\#t hf a
 ug-cc-pvdz iop(5/13=1,5/36=2,99/5=2) pseudo=read geom=check guess=(rea
 d,tcheck) scf=(maxcycle=1)\\title\\0,1\C,0,2.36462763,-0.07283256,-0.1
 674676\O,0,1.77341782,-0.70662894,-1.10853675\C,0,-0.39314636,-0.49342
 923,-1.14853026\C,0,-0.83291518,-0.11704585,0.11988591\C,0,-1.75207954
 ,1.07917399,0.32627771\O,0,-1.09420174,-1.08382977,1.09318942\H,0,2.80
 853609,-0.64543235,0.67512754\H,0,2.87294321,0.89028324,-0.38805462\H,
 0,1.34986918,0.52373074,0.64790094\H,0,-0.32222015,-1.53490909,-1.4470

 Normal termination of Gaussian 16 at Wed Apr  9 03:06:05 2025.
