 Gaussian 16, Revision C.01,

 ----------------------------------------------------------------------
 #t hf aug-cc-pvdz symm=none int=(grid=ultrafine) guess=(read,tcheck) s
 table=(opt,rrhf)
 ----------------------------------------------------------------------
 -----
 title
 -----
 Symbolic Z-matrix:
 Charge =  0 Multiplicity = 1

 SCF Done:  E(RHF) =  -338.617143987     A.U. after   17 cycles
 Normal termination of Gaussian 16 at Wed Apr  9 16:33:00 2025.
 Gaussian 16:  ES64L-G16RevC.01  3-Jul-2019

 ----------------------------------------------------------------------
 #t hf aug-cc-pvdz iop(5/13=1,5/36=2,99/5=2) pseudo=read geom=check gue
 ss=(read,tcheck) scf=(maxcycle=1)
 ----------------------------------------------------------------------
 -----
 title
 -----
 Structure from the checkpoint file:  "Grambow2020_wb97xd3_008548_reverse_mol2.chk"
 Charge =  0 Multiplicity = 1

                         Standard orientation:
 ---------------------------------------------------------------------
 Center     Atomic      Atomic             Coordinates (Angstroms)
 Number     Number       Type             X           Y           Z
 ---------------------------------------------------------------------
      1          6           0       -1.696316   -1.593712   -0.142141
      2          6           0       -0.839783   -0.377319    0.031527
      3          7           0       -1.626818    0.862750    0.015864
      4          8           0       -1.001858    1.876666   -0.070251
      5          6           0        1.718804   -0.186071    0.505476
      6          7           0        2.759934   -0.110137   -0.411743
      7          6           0        0.450172   -0.337284    0.235908
      8          1           0       -2.227508   -1.555689   -1.095706
      9          1           0       -1.092401   -2.498154   -0.110507
     10          1           0       -2.449320   -1.642151    0.647144
     11          1           0        3.550079    0.425763   -0.094597
     12          1           0        2.481075    0.142522   -1.346025
     13          1           0        2.023867   -0.187594    1.548242
 ---------------------------------------------------------------------

 SCF Done:  E(RHF) =  -338.721084531     A.U. after    2 cycles

 The electronic state is 1-A.
 Alpha  occ. eigenvalues --  -20.63267 -15.75829 -15.64780 -11.31088 -11.28563
 Alpha  occ. eigenvalues --  -11.25718 -11.24249  -1.46767  -1.20266  -1.10924
 Alpha  occ. eigenvalues --   -1.00013  -0.94041  -0.87434  -0.75590  -0.72840
 Alpha  occ. eigenvalues --   -0.68582  -0.67661  -0.61942  -0.60729  -0.57536
 Alpha  occ. eigenvalues --   -0.56955  -0.55853  -0.51765  -0.40735  -0.37830
 Alpha  occ. eigenvalues --   -0.33834
 Alpha virt. eigenvalues --    0.02897   0.03872   0.03953   0.05938   0.06318
 Alpha virt. eigenvalues --    0.06486   0.06719   0.10341   0.10836   0.11784
 Alpha virt. eigenvalues --    0.12847   0.13336   0.14040   0.14772   0.15590

 Mulliken charges:
               1
     1  C    0.358341
     2  C    0.019169
     3  N   -0.349357
     4  O   -0.403541
     5  C    0.920223
     6  N   -0.365045
     7  C    0.072004
     8  H    0.037308
     9  H   -0.093827
    10  H    0.049500
    11  H    0.016021
    12  H   -0.017832
    13  H   -0.242963
 Sum of Mulliken charges =  -0.00000

 Dipole moment (field-independent basis, Debye):
    X=              2.4198    Y=             -1.6167    Z=              0.0363  Tot=              2.9104

 Test job not archived.
 1\1\GINC-SE037\SP\RHF\Aug-CC-pVDZ\C4H6N2O1\OHZDE\09-Apr-2025\0\\#t hf
 aug-cc-pvdz iop(5/13=1,5/36=2,99/5=2) pseudo=read geom=check guess=(re
 ad,tcheck) scf=(maxcycle=1)\\title\\0,1\C,0,-2.20195586,-0.09818894,0.
 02513279\C,0,-0.82764001,0.04472686,-0.5530133\N,0,-0.8347614,-0.00643
 542,-2.020928\O,0,0.23260824,-0.11832392,-2.54458613\C,0,1.4463839,0.5
 1983736,0.63469792\N,0,2.35714923,-0.396449,1.14649134\C,0,0.28843741,
 0.25122992,0.09435582\H,0,-2.64318196,-1.05378027,-0.26652045\H,0,-2.1
 7120293,-0.04059585,1.11116563\H,0,-2.85568739,0.69020019,-0.3535615\H

 Normal termination of Gaussian 16 at Wed Apr  9 16:33:04 2025.
