 Gaussian 16, Revision C.01,

 ----------------------------------------------------------------------
 #t hf aug-cc-pvdz symm=none int=(grid=ultrafine) guess=(read,tcheck) s
 table=(opt,rrhf)
 ----------------------------------------------------------------------
 -----
 title
 -----
 Symbolic Z-matrix:
 Charge =  0 Multiplicity = 1

 SCF Done:  E(RHF) =  -308.932032777     A.U. after   15 cycles

 1\1\GINC-SE168\Stability\RHF\Aug-CC-pVDZ\C6H12O1\OHZDE\09-Apr-2025\0\\
 #t hf aug-cc-pvdz symm=none int=(grid=ultrafine) guess=(read,tcheck) s
 table=(opt,rrhf)\\title\\0,1\C,0,2.7931108,-0.38895735,0.06806413\C,0,
 1.36027232,0.02563629,0.38988606\O,0,1.07717288,-0.39609813,1.7181378\
 C,0,0.98429196,1.34687644,-0.0728231\C,0,-1.67936543,1.16199939,-1.126
 58895\C,0,-2.05437552,0.33879559,-0.1548334\C,0,-1.96776697,-1.1523518
 1,-0.21888147\H,0,3.01189364,-0.20065139,-0.98089356\H,0,2.92864121,-1
 .44689265,0.29014173\H,0,3.48767645,0.18253454,0.68382338\H,0,0.701216

 Normal termination of Gaussian 16 at Wed Apr  9 15:54:27 2025.
 Gaussian 16:  ES64L-G16RevC.01  3-Jul-2019

 ----------------------------------------------------------------------
 #t hf aug-cc-pvdz iop(5/13=1,5/36=2,99/5=2) pseudo=read geom=check gue
 ss=(read,tcheck) scf=(maxcycle=1)
 ----------------------------------------------------------------------
 -----
 title
 -----
 Structure from the checkpoint file:  "Grambow2020_wb97xd3_007579_reverse_mol1.chk"
 Charge =  0 Multiplicity = 1

                         Standard orientation:
 ---------------------------------------------------------------------
 Center     Atomic      Atomic             Coordinates (Angstroms)
 Number     Number       Type             X           Y           Z
 ---------------------------------------------------------------------
      1          6           0       -2.638043    0.118008    0.762494
      2          6           0       -1.305559    0.053450    0.021681
      3          8           0       -1.382328   -1.016680   -0.911693
      4          6           0       -0.749230    1.337813   -0.355207
      5          6           0        2.075426    1.230036    0.144173
      6          6           0        2.150902   -0.019542   -0.297942
      7          6           0        1.993480   -1.237337    0.554886
      8          1           0       -2.581452    0.839450    1.574871
      9          1           0       -2.886966   -0.866030    1.158245
     10          1           0       -3.426799    0.420222    0.073498
     11          1           0       -0.523319   -0.165957    0.791607
     12          1           0       -0.677888   -0.906052   -1.553614
     13          1           0       -0.309467    1.268807   -1.368073
     14          1           0        1.901280    1.452431    1.191287
     15          1           0        2.199095    2.077517   -0.518134
     16          1           0        2.342193   -0.191522   -1.355376
     17          1           0        1.859624   -0.972541    1.604941
     18          1           0        2.869600   -1.885528    0.476679
     19          1           0        1.130862   -1.831928    0.237102
 ---------------------------------------------------------------------

 SCF Done:  E(RHF) =  -309.030000410     A.U. after    2 cycles

 The electronic state is 1-A.
 Alpha  occ. eigenvalues --  -20.57584 -11.29859 -11.27491 -11.25458 -11.24053
 Alpha  occ. eigenvalues --  -11.24001 -11.23135  -1.33143  -1.07239  -1.04655
 Alpha  occ. eigenvalues --   -0.94240  -0.92303  -0.78459  -0.77004  -0.69986
 Alpha  occ. eigenvalues --   -0.65489  -0.63060  -0.60849  -0.59834  -0.57875
 Alpha  occ. eigenvalues --   -0.54797  -0.54047  -0.53601  -0.50607  -0.50369
 Alpha  occ. eigenvalues --   -0.45995  -0.38158  -0.36316
 Alpha virt. eigenvalues --    0.03080   0.04067   0.04234   0.04841   0.05901
 Alpha virt. eigenvalues --    0.06214   0.06428   0.06877   0.07337   0.08190
 Alpha virt. eigenvalues --    0.08833   0.09347   0.10414   0.12033   0.12223

 Mulliken charges:
               1
     1  C    0.684124
     2  C   -0.084757
     3  O   -0.598895
     4  C   -0.067256
     5  C    0.666852
     6  C    0.499449
     7  C    0.320513
     8  H   -0.008765
     9  H   -0.012738
    10  H   -0.004784
    11  H    0.032063
    12  H    0.161523
    13  H   -0.123300
    14  H   -0.375702
    15  H   -0.376889
    16  H   -0.432888
    17  H   -0.122272
    18  H   -0.108154
    19  H   -0.048125
 Sum of Mulliken charges =   0.00000

 Dipole moment (field-independent basis, Debye):
    X=              1.3869    Y=             -0.6717    Z=             -0.4197  Tot=              1.5971

 Test job not archived.
 1\1\GINC-SE168\SP\RHF\Aug-CC-pVDZ\C6H12O1\OHZDE\09-Apr-2025\0\\#t hf a
 ug-cc-pvdz iop(5/13=1,5/36=2,99/5=2) pseudo=read geom=check guess=(rea
 d,tcheck) scf=(maxcycle=1)\\title\\0,1\C,0,2.7931108,-0.38895735,0.068
 06413\C,0,1.36027232,0.02563629,0.38988606\O,0,1.07717288,-0.39609813,
 1.7181378\C,0,0.98429196,1.34687644,-0.0728231\C,0,-1.67936543,1.16199
 939,-1.12658895\C,0,-2.05437552,0.33879559,-0.1548334\C,0,-1.96776697,
 -1.15235181,-0.21888147\H,0,3.01189364,-0.20065139,-0.98089356\H,0,2.9
 2864121,-1.44689265,0.29014173\H,0,3.48767645,0.18253454,0.68382338\H,

 Normal termination of Gaussian 16 at Wed Apr  9 15:54:34 2025.
