 Gaussian 16, Revision C.01,

 ----------------------------------------------------------------------
 #t hf aug-cc-pvdz symm=none int=(grid=ultrafine) guess=(read,tcheck) s
 table=(opt,rrhf)
 ----------------------------------------------------------------------
 -----
 title
 -----
 Symbolic Z-matrix:
 Charge =  0 Multiplicity = 1

 SCF Done:  E(RHF) =  -342.464776033     A.U. after   15 cycles
 Normal termination of Gaussian 16 at Wed Apr  9 16:55:13 2025.
 Gaussian 16:  ES64L-G16RevC.01  3-Jul-2019

 ----------------------------------------------------------------------
 #t hf aug-cc-pvdz iop(5/13=1,5/36=2,99/5=2) pseudo=read geom=check gue
 ss=(read,tcheck) scf=(maxcycle=1)
 ----------------------------------------------------------------------
 -----
 title
 -----
 Structure from the checkpoint file:  "Grambow2020_wb97xd3_009068_forward_mol1.chk"
 Charge =  0 Multiplicity = 1

                         Standard orientation:
 ---------------------------------------------------------------------
 Center     Atomic      Atomic             Coordinates (Angstroms)
 Number     Number       Type             X           Y           Z
 ---------------------------------------------------------------------
      1          8           0        2.366743   -0.476252   -0.173200
      2          6           0        1.227860   -0.150705   -0.011657
      3          6           0        0.696701    1.289030   -0.033668
      4          6           0       -0.803060    1.127883    0.103798
      5          6           0       -1.108130   -0.245407    0.102961
      6          8           0       -2.305420   -0.509227   -0.240641
      7          6           0        0.071083   -1.138491    0.240580
      8          1           0        1.031097    1.765302   -0.958440
      9          1           0        1.161737    1.839149    0.789016
     10          1           0       -2.072689    0.740546   -0.562858
     11          1           0       -1.360122    1.745769    0.803251
     12          1           0        0.093815   -1.988657   -0.438775
     13          1           0        0.148854   -1.512133    1.266447
 ---------------------------------------------------------------------

 SCF Done:  E(RHF) =  -342.568853314     A.U. after    2 cycles

 The electronic state is 1-A.
 Alpha  occ. eigenvalues --  -20.59805 -20.58317 -11.37779 -11.36592 -11.28093
 Alpha  occ. eigenvalues --  -11.26455 -11.23545  -1.39246  -1.38110  -1.13912
 Alpha  occ. eigenvalues --   -1.01735  -0.94695  -0.78906  -0.76846  -0.70921
 Alpha  occ. eigenvalues --   -0.68996  -0.66937  -0.64610  -0.61203  -0.60620
 Alpha  occ. eigenvalues --   -0.58034  -0.55727  -0.52566  -0.48157  -0.43584
 Alpha  occ. eigenvalues --   -0.36166
 Alpha virt. eigenvalues --    0.03066   0.04306   0.04407   0.04918   0.06265
 Alpha virt. eigenvalues --    0.06976   0.08408   0.08712   0.09007   0.11673
 Alpha virt. eigenvalues --    0.12263   0.14108   0.14213   0.14557   0.14872

 Mulliken charges:
               1
     1  O   -0.488509
     2  C    0.112558
     3  C    0.223337
     4  C    0.136696
     5  C    0.187735
     6  O   -0.727342
     7  C    0.083462
     8  H    0.036034
     9  H    0.028999
    10  H    0.485493
    11  H   -0.243638
    12  H    0.012537
    13  H    0.152638
 Sum of Mulliken charges =   0.00000

 Dipole moment (field-independent basis, Debye):
    X=             -0.7350    Y=              1.1568    Z=              1.2926  Tot=              1.8839

 Test job not archived.
 1\1\GINC-SE220\SP\RHF\Aug-CC-pVDZ\C5H6O2\OHZDE\09-Apr-2025\0\\#t hf au
 g-cc-pvdz iop(5/13=1,5/36=2,99/5=2) pseudo=read geom=check guess=(read
 ,tcheck) scf=(maxcycle=1)\\title\\0,1\O,0,0.64038651,-2.35929282,-0.66
 476344\C,0,0.32968489,-1.23593624,-0.398933\C,0,-1.10547532,-0.7232314
 7,-0.21755121\C,0,-0.92741157,0.7166448,0.21741657\C,0,0.44773849,0.97
 280852,0.36687551\O,0,0.71096531,1.95106735,1.13816539\C,0,1.33459877,
 -0.08773002,-0.17701402\H,0,-1.61296109,-1.36825993,0.50373682\H,0,-1.
 63380545,-0.83817893,-1.16799981\H,0,-0.5501136,1.63949592,1.3185116\H

 Normal termination of Gaussian 16 at Wed Apr  9 16:55:17 2025.
