 Gaussian 16, Revision C.01,

 ----------------------------------------------------------------------
 #t hf aug-cc-pvdz symm=none int=(grid=ultrafine) guess=(read,tcheck) s
 table=(opt,rrhf)
 ----------------------------------------------------------------------
 -----
 title
 -----
 Symbolic Z-matrix:
 Charge =  0 Multiplicity = 1

 SCF Done:  E(RHF) =  -247.675433346     A.U. after   15 cycles
 Normal termination of Gaussian 16 at Wed Apr  9 03:21:39 2025.
 Gaussian 16:  ES64L-G16RevC.01  3-Jul-2019

 ----------------------------------------------------------------------
 #t hf aug-cc-pvdz iop(5/13=1,5/36=2,99/5=2) pseudo=read geom=check gue
 ss=(read,tcheck) scf=(maxcycle=1)
 ----------------------------------------------------------------------
 -----
 title
 -----
 Structure from the checkpoint file:  "Grambow2020_wb97xd3_006170_forward_mol1.chk"
 Charge =  0 Multiplicity = 1

                         Standard orientation:
 ---------------------------------------------------------------------
 Center     Atomic      Atomic             Coordinates (Angstroms)
 Number     Number       Type             X           Y           Z
 ---------------------------------------------------------------------
      1          6           0       -0.557082    1.488464   -0.072706
      2          6           0       -1.692493   -0.066749   -0.374537
      3          6           0       -0.863140   -1.278733   -0.139914
      4          6           0       -0.066447   -0.207205    0.527297
      5          6           0        1.310764   -0.125753    0.099270
      6          7           0        2.411887   -0.086467   -0.222397
      7          1           0        0.133519    1.911604    0.665079
      8          1           0       -1.495930    2.012200    0.066201
      9          1           0       -0.166066    1.659864   -1.067888
     10          1           0       -2.330324    0.067205    0.511674
     11          1           0       -0.398159   -1.720799   -1.016329
     12          1           0       -1.246799   -2.017009    0.557357
     13          1           0       -0.169066   -0.167950    1.604225
 ---------------------------------------------------------------------

 SCF Done:  E(RHF) =  -247.749458000     A.U. after    2 cycles

 The electronic state is 1-A.
 Alpha  occ. eigenvalues --  -15.64987 -11.34538 -11.29985 -11.29451 -11.26823
 Alpha  occ. eigenvalues --  -11.26415  -1.21462  -1.15506  -0.97841  -0.93647
 Alpha  occ. eigenvalues --   -0.80170  -0.73141  -0.65903  -0.62634  -0.59970
 Alpha  occ. eigenvalues --   -0.57713  -0.55720  -0.51902  -0.50975  -0.46260
 Alpha  occ. eigenvalues --   -0.45777  -0.33629
 Alpha virt. eigenvalues --    0.02526   0.04031   0.04353   0.04982   0.06570
 Alpha virt. eigenvalues --    0.07093   0.07314   0.09079   0.09151   0.11866
 Alpha virt. eigenvalues --    0.12475   0.13112   0.13733   0.14224   0.14414

 Mulliken charges:
               1
     1  C    0.514806
     2  C   -0.139186
     3  C    0.655922
     4  C    0.824893
     5  C   -0.846753
     6  N   -0.115234
     7  H   -0.167152
     8  H   -0.202604
     9  H   -0.021437
    10  H   -0.020311
    11  H   -0.152762
    12  H   -0.067995
    13  H   -0.262186
 Sum of Mulliken charges =  -0.00000

 Dipole moment (field-independent basis, Debye):
    X=             -2.5836    Y=              0.0419    Z=              2.5547  Tot=              3.6337

 Test job not archived.
 1\1\GINC-SE116\SP\RHF\Aug-CC-pVDZ\C5H7N1\OHZDE\09-Apr-2025\0\\#t hf au
 g-cc-pvdz iop(5/13=1,5/36=2,99/5=2) pseudo=read geom=check guess=(read
 ,tcheck) scf=(maxcycle=1)\\title\\0,1\C,0,1.13415606,0.72735573,-0.333
 56277\C,0,0.80091942,-0.91509739,0.66154993\C,0,-0.67288262,-1.0765102
 6,0.77830365\C,0,-0.54251089,-0.08800131,-0.33251408\C,0,-1.30098316,1
 .12756743,-0.14903565\N,0,-1.9302896,2.07764162,-0.01185785\H,0,0.8467
 4533,1.23868988,-1.25889329\H,0,2.10406489,0.28454447,-0.52907552\H,0,
 1.19789842,1.45080745,0.46968858\H,0,1.14303275,-1.60936272,-0.1201764

 Normal termination of Gaussian 16 at Wed Apr  9 03:21:43 2025.
