 Gaussian 16, Revision C.01,

 ----------------------------------------------------------------------
 #t hf aug-cc-pvdz symm=none int=(grid=ultrafine) guess=(read,tcheck) s
 table=(opt,rrhf)
 ----------------------------------------------------------------------
 -----
 title
 -----
 Symbolic Z-matrix:
 Charge =  0 Multiplicity = 1

 SCF Done:  E(RHF) =  -206.635443962     A.U. after   15 cycles
 Normal termination of Gaussian 16 at Wed Apr  9 03:08:34 2025.
 Gaussian 16:  ES64L-G16RevC.01  3-Jul-2019

 ----------------------------------------------------------------------
 #t hf aug-cc-pvdz iop(5/13=1,5/36=2,99/5=2) pseudo=read geom=check gue
 ss=(read,tcheck) scf=(maxcycle=1)
 ----------------------------------------------------------------------
 -----
 title
 -----
 Structure from the checkpoint file:  "Grambow2020_b97d3_006673_reverse_mol2.chk"
 Charge =  0 Multiplicity = 1

                         Standard orientation:
 ---------------------------------------------------------------------
 Center     Atomic      Atomic             Coordinates (Angstroms)
 Number     Number       Type             X           Y           Z
 ---------------------------------------------------------------------
      1          8           0       -1.408167   -0.005490   -0.324508
      2          6           0       -0.329951   -0.104833    0.462124
      3          6           0        0.864804   -0.790812   -0.041307
      4          7           0        1.361572    0.433616   -0.221360
      5          1           0       -2.014762    0.687707    0.006269
      6          1           0       -0.382844    0.365483    1.450516
      7          1           0        0.922818    1.329287    0.163899
 ---------------------------------------------------------------------

 SCF Done:  E(RHF) =  -206.696394732     A.U. after    2 cycles

 The electronic state is 1-A.
 Alpha  occ. eigenvalues --  -20.67909 -15.65678 -11.41541 -11.27612  -1.44121
 Alpha  occ. eigenvalues --   -1.21095  -0.94604  -0.82350  -0.79657  -0.68514
 Alpha  occ. eigenvalues --   -0.66024  -0.59364  -0.46614  -0.44017  -0.33526
 Alpha virt. eigenvalues --    0.01077   0.04025   0.04692   0.07773   0.08593
 Alpha virt. eigenvalues --    0.10553   0.11561   0.12956   0.13296   0.14204
 Alpha virt. eigenvalues --    0.15788   0.17307   0.19494   0.21177   0.21521

 Mulliken charges:
               1
     1  O   -0.457527
     2  C    0.731805
     3  C   -0.010254
     4  N   -0.420752
     5  H    0.222668
     6  H   -0.153402
     7  H    0.087461
 Sum of Mulliken charges =  -0.00000

 Dipole moment (field-independent basis, Debye):
    X=             -4.5197    Y=              3.6138    Z=              3.1975  Tot=              6.6115

 Test job not archived.
 1\1\GINC-SE123\SP\RHF\Aug-CC-pVDZ\C2H3N1O1\OHZDE\09-Apr-2025\0\\#t hf
 aug-cc-pvdz iop(5/13=1,5/36=2,99/5=2) pseudo=read geom=check guess=(re
 ad,tcheck) scf=(maxcycle=1)\\title\\0,1\O,0,-0.92801061,0.96166401,-0.
 38647213\C,0,-0.09885462,-0.08676276,-0.4536293\C,0,1.32959208,0.14244
 365,-0.69540433\N,0,1.47785799,-0.08371698,0.6104633\H,0,-1.77213373,0
 .70815778,0.0390675\H,0,-0.5304371,-1.08104872,-0.29224191\H,0,0.71644
 699,-0.47969998,1.24811985\\Version=ES64L-G16RevC.01\State=1-A\HF=-206
 .6963947\RMSD=3.731e-03\Dipole=-2.3690774,-0.8923326,0.5976471\Quadrup

 Normal termination of Gaussian 16 at Wed Apr  9 03:08:36 2025.
