 Gaussian 16, Revision C.01,

 ----------------------------------------------------------------------
 #t hf aug-cc-pvdz symm=none int=(grid=ultrafine) guess=(read,tcheck) s
 table=(opt,rrhf)
 ----------------------------------------------------------------------
 -----
 title
 -----
 Symbolic Z-matrix:
 Charge =  0 Multiplicity = 1

 SCF Done:  E(RHF) =  -264.879633233     A.U. after   18 cycles
 Normal termination of Gaussian 16 at Wed Apr  9 03:07:57 2025.
 Gaussian 16:  ES64L-G16RevC.01  3-Jul-2019

 ----------------------------------------------------------------------
 #t hf aug-cc-pvdz iop(5/13=1,5/36=2,99/5=2) pseudo=read geom=check gue
 ss=(read,tcheck) scf=(maxcycle=1)
 ----------------------------------------------------------------------
 -----
 title
 -----
 Structure from the checkpoint file:  "Grambow2020_b97d3_006628_forward_mol1.chk"
 Charge =  0 Multiplicity = 1

                         Standard orientation:
 ---------------------------------------------------------------------
 Center     Atomic      Atomic             Coordinates (Angstroms)
 Number     Number       Type             X           Y           Z
 ---------------------------------------------------------------------
      1          6           0       -2.293552    0.367499   -0.057551
      2          6           0       -1.236741   -0.759625   -0.231737
      3          6           0       -0.028040   -0.427976    0.582303
      4          7           0        1.870724   -0.846337   -0.174900
      5          6           0        0.985177    0.467088    0.097033
      6          7           0        1.149417    1.662355   -0.111417
      7          1           0       -1.860102    1.330774   -0.351442
      8          1           0       -2.634046    0.440113    0.983815
      9          1           0       -3.164372    0.152287   -0.693164
     10          1           0       -1.667590   -1.723197    0.076140
     11          1           0       -0.967350   -0.817251   -1.296149
     12          1           0       -0.051478   -0.682867    1.647500
     13          1           0        1.979070   -1.201865   -1.130190
     14          1           0        2.663816   -1.092035    0.427418
 ---------------------------------------------------------------------

 SCF Done:  E(RHF) =  -264.959029144     A.U. after    2 cycles

 The electronic state is 1-A.
 Alpha  occ. eigenvalues --  -15.64933 -15.54787 -11.37919 -11.28833 -11.27906
 Alpha  occ. eigenvalues --  -11.26531  -1.18066  -1.09067  -1.06338  -0.96602
 Alpha  occ. eigenvalues --   -0.86676  -0.75947  -0.68288  -0.65807  -0.62786
 Alpha  occ. eigenvalues --   -0.58409  -0.56696  -0.54603  -0.52812  -0.48095
 Alpha  occ. eigenvalues --   -0.40805  -0.38232  -0.29417
 Alpha virt. eigenvalues --    0.02080   0.02782   0.03463   0.04970   0.05251
 Alpha virt. eigenvalues --    0.06015   0.06499   0.08296   0.08609   0.10574
 Alpha virt. eigenvalues --    0.11520   0.12719   0.13246   0.14528   0.14701

 Mulliken charges:
               1
     1  C    0.236202
     2  C   -0.046529
     3  C    0.748397
     4  N   -0.410824
     5  C    0.456021
     6  N   -0.607109
     7  H   -0.036055
     8  H   -0.051035
     9  H   -0.027849
    10  H   -0.006407
    11  H   -0.043197
    12  H   -0.236951
    13  H    0.018454
    14  H    0.006882
 Sum of Mulliken charges =  -0.00000

 Dipole moment (field-independent basis, Debye):
    X=             -3.1772    Y=             -6.0858    Z=              1.0049  Tot=              6.9383

 Test job not archived.
 1\1\GINC-SE131\SP\RHF\Aug-CC-pVDZ\C4H8N2\OHZDE\09-Apr-2025\0\\#t hf au
 g-cc-pvdz iop(5/13=1,5/36=2,99/5=2) pseudo=read geom=check guess=(read
 ,tcheck) scf=(maxcycle=1)\\title\\0,1\C,0,-2.00241985,0.2377595,0.0426
 0181\C,0,-0.76651974,-0.69560771,-0.09514629\C,0,0.40212545,-0.0655964
 3,0.59112249\N,0,2.30196743,-0.22112797,-0.25746452\C,0,1.20497552,0.9
 357516,-0.05383411\N,0,1.13414525,2.11038734,-0.39192159\H,0,-1.770811
 32,1.22395665,-0.37682886\H,0,-2.29395109,0.36417455,1.0936391\H,0,-2.
 85140662,-0.19841185,-0.50294685\H,0,-0.99476777,-1.68007521,0.3380016

 Normal termination of Gaussian 16 at Wed Apr  9 03:08:02 2025.
