 Gaussian 16, Revision C.01,

 ----------------------------------------------------------------------
 #t hf aug-cc-pvdz symm=none int=(grid=ultrafine) guess=(read,tcheck) s
 table=(opt,rrhf)
 ----------------------------------------------------------------------
 -----
 title
 -----
 Symbolic Z-matrix:
 Charge =  0 Multiplicity = 1

 SCF Done:  E(RHF) =  -359.801743699     A.U. after   13 cycles
 Normal termination of Gaussian 16 at Wed Apr  9 03:51:35 2025.
 Gaussian 16:  ES64L-G16RevC.01  3-Jul-2019

 ----------------------------------------------------------------------
 #t hf aug-cc-pvdz iop(5/13=1,5/36=2,99/5=2) pseudo=read geom=check gue
 ss=(read,tcheck) scf=(maxcycle=1)
 ----------------------------------------------------------------------
 -----
 title
 -----
 Structure from the checkpoint file:  "Grambow2020_wb97xd3_008267_forward_mol2.chk"
 Charge =  0 Multiplicity = 1

                         Standard orientation:
 ---------------------------------------------------------------------
 Center     Atomic      Atomic             Coordinates (Angstroms)
 Number     Number       Type             X           Y           Z
 ---------------------------------------------------------------------
      1          6           0        1.992161   -0.673084   -0.581430
      2          6           0        1.079333   -0.128456    0.496990
      3          6           0        0.605990    1.311996    0.236550
      4          7           0       -0.675972    1.051356   -0.370296
      5          6           0       -1.149842   -0.189219   -0.029093
      6          8           0       -2.251442   -0.625525   -0.189617
      7          8           0       -0.135253   -0.890575    0.535226
      8          1           0        1.536347   -0.550735   -1.566160
      9          1           0        2.180823   -1.733731   -0.416575
     10          1           0        2.947425   -0.144446   -0.571407
     11          1           0        1.543583   -0.224924    1.478806
     12          1           0        1.281560    1.839162   -0.439113
     13          1           0        0.518407    1.885534    1.164965
     14          1           0       -1.348640    1.771027   -0.561423
 ---------------------------------------------------------------------

 SCF Done:  E(RHF) =  -359.915917035     A.U. after    2 cycles

 The electronic state is 1-A.
 Alpha  occ. eigenvalues --  -20.61516 -20.53997 -15.65850 -11.41354 -11.32256
 Alpha  occ. eigenvalues --  -11.29937 -11.24487  -1.43386  -1.33304  -1.21436
 Alpha  occ. eigenvalues --   -1.06464  -0.95268  -0.86853  -0.82972  -0.73631
 Alpha  occ. eigenvalues --   -0.69935  -0.67733  -0.63287  -0.62439  -0.61855
 Alpha  occ. eigenvalues --   -0.57535  -0.56954  -0.55376  -0.51213  -0.47142
 Alpha  occ. eigenvalues --   -0.46854  -0.41270
 Alpha virt. eigenvalues --    0.02474   0.03694   0.03972   0.04957   0.06311
 Alpha virt. eigenvalues --    0.06722   0.07111   0.10067   0.10530   0.12448
 Alpha virt. eigenvalues --    0.13011   0.13310   0.13879   0.14375   0.14887

 Mulliken charges:
               1
     1  C    0.346769
     2  C    0.313373
     3  C    0.875828
     4  N   -0.356541
     5  C    0.627653
     6  O   -0.421323
     7  O   -0.639270
     8  H   -0.033168
     9  H   -0.036329
    10  H    0.010494
    11  H   -0.255366
    12  H   -0.172008
    13  H   -0.142263
    14  H   -0.117848
 Sum of Mulliken charges =  -0.00000

 Dipole moment (field-independent basis, Debye):
    X=              4.5669    Y=              3.8622    Z=              0.3097  Tot=              5.9891

 Test job not archived.
 1\1\GINC-SE166\SP\RHF\Aug-CC-pVDZ\C4H7N1O2\OHZDE\09-Apr-2025\0\\#t hf
 aug-cc-pvdz iop(5/13=1,5/36=2,99/5=2) pseudo=read geom=check guess=(re
 ad,tcheck) scf=(maxcycle=1)\\title\\0,1\C,0,-1.46358399,-0.93137097,0.
 08575143\C,0,-0.36937393,-0.22598985,-0.68755578\C,0,0.00292412,1.1520
 4768,-0.11380399\N,0,1.14484077,0.79156478,0.68975084\C,0,1.71100909,-
 0.38090582,0.25990721\O,0,2.77003074,-0.84263768,0.56801426\O,0,0.8488
 6631,-0.97816163,-0.60017601\H,0,-1.21673462,-0.97008559,1.14876377\H,
 0,-1.5864786,-1.9511424,-0.27853893\H,0,-2.41179195,-0.40324469,-0.032

 Normal termination of Gaussian 16 at Wed Apr  9 03:51:40 2025.
