 Gaussian 16, Revision C.01,

 ----------------------------------------------------------------------
 #t hf aug-cc-pvdz symm=none int=(grid=ultrafine) guess=(read,tcheck) s
 table=(opt,rrhf)
 ----------------------------------------------------------------------
 -----
 title
 -----
 Symbolic Z-matrix:
 Charge =  0 Multiplicity = 1

 SCF Done:  E(RHF) =  -344.727705040     A.U. after   15 cycles

 1\1\GINC-SE114\Stability\RHF\Aug-CC-pVDZ\C5H10O2\OHZDE\09-Apr-2025\0\\
 #t hf aug-cc-pvdz symm=none int=(grid=ultrafine) guess=(read,tcheck) s
 table=(opt,rrhf)\\title\\0,1\C,0,2.12968067,1.06682197,-0.66459525\O,0
 ,0.75134633,0.86540851,-0.41581326\C,0,0.35908555,-0.43260697,-0.43532
 699\C,0,0.03330419,-1.52904926,1.33660557\O,0,-1.11062146,-1.78958643,
 0.57591475\C,0,-1.15714004,-0.67688461,-0.30234576\C,0,-1.95566678,0.4
 9407802,0.23320674\H,0,2.73754386,0.58435256,0.10717267\H,0,2.41188034
 ,0.67147701,-1.64612279\H,0,2.30352534,2.13997243,-0.64148625\H,0,0.80

 Normal termination of Gaussian 16 at Wed Apr  9 15:03:09 2025.
 Gaussian 16:  ES64L-G16RevC.01  3-Jul-2019

 ----------------------------------------------------------------------
 #t hf aug-cc-pvdz iop(5/13=1,5/36=2,99/5=2) pseudo=read geom=check gue
 ss=(read,tcheck) scf=(maxcycle=1)
 ----------------------------------------------------------------------
 -----
 title
 -----
 Structure from the checkpoint file:  "Grambow2020_wb97xd3_006666_forward_mol1.chk"
 Charge =  0 Multiplicity = 1

                         Standard orientation:
 ---------------------------------------------------------------------
 Center     Atomic      Atomic             Coordinates (Angstroms)
 Number     Number       Type             X           Y           Z
 ---------------------------------------------------------------------
      1          6           0       -2.654495   -0.077676   -0.073900
      2          8           0       -1.352381    0.474549   -0.116451
      3          6           0       -0.397101   -0.289086    0.469548
      4          6           0        0.925956   -1.484269   -0.657005
      5          8           0        1.771024   -0.801537    0.223241
      6          6           0        1.005504    0.344050    0.559722
      7          6           0        1.239706    1.528572   -0.355523
      8          1           0       -2.690759   -1.027523   -0.616465
      9          1           0       -2.977024   -0.239856    0.960027
     10          1           0       -3.318847    0.636930   -0.553881
     11          1           0       -0.725448   -0.727915    1.423966
     12          1           0        0.707139   -0.818318   -1.516426
     13          1           0       -0.219373   -1.461306   -0.065583
     14          1           0        1.245726    0.633905    1.588273
     15          1           0        0.584128    2.355759   -0.081409
     16          1           0        2.275123    1.852524   -0.249810
     17          1           0        1.052772    1.282150   -1.400070
 ---------------------------------------------------------------------

 SCF Done:  E(RHF) =  -344.837443883     A.U. after    2 cycles

 The electronic state is 1-A.
 Alpha  occ. eigenvalues --  -20.61758 -20.57770 -11.34976 -11.31199 -11.31131
 Alpha  occ. eigenvalues --  -11.29010 -11.23191  -1.39767  -1.35958  -1.05257
 Alpha  occ. eigenvalues --   -0.99377  -0.93116  -0.89521  -0.78839  -0.72250
 Alpha  occ. eigenvalues --   -0.70656  -0.68506  -0.66604  -0.61925  -0.60965
 Alpha  occ. eigenvalues --   -0.57077  -0.55766  -0.54071  -0.53692  -0.50592
 Alpha  occ. eigenvalues --   -0.49135  -0.43187  -0.32410
 Alpha virt. eigenvalues --    0.02754   0.04003   0.04262   0.05281   0.06019
 Alpha virt. eigenvalues --    0.06320   0.06937   0.07453   0.08074   0.09394
 Alpha virt. eigenvalues --    0.10406   0.12280   0.12614   0.13078   0.14061

 Mulliken charges:
               1
     1  C    0.731889
     2  O   -0.670064
     3  C    0.484280
     4  C    0.015672
     5  O   -0.727654
     6  C    0.394907
     7  C    0.408519
     8  H   -0.069046
     9  H   -0.034205
    10  H   -0.250944
    11  H   -0.233820
    12  H    0.046947
    13  H    0.185463
    14  H   -0.220959
    15  H    0.023110
    16  H   -0.026798
    17  H   -0.057296
 Sum of Mulliken charges =   0.00000

 Dipole moment (field-independent basis, Debye):
    X=             -3.7599    Y=              2.4191    Z=              1.1898  Tot=              4.6265

 Test job not archived.
 1\1\GINC-SE114\SP\RHF\Aug-CC-pVDZ\C5H10O2\OHZDE\09-Apr-2025\0\\#t hf a
 ug-cc-pvdz iop(5/13=1,5/36=2,99/5=2) pseudo=read geom=check guess=(rea
 d,tcheck) scf=(maxcycle=1)\\title\\0,1\C,0,2.12968067,1.06682197,-0.66
 459525\O,0,0.75134633,0.86540851,-0.41581326\C,0,0.35908555,-0.4326069
 7,-0.43532699\C,0,0.03330419,-1.52904926,1.33660557\O,0,-1.11062146,-1
 .78958643,0.57591475\C,0,-1.15714004,-0.67688461,-0.30234576\C,0,-1.95
 566678,0.49407802,0.23320674\H,0,2.73754386,0.58435256,0.10717267\H,0,
 2.41188034,0.67147701,-1.64612279\H,0,2.30352534,2.13997243,-0.6414862

 Normal termination of Gaussian 16 at Wed Apr  9 15:03:15 2025.
