 Gaussian 16, Revision C.01,

 ----------------------------------------------------------------------
 #t hf aug-cc-pvdz symm=none int=(grid=ultrafine) guess=(read,tcheck) s
 table=(opt,rrhf)
 ----------------------------------------------------------------------
 -----
 title
 -----
 Symbolic Z-matrix:
 Charge =  0 Multiplicity = 1

 SCF Done:  E(RHF) =  -307.753398960     A.U. after   14 cycles

 1\1\GINC-SE087\Stability\RHF\Aug-CC-pVDZ\C6H10O1\OHZDE\09-Apr-2025\0\\
 #t hf aug-cc-pvdz symm=none int=(grid=ultrafine) guess=(read,tcheck) s
 table=(opt,rrhf)\\title\\0,1\C,0,1.94104775,0.56133608,-0.24913232\C,0
 ,0.82030339,-0.45812333,-0.26793538\C,0,0.03704537,-0.72751709,1.04723
 732\C,0,-1.25666359,-0.26589494,0.37023738\O,0,-2.36798394,-1.07842245
 ,0.50127783\C,0,-1.39679201,1.11934453,-0.01102206\C,0,-0.49401562,-0.
 07456282,-0.96336911\H,0,2.75262363,0.22685828,0.39988158\H,0,1.597028
 2,1.52753129,0.12658798\H,0,2.35013229,0.71478453,-1.24998655\H,0,1.18

 Normal termination of Gaussian 16 at Wed Apr  9 16:35:19 2025.
 Gaussian 16:  ES64L-G16RevC.01  3-Jul-2019

 ----------------------------------------------------------------------
 #t hf aug-cc-pvdz iop(5/13=1,5/36=2,99/5=2) pseudo=read geom=check gue
 ss=(read,tcheck) scf=(maxcycle=1)
 ----------------------------------------------------------------------
 -----
 title
 -----
 Structure from the checkpoint file:  "Grambow2020_wb97xd3_008612_reverse_mol1.chk"
 Charge =  0 Multiplicity = 1

                         Standard orientation:
 ---------------------------------------------------------------------
 Center     Atomic      Atomic             Coordinates (Angstroms)
 Number     Number       Type             X           Y           Z
 ---------------------------------------------------------------------
      1          6           0       -2.393705    0.092258   -0.146564
      2          6           0       -1.091611   -0.382864    0.465425
      3          6           0       -0.074982   -1.134627   -0.438491
      4          6           0        0.964082   -0.040153   -0.178534
      5          8           0        2.234362   -0.443807    0.190056
      6          6           0        0.733362    1.287545   -0.696095
      7          6           0       -0.018250    0.667391    0.786427
      8          1           0       -3.001009   -0.757777   -0.463381
      9          1           0       -2.218567    0.716523   -1.025579
     10          1           0       -2.975902    0.674928    0.570476
     11          1           0       -1.302025   -0.963250    1.365831
     12          1           0       -0.346459   -1.272777   -1.486110
     13          1           0        0.222980   -2.092693   -0.015167
     14          1           0        2.815276    0.302776    0.017916
     15          1           0       -0.022488    1.799779    0.367002
     16          1           0       -0.113525    1.319299   -1.386151
     17          1           0        0.353446    0.886349    1.781707
 ---------------------------------------------------------------------

 SCF Done:  E(RHF) =  -307.846495723     A.U. after    2 cycles

 The electronic state is 1-A.
 Alpha  occ. eigenvalues --  -20.57667 -11.30697 -11.27659 -11.25978 -11.24559
 Alpha  occ. eigenvalues --  -11.23937 -11.23658  -1.34296  -1.18075  -1.02918
 Alpha  occ. eigenvalues --   -0.96020  -0.88687  -0.80209  -0.76174  -0.70234
 Alpha  occ. eigenvalues --   -0.68011  -0.62208  -0.61067  -0.57991  -0.57823
 Alpha  occ. eigenvalues --   -0.55999  -0.52733  -0.49442  -0.47960  -0.46741
 Alpha  occ. eigenvalues --   -0.39911  -0.34757
 Alpha virt. eigenvalues --    0.03121   0.04210   0.04556   0.04729   0.06356
 Alpha virt. eigenvalues --    0.06607   0.06793   0.07094   0.07530   0.09346
 Alpha virt. eigenvalues --    0.11631   0.12260   0.13271   0.13606   0.14462

 Mulliken charges:
               1
     1  C    0.575613
     2  C   -0.288993
     3  C    0.611310
     4  C    0.446090
     5  O   -0.680476
     6  C   -0.335161
     7  C    0.220484
     8  H   -0.018449
     9  H   -0.043813
    10  H   -0.021252
    11  H   -0.180211
    12  H   -0.193228
    13  H   -0.080958
    14  H    0.178733
    15  H    0.200430
    16  H   -0.109970
    17  H   -0.280148
 Sum of Mulliken charges =  -0.00000

 Dipole moment (field-independent basis, Debye):
    X=             -2.4014    Y=             -0.2789    Z=              0.7528  Tot=              2.5320

 Test job not archived.
 1\1\GINC-SE087\SP\RHF\Aug-CC-pVDZ\C6H10O1\OHZDE\09-Apr-2025\0\\#t hf a
 ug-cc-pvdz iop(5/13=1,5/36=2,99/5=2) pseudo=read geom=check guess=(rea
 d,tcheck) scf=(maxcycle=1)\\title\\0,1\C,0,1.94104775,0.56133608,-0.24
 913232\C,0,0.82030339,-0.45812333,-0.26793538\C,0,0.03704537,-0.727517
 09,1.04723732\C,0,-1.25666359,-0.26589494,0.37023738\O,0,-2.36798394,-
 1.07842245,0.50127783\C,0,-1.39679201,1.11934453,-0.01102206\C,0,-0.49
 401562,-0.07456282,-0.96336911\H,0,2.75262363,0.22685828,0.39988158\H,
 0,1.5970282,1.52753129,0.12658798\H,0,2.35013229,0.71478453,-1.2499865

 Normal termination of Gaussian 16 at Wed Apr  9 16:35:26 2025.
