 Gaussian 16, Revision C.01,

 ----------------------------------------------------------------------
 #t hf aug-cc-pvdz symm=none int=(grid=ultrafine) guess=(read,tcheck) s
 table=(opt,rrhf)
 ----------------------------------------------------------------------
 -----
 title
 -----
 Symbolic Z-matrix:
 Charge =  0 Multiplicity = 1

 SCF Done:  E(RHF) =  -286.726902355     A.U. after   16 cycles
 Normal termination of Gaussian 16 at Wed Apr  9 03:41:06 2025.
 Gaussian 16:  ES64L-G16RevC.01  3-Jul-2019

 ----------------------------------------------------------------------
 #t hf aug-cc-pvdz iop(5/13=1,5/36=2,99/5=2) pseudo=read geom=check gue
 ss=(read,tcheck) scf=(maxcycle=1)
 ----------------------------------------------------------------------
 -----
 title
 -----
 Structure from the checkpoint file:  "Grambow2020_wb97xd3_007562_reverse_mol2.chk"
 Charge =  0 Multiplicity = 1

                         Standard orientation:
 ---------------------------------------------------------------------
 Center     Atomic      Atomic             Coordinates (Angstroms)
 Number     Number       Type             X           Y           Z
 ---------------------------------------------------------------------
      1          6           0       -2.464065   -0.971176   -0.279439
      2          6           0        0.239376    0.972964   -0.468163
      3          6           0        0.898902   -0.256995    0.005813
      4          6           0        2.358146   -0.247961    0.030364
      5          6           0        3.553401   -0.250871    0.084263
      6          6           0       -1.168444    1.075720   -0.054482
      7          7           0       -1.848297   -0.016292    0.624635
      8          1           0       -1.697479   -1.507567   -0.843324
      9          1           0       -3.148267   -0.509993   -1.007406
     10          1           0       -3.020038   -1.713928    0.292943
     11          1           0        0.557968   -0.954844   -0.784884
     12          1           0        0.472902   -0.672079    0.928847
     13          1           0        4.616646   -0.241719    0.125993
     14          1           0       -1.056386    1.932186    0.635856
     15          1           0       -1.748250    1.502853   -0.889857
     16          1           0       -2.542917    0.349047    1.259252
 ---------------------------------------------------------------------

 SCF Done:  E(RHF) =  -286.814760389     A.U. after    2 cycles

 The electronic state is 1-A.
 Alpha  occ. eigenvalues --  -15.62221 -11.27698 -11.27251 -11.26861 -11.26691
 Alpha  occ. eigenvalues --  -11.24067 -11.22776  -1.19560  -1.08321  -1.01294
 Alpha  occ. eigenvalues --   -0.96011  -0.88942  -0.75706  -0.70794  -0.68830
 Alpha  occ. eigenvalues --   -0.64928  -0.62168  -0.61907  -0.59706  -0.54052
 Alpha  occ. eigenvalues --   -0.53863  -0.52341  -0.39820  -0.38595  -0.37641
 Alpha  occ. eigenvalues --   -0.35242
 Alpha virt. eigenvalues --    0.02919   0.03956   0.04191   0.04526   0.05479
 Alpha virt. eigenvalues --    0.07196   0.07369   0.07630   0.08345   0.08976
 Alpha virt. eigenvalues --    0.09961   0.11768   0.12230   0.12670   0.14050

 Mulliken charges:
               1
     1  C    0.802274
     2  C   -0.921659
     3  C   -0.003145
     4  C   -0.227641
     5  C    0.866331
     6  C    0.945181
     7  N   -0.521966
     8  H   -0.221816
     9  H   -0.090224
    10  H   -0.200276
    11  H    0.146764
    12  H   -0.011659
    13  H   -0.500256
    14  H    0.011833
    15  H   -0.043806
    16  H   -0.029934
 Sum of Mulliken charges =  -0.00000

 Dipole moment (field-independent basis, Debye):
    X=             -2.9644    Y=             -0.9162    Z=              0.8243  Tot=              3.2104

 Test job not archived.
 1\1\GINC-SE184\SP\RHF\Aug-CC-pVDZ\C6H9N1\OHZDE\09-Apr-2025\0\\#t hf au
 g-cc-pvdz iop(5/13=1,5/36=2,99/5=2) pseudo=read geom=check guess=(read
 ,tcheck) scf=(maxcycle=1)\\title\\0,1\C,0,-1.98446686,0.94108012,-0.41
 684503\C,0,0.84169595,0.21129441,1.19688131\C,0,1.15613232,-0.44698075
 ,-0.08383332\C,0,2.51567285,-0.95383549,-0.24139838\C,0,3.61688744,-1.
 40081293,-0.37954798\C,0,-0.60084184,0.28697109,1.47438397\N,0,-1.5918
 7891,-0.12177647,0.49119375\H,0,-1.14469704,1.22227909,-1.05641477\H,0
 ,-2.33007999,1.85184482,0.09483542\H,0,-2.78258099,0.58984898,-1.07110

 Normal termination of Gaussian 16 at Wed Apr  9 03:41:12 2025.
