 Gaussian 16, Revision C.01,

 ----------------------------------------------------------------------
 #t hf aug-cc-pvdz symm=none int=(grid=ultrafine) guess=(read,tcheck) s
 table=(opt,rrhf)
 ----------------------------------------------------------------------
 -----
 title
 -----
 Symbolic Z-matrix:
 Charge =  0 Multiplicity = 1

 SCF Done:  E(RHF) =  -373.267889949     A.U. after   17 cycles
 Normal termination of Gaussian 16 at Wed Apr  9 04:04:26 2025.
 Gaussian 16:  ES64L-G16RevC.01  3-Jul-2019

 ----------------------------------------------------------------------
 #t hf aug-cc-pvdz iop(5/13=1,5/36=2,99/5=2) pseudo=read geom=check gue
 ss=(read,tcheck) scf=(maxcycle=1)
 ----------------------------------------------------------------------
 -----
 title
 -----
 Structure from the checkpoint file:  "Grambow2020_wb97xd3_009223_reverse_mol2.chk"
 Charge =  0 Multiplicity = 1

                         Standard orientation:
 ---------------------------------------------------------------------
 Center     Atomic      Atomic             Coordinates (Angstroms)
 Number     Number       Type             X           Y           Z
 ---------------------------------------------------------------------
      1          7           0       -2.964151    0.391399    0.100573
      2          6           0       -1.828584   -0.056315    0.015679
      3          8           0        1.269146    1.368786   -0.356238
      4          6           0        1.863346    0.513909    0.219413
      5          8           0        1.519996   -0.787047    0.330317
      6          6           0       -0.667608   -0.569480   -0.120061
      7          7           0        0.354671   -1.221005   -0.382505
      8          1           0       -3.063719    1.183045    0.734989
      9          1           0        2.814016    0.641606    0.755712
 ---------------------------------------------------------------------

 SCF Done:  E(RHF) =  -373.383815155     A.U. after    2 cycles

 The electronic state is 1-A.
 Alpha  occ. eigenvalues --  -20.67186 -20.59240 -15.75188 -15.69993 -11.41902
 Alpha  occ. eigenvalues --  -11.36917 -11.33498  -1.46552  -1.37415  -1.25729
 Alpha  occ. eigenvalues --   -1.20228  -1.01220  -0.89686  -0.78096  -0.76964
 Alpha  occ. eigenvalues --   -0.73511  -0.70146  -0.63808  -0.59590  -0.57349
 Alpha  occ. eigenvalues --   -0.56532  -0.51821  -0.50479  -0.45042  -0.37269
 Alpha virt. eigenvalues --    0.02513   0.03074   0.03961   0.08028   0.08229
 Alpha virt. eigenvalues --    0.08945   0.09956   0.11100   0.11689   0.13014
 Alpha virt. eigenvalues --    0.13456   0.14242   0.15477   0.16287   0.17161

 Mulliken charges:
               1
     1  N   -0.067742
     2  C   -0.079938
     3  O   -0.339495
     4  C    0.689519
     5  O   -0.506384
     6  C    0.449819
     7  N   -0.079647
     8  H    0.099987
     9  H   -0.166120
 Sum of Mulliken charges =  -0.00000

 Dipole moment (field-independent basis, Debye):
    X=             -0.0919    Y=              1.0563    Z=              2.5436  Tot=              2.7557

 Test job not archived.
 1\1\GINC-SE094\SP\RHF\Aug-CC-pVDZ\C3H2N2O2\OHZDE\09-Apr-2025\0\\#t hf
 aug-cc-pvdz iop(5/13=1,5/36=2,99/5=2) pseudo=read geom=check guess=(re
 ad,tcheck) scf=(maxcycle=1)\\title\\0,1\N,0,-2.64565086,-1.18215514,-0
 .01892697\C,0,-1.73305717,-0.36731785,-0.03844075\O,0,1.5529097,-0.451
 27597,0.94163081\C,0,1.93707068,0.33704853,0.13774781\O,0,1.23029418,1
 .33988616,-0.42568767\C,0,-0.82498136,0.52988722,-0.03131357\N,0,-0.10
 990681,1.54074497,0.04114795\H,0,-2.39312562,-2.11272354,-0.34964348\H
 ,0,2.95318326,0.38790862,-0.27773412\\Version=ES64L-G16RevC.01\State=1

 Normal termination of Gaussian 16 at Wed Apr  9 04:04:29 2025.
