 Gaussian 16, Revision C.01,

 ----------------------------------------------------------------------
 #t hf aug-cc-pvdz symm=none int=(grid=ultrafine) guess=(read,tcheck) s
 table=(opt,rrhf)
 ----------------------------------------------------------------------
 -----
 title
 -----
 Symbolic Z-matrix:
 Charge =  0 Multiplicity = 1

 SCF Done:  E(RHF) =  -376.743981288     A.U. after   17 cycles
 Normal termination of Gaussian 16 at Wed Apr  9 03:58:51 2025.
 Gaussian 16:  ES64L-G16RevC.01  3-Jul-2019

 ----------------------------------------------------------------------
 #t hf aug-cc-pvdz iop(5/13=1,5/36=2,99/5=2) pseudo=read geom=check gue
 ss=(read,tcheck) scf=(maxcycle=1)
 ----------------------------------------------------------------------
 -----
 title
 -----
 Structure from the checkpoint file:  "Grambow2020_wb97xd3_008739_forward_mol1.chk"
 Charge =  0 Multiplicity = 1

                         Standard orientation:
 ---------------------------------------------------------------------
 Center     Atomic      Atomic             Coordinates (Angstroms)
 Number     Number       Type             X           Y           Z
 ---------------------------------------------------------------------
      1          7           0       -2.369603   -0.061342    0.450980
      2          6           0       -1.143673    0.014960   -0.267056
      3          8           0       -0.631095   -1.154010   -0.548232
      4          7           0       -0.310198    1.123984    0.066550
      5          6           0        0.918567    1.210930   -0.455371
      6          6           0        1.791292    0.055827    0.623820
      7          8           0        1.695393   -1.111331    0.040361
      8          1           0       -2.349561   -0.832154    1.100740
      9          1           0       -2.625765    0.809346    0.891271
     10          1           0       -1.411751    0.710297   -1.186887
     11          1           0        1.365040    2.200373   -0.377523
     12          1           0        1.147575    0.667441   -1.371979
     13          1           0        1.319721    0.187000    1.601522
     14          1           0        2.784468    0.515476    0.589736
     15          1           0        0.617379   -1.263846   -0.214979
 ---------------------------------------------------------------------

 SCF Done:  E(RHF) =  -376.859891360     A.U. after    2 cycles

 The electronic state is 1-A.
 Alpha  occ. eigenvalues --  -20.55058 -20.51524 -15.75576 -15.62038 -11.38245
 Alpha  occ. eigenvalues --  -11.36384 -11.30644  -1.35873  -1.32031  -1.23392
 Alpha  occ. eigenvalues --   -1.14891  -0.97774  -0.90570  -0.80360  -0.74993
 Alpha  occ. eigenvalues --   -0.70855  -0.70189  -0.67698  -0.64310  -0.62767
 Alpha  occ. eigenvalues --   -0.61450  -0.58188  -0.53236  -0.49512  -0.44968
 Alpha  occ. eigenvalues --   -0.44446  -0.42540  -0.37568
 Alpha virt. eigenvalues --   -0.00344   0.02912   0.03484   0.03916   0.05403
 Alpha virt. eigenvalues --    0.06405   0.06537   0.07640   0.09192   0.10758
 Alpha virt. eigenvalues --    0.11994   0.12681   0.13362   0.14377   0.15027

 Mulliken charges:
               1
     1  N   -0.345234
     2  C    1.028101
     3  O   -0.818506
     4  N   -0.472634
     5  C    0.462906
     6  C    0.787540
     7  O   -0.674365
     8  H    0.021083
     9  H    0.017031
    10  H    0.069443
    11  H   -0.278027
    12  H   -0.034551
    13  H   -0.160641
    14  H   -0.093057
    15  H    0.490912
 Sum of Mulliken charges =  -0.00000

 Dipole moment (field-independent basis, Debye):
    X=              1.0152    Y=              5.0956    Z=              1.8528  Tot=              5.5162

 Test job not archived.
 1\1\GINC-SE165\SP\RHF\Aug-CC-pVDZ\C3H8N2O2\OHZDE\09-Apr-2025\0\\#t hf
 aug-cc-pvdz iop(5/13=1,5/36=2,99/5=2) pseudo=read geom=check guess=(re
 ad,tcheck) scf=(maxcycle=1)\\title\\0,1\N,0,2.26091322,0.95532619,-0.1
 540584\C,0,0.88431532,0.71722804,-0.42348402\O,0,0.09305486,1.64335218
 ,0.05031848\N,0,0.49278177,-0.65484642,-0.42789775\C,0,-0.80143744,-0.
 97496941,-0.53899437\C,0,-1.3344112,-0.6872393,1.16209774\O,0,-1.71348
 09,0.56430357,1.20482848\H,0,2.3742201,1.37293992,0.75671079\H,0,2.836
 45684,0.13628325,-0.27852139\H,0,0.86274981,0.55161684,-1.59547255\H,0

 Normal termination of Gaussian 16 at Wed Apr  9 03:58:57 2025.
