 Gaussian 16, Revision C.01,

 ----------------------------------------------------------------------
 #t hf aug-cc-pvdz symm=none int=(grid=ultrafine) guess=(read,tcheck) s
 table=(opt,rrhf)
 ----------------------------------------------------------------------
 -----
 title
 -----
 Symbolic Z-matrix:
 Charge =  0 Multiplicity = 1

 SCF Done:  E(RHF) =  -320.225325840     A.U. after   16 cycles
 Normal termination of Gaussian 16 at Wed Apr  9 15:58:42 2025.
 Gaussian 16:  ES64L-G16RevC.01  3-Jul-2019

 ----------------------------------------------------------------------
 #t hf aug-cc-pvdz iop(5/13=1,5/36=2,99/5=2) pseudo=read geom=check gue
 ss=(read,tcheck) scf=(maxcycle=1)
 ----------------------------------------------------------------------
 -----
 title
 -----
 Structure from the checkpoint file:  "Grambow2020_wb97xd3_007646_forward_mol1.chk"
 Charge =  0 Multiplicity = 1

                         Standard orientation:
 ---------------------------------------------------------------------
 Center     Atomic      Atomic             Coordinates (Angstroms)
 Number     Number       Type             X           Y           Z
 ---------------------------------------------------------------------
      1          7           0       -2.936922   -0.069265    0.129081
      2          6           0       -1.808193   -0.073223   -0.107823
      3          6           0       -0.442922   -0.096446   -0.456053
      4          6           0        0.584130   -0.657637    0.385516
      5          8           0        1.807060   -0.775386   -0.255931
      6          6           0        1.737584    0.589051    0.054346
      7          6           0        0.416415    1.010632   -0.083583
      8          1           0        0.543217   -0.943222    1.434566
      9          1           0        2.556651    1.068335    0.568194
     10          1           0        0.080032    1.928564    0.386699
 ---------------------------------------------------------------------

 SCF Done:  E(RHF) =  -320.321466239     A.U. after    2 cycles

 The electronic state is 1-A.
 Alpha  occ. eigenvalues --  -20.66480 -15.61627 -11.43388 -11.37948 -11.35744
 Alpha  occ. eigenvalues --  -11.27814 -11.26419  -1.48491  -1.20547  -1.16633
 Alpha  occ. eigenvalues --   -1.01791  -0.90777  -0.84349  -0.81369  -0.71689
 Alpha  occ. eigenvalues --   -0.70808  -0.65599  -0.61103  -0.56633  -0.53316
 Alpha  occ. eigenvalues --   -0.51538  -0.47012  -0.43919  -0.31315
 Alpha virt. eigenvalues --    0.01684   0.03369   0.04087   0.06854   0.07884
 Alpha virt. eigenvalues --    0.08195   0.09017   0.09370   0.10793   0.12054
 Alpha virt. eigenvalues --    0.12629   0.13041   0.13767   0.14175   0.14608

 Mulliken charges:
               1
     1  N   -0.209716
     2  C   -0.237450
     3  C   -0.082788
     4  C    0.689107
     5  O   -0.707449
     6  C    0.747999
     7  C    0.575304
     8  H   -0.207009
     9  H   -0.292701
    10  H   -0.275299
 Sum of Mulliken charges =  -0.00000

 Dipole moment (field-independent basis, Debye):
    X=              5.6584    Y=              2.2238    Z=              2.9261  Tot=              6.7472

 Test job not archived.
 1\1\GINC-SE037\SP\RHF\Aug-CC-pVDZ\C5H3N1O1\OHZDE\09-Apr-2025\0\\#t hf
 aug-cc-pvdz iop(5/13=1,5/36=2,99/5=2) pseudo=read geom=check guess=(re
 ad,tcheck) scf=(maxcycle=1)\\title\\0,1\N,0,2.96210991,-1.12148034,0.4
 5594415\C,0,1.94839965,-0.78306413,0.02231571\C,0,0.72843318,-0.390912
 45,-0.56391664\C,0,0.09295195,0.87729079,-0.3073336\O,0,-0.96748542,1.
 13557107,-1.1615239\C,0,-1.50852326,0.22482383,-0.24467915\C,0,-0.5236
 9882,-0.69931665,0.09930878\H,0,0.29376914,1.60966668,0.4717909\H,0,-2
 .43753248,0.4502104,0.25608657\H,0,-0.62023685,-1.2964342,0.99989118\\

 Normal termination of Gaussian 16 at Wed Apr  9 15:58:45 2025.
