 Gaussian 16, Revision C.01,

 ----------------------------------------------------------------------
 #t hf aug-cc-pvdz symm=none int=(grid=ultrafine) guess=(read,tcheck) s
 table=(opt,rrhf)
 ----------------------------------------------------------------------
 -----
 title
 -----
 Symbolic Z-matrix:
 Charge =  0 Multiplicity = 1

 SCF Done:  E(RHF) =  -338.663810406     A.U. after   14 cycles
 Normal termination of Gaussian 16 at Wed Apr  9 16:26:57 2025.
 Gaussian 16:  ES64L-G16RevC.01  3-Jul-2019

 ----------------------------------------------------------------------
 #t hf aug-cc-pvdz iop(5/13=1,5/36=2,99/5=2) pseudo=read geom=check gue
 ss=(read,tcheck) scf=(maxcycle=1)
 ----------------------------------------------------------------------
 -----
 title
 -----
 Structure from the checkpoint file:  "Grambow2020_wb97xd3_008314_forward_mol1.chk"
 Charge =  0 Multiplicity = 1

                         Standard orientation:
 ---------------------------------------------------------------------
 Center     Atomic      Atomic             Coordinates (Angstroms)
 Number     Number       Type             X           Y           Z
 ---------------------------------------------------------------------
      1          6           0        2.439176   -0.347811   -0.000641
      2          8           0        1.453847    0.676938    0.014175
      3          6           0        0.187281    0.272662   -0.010874
      4          6           0       -0.915620    1.130189   -0.021446
      5          7           0       -2.029342    0.379920   -0.082176
      6          6           0       -1.528792   -0.945065   -0.017606
      7          7           0       -0.190760   -1.004534    0.003229
      8          1           0        2.340624   -0.993447    0.873340
      9          1           0        3.398018    0.164405    0.013544
     10          1           0        2.348146   -0.956888   -0.901383
     11          1           0       -0.946290    2.204987    0.050040
     12          1           0       -2.147830   -0.342911    0.958804
     13          1           0       -2.174998   -1.779201   -0.251712
 ---------------------------------------------------------------------

 SCF Done:  E(RHF) =  -338.765743704     A.U. after    2 cycles

 The electronic state is 1-A.
 Alpha  occ. eigenvalues --  -20.61078 -15.68773 -15.62802 -11.34441 -11.33077
 Alpha  occ. eigenvalues --  -11.29432 -11.26211  -1.39906  -1.32209  -1.14602
 Alpha  occ. eigenvalues --   -1.02481  -0.95049  -0.81724  -0.79590  -0.73517
 Alpha  occ. eigenvalues --   -0.69053  -0.66590  -0.64975  -0.62000  -0.58206
 Alpha  occ. eigenvalues --   -0.53612  -0.51866  -0.49256  -0.44874  -0.41175
 Alpha  occ. eigenvalues --   -0.34268
 Alpha virt. eigenvalues --    0.03474   0.03861   0.04276   0.05053   0.06381
 Alpha virt. eigenvalues --    0.07126   0.09045   0.10078   0.11676   0.12001
 Alpha virt. eigenvalues --    0.13095   0.13469   0.14903   0.15217   0.15793

 Mulliken charges:
               1
     1  C    0.726352
     2  O   -0.591601
     3  C    0.147553
     4  C    0.837527
     5  N   -0.807512
     6  C    0.610249
     7  N   -0.411734
     8  H   -0.059298
     9  H   -0.256632
    10  H   -0.058677
    11  H   -0.266623
    12  H    0.335064
    13  H   -0.204666
 Sum of Mulliken charges =  -0.00000

 Dipole moment (field-independent basis, Debye):
    X=              0.2093    Y=             -0.7667    Z=              0.6593  Tot=              1.0327

 Test job not archived.
 1\1\GINC-SE219\SP\RHF\Aug-CC-pVDZ\C4H6N2O1\OHZDE\09-Apr-2025\0\\#t hf
 aug-cc-pvdz iop(5/13=1,5/36=2,99/5=2) pseudo=read geom=check guess=(re
 ad,tcheck) scf=(maxcycle=1)\\title\\0,1\C,0,2.21976966,0.36325125,-0.4
 2529549\O,0,1.31026716,-0.71661939,-0.25830032\C,0,0.04911353,-0.38572
 822,0.00296159\C,0,-0.98072215,-1.30520259,0.21711436\N,0,-2.10547582,
 -0.61978533,0.48562829\C,0,-1.70370674,0.73118838,0.33149285\N,0,-0.39
 868181,0.86740628,0.06194489\H,0,1.92291986,0.9942711,-1.26439984\H,0,
 3.1874099,-0.09301621,-0.61878007\H,0,2.26257832,0.9741383,0.47780043\

 Normal termination of Gaussian 16 at Wed Apr  9 16:27:01 2025.
