 Gaussian 16, Revision C.01,

 ----------------------------------------------------------------------
 #t hf aug-cc-pvdz symm=none int=(grid=ultrafine) guess=(read,tcheck) s
 table=(opt,rrhf)
 ----------------------------------------------------------------------
 -----
 title
 -----
 Symbolic Z-matrix:
 Charge =  0 Multiplicity = 1

 SCF Done:  E(RHF) =  -286.759556058     A.U. after   18 cycles
 Normal termination of Gaussian 16 at Wed Apr  9 15:37:16 2025.
 Gaussian 16:  ES64L-G16RevC.01  3-Jul-2019

 ----------------------------------------------------------------------
 #t hf aug-cc-pvdz iop(5/13=1,5/36=2,99/5=2) pseudo=read geom=check gue
 ss=(read,tcheck) scf=(maxcycle=1)
 ----------------------------------------------------------------------
 -----
 title
 -----
 Structure from the checkpoint file:  "Grambow2020_wb97xd3_007192_forward_mol1.chk"
 Charge =  0 Multiplicity = 1

                         Standard orientation:
 ---------------------------------------------------------------------
 Center     Atomic      Atomic             Coordinates (Angstroms)
 Number     Number       Type             X           Y           Z
 ---------------------------------------------------------------------
      1          6           0       -2.486340   -0.563820   -0.061105
      2          6           0       -1.096292   -0.034441   -0.035292
      3          6           0       -0.652466    1.282005   -0.087768
      4          6           0        0.727621    1.263833    0.073961
      5          6           0        1.175975   -0.092594    0.177554
      6          6           0        2.479421   -0.694449   -0.336720
      7          7           0       -0.030477   -0.836173    0.131654
      8          1           0       -2.778674   -0.938660    0.923271
      9          1           0       -3.185174    0.219989   -0.347136
     10          1           0       -2.584846   -1.385920   -0.773414
     11          1           0       -1.292018    2.146583   -0.171864
     12          1           0        1.389594    2.112416    0.153046
     13          1           0        3.181707    0.077997   -0.645875
     14          1           0        1.693205   -0.110222    1.178289
     15          1           0        2.935711   -1.398518    0.361307
     16          1           0       -0.033674   -1.833653    0.017026
 ---------------------------------------------------------------------

 SCF Done:  E(RHF) =  -286.846123284     A.U. after    2 cycles

 The electronic state is 1-A.
 Alpha  occ. eigenvalues --  -15.67803 -11.33160 -11.28038 -11.27701 -11.27197
 Alpha  occ. eigenvalues --  -11.24617 -11.16851  -1.28919  -1.07244  -1.06502
 Alpha  occ. eigenvalues --   -0.97686  -0.85929  -0.81213  -0.78488  -0.70030
 Alpha  occ. eigenvalues --   -0.65086  -0.62092  -0.61283  -0.59332  -0.58160
 Alpha  occ. eigenvalues --   -0.55833  -0.53703  -0.48998  -0.42744  -0.38084
 Alpha  occ. eigenvalues --   -0.20931
 Alpha virt. eigenvalues --    0.02433   0.03454   0.03965   0.04220   0.05654
 Alpha virt. eigenvalues --    0.06023   0.06432   0.07303   0.08081   0.08902
 Alpha virt. eigenvalues --    0.10626   0.11654   0.12811   0.13209   0.13961

 Mulliken charges:
               1
     1  C    0.593274
     2  C   -0.258117
     3  C    0.537667
     4  C    0.317698
     5  C   -0.201048
     6  C    0.425205
     7  N   -0.395889
     8  H    0.093840
     9  H   -0.013111
    10  H    0.011104
    11  H   -0.393549
    12  H   -0.307922
    13  H   -0.268692
    14  H    0.240084
    15  H   -0.287892
    16  H   -0.092652
 Sum of Mulliken charges =  -0.00000

 Dipole moment (field-independent basis, Debye):
    X=             -5.3591    Y=              1.0488    Z=              2.1029  Tot=              5.8516

 Test job not archived.
 1\1\GINC-SE009\SP\RHF\Aug-CC-pVDZ\C6H9N1\OHZDE\09-Apr-2025\0\\#t hf au
 g-cc-pvdz iop(5/13=1,5/36=2,99/5=2) pseudo=read geom=check guess=(read
 ,tcheck) scf=(maxcycle=1)\\title\\0,1\C,0,-2.46919691,-0.35195271,0.26
 646732\C,0,-1.05969368,0.08094748,0.06888276\C,0,-0.55000192,1.3571202
 9,-0.1417433\C,0,0.83573696,1.25490938,-0.16191276\C,0,1.21293687,-0.1
 1905543,-0.0149873\C,0,2.39634015,-0.84267833,-0.6487093\N,0,-0.030415
 66,-0.77916072,0.15495073\H,0,-2.64652084,-0.63830452,1.30642839\H,0,-
 3.15282312,0.45698083,0.01582754\H,0,-2.71220766,-1.21161823,-0.361908

 Normal termination of Gaussian 16 at Wed Apr  9 15:37:21 2025.
