 Gaussian 16, Revision C.01,

 ----------------------------------------------------------------------
 #t hf aug-cc-pvdz symm=none int=(grid=ultrafine) guess=(read,tcheck) s
 table=(opt,rrhf)
 ----------------------------------------------------------------------
 -----
 title
 -----
 Symbolic Z-matrix:
 Charge =  0 Multiplicity = 1

 SCF Done:  E(RHF) =  -305.834497835     A.U. after   14 cycles
 Normal termination of Gaussian 16 at Wed Apr  9 14:00:01 2025.
 Gaussian 16:  ES64L-G16RevC.01  3-Jul-2019

 ----------------------------------------------------------------------
 #t hf aug-cc-pvdz iop(5/13=1,5/36=2,99/5=2) pseudo=read geom=check gue
 ss=(read,tcheck) scf=(maxcycle=1)
 ----------------------------------------------------------------------
 -----
 title
 -----
 Structure from the checkpoint file:  "Grambow2020_b97d3_006758_reverse_mol2.chk"
 Charge =  0 Multiplicity = 1

                         Standard orientation:
 ---------------------------------------------------------------------
 Center     Atomic      Atomic             Coordinates (Angstroms)
 Number     Number       Type             X           Y           Z
 ---------------------------------------------------------------------
      1          6           0       -2.405183   -0.110510   -0.201736
      2          6           0       -1.071539   -0.788604    0.104656
      3          6           0        0.137110    0.089555   -0.155839
      4          8           0        0.085609    1.243472   -0.544761
      5          6           0        1.509204   -0.589659    0.119289
      6          8           0        2.569710   -0.024650   -0.041216
      7          1           0       -2.531259    0.790215    0.411380
      8          1           0       -3.241542   -0.791865   -0.000133
      9          1           0       -2.449572    0.197624   -1.253938
     10          1           0       -0.946589   -1.717803   -0.480688
     11          1           0       -1.020398   -1.117401    1.158792
     12          1           0       -0.819317    1.257216    2.890240
     13          1           0        1.449129   -1.648578    0.479613
     14          1           0       -0.700558    1.675322    2.284334
 ---------------------------------------------------------------------

 SCF Done:  E(RHF) =  -305.933671764     A.U. after    2 cycles

 The electronic state is 1-A.
 Alpha  occ. eigenvalues --  -20.61036 -20.59664 -11.37218 -11.37035 -11.27657
 Alpha  occ. eigenvalues --  -11.24804  -1.39189  -1.36375  -1.07380  -0.96021
 Alpha  occ. eigenvalues --   -0.86169  -0.77006  -0.71842  -0.68730  -0.65725
 Alpha  occ. eigenvalues --   -0.65242  -0.59935  -0.58013  -0.56009  -0.54195
 Alpha  occ. eigenvalues --   -0.53356  -0.51890  -0.51032  -0.43109
 Alpha virt. eigenvalues --    0.02646   0.03526   0.03935   0.04523   0.05541
 Alpha virt. eigenvalues --    0.06734   0.07502   0.07879   0.08576   0.10366
 Alpha virt. eigenvalues --    0.11976   0.12446   0.13413   0.13851   0.14290

 Mulliken charges:
               1
     1  C    0.467592
     2  C   -0.073689
     3  C   -0.083198
     4  O   -0.475455
     5  C    0.770107
     6  O   -0.424097
     7  H   -0.044549
     8  H   -0.019641
     9  H   -0.029874
    10  H    0.026584
    11  H    0.032376
    12  H    0.018764
    13  H   -0.167183
    14  H    0.002263
 Sum of Mulliken charges =  -0.00000

 Dipole moment (field-independent basis, Debye):
    X=             -3.1607    Y=             -4.1409    Z=              1.3229  Tot=              5.3747

 Test job not archived.
 1\1\GINC-SE054\SP\RHF\Aug-CC-pVDZ\C4H8O2\OHZDE\09-Apr-2025\0\\#t hf au
 g-cc-pvdz iop(5/13=1,5/36=2,99/5=2) pseudo=read geom=check guess=(read
 ,tcheck) scf=(maxcycle=1)\\title\\0,1\C,0,-1.77533805,0.31797613,0.159
 25389\C,0,-0.57060633,-0.53185607,-0.23911849\C,0,0.63263022,0.2787456
 ,-0.68070839\O,0,0.67985692,1.49646376,-0.69990749\C,0,1.86261197,-0.5
 654343,-1.12135991\O,0,2.90106965,-0.06991144,-1.50310929\H,0,-1.52043
 486,0.98426997,0.99243362\H,0,-2.61514649,-0.31931953,0.46414983\H,0,-
 2.09895407,0.94722953,-0.67941143\H,0,-0.82299525,-1.23377564,-1.05475

 Normal termination of Gaussian 16 at Wed Apr  9 14:00:06 2025.
