 Gaussian 16, Revision C.01,

 ----------------------------------------------------------------------
 #t hf aug-cc-pvdz symm=none int=(grid=ultrafine) guess=(read,tcheck) s
 table=(opt,rrhf)
 ----------------------------------------------------------------------
 -----
 title
 -----
 Symbolic Z-matrix:
 Charge =  0 Multiplicity = 1

 SCF Done:  E(RHF) =  -286.670937973     A.U. after   16 cycles
 Normal termination of Gaussian 16 at Wed Apr  9 03:41:01 2025.
 Gaussian 16:  ES64L-G16RevC.01  3-Jul-2019

 ----------------------------------------------------------------------
 #t hf aug-cc-pvdz iop(5/13=1,5/36=2,99/5=2) pseudo=read geom=check gue
 ss=(read,tcheck) scf=(maxcycle=1)
 ----------------------------------------------------------------------
 -----
 title
 -----
 Structure from the checkpoint file:  "Grambow2020_wb97xd3_007555_forward_mol1.chk"
 Charge =  0 Multiplicity = 1

                         Standard orientation:
 ---------------------------------------------------------------------
 Center     Atomic      Atomic             Coordinates (Angstroms)
 Number     Number       Type             X           Y           Z
 ---------------------------------------------------------------------
      1          6           0        0.992601    1.410184   -0.615388
      2          6           0        0.609785    0.250850    0.244721
      3          6           0       -0.422312    0.377170    1.324006
      4          6           0       -1.147351   -0.133812    0.145537
      5          6           0       -2.081234    0.043082   -0.763269
      6          6           0        0.164310   -1.294005   -0.448549
      7          7           0        1.406223   -0.915735    0.239265
      8          1           0        0.225680    2.180988   -0.602382
      9          1           0        1.147613    1.097362   -1.649037
     10          1           0        1.932442    1.819669   -0.232417
     11          1           0       -0.657082    1.395930    1.616849
     12          1           0       -0.267380   -0.294445    2.166650
     13          1           0       -2.960491    0.520168   -0.308413
     14          1           0       -0.275496   -2.197347   -0.043626
     15          1           0        0.143658   -1.216471   -1.528734
     16          1           0        2.172706   -0.816532   -0.416102
 ---------------------------------------------------------------------

 SCF Done:  E(RHF) =  -286.754198998     A.U. after    2 cycles

 The electronic state is 1-A.
 Alpha  occ. eigenvalues --  -15.65970 -11.37034 -11.31059 -11.26885 -11.26377
 Alpha  occ. eigenvalues --  -11.25457 -11.18278  -1.29626  -1.10778  -1.02001
 Alpha  occ. eigenvalues --   -0.95132  -0.89250  -0.80422  -0.71780  -0.69731
 Alpha  occ. eigenvalues --   -0.66197  -0.64165  -0.59311  -0.58797  -0.57760
 Alpha  occ. eigenvalues --   -0.55168  -0.52105  -0.47031  -0.41686  -0.34430
 Alpha  occ. eigenvalues --   -0.29434
 Alpha virt. eigenvalues --    0.02551   0.03768   0.04046   0.04881   0.06019
 Alpha virt. eigenvalues --    0.06496   0.06834   0.07570   0.08594   0.09549
 Alpha virt. eigenvalues --    0.10964   0.12308   0.12670   0.13301   0.13738

 Mulliken charges:
               1
     1  C    0.511403
     2  C   -0.606327
     3  C    1.007732
     4  C   -0.148866
     5  C   -0.348914
     6  C    1.214120
     7  N   -0.705515
     8  H   -0.030659
     9  H    0.045822
    10  H    0.079817
    11  H   -0.218249
    12  H   -0.172336
    13  H   -0.204821
    14  H   -0.209096
    15  H   -0.264757
    16  H    0.050645
 Sum of Mulliken charges =  -0.00000

 Dipole moment (field-independent basis, Debye):
    X=              4.4332    Y=              1.3754    Z=              1.3788  Tot=              4.8422

 Test job not archived.
 1\1\GINC-SE059\SP\RHF\Aug-CC-pVDZ\C6H9N1\OHZDE\09-Apr-2025\0\\#t hf au
 g-cc-pvdz iop(5/13=1,5/36=2,99/5=2) pseudo=read geom=check guess=(read
 ,tcheck) scf=(maxcycle=1)\\title\\0,1\C,0,-0.28759613,1.61151602,0.567
 48392\C,0,-0.40820417,0.30291952,-0.14203744\C,0,0.63815175,-0.1710136
 3,-1.10461936\C,0,0.98269427,-0.79352758,0.18740994\C,0,1.83759854,-0.
 9283066,1.17752676\C,0,-0.7435047,-1.18017362,0.7260977\N,0,-1.6398677
 ,-0.38849407,-0.12730863\H,0,0.74168637,1.9622105,0.57563813\H,0,-0.63
 117653,1.53102898,1.59985544\H,0,-0.91972087,2.33780653,0.04732574\H,0

 Normal termination of Gaussian 16 at Wed Apr  9 03:41:08 2025.
