 Gaussian 16, Revision C.01,

 ----------------------------------------------------------------------
 #t hf aug-cc-pvdz symm=none int=(grid=ultrafine) guess=(read,tcheck) s
 table=(opt,rrhf)
 ----------------------------------------------------------------------
 -----
 title
 -----
 Symbolic Z-matrix:
 Charge =  0 Multiplicity = 1

 SCF Done:  E(RHF) =  -338.564790328     A.U. after   17 cycles
 Normal termination of Gaussian 16 at Wed Apr  9 03:59:41 2025.
 Gaussian 16:  ES64L-G16RevC.01  3-Jul-2019

 ----------------------------------------------------------------------
 #t hf aug-cc-pvdz iop(5/13=1,5/36=2,99/5=2) pseudo=read geom=check gue
 ss=(read,tcheck) scf=(maxcycle=1)
 ----------------------------------------------------------------------
 -----
 title
 -----
 Structure from the checkpoint file:  "Grambow2020_wb97xd3_008808_reverse_mol1.chk"
 Charge =  0 Multiplicity = 1

                         Standard orientation:
 ---------------------------------------------------------------------
 Center     Atomic      Atomic             Coordinates (Angstroms)
 Number     Number       Type             X           Y           Z
 ---------------------------------------------------------------------
      1          7           0       -2.179226   -0.059773   -0.188765
      2          6           0       -0.853460    0.235051   -0.197725
      3          6           0        0.195528   -0.756338   -0.380501
      4          8           0        0.461133   -1.495008    0.649864
      5          7           0        1.358443   -0.074273   -0.740548
      6          6           0        1.240542    0.967493    0.233787
      7          6           0       -0.154862    1.319821    0.252716
      8          1           0       -2.412994   -1.038970   -0.193829
      9          1           0       -2.788588    0.523127    0.357206
     10          1           0        1.061564   -0.408073    1.203656
     11          1           0        2.158713   -0.672694   -0.589452
     12          1           0        2.024598    1.714618    0.315672
     13          1           0       -0.553366    2.184208    0.763359
 ---------------------------------------------------------------------

 SCF Done:  E(RHF) =  -338.664627322     A.U. after    2 cycles

 The electronic state is 1-A.
 Alpha  occ. eigenvalues --  -20.59409 -15.65158 -15.64797 -11.33876 -11.30485
 Alpha  occ. eigenvalues --  -11.30217 -11.25121  -1.37764  -1.22789  -1.20046
 Alpha  occ. eigenvalues --   -1.04638  -0.93595  -0.81809  -0.77499  -0.72550
 Alpha  occ. eigenvalues --   -0.69643  -0.66801  -0.66000  -0.60355  -0.59250
 Alpha  occ. eigenvalues --   -0.56762  -0.50914  -0.48740  -0.45506  -0.35937
 Alpha  occ. eigenvalues --   -0.28492
 Alpha virt. eigenvalues --    0.02950   0.03526   0.04302   0.05993   0.06200
 Alpha virt. eigenvalues --    0.06797   0.07392   0.10215   0.11194   0.11252
 Alpha virt. eigenvalues --    0.11809   0.13161   0.13639   0.15361   0.15684

 Mulliken charges:
               1
     1  N   -0.339429
     2  C    0.179381
     3  C    0.397276
     4  O   -0.668529
     5  N   -0.500551
     6  C    0.087632
     7  C    0.943376
     8  H   -0.011228
     9  H   -0.015464
    10  H    0.446991
    11  H    0.072995
    12  H   -0.267254
    13  H   -0.325198
 Sum of Mulliken charges =  -0.00000

 Dipole moment (field-independent basis, Debye):
    X=             -1.1901    Y=              1.8008    Z=              0.5488  Tot=              2.2272

 Test job not archived.
 1\1\GINC-SE094\SP\RHF\Aug-CC-pVDZ\C4H6N2O1\OHZDE\09-Apr-2025\0\\#t hf
 aug-cc-pvdz iop(5/13=1,5/36=2,99/5=2) pseudo=read geom=check guess=(re
 ad,tcheck) scf=(maxcycle=1)\\title\\0,1\N,0,-1.84838562,1.00722329,-0.
 51697213\C,0,-0.59205673,0.51714318,-0.35537294\C,0,-0.22252694,-0.865
 84526,-0.61503948\O,0,-0.57409829,-1.7243193,0.28898\N,0,1.16617485,-0
 .91126619,-0.74411764\C,0,1.45851331,-0.07992481,0.38367518\C,0,0.4887
 659,0.98274878,0.33939017\H,0,-2.56439549,0.32779497,-0.71498229\H,0,-
 2.13466202,1.77342806,0.06625575\H,0,0.40892984,-1.21262037,1.07666685

 Normal termination of Gaussian 16 at Wed Apr  9 03:59:45 2025.
