 Gaussian 16, Revision C.01,

 ----------------------------------------------------------------------
 #t hf aug-cc-pvdz symm=none int=(grid=ultrafine) guess=(read,tcheck) s
 table=(opt,rrhf)
 ----------------------------------------------------------------------
 -----
 title
 -----
 Symbolic Z-matrix:
 Charge =  0 Multiplicity = 1

 SCF Done:  E(RHF) =  -306.577687021     A.U. after   15 cycles
 Normal termination of Gaussian 16 at Wed Apr  9 04:05:06 2025.
 Gaussian 16:  ES64L-G16RevC.01  3-Jul-2019

 ----------------------------------------------------------------------
 #t hf aug-cc-pvdz iop(5/13=1,5/36=2,99/5=2) pseudo=read geom=check gue
 ss=(read,tcheck) scf=(maxcycle=1)
 ----------------------------------------------------------------------
 -----
 title
 -----
 Structure from the checkpoint file:  "Grambow2020_wb97xd3_009278_reverse_mol2.chk"
 Charge =  0 Multiplicity = 1

                         Standard orientation:
 ---------------------------------------------------------------------
 Center     Atomic      Atomic             Coordinates (Angstroms)
 Number     Number       Type             X           Y           Z
 ---------------------------------------------------------------------
      1          6           0       -1.526498    1.378218    0.111404
      2          6           0       -1.326111   -0.060445   -0.356408
      3          6           0       -2.336524   -1.032791    0.258893
      4          6           0        0.038101   -0.660778   -0.270836
      5          8           0        0.908510    0.322229   -0.016398
      6          6           0        2.183731   -0.001278    0.045333
      7          6           0        3.355647   -0.201672    0.117878
      8          1           0       -1.329705    1.469179    1.181791
      9          1           0       -2.557709    1.688342   -0.064408
     10          1           0       -0.869447    2.074463   -0.408953
     11          1           0       -1.467853   -0.112240   -1.451936
     12          1           0       -2.169181   -2.048084   -0.099519
     13          1           0       -2.246268   -1.039860    1.347274
     14          1           0       -3.355418   -0.732936    0.009610
     15          1           0        4.397420   -0.404211    0.179738
 ---------------------------------------------------------------------

 SCF Done:  E(RHF) =  -306.677549251     A.U. after    2 cycles

 The electronic state is 1-A.
 Alpha  occ. eigenvalues --  -20.68484 -11.32920 -11.31557 -11.25360 -11.24644
 Alpha  occ. eigenvalues --  -11.23586 -11.23367  -1.46027  -1.10256  -1.03698
 Alpha  occ. eigenvalues --   -0.94603  -0.94058  -0.82139  -0.74858  -0.71175
 Alpha  occ. eigenvalues --   -0.68664  -0.65456  -0.62432  -0.57135  -0.54897
 Alpha  occ. eigenvalues --   -0.53461  -0.49894  -0.49184  -0.41144  -0.40096
 Alpha  occ. eigenvalues --   -0.37969
 Alpha virt. eigenvalues --    0.03305   0.03899   0.04715   0.04886   0.05998
 Alpha virt. eigenvalues --    0.07121   0.07403   0.07668   0.08206   0.10376
 Alpha virt. eigenvalues --    0.11253   0.12126   0.12808   0.13887   0.14194

 Mulliken charges:
               1
     1  C    0.732873
     2  C   -0.867005
     3  C    0.703099
     4  C   -0.256736
     5  O   -0.188641
     6  C   -0.529578
     7  C    1.068338
     8  H   -0.002530
     9  H   -0.080165
    10  H   -0.056562
    11  H    0.114560
    12  H   -0.084615
    13  H   -0.018559
    14  H   -0.072090
    15  H   -0.462387
 Sum of Mulliken charges =  -0.00000

 Dipole moment (field-independent basis, Debye):
    X=             -1.0780    Y=              0.8690    Z=             -0.0370  Tot=              1.3851

 Test job not archived.
 1\1\GINC-SE195\SP\RHF\Aug-CC-pVDZ\C6H8O1\OHZDE\09-Apr-2025\0\\#t hf au
 g-cc-pvdz iop(5/13=1,5/36=2,99/5=2) pseudo=read geom=check guess=(read
 ,tcheck) scf=(maxcycle=1)\\title\\0,1\C,0,-1.00995946,0.4710385,-1.287
 48026\C,0,-0.48026831,-0.56742213,-0.30270559\C,0,-1.57482054,-1.14602
 236,0.59849606\C,0,0.70619104,-0.22358485,0.53567863\O,0,1.2460759,0.8
 992874,0.0495362\C,0,2.34376159,1.34118142,0.62787316\C,0,3.33630687,1
 .81250484,1.08778131\H,0,-1.38075014,1.35245577,-0.75989394\H,0,-1.839
 12008,0.05373607,-1.86092212\H,0,-0.24385097,0.7998828,-1.98903925\H,0

 Normal termination of Gaussian 16 at Wed Apr  9 04:05:16 2025.
