 Gaussian 16, Revision C.01,

 ----------------------------------------------------------------------
 #t hf aug-cc-pvdz symm=none int=(grid=ultrafine) guess=(read,tcheck) s
 table=(opt,rrhf)
 ----------------------------------------------------------------------
 -----
 title
 -----
 Symbolic Z-matrix:
 Charge =  0 Multiplicity = 1

 SCF Done:  E(RHF) =  -302.675140199     A.U. after   16 cycles
 Normal termination of Gaussian 16 at Wed Apr  9 03:34:29 2025.
 Gaussian 16:  ES64L-G16RevC.01  3-Jul-2019

 ----------------------------------------------------------------------
 #t hf aug-cc-pvdz iop(5/13=1,5/36=2,99/5=2) pseudo=read geom=check gue
 ss=(read,tcheck) scf=(maxcycle=1)
 ----------------------------------------------------------------------
 -----
 title
 -----
 Structure from the checkpoint file:  "Grambow2020_wb97xd3_007175_forward_mol1.chk"
 Charge =  0 Multiplicity = 1

                         Standard orientation:
 ---------------------------------------------------------------------
 Center     Atomic      Atomic             Coordinates (Angstroms)
 Number     Number       Type             X           Y           Z
 ---------------------------------------------------------------------
      1          6           0        1.731553    1.436950    0.394368
      2          6           0        1.540230   -0.640748   -0.338566
      3          6           0        0.718115   -1.336406    0.653503
      4          7           0        0.247085   -0.724312   -0.587745
      5          6           0       -0.592671    0.389769   -0.681257
      6          6           0       -1.885792    0.248180   -0.084731
      7          7           0       -2.905165    0.189175    0.446534
      8          1           0        2.428273    0.935335    1.067402
      9          1           0        1.329489    2.270767    0.982851
     10          1           0        2.284584    1.859355   -0.443512
     11          1           0        2.450758   -0.676232   -0.912028
     12          1           0        0.613258   -2.414234    0.698236
     13          1           0        0.528285   -0.798731    1.582330
     14          1           0        0.507100    1.137638    0.020958
     15          1           0       -0.603800    0.845595   -1.667666
 ---------------------------------------------------------------------

 SCF Done:  E(RHF) =  -302.766606797     A.U. after    2 cycles

 The electronic state is 1-A.
 Alpha  occ. eigenvalues --  -15.70400 -15.61983 -11.35733 -11.32066 -11.29181
 Alpha  occ. eigenvalues --  -11.27368 -11.23641  -1.34822  -1.17923  -1.05551
 Alpha  occ. eigenvalues --   -0.95159  -0.90065  -0.83806  -0.74503  -0.71920
 Alpha  occ. eigenvalues --   -0.68635  -0.60774  -0.57320  -0.56148  -0.55088
 Alpha  occ. eigenvalues --   -0.52965  -0.50914  -0.47297  -0.45318  -0.41865
 Alpha  occ. eigenvalues --   -0.31057
 Alpha virt. eigenvalues --    0.02171   0.03497   0.03747   0.04611   0.05966
 Alpha virt. eigenvalues --    0.06833   0.06952   0.07495   0.09061   0.09199
 Alpha virt. eigenvalues --    0.10836   0.12348   0.12687   0.12975   0.13925

 Mulliken charges:
               1
     1  C    0.420528
     2  C    0.299393
     3  C    0.953047
     4  N   -0.530259
     5  C    0.672862
     6  C   -0.476022
     7  N   -0.187078
     8  H   -0.150582
     9  H   -0.090722
    10  H   -0.070500
    11  H   -0.341616
    12  H   -0.253484
    13  H   -0.243646
    14  H    0.230849
    15  H   -0.232770
 Sum of Mulliken charges =  -0.00000

 Dipole moment (field-independent basis, Debye):
    X=              5.7242    Y=             -1.1765    Z=             -1.1107  Tot=              5.9485

 Test job not archived.
 1\1\GINC-SE460\SP\RHF\Aug-CC-pVDZ\C5H8N2\OHZDE\09-Apr-2025\0\\#t hf au
 g-cc-pvdz iop(5/13=1,5/36=2,99/5=2) pseudo=read geom=check guess=(read
 ,tcheck) scf=(maxcycle=1)\\title\\0,1\C,0,-1.32756013,-1.06013908,-0.4
 4302781\C,0,-0.66515231,1.04835108,-0.52122396\C,0,-0.20001109,1.36757
 475,0.82998103\N,0,0.62981873,0.93625972,-0.29366248\C,0,1.32455842,-0
 .2742419,-0.37813852\C,0,2.31334411,-0.49791994,0.63197112\N,0,3.06483
 575,-0.73694886,1.47040463\H,0,-2.16753372,-0.58043198,0.06128942\H,0,
 -1.25978776,-2.05413179,0.01588861\H,0,-1.57279489,-1.19728301,-1.4953

 Normal termination of Gaussian 16 at Wed Apr  9 03:34:34 2025.
