 Gaussian 16, Revision C.01,

 ----------------------------------------------------------------------
 #t hf aug-cc-pvdz symm=none int=(grid=ultrafine) guess=(read,tcheck) s
 table=(opt,rrhf)
 ----------------------------------------------------------------------
 -----
 title
 -----
 Symbolic Z-matrix:
 Charge =  0 Multiplicity = 1

 SCF Done:  E(RHF) =  -284.740999082     A.U. after   16 cycles
 Normal termination of Gaussian 16 at Wed Apr  9 03:05:26 2025.
 Gaussian 16:  ES64L-G16RevC.01  3-Jul-2019

 ----------------------------------------------------------------------
 #t hf aug-cc-pvdz iop(5/13=1,5/36=2,99/5=2) pseudo=read geom=check gue
 ss=(read,tcheck) scf=(maxcycle=1)
 ----------------------------------------------------------------------
 -----
 title
 -----
 Structure from the checkpoint file:  "Grambow2020_b97d3_006539_reverse_mol2.chk"
 Charge =  0 Multiplicity = 1

                         Standard orientation:
 ---------------------------------------------------------------------
 Center     Atomic      Atomic             Coordinates (Angstroms)
 Number     Number       Type             X           Y           Z
 ---------------------------------------------------------------------
      1          6           0        0.910445    0.860240    0.519045
      2          6           0        1.301403   -0.466412   -0.140164
      3          8           0        0.127650   -1.384777   -0.094832
      4          6           0       -1.093144   -0.839793   -0.164599
      5          7           0       -1.134098    0.429380   -0.687016
      6          6           0       -0.294298    1.321868   -0.262957
      7          1           0        0.682160    0.699601    1.584290
      8          1           0        1.728741    1.589192    0.451770
      9          1           0        1.607150   -0.323890   -1.184299
     10          1           0        2.071637   -1.013017    0.409566
     11          1           0       -1.873650   -0.414705    2.270487
     12          1           0       -1.850421   -0.074749    2.937242
     13          1           0       -0.394573    2.354699   -0.609236
 ---------------------------------------------------------------------

 SCF Done:  E(RHF) =  -284.829723339     A.U. after    2 cycles

 The electronic state is 1-A.
 Alpha  occ. eigenvalues --  -20.62755 -15.64479 -11.33666 -11.32701 -11.32625
 Alpha  occ. eigenvalues --  -11.28197  -1.39208  -1.22001  -1.07713  -0.92081
 Alpha  occ. eigenvalues --   -0.90036  -0.73934  -0.70794  -0.69672  -0.66350
 Alpha  occ. eigenvalues --   -0.61155  -0.59445  -0.58154  -0.54675  -0.53423
 Alpha  occ. eigenvalues --   -0.46344  -0.42749  -0.35070
 Alpha virt. eigenvalues --    0.02346   0.03753   0.04271   0.05426   0.06043
 Alpha virt. eigenvalues --    0.06568   0.08202   0.08777   0.10426   0.11180
 Alpha virt. eigenvalues --    0.11811   0.13088   0.13484   0.13974   0.14743

 Mulliken charges:
               1
     1  C    0.021543
     2  C    0.752292
     3  O   -0.550679
     4  C    0.190937
     5  N   -0.462991
     6  C    0.575239
     7  H   -0.019493
     8  H   -0.001578
     9  H   -0.142311
    10  H   -0.158527
    11  H    0.046071
    12  H   -0.026725
    13  H   -0.223778
 Sum of Mulliken charges =  -0.00000

 Dipole moment (field-independent basis, Debye):
    X=              4.5850    Y=              3.5153    Z=              0.5087  Tot=              5.7999

 Test job not archived.
 1\1\GINC-SE403\SP\RHF\Aug-CC-pVDZ\C4H7N1O1\OHZDE\09-Apr-2025\0\\#t hf
 aug-cc-pvdz iop(5/13=1,5/36=2,99/5=2) pseudo=read geom=check guess=(re
 ad,tcheck) scf=(maxcycle=1)\\title\\0,1\C,0,0.57784058,-0.7914774,0.27
 082962\C,0,-0.86585865,-1.12577177,-0.11825884\O,0,-1.62995786,0.14755
 389,-0.25220046\C,0,-0.96696784,1.23059982,-0.67607222\N,0,0.20949621,
 0.97106057,-1.33483631\C,0,1.05380501,0.12851308,-0.82603429\H,0,0.600
 09041,-0.30976905,1.26084351\H,0,1.19256456,-1.69990164,0.31966741\H,0
 ,-0.9115736,-1.67482453,-1.06718532\H,0,-1.41014072,-1.66674387,0.6597

 Normal termination of Gaussian 16 at Wed Apr  9 03:05:31 2025.
