 Gaussian 16, Revision C.01,

 ----------------------------------------------------------------------
 #t hf aug-cc-pvdz symm=none int=(grid=ultrafine) guess=(read,tcheck) s
 table=(opt,rrhf)
 ----------------------------------------------------------------------
 -----
 title
 -----
 Symbolic Z-matrix:
 Charge =  0 Multiplicity = 1

 SCF Done:  E(RHF) =  -704.609423286     A.U. after   13 cycles
 Normal termination of Gaussian 16 at Wed Apr  9 17:38:46 2025.
 Gaussian 16:  ES64L-G16RevC.01  3-Jul-2019

 ----------------------------------------------------------------------
 #t hf aug-cc-pvdz iop(5/13=1,5/36=2,99/5=2) pseudo=read geom=check gue
 ss=(read,tcheck) scf=(maxcycle=1)
 ----------------------------------------------------------------------
 -----
 title
 -----
 Structure from the checkpoint file:  "HB300SPXx10_1122_4.16_0.85_aceticacid_dimethylsulfide_dimer_mol1.chk"
 Charge =  0 Multiplicity = 1

                         Standard orientation:
 ---------------------------------------------------------------------
 Center     Atomic      Atomic             Coordinates (Angstroms)
 Number     Number       Type             X           Y           Z
 ---------------------------------------------------------------------
      1          6           0        0.277208    1.672498    0.000000
      2          8           0       -0.874656    1.303519    0.000000
      3          8           0        1.319840    0.834296    0.000000
      4          1           0        0.991339   -0.099140    0.000000
      5          6           0        0.712213    3.112154    0.000000
      6          1           0       -0.157339    3.759871    0.000000
      7          1           0        1.327083    3.310945    0.876781
      8          1           0        1.327083    3.310945   -0.876781
      9          1           0       -1.693952   -2.222002    1.379195
     10          1           0       -1.255631   -0.490502    1.315483
     11          1           0       -0.302630   -1.625711    2.299403
     12          1           0       -0.302630   -1.625711   -2.299403
     13          1           0       -1.255631   -0.490502   -1.315483
     14          1           0       -1.693952   -2.222002   -1.379195
     15          6           0       -0.874656   -1.506460    1.382643
     16         16           0        0.250883   -1.833694   -0.000000
     17          6           0       -0.874656   -1.506460   -1.382643
 ---------------------------------------------------------------------

 SCF Done:  E(RHF) =  -704.733536456     A.U. after    2 cycles

 The electronic state is 1-A'.
 Alpha  occ. eigenvalues --  -93.53657 -20.59094 -20.55217 -11.39080 -11.26014
 Alpha  occ. eigenvalues --  -11.25998 -11.24526  -8.83577  -6.17721  -6.17531
 Alpha  occ. eigenvalues --   -6.17344  -1.40824  -1.31146  -1.06213  -1.01177
 Alpha  occ. eigenvalues --   -0.95161  -0.83443  -0.80183  -0.71052  -0.68409
 Alpha  occ. eigenvalues --   -0.64994  -0.61580  -0.60810  -0.58301  -0.57625
 Alpha  occ. eigenvalues --   -0.57265  -0.56563  -0.55226  -0.50085  -0.48609
 Alpha  occ. eigenvalues --   -0.46255  -0.44076  -0.35659
 Alpha virt. eigenvalues --    0.03498   0.04410   0.04540   0.05425   0.06191
 Alpha virt. eigenvalues --    0.06355   0.07270   0.07442   0.08115   0.08994
 Alpha virt. eigenvalues --    0.11131   0.11499   0.13327   0.14334   0.14844

 Mulliken charges:
               1
     1  C    0.223886
     2  O   -0.530450
     3  O   -0.504946
     4  H    0.414686
     5  C    0.474979
     6  H   -0.036130
     7  H    0.040682
     8  H    0.040682
     9  H   -0.102244
    10  H   -0.133731
    11  H   -0.091825
    12  H   -0.091825
    13  H   -0.133731
    14  H   -0.102244
    15  C    0.306081
    16  S   -0.079953
    17  C    0.306081
 Sum of Mulliken charges =  -0.00000

 Dipole moment (field-independent basis, Debye):
    X=             -0.2303    Y=              0.3043    Z=              0.0000  Tot=              0.3816

 Test job not archived.
 1\1\GINC-SE232\SP\RHF\Aug-CC-pVDZ\C4H10O2S1\OHZDE\09-Apr-2025\0\\#t hf
  aug-cc-pvdz iop(5/13=1,5/36=2,99/5=2) pseudo=read geom=check guess=(r
 ead,tcheck) scf=(maxcycle=1)\\title\\0,1\C,0,0.08152563,1.86646531,0.\
 O,0,1.12794826,1.25988757,0.\O,0,-1.11612638,1.27040068,0.\H,0,-0.9946
 6015,0.28833063,0.\C,0,-0.03582077,3.36582142,0.\H,0,0.95204799,3.8127
 8193,0.\H,0,-0.5940149,3.69140047,-0.87678098\H,0,-0.5940149,3.6914004
 7,0.87678098\H,0,1.1750221,-2.35927326,-1.37919498\H,0,1.11679554,-0.5
 7410527,-1.31548339\H,0,-0.05675841,-1.47946862,-2.29940307\H,0,-0.056

 Normal termination of Gaussian 16 at Wed Apr  9 17:38:51 2025.
