 Gaussian 16, Revision C.01,

 ----------------------------------------------------------------------
 #t hf aug-cc-pvdz symm=none int=(grid=ultrafine) guess=(read,tcheck) s
 table=(opt,rrhf)
 ----------------------------------------------------------------------
 -----
 title
 -----
 Symbolic Z-matrix:
 Charge =  0 Multiplicity = 1

 SCF Done:  E(RHF) =  -1312.02654544     A.U. after   13 cycles

 1\1\GINC-SE174\Stability\RHF\Aug-CC-pVDZ\C3H10S3\OHZDE\09-Apr-2025\0\\
 #t hf aug-cc-pvdz symm=none int=(grid=ultrafine) guess=(read,tcheck) s
 table=(opt,rrhf)\\title\\0,1\H,0,1.01554051,-2.06430295,-0.26345232\H,
 0,1.41221348,-3.50790796,0.68330627\H,0,2.28776701,-1.9997821,0.978385
 09\H,0,0.09227498,-0.7095981,1.83267489\C,0,1.324424,-2.42503809,0.712
 77693\S,0,0.06941485,-2.04508424,1.97921636\H,0,-2.77363326,0.40829028
 ,0.69494612\H,0,-1.72304482,-0.91890477,0.1590289\H,0,-2.34952689,0.27
 350324,-1.02159616\H,0,0.46681463,2.62657317,-2.27708524\H,0,-0.547907

 Normal termination of Gaussian 16 at Wed Apr  9 17:45:01 2025.
 Gaussian 16:  ES64L-G16RevC.01  3-Jul-2019

 ----------------------------------------------------------------------
 #t hf aug-cc-pvdz iop(5/13=1,5/36=2,99/5=2) pseudo=read geom=check gue
 ss=(read,tcheck) scf=(maxcycle=1)
 ----------------------------------------------------------------------
 -----
 title
 -----
 Structure from the checkpoint file:  "HB300SPXx10_1173_4.22_0.90_methanethiol_dimethyldisulfide_dimer_mol1.chk"
 Charge =  0 Multiplicity = 1

                         Standard orientation:
 ---------------------------------------------------------------------
 Center     Atomic      Atomic             Coordinates (Angstroms)
 Number     Number       Type             X           Y           Z
 ---------------------------------------------------------------------
      1          1           0        1.272326   -1.549471    0.833778
      2          1           0        3.002718   -1.922856    0.897224
      3          1           0        2.126126   -2.092260   -0.629537
      4          1           0        1.586526    0.533980   -0.791616
      5          6           0        2.207075   -1.509276    0.283150
      6         16           0        2.680334    0.213331   -0.080076
      7          1           0       -0.183917    2.838958    0.728298
      8          1           0        0.520896    1.314744    1.304840
      9          1           0       -1.190956    1.710006    1.653442
     10          1           0       -3.600670   -0.519430   -0.412438
     11          1           0       -3.062022   -0.309399    1.275258
     12          1           0       -3.207038   -1.936616    0.585553
     13          6           0       -0.382970    1.787360    0.931567
     14         16           0       -0.866720    1.052032   -0.661752
     15         16           0       -1.219964   -0.911378   -0.192806
     16          6           0       -2.951169   -0.899986    0.370175
 ---------------------------------------------------------------------

 SCF Done:  E(RHF) =  -1312.13118705     A.U. after    2 cycles

 The electronic state is 1-A.
 Alpha  occ. eigenvalues --  -93.55956 -93.55872 -93.51940 -11.27466 -11.26822
 Alpha  occ. eigenvalues --  -11.25604  -8.85581  -8.85532  -8.81738  -6.19750
 Alpha  occ. eigenvalues --   -6.19634  -6.19447  -6.19404  -6.19195  -6.19087
 Alpha  occ. eigenvalues --   -6.15912  -6.15699  -6.15396  -1.07761  -1.01610
 Alpha  occ. eigenvalues --   -1.00588  -0.90477  -0.85082  -0.78229  -0.61910
 Alpha  occ. eigenvalues --   -0.61269  -0.60539  -0.59441  -0.58688  -0.58210
 Alpha  occ. eigenvalues --   -0.53553  -0.51856  -0.49221  -0.44901  -0.44101
 Alpha  occ. eigenvalues --   -0.36269  -0.35302  -0.34387
 Alpha virt. eigenvalues --    0.03273   0.04352   0.04635   0.05334   0.06078
 Alpha virt. eigenvalues --    0.06568   0.07187   0.07697   0.08091   0.09246
 Alpha virt. eigenvalues --    0.09910   0.11554   0.12581   0.13055   0.13793

 Mulliken charges:
               1
     1  H   -0.149256
     2  H   -0.118004
     3  H   -0.127819
     4  H    0.157667
     5  C    0.207705
     6  S    0.096189
     7  H   -0.061105
     8  H   -0.141070
     9  H   -0.111566
    10  H   -0.038158
    11  H   -0.082649
    12  H   -0.072946
    13  C    0.270618
    14  S   -0.036780
    15  S    0.192479
    16  C    0.014697
 Sum of Mulliken charges =   0.00000

 Dipole moment (field-independent basis, Debye):
    X=             -2.5708    Y=             -0.5428    Z=              1.8019  Tot=              3.1860

 Test job not archived.
 1\1\GINC-SE174\SP\RHF\Aug-CC-pVDZ\C3H10S3\OHZDE\09-Apr-2025\0\\#t hf a
 ug-cc-pvdz iop(5/13=1,5/36=2,99/5=2) pseudo=read geom=check guess=(rea
 d,tcheck) scf=(maxcycle=1)\\title\\0,1\H,0,1.01554051,-2.06430295,-0.2
 6345232\H,0,1.41221348,-3.50790796,0.68330627\H,0,2.28776701,-1.999782
 1,0.97838509\H,0,0.09227498,-0.7095981,1.83267489\C,0,1.324424,-2.4250
 3809,0.71277693\S,0,0.06941485,-2.04508424,1.97921636\H,0,-2.77363326,
 0.40829028,0.69494612\H,0,-1.72304482,-0.91890477,0.1590289\H,0,-2.349
 52689,0.27350324,-1.02159616\H,0,0.46681463,2.62657317,-2.27708524\H,0

 Normal termination of Gaussian 16 at Wed Apr  9 17:45:07 2025.
