 Gaussian 16, Revision C.01,

 ----------------------------------------------------------------------
 #t hf aug-cc-pvdz symm=none int=(grid=ultrafine) guess=(read,tcheck) s
 table=(opt,rrhf)
 ----------------------------------------------------------------------
 -----
 title
 -----
 Symbolic Z-matrix:
 Charge =  0 Multiplicity = 1

 SCF Done:  E(RHF) =  -1017.01610768     A.U. after   13 cycles
 Normal termination of Gaussian 16 at Wed Apr  9 04:10:41 2025.
 Gaussian 16:  ES64L-G16RevC.01  3-Jul-2019

 ----------------------------------------------------------------------
 #t hf aug-cc-pvdz iop(5/13=1,5/36=2,99/5=2) pseudo=read geom=check gue
 ss=(read,tcheck) scf=(maxcycle=1)
 ----------------------------------------------------------------------
 -----
 title
 -----
 Structure from the checkpoint file:  "HB300SPXx10_1381_5.01_0.80_dimethylsulfide_phosphineF2_dimer_mol1.chk"
 Charge =  0 Multiplicity = 1

                         Standard orientation:
 ---------------------------------------------------------------------
 Center     Atomic      Atomic             Coordinates (Angstroms)
 Number     Number       Type             X           Y           Z
 ---------------------------------------------------------------------
      1          1           0       -0.491087    0.889270    1.440424
      2          1           0       -2.235714    1.253985    1.415205
      3          1           0       -1.095630    2.269636    0.514809
      4          1           0       -1.906170   -2.084164   -0.715337
      5          1           0       -2.684901   -1.362305    0.700406
      6          1           0       -0.928435   -1.660319    0.701412
      7          6           0       -1.315964    1.253999    0.833111
      8         16           0       -1.502737    0.253593   -0.664718
      9          6           0       -1.781563   -1.367655    0.093073
     10         15           0        1.877905   -0.293808   -0.329503
     11          9           0        1.082676   -0.974747    0.882721
     12          9           0        1.465270    1.227353   -0.074927
     13          1           0        0.870814   -0.547987   -1.306119
 ---------------------------------------------------------------------

 SCF Done:  E(RHF) =  -1017.17483977     A.U. after    2 cycles

 The electronic state is 1-A.
 Alpha  occ. eigenvalues --  -93.52121 -81.39104 -26.14412 -26.14057 -11.25562
 Alpha  occ. eigenvalues --  -11.25421  -8.81931  -7.87938  -6.16078  -6.15868
 Alpha  occ. eigenvalues --   -6.15586  -5.02104  -5.01795  -5.01329  -1.68119
 Alpha  occ. eigenvalues --   -1.66672  -1.04819  -0.94604  -0.90508  -0.80326
 Alpha  occ. eigenvalues --   -0.79957  -0.78477  -0.77839  -0.74558  -0.71828
 Alpha  occ. eigenvalues --   -0.62247  -0.60113  -0.59369  -0.57624  -0.56303
 Alpha  occ. eigenvalues --   -0.49174  -0.43296  -0.40778  -0.32895
 Alpha virt. eigenvalues --    0.03819   0.04657   0.05048   0.05974   0.06700
 Alpha virt. eigenvalues --    0.06827   0.07592   0.08568   0.09470   0.09872
 Alpha virt. eigenvalues --    0.12068   0.13943   0.15129   0.15473   0.16004

 Mulliken charges:
               1
     1  H   -0.113134
     2  H   -0.130824
     3  H   -0.100669
     4  H   -0.110875
     5  H   -0.116204
     6  H   -0.122811
     7  C    0.260808
     8  S    0.206750
     9  C    0.224641
    10  P    1.163429
    11  F   -0.672120
    12  F   -0.597057
    13  H    0.108067
 Sum of Mulliken charges =  -0.00000

 Dipole moment (field-independent basis, Debye):
    X=              0.2860    Y=             -1.1598    Z=             -0.0608  Tot=              1.1961

 Test job not archived.
 1\1\GINC-SE393\SP\RHF\Aug-CC-pVDZ\C2H7F2P1S1\OHZDE\09-Apr-2025\0\\#t h
 f aug-cc-pvdz iop(5/13=1,5/36=2,99/5=2) pseudo=read geom=check guess=(
 read,tcheck) scf=(maxcycle=1)\\title\\0,1\H,0,0.35324965,2.18742239,-0
 .72380577\H,0,0.23256961,2.54349189,-2.46622469\H,0,1.47961489,1.43776
 879,-1.86264863\H,0,-2.97879656,0.33269977,-1.6977403\H,0,-2.43534977,
 1.89515642,-2.32640837\H,0,-2.24831697,1.5140911,-0.59615001\C,0,0.456
 3691,1.7777672,-1.72571744\S,0,-0.61885679,0.337269,-1.94490696\C,0,-2
 .22218849,1.10820804,-1.60517522\P,0,-0.219801,-0.07022691,1.44853647\

 Normal termination of Gaussian 16 at Wed Apr  9 04:10:45 2025.
