 Gaussian 16, Revision C.01,

 ----------------------------------------------------------------------
 #t hf aug-cc-pvdz symm=none int=(grid=ultrafine) guess=(read,tcheck) s
 table=(opt,rrhf)
 ----------------------------------------------------------------------
 -----
 title
 -----
 Symbolic Z-matrix:
 Charge =  0 Multiplicity = 1

 SCF Done:  E(RHF) =  -974.725459543     A.U. after   13 cycles
 Normal termination of Gaussian 16 at Wed Apr  9 04:10:28 2025.
 Gaussian 16:  ES64L-G16RevC.01  3-Jul-2019

 ----------------------------------------------------------------------
 #t hf aug-cc-pvdz iop(5/13=1,5/36=2,99/5=2) pseudo=read geom=check gue
 ss=(read,tcheck) scf=(maxcycle=1)
 ----------------------------------------------------------------------
 -----
 title
 -----
 Structure from the checkpoint file:  "HB300SPXx10_1376_4.42_1.05_hydrogenchloride_thioacetone_dimer_mol1.chk"
 Charge =  0 Multiplicity = 1

                         Standard orientation:
 ---------------------------------------------------------------------
 Center     Atomic      Atomic             Coordinates (Angstroms)
 Number     Number       Type             X           Y           Z
 ---------------------------------------------------------------------
      1          1           0        1.702544   -0.298431    0.000000
      2         17           0        2.598133   -1.265281    0.000000
      3          1           0       -0.349284   -1.515388    0.000000
      4          1           0       -1.893816   -1.465128    0.874054
      5          1           0       -1.893816   -1.465128   -0.874054
      6          1           0       -2.659372    2.111560    0.000000
      7          1           0       -3.276388    0.692189   -0.874659
      8          6           0       -1.349616   -1.098582    0.000000
      9          6           0       -1.356584    0.397028    0.000000
     10         16           0        0.000000    1.299796    0.000000
     11          6           0       -2.714091    1.028418    0.000000
     12          1           0       -3.276388    0.692189    0.874659
 ---------------------------------------------------------------------

 SCF Done:  E(RHF) =  -974.799572860     A.U. after    2 cycles

 The electronic state is 1-A'.
 Alpha  occ. eigenvalues -- -103.64606 -93.52781 -11.35138 -11.26537 -11.26379
 Alpha  occ. eigenvalues --  -10.67860  -8.82754  -8.33602  -8.33327  -8.33318
 Alpha  occ. eigenvalues --   -6.16929  -6.16542  -6.16383  -1.13075  -1.12629
 Alpha  occ. eigenvalues --   -0.97995  -0.95924  -0.73653  -0.63341  -0.63279
 Alpha  occ. eigenvalues --   -0.62711  -0.60293  -0.57444  -0.54884  -0.51051
 Alpha  occ. eigenvalues --   -0.46222  -0.46219  -0.40027  -0.35462
 Alpha virt. eigenvalues --    0.02672   0.03575   0.04616   0.05919   0.05928
 Alpha virt. eigenvalues --    0.07200   0.07329   0.08241   0.09585   0.10831
 Alpha virt. eigenvalues --    0.13449   0.13616   0.14191   0.15583   0.15596

 Mulliken charges:
               1
     1  H    0.215315
     2  Cl  -0.211979
     3  H   -0.182667
     4  H    0.085410
     5  H    0.085410
     6  H   -0.066777
     7  H    0.051937
     8  C    0.342170
     9  C   -0.727089
    10  S    0.042590
    11  C    0.313744
    12  H    0.051937
 Sum of Mulliken charges =  -0.00000

 Dipole moment (field-independent basis, Debye):
    X=             -4.7728    Y=             -0.2658    Z=             -0.0000  Tot=              4.7802

 Test job not archived.
 1\1\GINC-SE292\SP\RHF\Aug-CC-pVDZ\C3H7Cl1S1\OHZDE\09-Apr-2025\0\\#t hf
  aug-cc-pvdz iop(5/13=1,5/36=2,99/5=2) pseudo=read geom=check guess=(r
 ead,tcheck) scf=(maxcycle=1)\\title\\0,1\H,0,-0.37830043,1.49279945,0.
 \Cl,0,0.15229845,2.69917624,0.\H,0,1.55466659,0.09472088,0.\H,0,2.1232
 0045,-1.3422454,0.87405369\H,0,2.12320045,-1.3422454,-0.87405369\H,0,-
 0.85343059,-3.46790818,0.\H,0,0.69425291,-3.46912799,-0.87465894\C,0,1
 .57036555,-0.98885832,0.\C,0,0.201054,-1.59042576,0.\S,0,-1.1670028,-0
 .70513923,0.\C,0,0.16202885,-3.0870739,0.\H,0,0.69425291,-3.46912799,0

 Normal termination of Gaussian 16 at Wed Apr  9 04:10:32 2025.
