 Gaussian 16, Revision C.01,

 ----------------------------------------------------------------------
 #t hf aug-cc-pvdz symm=none int=(grid=ultrafine) guess=(read,tcheck) s
 table=(opt,rrhf)
 ----------------------------------------------------------------------
 -----
 title
 -----
 Symbolic Z-matrix:
 Charge =  0 Multiplicity = 1

 SCF Done:  E(RHF) =  -1312.02135016     A.U. after   13 cycles

 1\1\GINC-SE029\Stability\RHF\Aug-CC-pVDZ\C3H10S3\OHZDE\09-Apr-2025\0\\
 #t hf aug-cc-pvdz symm=none int=(grid=ultrafine) guess=(read,tcheck) s
 table=(opt,rrhf)\\title\\0,1\H,0,1.01554051,-2.06430295,-0.26345232\H,
 0,1.41221348,-3.50790796,0.68330627\H,0,2.28776701,-1.9997821,0.978385
 09\H,0,0.09227498,-0.7095981,1.83267489\C,0,1.324424,-2.42503809,0.712
 77693\S,0,0.06941485,-2.04508424,1.97921636\H,0,-2.73663534,0.30200553
 ,0.77735021\H,0,-1.68604689,-1.02518952,0.24143299\H,0,-2.31252896,0.1
 6721849,-0.93919208\H,0,0.50381256,2.52028842,-2.19468115\H,0,-0.51090

 Normal termination of Gaussian 16 at Wed Apr  9 17:45:01 2025.
 Gaussian 16:  ES64L-G16RevC.01  3-Jul-2019

 ----------------------------------------------------------------------
 #t hf aug-cc-pvdz iop(5/13=1,5/36=2,99/5=2) pseudo=read geom=check gue
 ss=(read,tcheck) scf=(maxcycle=1)
 ----------------------------------------------------------------------
 -----
 title
 -----
 Structure from the checkpoint file:  "HB300SPXx10_1172_4.22_0.85_methanethiol_dimethyldisulfide_dimer_mol1.chk"
 Charge =  0 Multiplicity = 1

                         Standard orientation:
 ---------------------------------------------------------------------
 Center     Atomic      Atomic             Coordinates (Angstroms)
 Number     Number       Type             X           Y           Z
 ---------------------------------------------------------------------
      1          1           0        1.154818   -1.553215    0.835627
      2          1           0        2.877960   -1.959166    0.896304
      3          1           0        1.996174   -2.110791   -0.629334
      4          1           0        1.505891    0.525274   -0.788573
      5          6           0        2.089378   -1.530178    0.283695
      6         16           0        2.594473    0.183508   -0.078851
      7          1           0       -0.082969    2.830604    0.728253
      8          1           0        0.593834    1.292921    1.302586
      9          1           0       -1.109777    1.720059    1.653947
     10          1           0       -3.563964   -0.461928   -0.410240
     11          1           0       -3.019068   -0.263450    1.276849
     12          1           0       -3.195675   -1.887086    0.586070
     13          6           0       -0.301500    1.782774    0.930978
     14         16           0       -0.801264    1.057983   -0.662226
     15         16           0       -1.190752   -0.898810   -0.194322
     16          6           0       -2.920636   -0.855283    0.371143
 ---------------------------------------------------------------------

 SCF Done:  E(RHF) =  -1312.12584045     A.U. after    2 cycles

 The electronic state is 1-A.
 Alpha  occ. eigenvalues --  -93.56023 -93.55898 -93.51621 -11.27501 -11.26762
 Alpha  occ. eigenvalues --  -11.25416  -8.85657  -8.85571  -8.81449  -6.19817
 Alpha  occ. eigenvalues --   -6.19680  -6.19519  -6.19449  -6.19286  -6.19126
 Alpha  occ. eigenvalues --   -6.15624  -6.15413  -6.15119  -1.07874  -1.01526
 Alpha  occ. eigenvalues --   -1.00590  -0.90538  -0.85014  -0.78312  -0.62080
 Alpha  occ. eigenvalues --   -0.61419  -0.60578  -0.59329  -0.58701  -0.58068
 Alpha  occ. eigenvalues --   -0.53598  -0.51792  -0.49199  -0.44902  -0.44116
 Alpha  occ. eigenvalues --   -0.36270  -0.35222  -0.34167
 Alpha virt. eigenvalues --    0.03256   0.04347   0.04662   0.05323   0.06079
 Alpha virt. eigenvalues --    0.06603   0.07198   0.07712   0.08082   0.09232
 Alpha virt. eigenvalues --    0.09941   0.11577   0.12588   0.13103   0.13777

 Mulliken charges:
               1
     1  H   -0.154290
     2  H   -0.129132
     3  H   -0.128910
     4  H    0.190205
     5  C    0.234994
     6  S    0.075008
     7  H   -0.062888
     8  H   -0.141689
     9  H   -0.113736
    10  H   -0.039160
    11  H   -0.082542
    12  H   -0.073485
    13  C    0.291728
    14  S   -0.073276
    15  S    0.195896
    16  C    0.011276
 Sum of Mulliken charges =  -0.00000

 Dipole moment (field-independent basis, Debye):
    X=             -2.6538    Y=             -0.4790    Z=              1.8026  Tot=              3.2437

 Test job not archived.
 1\1\GINC-SE029\SP\RHF\Aug-CC-pVDZ\C3H10S3\OHZDE\09-Apr-2025\0\\#t hf a
 ug-cc-pvdz iop(5/13=1,5/36=2,99/5=2) pseudo=read geom=check guess=(rea
 d,tcheck) scf=(maxcycle=1)\\title\\0,1\H,0,1.01554051,-2.06430295,-0.2
 6345232\H,0,1.41221348,-3.50790796,0.68330627\H,0,2.28776701,-1.999782
 1,0.97838509\H,0,0.09227498,-0.7095981,1.83267489\C,0,1.324424,-2.4250
 3809,0.71277693\S,0,0.06941485,-2.04508424,1.97921636\H,0,-2.73663534,
 0.30200553,0.77735021\H,0,-1.68604689,-1.02518952,0.24143299\H,0,-2.31
 252896,0.16721849,-0.93919208\H,0,0.50381256,2.52028842,-2.19468115\H,

 Normal termination of Gaussian 16 at Wed Apr  9 17:45:07 2025.
