 Gaussian 16, Revision C.01,

 ----------------------------------------------------------------------
 #t hf aug-cc-pvdz symm=none int=(grid=ultrafine) guess=(read,tcheck) s
 table=(opt,rrhf)
 ----------------------------------------------------------------------
 -----
 title
 -----
 Symbolic Z-matrix:
 Charge =  0 Multiplicity = 1

 SCF Done:  E(RHF) =  -747.041171337     A.U. after   14 cycles
 Normal termination of Gaussian 16 at Wed Apr  9 17:58:50 2025.
 Gaussian 16:  ES64L-G16RevC.01  3-Jul-2019

 ----------------------------------------------------------------------
 #t hf aug-cc-pvdz iop(5/13=1,5/36=2,99/5=2) pseudo=read geom=check gue
 ss=(read,tcheck) scf=(maxcycle=1)
 ----------------------------------------------------------------------
 -----
 title
 -----
 Structure from the checkpoint file:  "HB300SPXx10_1452_5.08_0.85_methylcyanate_phosphineF2_dimer_mol1.chk"
 Charge =  0 Multiplicity = 1

                         Standard orientation:
 ---------------------------------------------------------------------
 Center     Atomic      Atomic             Coordinates (Angstroms)
 Number     Number       Type             X           Y           Z
 ---------------------------------------------------------------------
      1          1           0       -2.585385   -1.061949    1.324304
      2          1           0       -3.172218   -1.791470   -0.198169
      3          1           0       -1.413059   -1.645984    0.102658
      4          6           0       -2.390230   -1.202725    0.264693
      5          8           0       -2.447920    0.095096   -0.409089
      6          6           0       -1.570525    0.949194   -0.041129
      7          7           0       -0.785016    1.739187    0.264630
      8         15           0        1.531910    0.326718   -0.160391
      9          9           0        0.587795   -0.978264   -0.080107
     10          9           0        2.933231   -0.414344    0.086819
     11          1           0        1.345790    0.718215    1.195585
 ---------------------------------------------------------------------

 SCF Done:  E(RHF) =  -747.217739993     A.U. after    2 cycles

 The electronic state is 1-A.
 Alpha  occ. eigenvalues --  -81.38419 -26.14000 -26.12525 -20.68301 -15.64758
 Alpha  occ. eigenvalues --  -11.36998 -11.34029  -7.87169  -5.01285  -5.01018
 Alpha  occ. eigenvalues --   -5.00477  -1.67367  -1.65270  -1.45762  -1.20954
 Alpha  occ. eigenvalues --   -1.02017  -0.89727  -0.81684  -0.79209  -0.77746
 Alpha  occ. eigenvalues --   -0.76903  -0.73315  -0.72980  -0.71637  -0.70411
 Alpha  occ. eigenvalues --   -0.62486  -0.59909  -0.58731  -0.55931  -0.47501
 Alpha  occ. eigenvalues --   -0.46283  -0.39086
 Alpha virt. eigenvalues --    0.02683   0.04664   0.05246   0.06134   0.06983
 Alpha virt. eigenvalues --    0.09032   0.09517   0.10596   0.11391   0.11779
 Alpha virt. eigenvalues --    0.13636   0.14540   0.14803   0.15390   0.16000

 Mulliken charges:
               1
     1  H   -0.106261
     2  H   -0.164062
     3  H   -0.075648
     4  C    0.938586
     5  O   -0.390438
     6  C   -0.155561
     7  N   -0.053240
     8  P    1.250883
     9  F   -0.664354
    10  F   -0.645503
    11  H    0.065598
 Sum of Mulliken charges =  -0.00000

 Dipole moment (field-independent basis, Debye):
    X=             -3.1027    Y=             -2.0283    Z=              0.8041  Tot=              3.7930

 Test job not archived.
 1\1\GINC-SE173\SP\RHF\Aug-CC-pVDZ\C2H4F2N1O1P1\OHZDE\09-Apr-2025\0\\#t
  hf aug-cc-pvdz iop(5/13=1,5/36=2,99/5=2) pseudo=read geom=check guess
 =(read,tcheck) scf=(maxcycle=1)\\title\\0,1\H,0,-2.89287834,1.38344137
 ,-2.41875402\H,0,-2.88368966,0.15494314,-3.71690786\H,0,-2.33807438,-0
 .28314113,-2.0686702\C,0,-2.39546429,0.50243917,-2.8151059\O,0,-1.0419
 8507,0.86597867,-3.23651367\C,0,-0.26338211,1.27221362,-2.30729377\N,0
 ,0.4658792,1.6354549,-1.48824768\P,0,0.33691728,-0.47574979,0.26390597
 \F,0,-1.05068497,-0.82799143,-0.47856345\F,0,0.08965714,-1.34363334,1.

 Normal termination of Gaussian 16 at Wed Apr  9 17:58:54 2025.
