 Gaussian 16, Revision C.01,

 ----------------------------------------------------------------------
 #t hf aug-cc-pvdz symm=none int=(grid=ultrafine) guess=(read,tcheck) s
 table=(opt,rrhf)
 ----------------------------------------------------------------------
 -----
 title
 -----
 Symbolic Z-matrix:
 Charge =  0 Multiplicity = 1

 SCF Done:  E(RHF) =  -800.705451265     A.U. after   14 cycles
 Normal termination of Gaussian 16 at Wed Apr  9 17:37:51 2025.
 Gaussian 16:  ES64L-G16RevC.01  3-Jul-2019

 ----------------------------------------------------------------------
 #t hf aug-cc-pvdz iop(5/13=1,5/36=2,99/5=2) pseudo=read geom=check gue
 ss=(read,tcheck) scf=(maxcycle=1)
 ----------------------------------------------------------------------
 -----
 title
 -----
 Structure from the checkpoint file:  "HB300SPXx10_1101_4.14_0.80_Nmethylacetamide_tetrahydrothiophene_dimer_mol1.chk"
 Charge =  0 Multiplicity = 1

                         Standard orientation:
 ---------------------------------------------------------------------
 Center     Atomic      Atomic             Coordinates (Angstroms)
 Number     Number       Type             X           Y           Z
 ---------------------------------------------------------------------
      1          6           0       -2.215843   -1.604472   -0.145348
      2          1           0       -2.165309   -2.091014    0.827425
      3          1           0       -1.391275   -1.946553   -0.767402
      4          1           0       -3.156408   -1.899047   -0.606872
      5          6           0       -2.230232   -0.102836    0.060544
      6          8           0       -3.102535    0.446987    0.713095
      7          7           0       -1.219396    0.575260   -0.539933
      8          1           0       -0.470680    0.051909   -0.971892
      9          6           0       -1.081013    2.010211   -0.412451
     10          1           0       -2.067418    2.451819   -0.304568
     11          1           0       -0.489820    2.291682    0.463067
     12          1           0       -0.601660    2.411422   -1.303001
     13          1           0        1.382458    1.612239   -0.844369
     14          1           0        2.976482    0.965771   -1.240397
     15          1           0        2.501449    1.751143    1.288200
     16          1           0        1.862692   -2.065947    0.930437
     17          1           0        3.365053    0.241589    1.013665
     18          1           0        0.127278   -1.760550    0.805262
     19          1           0        1.522976   -0.300562    2.561145
     20          1           0        0.366808    0.523877    1.520500
     21         16           0        1.331961   -0.802948   -1.064346
     22          6           0        2.092110    0.817077   -0.627270
     23          6           0        2.411647    0.750535    0.865642
     24          6           0        1.291918   -0.052661    1.525310
     25          6           0        1.111754   -1.316743    0.689091
 ---------------------------------------------------------------------

 SCF Done:  E(RHF) =  -800.852114230     A.U. after    2 cycles

 The electronic state is 1-A.
 Alpha  occ. eigenvalues --  -93.53496 -20.51634 -15.62384 -11.34771 -11.27887
 Alpha  occ. eigenvalues --  -11.27709 -11.26289 -11.25455 -11.25062 -11.23777
 Alpha  occ. eigenvalues --   -8.83406  -6.17552  -6.17386  -6.17180  -1.33038
 Alpha  occ. eigenvalues --   -1.18486  -1.13130  -1.00847  -0.99512  -0.97682
 Alpha  occ. eigenvalues --   -0.92105  -0.81062  -0.80390  -0.77345  -0.69092
 Alpha  occ. eigenvalues --   -0.67727  -0.65768  -0.64588  -0.62986  -0.61489
 Alpha  occ. eigenvalues --   -0.58921  -0.58264  -0.55827  -0.55110  -0.54521
 Alpha  occ. eigenvalues --   -0.52297  -0.50987  -0.50271  -0.49399  -0.49309
 Alpha  occ. eigenvalues --   -0.43994  -0.42573  -0.38105  -0.34945
 Alpha virt. eigenvalues --    0.02685   0.03470   0.04144   0.04403   0.05472
 Alpha virt. eigenvalues --    0.05856   0.05958   0.06585   0.07225   0.07926
 Alpha virt. eigenvalues --    0.08671   0.08737   0.09983   0.10457   0.10867

 Mulliken charges:
               1
     1  C    0.565627
     2  H    0.086503
     3  H   -0.195339
     4  H   -0.131896
     5  C    0.187198
     6  O   -0.600175
     7  N   -0.190447
     8  H    0.111190
     9  C    0.894626
    10  H   -0.300824
    11  H   -0.146591
    12  H   -0.137836
    13  H   -0.379618
    14  H   -0.082964
    15  H   -0.094095
    16  H   -0.165387
    17  H   -0.180293
    18  H   -0.357906
    19  H   -0.082228
    20  H   -0.324876
    21  S    0.098568
    22  C    0.330512
    23  C    0.253566
    24  C    0.431600
    25  C    0.411084
 Sum of Mulliken charges =  -0.00000

 Dipole moment (field-independent basis, Debye):
    X=              4.7086    Y=             -0.3829    Z=             -0.3466  Tot=              4.7368

 Test job not archived.
 1\1\GINC-SE226\SP\RHF\Aug-CC-pVDZ\C7H15N1O1S1\OHZDE\09-Apr-2025\0\\#t
 hf aug-cc-pvdz iop(5/13=1,5/36=2,99/5=2) pseudo=read geom=check guess=
 (read,tcheck) scf=(maxcycle=1)\\title\\0,1\C,0,-2.35790997,-0.53076315
 ,1.51380969\H,0,-2.45888814,0.43106478,2.01406411\H,0,-1.4356415,-1.01
 232631,1.83224394\H,0,-3.20368729,-1.14467685,1.81747472\C,0,-2.435185
 38,-0.3119418,0.01592702\O,0,-3.41358688,0.19433185,-0.50891479\N,0,-1
 .3525984,-0.72916607,-0.68842032\H,0,-0.53292762,-1.03795931,-0.184588
 74\C,0,-1.26500492,-0.56327277,-2.12344447\H,0,-2.26409386,-0.61429593

 Normal termination of Gaussian 16 at Wed Apr  9 17:38:10 2025.
