 Gaussian 16, Revision C.01,

 ----------------------------------------------------------------------
 #t hf aug-cc-pvdz symm=none int=(grid=ultrafine) guess=(read,tcheck) s
 table=(opt,rrhf)
 ----------------------------------------------------------------------
 -----
 title
 -----
 Symbolic Z-matrix:
 Charge =  0 Multiplicity = 1

 SCF Done:  E(RHF) =  -858.791021812     A.U. after   11 cycles

 1\1\GINC-SE103\Stability\RHF\Aug-CC-pVDZ\Cl1H3S1\OHZDE\09-Apr-2025\0\\
 #t hf aug-cc-pvdz symm=none int=(grid=ultrafine) guess=(read,tcheck) s
 table=(opt,rrhf)\\title\\0,1\H,0,-0.07574771,0.51696812,0.\Cl,0,0.0020
 5903,1.81286821,0.\H,0,0.86945259,-1.81115562,0.97032462\H,0,0.8694525
 9,-1.81115562,-0.97032462\S,0,-0.05579452,-1.75764019,0.\\Version=ES64
 L-G16RevC.01\HF=-858.7910218\RMSD=3.722e-09\Dipole=0.4287412,-0.916658
 3,0.\Quadrupole=0.5708178,-2.0925338,1.5217161,-1.7364232,0.,0.\PG=Unk
 nown\\@

 Normal termination of Gaussian 16 at Wed Apr  9 17:54:08 2025.
 Gaussian 16:  ES64L-G16RevC.01  3-Jul-2019

 ----------------------------------------------------------------------
 #t hf aug-cc-pvdz iop(5/13=1,5/36=2,99/5=2) pseudo=read geom=check gue
 ss=(read,tcheck) scf=(maxcycle=1)
 ----------------------------------------------------------------------
 -----
 title
 -----
 Structure from the checkpoint file:  "HB300SPXx10_1354_4.40_0.95_hydrogenchloride_sulfane_dimer_mol1.chk"
 Charge =  0 Multiplicity = 1

                         Standard orientation:
 ---------------------------------------------------------------------
 Center     Atomic      Atomic             Coordinates (Angstroms)
 Number     Number       Type             X           Y           Z
 ---------------------------------------------------------------------
      1          1           0       -0.106668    0.526665   -0.000000
      2         17           0       -0.049866    1.823656   -0.000000
      3          1           0        0.876126   -1.785840    0.970325
      4          1           0        0.876126   -1.785840   -0.970325
      5         16           0       -0.049866   -1.747321    0.000000
 ---------------------------------------------------------------------

 SCF Done:  E(RHF) =  -858.831399643     A.U. after    2 cycles

 The electronic state is 1-A'.
 Alpha  occ. eigenvalues -- -103.65268 -93.57452 -10.68564  -8.87240  -8.34313
 Alpha  occ. eigenvalues --   -8.34017  -8.34017  -6.21405  -6.21214  -6.20922
 Alpha  occ. eigenvalues --   -1.13903  -0.99568  -0.62255  -0.61277  -0.52120
 Alpha  occ. eigenvalues --   -0.46957  -0.46937  -0.40860
 Alpha virt. eigenvalues --    0.02940   0.05818   0.06770   0.10204   0.10464
 Alpha virt. eigenvalues --    0.12708   0.15517   0.15563   0.16331   0.16707
 Alpha virt. eigenvalues --    0.19199   0.21190   0.24952   0.26419   0.26681

 Mulliken charges:
               1
     1  H    0.207563
     2  Cl  -0.159682
     3  H    0.063827
     4  H    0.063827
     5  S   -0.175535
 Sum of Mulliken charges =  -0.00000

 Dipole moment (field-independent basis, Debye):
    X=              1.0659    Y=             -2.3444    Z=             -0.0000  Tot=              2.5754

 Test job not archived.
 1\1\GINC-SE103\SP\RHF\Aug-CC-pVDZ\Cl1H3S1\OHZDE\09-Apr-2025\0\\#t hf a
 ug-cc-pvdz iop(5/13=1,5/36=2,99/5=2) pseudo=read geom=check guess=(rea
 d,tcheck) scf=(maxcycle=1)\\title\\0,1\H,0,-0.07574771,0.51696812,0.\C
 l,0,0.00205903,1.81286821,0.\H,0,0.86945259,-1.81115562,0.97032462\H,0
 ,0.86945259,-1.81115562,-0.97032462\S,0,-0.05579452,-1.75764019,0.\\Ve
 rsion=ES64L-G16RevC.01\State=1-A'\HF=-858.8313996\RMSD=7.425e-03\Dipol
 e=0.4043774,-0.929048,0.\Quadrupole=0.5389749,-2.0690811,1.5301062,-1.
 6033026,0.,0.\PG=CS [SG(Cl1H1S1),X(H2)]\\@

 Normal termination of Gaussian 16 at Wed Apr  9 17:54:10 2025.
