 Gaussian 16, Revision C.01,

 ----------------------------------------------------------------------
 #t hf aug-cc-pvdz symm=none int=(grid=ultrafine) guess=(read,tcheck) s
 table=(opt,rrhf)
 ----------------------------------------------------------------------
 -----
 title
 -----
 Symbolic Z-matrix:
 Charge =  0 Multiplicity = 1

 SCF Done:  E(RHF) =  -630.498507799     A.U. after   14 cycles

 1\1\GINC-SE219\Stability\RHF\Aug-CC-pVDZ\C6H10S1\OHZDE\09-Apr-2025\0\\
 #t hf aug-cc-pvdz symm=none int=(grid=ultrafine) guess=(read,tcheck) s
 table=(opt,rrhf)\\title\\0,1\C,0,2.59090187,-0.04968862,0.43961338\H,0
 ,1.93323189,0.27193926,-0.33858357\C,0,3.30609004,-0.41751171,1.325807
 27\H,0,3.94715573,-0.74121457,2.10714096\H,0,0.64913987,-1.71913298,-0
 .37850813\H,0,-0.82552028,-1.76596597,-1.35398912\H,0,-1.07337188,-2.0
 2551013,1.29866424\H,0,-1.38857366,1.77037472,0.37588085\H,0,-2.170409
 06,-0.92505347,0.46658945\H,0,0.32327887,1.96101412,0.77013087\H,0,-1.

 Normal termination of Gaussian 16 at Wed Apr  9 17:17:57 2025.
 Gaussian 16:  ES64L-G16RevC.01  3-Jul-2019

 ----------------------------------------------------------------------
 #t hf aug-cc-pvdz iop(5/13=1,5/36=2,99/5=2) pseudo=read geom=check gue
 ss=(read,tcheck) scf=(maxcycle=1)
 ----------------------------------------------------------------------
 -----
 title
 -----
 Structure from the checkpoint file:  "HB300SPXx10_1001_4.04_0.80_ethyne_tetrahydrothiophene_dimer_mol1.chk"
 Charge =  0 Multiplicity = 1

                         Standard orientation:
 ---------------------------------------------------------------------
 Center     Atomic      Atomic             Coordinates (Angstroms)
 Number     Number       Type             X           Y           Z
 ---------------------------------------------------------------------
      1          6           0       -2.219252   -0.402730   -0.064243
      2          1           0       -1.358636   -1.033778   -0.012449
      3          6           0       -3.166982    0.325682   -0.122141
      4          1           0       -4.012624    0.964815   -0.173422
      5          1           0       -0.189158    0.044281   -1.768856
      6          1           0        1.496821   -0.397111   -2.070565
      7          1           0        0.982508    2.110817   -1.288806
      8          1           0        1.683395   -0.073644    1.888695
      9          1           0        2.308467    1.253116   -0.505845
     10          1           0       -0.062124   -0.264909    2.085661
     11          1           0        0.886234    2.132976    1.314686
     12          1           0       -0.552736    1.485254    0.532299
     13         16           0        0.722428   -1.295696    0.034985
     14          6           0        0.796189   -0.051044   -1.315557
     15          6           0        1.227980    1.256718   -0.657297
     16          6           0        0.512791    1.320360    0.691400
     17          6           0        0.725773   -0.030767    1.374311
 ---------------------------------------------------------------------

 SCF Done:  E(RHF) =  -630.593074851     A.U. after    2 cycles

 The electronic state is 1-A.
 Alpha  occ. eigenvalues --  -93.52210 -11.26666 -11.26582 -11.24317 -11.23906
 Alpha  occ. eigenvalues --  -11.23793 -11.23127  -8.82082  -6.16215  -6.16058
 Alpha  occ. eigenvalues --   -6.15832  -1.12004  -1.01686  -0.98476  -0.96405
 Alpha  occ. eigenvalues --   -0.79830  -0.78810  -0.75481  -0.68236  -0.65374
 Alpha  occ. eigenvalues --   -0.64165  -0.60706  -0.55056  -0.51131  -0.49717
 Alpha  occ. eigenvalues --   -0.48707  -0.48171  -0.42710  -0.40357  -0.40126
 Alpha  occ. eigenvalues --   -0.33993
 Alpha virt. eigenvalues --    0.03173   0.03972   0.04482   0.05088   0.05721
 Alpha virt. eigenvalues --    0.06588   0.06902   0.07201   0.08087   0.08896
 Alpha virt. eigenvalues --    0.10514   0.11681   0.12941   0.13352   0.14157

 Mulliken charges:
               1
     1  C    0.689528
     2  H   -0.282137
     3  C    0.027721
     4  H   -0.351047
     5  H   -0.168825
     6  H   -0.091180
     7  H   -0.093412
     8  H   -0.153449
     9  H   -0.157869
    10  H   -0.126594
    11  H   -0.067839
    12  H   -0.247130
    13  S    0.181135
    14  C    0.175998
    15  C    0.215027
    16  C    0.244943
    17  C    0.205130
 Sum of Mulliken charges =  -0.00000

 Dipole moment (field-independent basis, Debye):
    X=              0.6555    Y=              2.2442    Z=              0.0035  Tot=              2.3379

 Test job not archived.
 1\1\GINC-SE219\SP\RHF\Aug-CC-pVDZ\C6H10S1\OHZDE\09-Apr-2025\0\\#t hf a
 ug-cc-pvdz iop(5/13=1,5/36=2,99/5=2) pseudo=read geom=check guess=(rea
 d,tcheck) scf=(maxcycle=1)\\title\\0,1\C,0,2.59090187,-0.04968862,0.43
 961338\H,0,1.93323189,0.27193926,-0.33858357\C,0,3.30609004,-0.4175117
 1,1.32580727\H,0,3.94715573,-0.74121457,2.10714096\H,0,0.64913987,-1.7
 1913298,-0.37850813\H,0,-0.82552028,-1.76596597,-1.35398912\H,0,-1.073
 37188,-2.02551013,1.29866424\H,0,-1.38857366,1.77037472,0.37588085\H,0
 ,-2.17040906,-0.92505347,0.46658945\H,0,0.32327887,1.96101412,0.770130

 Normal termination of Gaussian 16 at Wed Apr  9 17:18:04 2025.
