 Gaussian 16, Revision C.01,

 ----------------------------------------------------------------------
 #t hf aug-cc-pvdz symm=none int=(grid=ultrafine) guess=(read,tcheck) s
 table=(opt,rrhf)
 ----------------------------------------------------------------------
 -----
 title
 -----
 Symbolic Z-matrix:
 Charge =  0 Multiplicity = 1

 SCF Done:  E(RHF) =  -1091.85321183     A.U. after   14 cycles
 Normal termination of Gaussian 16 at Wed Apr  9 17:56:01 2025.
 Gaussian 16:  ES64L-G16RevC.01  3-Jul-2019

 ----------------------------------------------------------------------
 #t hf aug-cc-pvdz iop(5/13=1,5/36=2,99/5=2) pseudo=read geom=check gue
 ss=(read,tcheck) scf=(maxcycle=1)
 ----------------------------------------------------------------------
 -----
 title
 -----
 Structure from the checkpoint file:  "HB300SPXx10_1405_5.03_1.00_dimethylsulfoxide_phosphineF2_dimer_mol1.chk"
 Charge =  0 Multiplicity = 1

                         Standard orientation:
 ---------------------------------------------------------------------
 Center     Atomic      Atomic             Coordinates (Angstroms)
 Number     Number       Type             X           Y           Z
 ---------------------------------------------------------------------
      1          1           0        2.093881    1.674432   -1.456134
      2          1           0        2.892404    1.754306    0.132806
      3          1           0        1.100083    1.828443    0.018205
      4          1           0        1.561105   -1.587737    1.683679
      5          1           0        0.858305    0.049831    1.780922
      6          6           0        2.010134    1.412237   -0.404904
      7         16           0        1.932653   -0.395679   -0.324872
      8          8           0        0.635791   -0.800242   -0.952603
      9          6           0        1.719541   -0.534450    1.468902
     10          1           0        2.628367   -0.189000    1.957809
     11         15           0       -1.819013   -0.377214   -0.097977
     12          9           0       -3.351962    0.106868    0.059062
     13          9           0       -1.150859    0.957942    0.523919
     14          1           0       -1.710380    0.010726   -1.459672
 ---------------------------------------------------------------------

 SCF Done:  E(RHF) =  -1092.05416819     A.U. after    2 cycles

 The electronic state is 1-A.
 Alpha  occ. eigenvalues --  -93.66914 -81.37043 -26.12153 -26.10767 -20.53451
 Alpha  occ. eigenvalues --  -11.28109 -11.28018  -8.95377  -7.85715  -6.29681
 Alpha  occ. eigenvalues --   -6.29466  -6.29164  -4.99804  -4.99568  -4.99045
 Alpha  occ. eigenvalues --   -1.65319  -1.63291  -1.32241  -1.06586  -0.98304
 Alpha  occ. eigenvalues --   -0.87756  -0.82776  -0.77119  -0.75685  -0.74985
 Alpha  occ. eigenvalues --   -0.71458  -0.69064  -0.65224  -0.64750  -0.63950
 Alpha  occ. eigenvalues --   -0.61178  -0.59904  -0.57042  -0.56203  -0.54298
 Alpha  occ. eigenvalues --   -0.45583  -0.39767  -0.37508
 Alpha virt. eigenvalues --    0.02821   0.04210   0.04998   0.05643   0.06711
 Alpha virt. eigenvalues --    0.06863   0.07731   0.08643   0.09309   0.10534
 Alpha virt. eigenvalues --    0.12183   0.12997   0.13029   0.14530   0.15194

 Mulliken charges:
               1
     1  H   -0.047091
     2  H   -0.051828
     3  H   -0.061078
     4  H   -0.042334
     5  H   -0.078965
     6  C    0.216570
     7  S    1.022742
     8  O   -1.051564
     9  C    0.192256
    10  H   -0.049330
    11  P    1.271335
    12  F   -0.660948
    13  F   -0.684064
    14  H    0.024301
 Sum of Mulliken charges =  -0.00000

 Dipole moment (field-independent basis, Debye):
    X=              4.8132    Y=              1.0326    Z=              1.4230  Tot=              5.1242

 Test job not archived.
 1\1\GINC-SE362\SP\RHF\Aug-CC-pVDZ\C2H7F2O1P1S1\OHZDE\09-Apr-2025\0\\#t
  hf aug-cc-pvdz iop(5/13=1,5/36=2,99/5=2) pseudo=read geom=check guess
 =(read,tcheck) scf=(maxcycle=1)\\title\\0,1\H,0,1.67395499,0.82417178,
 -3.38423362\H,0,0.49124302,-0.02078366,-4.41184902\H,0,0.89589517,-0.6
 6534236,-2.78340018\H,0,-2.718683,0.46280377,-2.2188292\H,0,-1.5421980
 9,-0.87905323,-2.20106353\C,0,0.76564588,0.22768029,-3.38836814\S,0,-0
 .5351395,1.25679703,-2.66046249\O,0,-0.17783951,1.44910918,-1.22000404
 \C,0,-1.85989706,0.022286,-2.71790313\H,0,-2.10168806,-0.18449539,-3.7

 Normal termination of Gaussian 16 at Wed Apr  9 17:56:05 2025.
