 Gaussian 16, Revision C.01,

 ----------------------------------------------------------------------
 #t hf aug-cc-pvdz symm=none int=(grid=ultrafine) guess=(read,tcheck) s
 table=(opt,rrhf)
 ----------------------------------------------------------------------
 -----
 title
 -----
 Symbolic Z-matrix:
 Charge =  0 Multiplicity = 1

 SCF Done:  E(RHF) =  -1166.70449083     A.U. after   13 cycles
 Normal termination of Gaussian 16 at Wed Apr  9 04:10:57 2025.
 Gaussian 16:  ES64L-G16RevC.01  3-Jul-2019

 ----------------------------------------------------------------------
 #t hf aug-cc-pvdz iop(5/13=1,5/36=2,99/5=2) pseudo=read geom=check gue
 ss=(read,tcheck) scf=(maxcycle=1)
 ----------------------------------------------------------------------
 -----
 title
 -----
 Structure from the checkpoint file:  "HB300SPXx10_1394_5.02_0.95_dimethylsulfone_phosphineF2_dimer_mol1.chk"
 Charge =  0 Multiplicity = 1

                         Standard orientation:
 ---------------------------------------------------------------------
 Center     Atomic      Atomic             Coordinates (Angstroms)
 Number     Number       Type             X           Y           Z
 ---------------------------------------------------------------------
      1          1           0        2.201888    0.498933    2.085954
      2          1           0        1.398532   -1.091493    2.021574
      3          1           0        0.422538    0.393956    1.858580
      4          1           0        0.543104    1.910001   -0.412932
      5          1           0        1.654992    1.477571   -1.741273
      6          1           0        2.321450    2.083328   -0.203546
      7          8           0        2.948814   -0.670615   -0.362856
      8         16           0        1.619385   -0.180776   -0.109614
      9          8           0        0.488001   -0.893955   -0.665077
     10          6           0        1.383083   -0.068648    1.653672
     11          6           0        1.521129    1.510413   -0.662822
     12         15           0       -2.084998   -0.453787   -0.038926
     13          9           0       -3.636280   -0.043353   -0.074754
     14          9           0       -1.498845    1.000975    0.346746
     15          1           0       -1.881355   -0.325717   -1.440216
 ---------------------------------------------------------------------

 SCF Done:  E(RHF) =  -1166.96326566     A.U. after    2 cycles

 The electronic state is 1-A.
 Alpha  occ. eigenvalues --  -93.78957 -81.38705 -26.14088 -26.12724 -20.56820
 Alpha  occ. eigenvalues --  -20.56223 -11.29230 -11.29085  -9.05813  -7.87426
 Alpha  occ. eigenvalues --   -6.40483  -6.40244  -6.40149  -5.01540  -5.01281
 Alpha  occ. eigenvalues --   -5.00758  -1.67338  -1.65403  -1.43524  -1.31846
 Alpha  occ. eigenvalues --   -1.07369  -1.01348  -0.89697  -0.82666  -0.79225
 Alpha  occ. eigenvalues --   -0.77730  -0.76984  -0.73484  -0.71215  -0.70594
 Alpha  occ. eigenvalues --   -0.70123  -0.68441  -0.63338  -0.62678  -0.62120
 Alpha  occ. eigenvalues --   -0.59840  -0.59143  -0.53008  -0.52683  -0.50253
 Alpha  occ. eigenvalues --   -0.46665  -0.39665
 Alpha virt. eigenvalues --    0.02782   0.04280   0.04722   0.05552   0.06264
 Alpha virt. eigenvalues --    0.06626   0.07255   0.08697   0.09315   0.10518
 Alpha virt. eigenvalues --    0.12233   0.13582   0.13854   0.14362   0.15140

 Mulliken charges:
               1
     1  H   -0.010841
     2  H    0.039456
     3  H   -0.034513
     4  H   -0.018726
     5  H    0.023845
     6  H   -0.010974
     7  O   -1.066161
     8  S    2.017097
     9  O   -1.113612
    10  C    0.097712
    11  C    0.123332
    12  P    1.279030
    13  F   -0.655798
    14  F   -0.697739
    15  H    0.027892
 Sum of Mulliken charges =  -0.00000

 Dipole moment (field-independent basis, Debye):
    X=              0.9515    Y=              2.8356    Z=              1.8163  Tot=              3.4993

 Test job not archived.
 1\1\GINC-SE362\SP\RHF\Aug-CC-pVDZ\C2H7F2O2P1S1\OHZDE\09-Apr-2025\0\\#t
  hf aug-cc-pvdz iop(5/13=1,5/36=2,99/5=2) pseudo=read geom=check guess
 =(read,tcheck) scf=(maxcycle=1)\\title\\0,1\H,0,1.82037896,-1.1252997,
 2.45423408\H,0,2.45327614,-0.04590354,1.18406648\H,0,1.26048817,-1.302
 78481,0.75605091\H,0,-1.35656486,-1.06874241,1.510339\H,0,-1.8999986,0
 .31018714,2.5058364\H,0,-0.84910966,-0.93302114,3.2309401\O,0,0.704774
 22,1.412934,2.93921594\S,0,0.30796869,0.58975017,1.82729483\O,0,-0.016
 49706,1.22000253,0.56448154\C,0,1.58998555,-0.61149627,1.52558836\C,0,

 Normal termination of Gaussian 16 at Wed Apr  9 04:11:03 2025.
