 Gaussian 16, Revision C.01,

 ----------------------------------------------------------------------
 #t hf aug-cc-pvdz symm=none int=(grid=ultrafine) guess=(read,tcheck) s
 table=(opt,rrhf)
 ----------------------------------------------------------------------
 -----
 title
 -----
 Symbolic Z-matrix:
 Charge =  0 Multiplicity = 1

 SCF Done:  E(RHF) =  -783.960083643     A.U. after   15 cycles
 Normal termination of Gaussian 16 at Wed Apr  9 17:59:22 2025.
 Gaussian 16:  ES64L-G16RevC.01  3-Jul-2019

 ----------------------------------------------------------------------
 #t hf aug-cc-pvdz iop(5/13=1,5/36=2,99/5=2) pseudo=read geom=check gue
 ss=(read,tcheck) scf=(maxcycle=1)
 ----------------------------------------------------------------------
 -----
 title
 -----
 Structure from the checkpoint file:  "HB300SPXx10_1461_5.09_0.80_nitromethane_phosphineF2_dimer_mol1.chk"
 Charge =  0 Multiplicity = 1

                         Standard orientation:
 ---------------------------------------------------------------------
 Center     Atomic      Atomic             Coordinates (Angstroms)
 Number     Number       Type             X           Y           Z
 ---------------------------------------------------------------------
      1          1           0        1.314390    1.726649   -0.083160
      2          1           0        2.535498    1.202440    1.101044
      3          1           0        2.912093    1.169493   -0.665196
      4          6           0        2.152514    1.058995    0.097798
      5          7           0        1.599288   -0.325583    0.011381
      6          8           0        1.739196   -0.929088   -1.033361
      7          8           0        1.005283   -0.745239    0.993754
      8         15           0       -1.412234   -0.181361    0.394519
      9          9           0       -2.778240   -0.065970   -0.429896
     10          9           0       -0.647064    1.076631   -0.254572
     11          1           0       -0.816657   -1.154384   -0.459857
 ---------------------------------------------------------------------

 SCF Done:  E(RHF) =  -784.145705637     A.U. after    2 cycles

 The electronic state is 1-A.
 Alpha  occ. eigenvalues --  -81.38565 -26.14366 -26.12804 -20.64806 -20.63664
 Alpha  occ. eigenvalues --  -15.93573 -11.32338  -7.87344  -5.01491  -5.01199
 Alpha  occ. eigenvalues --   -5.00659  -1.67896  -1.65680  -1.57773  -1.39389
 Alpha  occ. eigenvalues --   -1.10423  -0.90132  -0.88260  -0.80502  -0.79633
 Alpha  occ. eigenvalues --   -0.77952  -0.77287  -0.76967  -0.74798  -0.73507
 Alpha  occ. eigenvalues --   -0.70954  -0.63999  -0.61754  -0.60234  -0.53700
 Alpha  occ. eigenvalues --   -0.52846  -0.50192  -0.39528
 Alpha virt. eigenvalues --    0.02802   0.04751   0.05164   0.05378   0.06886
 Alpha virt. eigenvalues --    0.08241   0.09859   0.10023   0.10837   0.13247
 Alpha virt. eigenvalues --    0.14639   0.15460   0.15838   0.16245   0.17750

 Mulliken charges:
               1
     1  H   -0.019838
     2  H   -0.076349
     3  H   -0.109876
     4  C    0.889842
     5  N    0.525445
     6  O   -0.573698
     7  O   -0.617656
     8  P    1.233681
     9  F   -0.637825
    10  F   -0.664699
    11  H    0.050972
 Sum of Mulliken charges =  -0.00000

 Dipole moment (field-independent basis, Debye):
    X=              3.1250    Y=              2.0664    Z=              0.9108  Tot=              3.8555

 Test job not archived.
 1\1\GINC-SE173\SP\RHF\Aug-CC-pVDZ\C1H4F2N1O2P1\OHZDE\09-Apr-2025\0\\#t
  hf aug-cc-pvdz iop(5/13=1,5/36=2,99/5=2) pseudo=read geom=check guess
 =(read,tcheck) scf=(maxcycle=1)\\title\\0,1\H,0,0.49481138,0.55069733,
 -2.50359179\H,0,-1.08891031,0.71291216,-3.29967626\H,0,-0.00441746,2.1
 4812453,-3.13671373\C,0,-0.34098337,1.21704881,-2.69950341\N,0,-0.9468
 7558,1.51662809,-1.36768821\O,0,-0.63929751,2.55888018,-0.82511637\O,0
 ,-1.68734525,0.66720154,-0.89420145\P,0,-0.06888667,-0.63432881,0.5917
 4542\F,0,1.05958612,-0.95697528,1.67866624\F,0,0.8991269,-0.25561437,-

 Normal termination of Gaussian 16 at Wed Apr  9 17:59:26 2025.
