 Gaussian 16, Revision C.01,

 ----------------------------------------------------------------------
 #t hf aug-cc-pvdz symm=none int=(grid=ultrafine) guess=(read,tcheck) s
 table=(opt,rrhf)
 ----------------------------------------------------------------------
 -----
 title
 -----
 Symbolic Z-matrix:
 Charge =  0 Multiplicity = 1

 SCF Done:  E(RHF) =  -936.854755824     A.U. after   12 cycles
 Normal termination of Gaussian 16 at Wed Apr  9 17:53:36 2025.
 Gaussian 16:  ES64L-G16RevC.01  3-Jul-2019

 ----------------------------------------------------------------------
 #t hf aug-cc-pvdz iop(5/13=1,5/36=2,99/5=2) pseudo=read geom=check gue
 ss=(read,tcheck) scf=(maxcycle=1)
 ----------------------------------------------------------------------
 -----
 title
 -----
 Structure from the checkpoint file:  "HB300SPXx10_1323_4.37_0.90_hydrogenchloride_dimethylsulfide_dimer_mol1.chk"
 Charge =  0 Multiplicity = 1

                         Standard orientation:
 ---------------------------------------------------------------------
 Center     Atomic      Atomic             Coordinates (Angstroms)
 Number     Number       Type             X           Y           Z
 ---------------------------------------------------------------------
      1          1           0       -0.907363   -0.000003   -0.446416
      2         17           0       -2.137790   -0.000002    0.043172
      3          1           0        0.357439   -1.354202    1.232725
      4          1           0        2.126575   -1.365703    0.994825
      5          1           0        1.074768   -2.299390   -0.083821
      6          1           0        1.074758    2.299393   -0.083823
      7          1           0        2.126565    1.365710    0.994828
      8          1           0        0.357427    1.354203    1.232722
      9          6           0        1.159308   -1.385386    0.498105
     10         16           0        1.013789    0.000001   -0.659514
     11          6           0        1.159300    1.385388    0.498105
 ---------------------------------------------------------------------

 SCF Done:  E(RHF) =  -936.922956949     A.U. after    2 cycles

 The electronic state is 1-A.
 Alpha  occ. eigenvalues -- -103.63081 -93.55445 -11.27882 -11.27864 -10.66459
 Alpha  occ. eigenvalues --   -8.85286  -8.32190  -8.31927  -8.31925  -6.19416
 Alpha  occ. eigenvalues --   -6.19209  -6.19040  -1.12320  -1.07461  -0.96890
 Alpha  occ. eigenvalues --   -0.82872  -0.64794  -0.62531  -0.59964  -0.58874
 Alpha  occ. eigenvalues --   -0.58792  -0.51745  -0.45777  -0.45339  -0.45281
 Alpha  occ. eigenvalues --   -0.36349
 Alpha virt. eigenvalues --    0.03208   0.04270   0.05167   0.05947   0.06996
 Alpha virt. eigenvalues --    0.07822   0.08079   0.09680   0.12381   0.12727
 Alpha virt. eigenvalues --    0.14808   0.15109   0.15683   0.16301   0.16588

 Mulliken charges:
               1
     1  H    0.403345
     2  Cl  -0.272785
     3  H   -0.154712
     4  H   -0.074358
     5  H   -0.092473
     6  H   -0.092472
     7  H   -0.074358
     8  H   -0.154712
     9  C    0.264465
    10  S   -0.016403
    11  C    0.264464
 Sum of Mulliken charges =  -0.00000

 Dipole moment (field-independent basis, Debye):
    X=              3.2485    Y=              0.0000    Z=              1.1676  Tot=              3.4520

 Test job not archived.
 1\1\GINC-SE226\SP\RHF\Aug-CC-pVDZ\C2H7Cl1S1\OHZDE\09-Apr-2025\0\\#t hf
  aug-cc-pvdz iop(5/13=1,5/36=2,99/5=2) pseudo=read geom=check guess=(r
 ead,tcheck) scf=(maxcycle=1)\\title\\0,1\H,0,-0.09169332,-0.01707414,-
 1.03147385\Cl,0,0.64323048,-0.44620369,-2.04605842\H,0,1.62854305,0.73
 998916,0.61799217\H,0,0.97657969,1.1764448,2.22143264\H,0,0.73787337,2
 .25661631,0.83658821\H,0,-1.31480825,-1.85100688,1.08705795\H,0,-0.242
 59102,-1.26325006,2.3701951\H,0,0.41963726,-1.67915243,0.76549837\C,0,
 0.80720674,1.21766099,1.14796307\S,0,-0.76646062,0.42720063,0.72452854

 Normal termination of Gaussian 16 at Wed Apr  9 17:53:39 2025.
