 Gaussian 16, Revision C.01,

 ----------------------------------------------------------------------
 #t hf aug-cc-pvdz symm=none int=(grid=ultrafine) guess=(read,tcheck) s
 table=(opt,rrhf)
 ----------------------------------------------------------------------
 -----
 title
 -----
 Symbolic Z-matrix:
 Charge =  0 Multiplicity = 1

 SCF Done:  E(RHF) =  -1013.77456721     A.U. after   12 cycles
 Normal termination of Gaussian 16 at Wed Apr  9 17:54:33 2025.
 Gaussian 16:  ES64L-G16RevC.01  3-Jul-2019

 ----------------------------------------------------------------------
 #t hf aug-cc-pvdz iop(5/13=1,5/36=2,99/5=2) pseudo=read geom=check gue
 ss=(read,tcheck) scf=(maxcycle=1)
 ----------------------------------------------------------------------
 -----
 title
 -----
 Structure from the checkpoint file:  "HB300SPXx10_1370_4.41_2.00_hydrogenchloride_tetrahydrothiophene_dimer_mol1.chk"
 Charge =  0 Multiplicity = 1

                         Standard orientation:
 ---------------------------------------------------------------------
 Center     Atomic      Atomic             Coordinates (Angstroms)
 Number     Number       Type             X           Y           Z
 ---------------------------------------------------------------------
      1          1           0       -2.915247   -0.423973    0.000879
      2         17           0       -4.120937    0.134257   -0.062367
      3          1           0        2.420021   -0.123389    1.867685
      4          1           0        0.669245   -0.010492    2.101225
      5          1           0        1.949982    2.141837    1.132733
      6          1           0        0.606087   -0.019420   -1.815136
      7          1           0        0.432603    1.649810    0.383189
      8          1           0        2.209487   -0.746390   -1.998305
      9          1           0        2.061100    1.881328   -1.457575
     10          1           0        3.234796    0.906701   -0.577455
     11         16           0        1.218289   -1.304906    0.136099
     12          6           0        1.468645    0.040547    1.366942
     13          6           0        1.461587    1.344811    0.572481
     14          6           0        2.168518    1.058391   -0.751408
     15          6           0        1.550453   -0.220396   -1.313779
 ---------------------------------------------------------------------

 SCF Done:  E(RHF) =  -1013.86170485     A.U. after    2 cycles

 The electronic state is 1-A.
 Alpha  occ. eigenvalues -- -103.67634 -93.52012 -11.26694 -11.26679 -11.24682
 Alpha  occ. eigenvalues --  -11.24627 -10.70758  -8.81791  -8.36503  -8.36199
 Alpha  occ. eigenvalues --   -8.36198  -6.15918  -6.15759  -6.15397  -1.15004
 Alpha  occ. eigenvalues --   -1.12026  -0.98616  -0.96177  -0.80069  -0.78240
 Alpha  occ. eigenvalues --   -0.66519  -0.64511  -0.62343  -0.60832  -0.55576
 Alpha  occ. eigenvalues --   -0.51353  -0.50106  -0.48970  -0.48521  -0.48521
 Alpha  occ. eigenvalues --   -0.47984  -0.42298  -0.33458
 Alpha virt. eigenvalues --    0.03161   0.04318   0.04405   0.04886   0.06375
 Alpha virt. eigenvalues --    0.06615   0.06734   0.07535   0.08280   0.09411
 Alpha virt. eigenvalues --    0.12591   0.12912   0.13789   0.14195   0.14284

 Mulliken charges:
               1
     1  H    0.156561
     2  Cl  -0.155827
     3  H   -0.099666
     4  H   -0.094745
     5  H   -0.058440
     6  H   -0.126107
     7  H   -0.167356
     8  H   -0.069864
     9  H   -0.059698
    10  H   -0.150984
    11  S    0.472585
    12  C   -0.012969
    13  C    0.155175
    14  C    0.255306
    15  C   -0.043971
 Sum of Mulliken charges =  -0.00000

 Dipole moment (field-independent basis, Debye):
    X=              1.9336    Y=              1.6852    Z=             -0.1361  Tot=              2.5685

 Test job not archived.
 1\1\GINC-SE232\SP\RHF\Aug-CC-pVDZ\C4H9Cl1S1\OHZDE\09-Apr-2025\0\\#t hf
  aug-cc-pvdz iop(5/13=1,5/36=2,99/5=2) pseudo=read geom=check guess=(r
 ead,tcheck) scf=(maxcycle=1)\\title\\0,1\H,0,-0.21838216,0.19107529,-1
 .4737198\Cl,0,-0.27626126,1.34164549,-2.13866114\H,0,-1.45566323,-2.69
 815371,3.23392161\H,0,-1.88360105,-1.61179777,1.90380783\H,0,-0.711899
 27,-0.5446621,4.07155339\H,0,1.99807363,-1.4215507,1.41559193\H,0,-0.1
 550204,-0.04663918,2.47524269\H,0,2.34092211,-2.92803699,2.2792363\H,0
 ,1.86529837,-0.71483025,3.72658239\H,0,1.09593953,-2.22147911,4.216650

 Normal termination of Gaussian 16 at Wed Apr  9 17:54:38 2025.
