 Gaussian 16, Revision C.01,

 ----------------------------------------------------------------------
 #t hf aug-cc-pvdz symm=none int=(grid=ultrafine) guess=(read,tcheck) s
 table=(opt,rrhf)
 ----------------------------------------------------------------------
 -----
 title
 -----
 Symbolic Z-matrix:
 Charge =  0 Multiplicity = 1

 SCF Done:  E(RHF) =  -576.785013884     A.U. after   12 cycles
 Normal termination of Gaussian 16 at Wed Apr  9 17:57:13 2025.
 Gaussian 16:  ES64L-G16RevC.01  3-Jul-2019

 ----------------------------------------------------------------------
 #t hf aug-cc-pvdz iop(5/13=1,5/36=2,99/5=2) pseudo=read geom=check gue
 ss=(read,tcheck) scf=(maxcycle=1)
 ----------------------------------------------------------------------
 -----
 title
 -----
 Structure from the checkpoint file:  "HB300SPXx10_1432_5.06_0.85_methanethiol_methylfluoride_dimer_mol1.chk"
 Charge =  0 Multiplicity = 1

                         Standard orientation:
 ---------------------------------------------------------------------
 Center     Atomic      Atomic             Coordinates (Angstroms)
 Number     Number       Type             X           Y           Z
 ---------------------------------------------------------------------
      1          1           0        1.676906    1.728526   -0.516635
      2          1           0        1.615009    1.352540    1.210371
      3          1           0        0.115067    1.381205    0.264643
      4          1           0        0.707935   -0.720598   -1.185905
      5          6           0        1.172172    1.137028    0.241535
      6         16           0        1.416095   -0.646287   -0.049446
      7          1           0       -1.135836   -0.830186    0.877743
      8          1           0       -2.632474    0.106087    1.181890
      9          1           0       -2.636688   -1.220839   -0.013336
     10          6           0       -2.044382   -0.425971    0.436248
     11          9           0       -1.681575    0.475279   -0.566038
 ---------------------------------------------------------------------

 SCF Done:  E(RHF) =  -576.870909060     A.U. after    2 cycles

 The electronic state is 1-A.
 Alpha  occ. eigenvalues --  -93.52880 -26.10724 -11.31699 -11.25920  -8.82650
 Alpha  occ. eigenvalues --   -6.16814  -6.16596  -6.16299  -1.63818  -1.02158
 Alpha  occ. eigenvalues --   -0.97155  -0.85569  -0.74806  -0.74365  -0.71620
 Alpha  occ. eigenvalues --   -0.60186  -0.58429  -0.55493  -0.55451  -0.52333
 Alpha  occ. eigenvalues --   -0.45162  -0.35147
 Alpha virt. eigenvalues --    0.03499   0.04528   0.05076   0.05900   0.06838
 Alpha virt. eigenvalues --    0.07837   0.08441   0.11019   0.11749   0.13434
 Alpha virt. eigenvalues --    0.14708   0.15152   0.15615   0.16442   0.17663

 Mulliken charges:
               1
     1  H   -0.122304
     2  H   -0.067727
     3  H   -0.123345
     4  H    0.116518
     5  C    0.140665
     6  S    0.059083
     7  H   -0.129957
     8  H   -0.091746
     9  H   -0.142596
    10  C    0.860563
    11  F   -0.499155
 Sum of Mulliken charges =  -0.00000

 Dipole moment (field-independent basis, Debye):
    X=             -1.3625    Y=              0.0527    Z=              1.1688  Tot=              1.7959

 Test job not archived.
 1\1\GINC-SE131\SP\RHF\Aug-CC-pVDZ\C2H7F1S1\OHZDE\09-Apr-2025\0\\#t hf
 aug-cc-pvdz iop(5/13=1,5/36=2,99/5=2) pseudo=read geom=check guess=(re
 ad,tcheck) scf=(maxcycle=1)\\title\\0,1\H,0,2.08229041,-1.4254109,-0.5
 8197167\H,0,2.56243491,-0.07269824,0.45116733\H,0,1.30281242,0.1638302
 2,-0.77457926\H,0,-0.45614858,-1.39442223,0.38777169\C,0,1.72720839,-0
 .53887394,-0.06484534\S,0,0.50833702,-0.97408013,1.21941614\H,0,-0.657
 85293,1.36660651,0.46639618\H,0,-0.73051015,2.58814883,-0.84188236\H,0
 ,-2.18212603,1.63254236,-0.43085411\C,0,-1.09566008,1.62271848,-0.4961

 Normal termination of Gaussian 16 at Wed Apr  9 17:57:16 2025.
