 Gaussian 16, Revision C.01,

 ----------------------------------------------------------------------
 #t hf aug-cc-pvdz symm=none int=(grid=ultrafine) guess=(read,tcheck) s
 table=(opt,rrhf)
 ----------------------------------------------------------------------
 -----
 title
 -----
 Symbolic Z-matrix:
 Charge =  0 Multiplicity = 1

 SCF Done:  E(RHF) =  -3015.76584216     A.U. after   14 cycles
 Normal termination of Gaussian 16 at Wed Apr  9 04:10:46 2025.
 Gaussian 16:  ES64L-G16RevC.01  3-Jul-2019

 ----------------------------------------------------------------------
 #t hf aug-cc-pvdz iop(5/13=1,5/36=2,99/5=2) pseudo=read geom=check gue
 ss=(read,tcheck) scf=(maxcycle=1)
 ----------------------------------------------------------------------
 -----
 title
 -----
 Structure from the checkpoint file:  "HB300SPXx10_1347_4.39_1.10_hydrogenchloride_P4S3_dimer_mol1.chk"
 Charge =  0 Multiplicity = 1

                         Standard orientation:
 ---------------------------------------------------------------------
 Center     Atomic      Atomic             Coordinates (Angstroms)
 Number     Number       Type             X           Y           Z
 ---------------------------------------------------------------------
      1          1           0       -2.809622   -0.474605   -0.479107
      2         17           0       -3.900903    0.005188    0.015759
      3         16           0       -0.326928   -0.721209   -1.584621
      4         15           0       -0.090232    1.321835   -1.091740
      5         16           0       -0.213545   -0.739553    1.647461
      6         16           0        2.525455   -0.649844   -0.079817
      7         15           0        1.897958    1.364083   -0.036190
      8         15           0       -0.012058    1.301612    1.157610
      9         15           0        0.695349   -1.710457    0.002510
 ---------------------------------------------------------------------

 SCF Done:  E(RHF) =  -3015.90949616     A.U. after    2 cycles

 The electronic state is 1-A.
 Alpha  occ. eigenvalues -- -103.66866 -93.58211 -93.57845 -93.57822 -81.36388
 Alpha  occ. eigenvalues --  -81.32539 -81.32482 -81.32457 -10.70104  -8.88087
 Alpha  occ. eigenvalues --   -8.87776  -8.87759  -8.35864  -8.35552  -8.35549
 Alpha  occ. eigenvalues --   -7.86147  -7.82718  -7.82658  -7.82632  -6.22152
 Alpha  occ. eigenvalues --   -6.21928  -6.21843  -6.21816  -6.21683  -6.21615
 Alpha  occ. eigenvalues --   -6.21574  -6.21313  -6.21279  -4.99835  -4.99828
 Alpha  occ. eigenvalues --   -4.99623  -4.96519  -4.96414  -4.96379  -4.96205
 Alpha  occ. eigenvalues --   -4.96173  -4.96139  -4.96120  -4.96090  -4.96079
 Alpha  occ. eigenvalues --   -1.15206  -1.07006  -0.97817  -0.97770  -0.89664
 Alpha  occ. eigenvalues --   -0.72474  -0.68749  -0.68713  -0.63038  -0.55164
 Alpha  occ. eigenvalues --   -0.54705  -0.54629  -0.48284  -0.48217  -0.45790
 Alpha  occ. eigenvalues --   -0.43875  -0.43865  -0.42650  -0.42394  -0.39054
 Alpha  occ. eigenvalues --   -0.37954  -0.34675  -0.34612
 Alpha virt. eigenvalues --    0.02798   0.05193   0.05386   0.05584   0.05777
 Alpha virt. eigenvalues --    0.06165   0.06272   0.07412   0.07483   0.08458
 Alpha virt. eigenvalues --    0.09861   0.09963   0.10475   0.10696   0.10788

 Mulliken charges:
               1
     1  H    0.151472
     2  Cl  -0.113586
     3  S   -0.337301
     4  P    0.216035
     5  S   -0.263332
     6  S   -0.252794
     7  P    0.192563
     8  P    0.224838
     9  P    0.182105
 Sum of Mulliken charges =  -0.00000

 Dipole moment (field-independent basis, Debye):
    X=              1.6206    Y=              0.2495    Z=             -0.2254  Tot=              1.6551

 Test job not archived.
 1\1\GINC-SE041\SP\RHF\Aug-CC-pVDZ\Cl1H1P4S3\OHZDE\09-Apr-2025\0\\#t hf
  aug-cc-pvdz iop(5/13=1,5/36=2,99/5=2) pseudo=read geom=check guess=(r
 ead,tcheck) scf=(maxcycle=1)\\title\\0,1\H,0,-0.57388532,0.23171594,-0
 .00983813\Cl,0,-1.31085335,0.72448843,-0.94794305\S,0,1.05092099,-0.04
 67332,2.16483794\P,0,0.5438991,1.96227319,2.58887854\S,0,-2.07708017,-
 0.21812737,2.9684416\S,0,0.19701587,-0.14069554,5.27412033\P,0,-0.0575
 0962,1.88898769,4.75724411\P,0,-1.63289217,1.83557185,3.14710753\P,0,-
 0.23893971,-1.14197247,3.46073858\\Version=ES64L-G16RevC.01\State=1-A\

 Normal termination of Gaussian 16 at Wed Apr  9 04:10:53 2025.
