 Gaussian 16, Revision C.01,

 ----------------------------------------------------------------------
 #t hf aug-cc-pvdz symm=none int=(grid=ultrafine) guess=(read,tcheck) s
 table=(opt,rrhf)
 ----------------------------------------------------------------------
 -----
 title
 -----
 Symbolic Z-matrix:
 Charge =  0 Multiplicity = 1

 SCF Done:  E(RHF) =  -645.418447495     A.U. after   14 cycles
 Normal termination of Gaussian 16 at Wed Apr  9 17:50:36 2025.
 Gaussian 16:  ES64L-G16RevC.01  3-Jul-2019

 ----------------------------------------------------------------------
 #t hf aug-cc-pvdz iop(5/13=1,5/36=2,99/5=2) pseudo=read geom=check gue
 ss=(read,tcheck) scf=(maxcycle=1)
 ----------------------------------------------------------------------
 -----
 title
 -----
 Structure from the checkpoint file:  "HB300SPXx10_122_1.13_0.85_sulfane_pyridine_dimer_mol1.chk"
 Charge =  0 Multiplicity = 1

                         Standard orientation:
 ---------------------------------------------------------------------
 Center     Atomic      Atomic             Coordinates (Angstroms)
 Number     Number       Type             X           Y           Z
 ---------------------------------------------------------------------
      1          1           0        1.821584   -0.306285   -0.025929
      2          1           0        3.278477   -0.040417    1.252572
      3         16           0        3.139584    0.011496   -0.079969
      4          1           0       -2.951333   -1.819416   -0.002037
      5          1           0       -0.512484   -2.292321   -0.001679
      6          6           0       -2.656736    0.316589    0.000969
      7          6           0       -2.239505   -1.007155   -0.000340
      8          6           0       -0.876515   -1.272600    0.000024
      9          7           0        0.050368   -0.315327    0.001855
     10          6           0       -0.357207    0.953392    0.002908
     11          6           0       -1.696951    1.318796    0.002578
     12          1           0        0.424192    1.703446    0.003250
     13          1           0       -1.975571    2.362234    0.003148
     14          1           0       -3.709307    0.561981    0.000372
 ---------------------------------------------------------------------

 SCF Done:  E(RHF) =  -645.511979385     A.U. after    2 cycles

 The electronic state is 1-A.
 Alpha  occ. eigenvalues --  -93.50171 -15.64803 -11.30176 -11.29968 -11.28298
 Alpha  occ. eigenvalues --  -11.26451 -11.26404  -8.80089  -6.14293  -6.14086
 Alpha  occ. eigenvalues --   -6.13741  -1.25297  -1.09516  -1.04632  -0.93112
 Alpha  occ. eigenvalues --   -0.87487  -0.87262  -0.74422  -0.68349  -0.66933
 Alpha  occ. eigenvalues --   -0.61892  -0.61016  -0.56314  -0.54936  -0.53860
 Alpha  occ. eigenvalues --   -0.47665  -0.40412  -0.40244  -0.36523  -0.34658
 Alpha virt. eigenvalues --    0.02621   0.03559   0.04248   0.05761   0.06036
 Alpha virt. eigenvalues --    0.07000   0.07853   0.08931   0.09212   0.10672
 Alpha virt. eigenvalues --    0.11261   0.12212   0.13059   0.13382   0.13863

 Mulliken charges:
               1
     1  H    0.084430
     2  H    0.018613
     3  S   -0.028633
     4  H   -0.419325
     5  H   -0.390591
     6  C   -0.155531
     7  C    0.795067
     8  C    0.542354
     9  N   -0.484231
    10  C    0.541140
    11  C    0.767082
    12  H   -0.458052
    13  H   -0.417529
    14  H   -0.394795
 Sum of Mulliken charges =  -0.00000

 Dipole moment (field-independent basis, Debye):
    X=             -4.6947    Y=              0.1648    Z=              0.7410  Tot=              4.7556

 Test job not archived.
 1\1\GINC-SE131\SP\RHF\Aug-CC-pVDZ\C5H7N1S1\OHZDE\09-Apr-2025\0\\#t hf
 aug-cc-pvdz iop(5/13=1,5/36=2,99/5=2) pseudo=read geom=check guess=(re
 ad,tcheck) scf=(maxcycle=1)\\title\\0,1\H,0,1.25021154,1.5960457,0.136
 91261\H,0,3.15091491,1.84193998,0.53016902\S,0,2.02337536,2.53859467,0
 .73260516\H,0,-1.67361023,-1.62115216,-2.34739386\H,0,-0.13522788,0.32
 849842,-2.2852108\C,0,-1.54632918,-1.93907232,-0.21853489\C,0,-1.24972
 916,-1.29209571,-1.4101013\C,0,-0.38981931,-0.20231181,-1.37648874\N,0
 ,0.16461254,0.25163793,-0.25309189\C,0,-0.12462223,-0.37409328,0.88733

 Normal termination of Gaussian 16 at Wed Apr  9 17:50:41 2025.
