 Gaussian 16, Revision C.01,

 ----------------------------------------------------------------------
 #t hf aug-cc-pvdz symm=none int=(grid=ultrafine) guess=(read,tcheck) s
 table=(opt,rrhf)
 ----------------------------------------------------------------------
 -----
 title
 -----
 Symbolic Z-matrix:
 Charge =  0 Multiplicity = 1

 SCF Done:  E(RHF) =  -1037.70068148     A.U. after   14 cycles
 Normal termination of Gaussian 16 at Wed Apr  9 18:02:15 2025.
 Gaussian 16:  ES64L-G16RevC.01  3-Jul-2019

 ----------------------------------------------------------------------
 #t hf aug-cc-pvdz iop(5/13=1,5/36=2,99/5=2) pseudo=read geom=check gue
 ss=(read,tcheck) scf=(maxcycle=1)
 ----------------------------------------------------------------------
 -----
 title
 -----
 Structure from the checkpoint file:  "HB300SPXx10_1476_5.10_1.05_phosphaalkene_phosphineF2_dimer_mol1.chk"
 Charge =  0 Multiplicity = 1

                         Standard orientation:
 ---------------------------------------------------------------------
 Center     Atomic      Atomic             Coordinates (Angstroms)
 Number     Number       Type             X           Y           Z
 ---------------------------------------------------------------------
      1          1           0       -1.788889   -2.917994   -0.585829
      2          1           0       -0.778195   -2.189583    0.663819
      3          1           0       -2.543270   -2.054352    0.753446
      4          1           0       -1.460041    2.156838   -1.515951
      5          1           0       -0.543859    1.190922    1.993630
      6          1           0       -2.263087    2.729576   -0.049166
      7          1           0       -0.509249    2.643902   -0.105344
      8          1           0       -1.408092   -0.347367    2.002547
      9          1           0       -2.293901    1.180544    2.046597
     10         15           0       -1.623884   -0.528084   -0.965099
     11          6           0       -1.476457    0.743588    0.125330
     12          6           0       -1.423534    2.141034   -0.428160
     13          6           0       -1.427395    0.667552    1.620010
     14          6           0       -1.687833   -2.062282    0.079264
     15         15           0        1.834757    0.259267   -0.216052
     16          9           0        3.434297    0.146668   -0.246536
     17          9           0        1.554659   -0.896386    0.857992
     18          1           0        1.616189   -0.552112   -1.368262
 ---------------------------------------------------------------------

 SCF Done:  E(RHF) =  -1037.88040752     A.U. after    2 cycles

 The electronic state is 1-A.
 Alpha  occ. eigenvalues --  -81.39374 -81.24061 -26.14006 -26.13477 -11.27773
 Alpha  occ. eigenvalues --  -11.24432 -11.24153 -11.23312  -7.88117  -7.74631
 Alpha  occ. eigenvalues --   -5.02258  -5.01986  -5.01504  -4.88690  -4.88319
 Alpha  occ. eigenvalues --   -4.88276  -1.67486  -1.65911  -1.07422  -0.96289
 Alpha  occ. eigenvalues --   -0.94905  -0.89969  -0.82700  -0.79465  -0.77846
 Alpha  occ. eigenvalues --   -0.77048  -0.73760  -0.71121  -0.67261  -0.62225
 Alpha  occ. eigenvalues --   -0.60635  -0.60379  -0.59348  -0.57062  -0.55205
 Alpha  occ. eigenvalues --   -0.55159  -0.51914  -0.47175  -0.40614  -0.35963
 Alpha  occ. eigenvalues --   -0.32276
 Alpha virt. eigenvalues --    0.03363   0.04197   0.04477   0.04908   0.06241
 Alpha virt. eigenvalues --    0.06574   0.06809   0.07125   0.07811   0.08048
 Alpha virt. eigenvalues --    0.09207   0.09556   0.10305   0.11037   0.11870

 Mulliken charges:
               1
     1  H   -0.343431
     2  H   -0.168851
     3  H   -0.148846
     4  H   -0.165051
     5  H   -0.034065
     6  H    0.031938
     7  H   -0.009338
     8  H   -0.178968
     9  H    0.009904
    10  P    0.213825
    11  C   -0.616475
    12  C    0.567771
    13  C    0.584668
    14  C    0.269746
    15  P    1.294562
    16  F   -0.650807
    17  F   -0.668404
    18  H    0.011822
 Sum of Mulliken charges =  -0.00000

 Dipole moment (field-independent basis, Debye):
    X=             -1.7687    Y=              0.8064    Z=              0.3043  Tot=              1.9676

 Test job not archived.
 1\1\GINC-SE041\SP\RHF\Aug-CC-pVDZ\C4H10F2P2\OHZDE\09-Apr-2025\0\\#t hf
  aug-cc-pvdz iop(5/13=1,5/36=2,99/5=2) pseudo=read geom=check guess=(r
 ead,tcheck) scf=(maxcycle=1)\\title\\0,1\H,0,-0.66372889,3.26375392,-1
 .41484082\H,0,0.57607353,2.07688321,-1.82463407\H,0,-0.55842324,2.6448
 712,-3.06242126\H,0,-2.87100416,-1.40911587,-1.55416728\H,0,0.42715494
 ,-1.23076192,-3.33739031\H,0,-2.60862974,-1.75549695,-3.26751243\H,0,-
 1.47646146,-2.36750684,-2.07165071\H,0,0.4157342,0.51539066,-3.5906339
 2\H,0,-0.67072928,-0.53226666,-4.50884988\P,0,-1.6570918,1.05342876,-1

 Normal termination of Gaussian 16 at Wed Apr  9 18:02:23 2025.
