 Gaussian 16, Revision C.01,

 ----------------------------------------------------------------------
 #t hf aug-cc-pvdz symm=none int=(grid=ultrafine) guess=(read,tcheck) s
 table=(opt,rrhf)
 ----------------------------------------------------------------------
 -----
 title
 -----
 Symbolic Z-matrix:
 Charge =  0 Multiplicity = 1

 SCF Done:  E(RHF) =  -1121.33414087     A.U. after   13 cycles
 Normal termination of Gaussian 16 at Wed Apr  9 17:34:56 2025.
 Gaussian 16:  ES64L-G16RevC.01  3-Jul-2019

 ----------------------------------------------------------------------
 #t hf aug-cc-pvdz iop(5/13=1,5/36=2,99/5=2) pseudo=read geom=check gue
 ss=(read,tcheck) scf=(maxcycle=1)
 ----------------------------------------------------------------------
 -----
 title
 -----
 Structure from the checkpoint file:  "HB300SPXx10_1092_4.13_0.85_Nmethylacetamide_dimethyldisulfide_dimer_mol1.chk"
 Charge =  0 Multiplicity = 1

                         Standard orientation:
 ---------------------------------------------------------------------
 Center     Atomic      Atomic             Coordinates (Angstroms)
 Number     Number       Type             X           Y           Z
 ---------------------------------------------------------------------
      1          6           0       -1.594046    1.678959   -0.759609
      2          1           0       -0.933901    1.510908   -1.610568
      3          1           0       -1.022284    2.146475    0.039717
      4          1           0       -2.390232    2.345798   -1.078972
      5          6           0       -2.200404    0.349827   -0.354070
      6          8           0       -3.114833   -0.156661   -0.981870
      7          7           0       -1.643757   -0.225340    0.743912
      8          1           0       -0.812559    0.194555    1.126244
      9          6           0       -1.994740   -1.561611    1.177872
     10          1           0       -3.000934   -1.780687    0.834456
     11          1           0       -1.315315   -2.309978    0.764345
     12          1           0       -1.963046   -1.619460    2.264223
     13          1           0        2.617438   -2.169513   -1.754305
     14          1           0        3.211810   -1.909602   -0.099840
     15          1           0        3.376366   -0.625263   -1.327901
     16          1           0        1.022760    2.319479   -0.467620
     17          1           0        2.761163    1.936453   -0.359170
     18          1           0        1.948382    2.757031    0.986297
     19          6           0        2.751885   -1.435040   -0.961393
     20         16           0        1.083575   -0.838553   -0.544516
     21         16           0        1.427064    0.446267    1.016576
     22          6           0        1.829824    2.019704    0.193485
 ---------------------------------------------------------------------

 SCF Done:  E(RHF) =  -1121.48319024     A.U. after    2 cycles

 The electronic state is 1-A.
 Alpha  occ. eigenvalues --  -93.57120 -93.56649 -20.51374 -15.62598 -11.34554
 Alpha  occ. eigenvalues --  -11.28365 -11.27957 -11.25227 -11.23552  -8.86766
 Alpha  occ. eigenvalues --   -8.86280  -6.20940  -6.20650  -6.20425  -6.20409
 Alpha  occ. eigenvalues --   -6.20155  -6.19824  -1.32746  -1.18093  -1.08786
 Alpha  occ. eigenvalues --   -1.01655  -1.00170  -0.91838  -0.91128  -0.79429
 Alpha  occ. eigenvalues --   -0.77200  -0.68369  -0.64585  -0.62852  -0.62637
 Alpha  occ. eigenvalues --   -0.61771  -0.61210  -0.59673  -0.57909  -0.57267
 Alpha  occ. eigenvalues --   -0.55051  -0.54029  -0.53309  -0.50394  -0.50134
 Alpha  occ. eigenvalues --   -0.45074  -0.42239  -0.37941  -0.37226  -0.36310
 Alpha virt. eigenvalues --    0.02759   0.03615   0.04165   0.04709   0.05641
 Alpha virt. eigenvalues --    0.05962   0.06113   0.07078   0.07441   0.08361
 Alpha virt. eigenvalues --    0.08477   0.08966   0.09136   0.11045   0.11193

 Mulliken charges:
               1
     1  C    0.453628
     2  H    0.018945
     3  H   -0.105072
     4  H   -0.047827
     5  C    0.337386
     6  O   -0.614457
     7  N   -0.189320
     8  H    0.026910
     9  C    0.774758
    10  H   -0.181829
    11  H   -0.091028
    12  H   -0.173792
    13  H   -0.077095
    14  H   -0.053955
    15  H   -0.098061
    16  H   -0.274344
    17  H   -0.136152
    18  H   -0.006888
    19  C    0.136615
    20  S    0.186775
    21  S   -0.138803
    22  C    0.253607
 Sum of Mulliken charges =  -0.00000

 Dipole moment (field-independent basis, Debye):
    X=              5.8568    Y=              1.6196    Z=              1.2317  Tot=              6.2002

 Test job not archived.
 1\1\GINC-SE029\SP\RHF\Aug-CC-pVDZ\C5H13N1O1S2\OHZDE\09-Apr-2025\0\\#t
 hf aug-cc-pvdz iop(5/13=1,5/36=2,99/5=2) pseudo=read geom=check guess=
 (read,tcheck) scf=(maxcycle=1)\\title\\0,1\C,0,-1.31055971,-0.36190707
 ,2.17525478\H,0,-0.76310857,0.57466921,2.28149083\H,0,-0.59510431,-1.1
 7658722,2.08130356\H,0,-1.91110445,-0.50300543,3.06969011\C,0,-2.23351
 851,-0.24400233,0.97818704\O,0,-3.28055753,0.37845097,1.03390772\N,0,-
 1.80028089,-0.8717422,-0.1463058\H,0,-0.86873727,-1.25332097,-0.144399
 63\C,0,-2.47826303,-0.73306099,-1.41840567\H,0,-3.52176476,-0.50262299

 Normal termination of Gaussian 16 at Wed Apr  9 17:35:09 2025.
