 Gaussian 16, Revision C.01,

 ----------------------------------------------------------------------
 #t hf aug-cc-pvdz symm=none int=(grid=ultrafine) guess=(read,tcheck) s
 table=(opt,rrhf)
 ----------------------------------------------------------------------
 -----
 title
 -----
 Symbolic Z-matrix:
 Charge =  0 Multiplicity = 1

 SCF Done:  E(RHF) =  -875.459363408     A.U. after   12 cycles
 Normal termination of Gaussian 16 at Wed Apr  9 17:46:31 2025.
 Gaussian 16:  ES64L-G16RevC.01  3-Jul-2019

 ----------------------------------------------------------------------
 #t hf aug-cc-pvdz iop(5/13=1,5/36=2,99/5=2) pseudo=read geom=check gue
 ss=(read,tcheck) scf=(maxcycle=1)
 ----------------------------------------------------------------------
 -----
 title
 -----
 Structure from the checkpoint file:  "HB300SPXx10_1195_4.24_1.00_methanethiol_methanethiol_dimer_mol1.chk"
 Charge =  0 Multiplicity = 1

                         Standard orientation:
 ---------------------------------------------------------------------
 Center     Atomic      Atomic             Coordinates (Angstroms)
 Number     Number       Type             X           Y           Z
 ---------------------------------------------------------------------
      1          1           0       -0.998606    0.918237    1.344825
      2          1           0       -2.760156    0.958142    1.222097
      3          1           0       -1.786109    1.839853    0.040023
      4          1           0       -0.705298   -0.353676   -0.994969
      5          6           0       -1.835406    0.943563    0.651473
      6         16           0       -1.885633   -0.554999   -0.382533
      7          1           0        2.259936   -0.468782    1.745249
      8          1           0        2.214052   -1.719350    0.497883
      9          1           0        0.696807   -1.017074    1.067868
     10          1           0        1.353556    1.447517    0.139333
     11          6           0        1.741211   -0.807842    0.853772
     12         16           0        1.903819    0.403799   -0.498329
 ---------------------------------------------------------------------

 SCF Done:  E(RHF) =  -875.529312918     A.U. after    2 cycles

 The electronic state is 1-A.
 Alpha  occ. eigenvalues --  -93.54177 -93.52918 -11.27180 -11.26921  -8.83922
 Alpha  occ. eigenvalues --   -8.82686  -6.18084  -6.17862  -6.17565  -6.16845
 Alpha  occ. eigenvalues --   -6.16643  -6.16311  -1.03478  -1.02463  -0.86738
 Alpha  occ. eigenvalues --   -0.85952  -0.62024  -0.61076  -0.60158  -0.58844
 Alpha  occ. eigenvalues --   -0.53568  -0.52637  -0.46349  -0.45549  -0.36234
 Alpha  occ. eigenvalues --   -0.35276
 Alpha virt. eigenvalues --    0.03258   0.04406   0.05092   0.05270   0.07125
 Alpha virt. eigenvalues --    0.07344   0.07579   0.09125   0.10530   0.12513
 Alpha virt. eigenvalues --    0.12860   0.13141   0.14770   0.14839   0.15218

 Mulliken charges:
               1
     1  H   -0.131847
     2  H   -0.118861
     3  H   -0.109043
     4  H    0.124038
     5  C    0.114418
     6  S    0.138328
     7  H   -0.104846
     8  H   -0.086201
     9  H   -0.157919
    10  H    0.069415
    11  C    0.146880
    12  S    0.115637
 Sum of Mulliken charges =  -0.00000

 Dipole moment (field-independent basis, Debye):
    X=              0.4835    Y=              0.8519    Z=              1.9543  Tot=              2.1861

 Test job not archived.
 1\1\GINC-SE340\SP\RHF\Aug-CC-pVDZ\C2H8S2\OHZDE\09-Apr-2025\0\\#t hf au
 g-cc-pvdz iop(5/13=1,5/36=2,99/5=2) pseudo=read geom=check guess=(read
 ,tcheck) scf=(maxcycle=1)\\title\\0,1\H,0,1.48841111,-0.83932977,-0.94
 699875\H,0,2.60301323,-1.84400864,-0.01533608\H,0,2.55978836,-0.100175
 65,0.26866848\H,0,0.07877426,-0.11956038,1.21477831\C,0,1.95766928,-0.
 9705586,0.02469451\S,0,0.71991769,-1.29709475,1.32035013\H,0,-1.574672
 08,0.17827181,-2.45837711\H,0,-2.64457133,0.11060946,-1.05385339\H,0,-
 1.09691261,-0.73892914,-0.99778441\H,0,0.31167708,1.57207986,-1.204710

 Normal termination of Gaussian 16 at Wed Apr  9 17:46:34 2025.
