 Gaussian 16, Revision C.01,

 ----------------------------------------------------------------------
 #t hf aug-cc-pvdz symm=none int=(grid=ultrafine) guess=(read,tcheck) s
 table=(opt,rrhf)
 ----------------------------------------------------------------------
 -----
 title
 -----
 Symbolic Z-matrix:
 Charge =  0 Multiplicity = 1

 SCF Done:  E(RHF) =  -1334.39454181     A.U. after   13 cycles
 Normal termination of Gaussian 16 at Wed Apr  9 17:52:39 2025.
 Gaussian 16:  ES64L-G16RevC.01  3-Jul-2019

 ----------------------------------------------------------------------
 #t hf aug-cc-pvdz iop(5/13=1,5/36=2,99/5=2) pseudo=read geom=check gue
 ss=(read,tcheck) scf=(maxcycle=1)
 ----------------------------------------------------------------------
 -----
 title
 -----
 Structure from the checkpoint file:  "HB300SPXx10_1314_4.36_0.95_hydrogenchloride_dimethyldisulfide_dimer_mol1.chk"
 Charge =  0 Multiplicity = 1

                         Standard orientation:
 ---------------------------------------------------------------------
 Center     Atomic      Atomic             Coordinates (Angstroms)
 Number     Number       Type             X           Y           Z
 ---------------------------------------------------------------------
      1          1           0       -1.714443   -0.195231    0.383081
      2         17           0       -2.880169   -0.543024   -0.091193
      3          1           0        3.528755   -1.236693   -0.542201
      4          1           0        3.264374   -0.261896    0.919261
      5          1           0        3.137679    0.485383   -0.696921
      6          1           0       -0.615418    1.374481   -1.411567
      7          1           0        0.916201    2.202760   -1.009652
      8          1           0       -0.587994    2.661283   -0.185625
      9          6           0        2.960776   -0.412884   -0.112244
     10         16           0        1.213607   -0.915380   -0.195928
     11         16           0        0.251633    0.644728    0.727205
     12          6           0       -0.029130    1.834842   -0.622178
 ---------------------------------------------------------------------

 SCF Done:  E(RHF) =  -1334.48347676     A.U. after    2 cycles

 The electronic state is 1-A.
 Alpha  occ. eigenvalues -- -103.64487 -93.57444 -93.56749 -11.28177 -11.28112
 Alpha  occ. eigenvalues --  -10.67792  -8.87088  -8.86387  -8.33538  -8.33252
 Alpha  occ. eigenvalues --   -8.33251  -6.21219  -6.20948  -6.20758  -6.20510
 Alpha  occ. eigenvalues --   -6.20238  -6.19913  -1.13214  -1.08756  -1.01642
 Alpha  occ. eigenvalues --   -0.91449  -0.79410  -0.63607  -0.62217  -0.61278
 Alpha  occ. eigenvalues --   -0.59938  -0.59572  -0.54459  -0.50399  -0.46289
 Alpha  occ. eigenvalues --   -0.46247  -0.45134  -0.37564  -0.36514
 Alpha virt. eigenvalues --    0.03086   0.04163   0.05197   0.05604   0.06739
 Alpha virt. eigenvalues --    0.07152   0.08038   0.08949   0.09782   0.11993
 Alpha virt. eigenvalues --    0.13188   0.13858   0.14151   0.14543   0.15224

 Mulliken charges:
               1
     1  H    0.291951
     2  Cl  -0.183980
     3  H   -0.074447
     4  H   -0.027381
     5  H   -0.075660
     6  H   -0.107435
     7  H   -0.108869
     8  H   -0.050312
     9  C    0.059832
    10  S    0.195463
    11  S   -0.157731
    12  C    0.238569
 Sum of Mulliken charges =  -0.00000

 Dipole moment (field-independent basis, Debye):
    X=              3.7477    Y=              2.0973    Z=             -0.6483  Tot=              4.3433

 Test job not archived.
 1\1\GINC-SE174\SP\RHF\Aug-CC-pVDZ\C2H7Cl1S2\OHZDE\09-Apr-2025\0\\#t hf
  aug-cc-pvdz iop(5/13=1,5/36=2,99/5=2) pseudo=read geom=check guess=(r
 ead,tcheck) scf=(maxcycle=1)\\title\\0,1\H,0,-0.26068265,0.62653872,-1
 .61580209\Cl,0,0.10581098,1.51670262,-2.49790267\H,0,1.84090341,-1.967
 7952,2.66025769\H,0,0.24256482,-2.58639106,2.19265922\H,0,0.38777824,-
 1.03973486,3.07202892\H,0,-0.55533997,1.90496489,0.6582725\H,0,-1.2447
 8997,1.0299796,2.05559019\H,0,-2.26196202,1.40805015,0.65049495\C,0,0.
 8408467,-1.69071428,2.32974787\S,0,1.06248021,-0.82297029,0.74544896\S

 Normal termination of Gaussian 16 at Wed Apr  9 17:52:44 2025.
