 Gaussian 16, Revision C.01,

 ----------------------------------------------------------------------
 #t hf aug-cc-pvdz symm=none int=(grid=ultrafine) guess=(read,tcheck) s
 table=(opt,rrhf)
 ----------------------------------------------------------------------
 -----
 title
 -----
 Symbolic Z-matrix:
 Charge =  0 Multiplicity = 1

 SCF Done:  E(RHF) =  -1166.70215593     A.U. after   13 cycles
 Normal termination of Gaussian 16 at Wed Apr  9 17:55:06 2025.
 Gaussian 16:  ES64L-G16RevC.01  3-Jul-2019

 ----------------------------------------------------------------------
 #t hf aug-cc-pvdz iop(5/13=1,5/36=2,99/5=2) pseudo=read geom=check gue
 ss=(read,tcheck) scf=(maxcycle=1)
 ----------------------------------------------------------------------
 -----
 title
 -----
 Structure from the checkpoint file:  "HB300SPXx10_1393_5.02_0.90_dimethylsulfone_phosphineF2_dimer_mol1.chk"
 Charge =  0 Multiplicity = 1

                         Standard orientation:
 ---------------------------------------------------------------------
 Center     Atomic      Atomic             Coordinates (Angstroms)
 Number     Number       Type             X           Y           Z
 ---------------------------------------------------------------------
      1          1           0        2.174131    0.491626    2.083042
      2          1           0        1.389135   -1.107846    2.016322
      3          1           0        0.393902    0.366850    1.873229
      4          1           0        0.472945    1.899029   -0.389263
      5          1           0        1.576118    1.488620   -1.731781
      6          1           0        2.251171    2.092255   -0.196973
      7          8           0        2.909582   -0.652884   -0.381024
      8         16           0        1.577105   -0.180654   -0.110912
      9          8           0        0.448610   -0.903679   -0.659479
     10          6           0        1.357716   -0.082878    1.655411
     11          6           0        1.453022    1.512815   -0.651820
     12         15           0       -2.016363   -0.449045   -0.044829
     13          9           0       -3.572707   -0.056980   -0.062019
     14          9           0       -1.443610    1.010078    0.344483
     15          1           0       -1.828746   -0.309400   -1.447250
 ---------------------------------------------------------------------

 SCF Done:  E(RHF) =  -1166.96083005     A.U. after    2 cycles

 The electronic state is 1-A.
 Alpha  occ. eigenvalues --  -93.79095 -81.38468 -26.14097 -26.12423 -20.57075
 Alpha  occ. eigenvalues --  -20.56350 -11.29299 -11.29060  -9.05959  -7.87192
 Alpha  occ. eigenvalues --   -6.40631  -6.40390  -6.40292  -5.01305  -5.01047
 Alpha  occ. eigenvalues --   -5.00516  -1.67371  -1.65197  -1.43746  -1.32096
 Alpha  occ. eigenvalues --   -1.07469  -1.01412  -0.89652  -0.82888  -0.79183
 Alpha  occ. eigenvalues --   -0.77776  -0.76994  -0.73348  -0.71201  -0.70722
 Alpha  occ. eigenvalues --   -0.70445  -0.68454  -0.63512  -0.62723  -0.62127
 Alpha  occ. eigenvalues --   -0.59522  -0.59190  -0.53271  -0.52892  -0.50422
 Alpha  occ. eigenvalues --   -0.46818  -0.39331
 Alpha virt. eigenvalues --    0.02775   0.04266   0.04727   0.05549   0.06310
 Alpha virt. eigenvalues --    0.06619   0.07267   0.08801   0.09345   0.10547
 Alpha virt. eigenvalues --    0.12350   0.13584   0.13865   0.14338   0.15117

 Mulliken charges:
               1
     1  H   -0.012558
     2  H    0.042308
     3  H   -0.035070
     4  H   -0.021547
     5  H    0.024796
     6  H   -0.012011
     7  O   -1.062195
     8  S    1.998363
     9  O   -1.110706
    10  C    0.105998
    11  C    0.138562
    12  P    1.279091
    13  F   -0.658772
    14  F   -0.704792
    15  H    0.028534
 Sum of Mulliken charges =  -0.00000

 Dipole moment (field-independent basis, Debye):
    X=              1.0708    Y=              2.8165    Z=              1.8187  Tot=              3.5195

 Test job not archived.
 1\1\GINC-SE362\SP\RHF\Aug-CC-pVDZ\C2H7F2O2P1S1\OHZDE\09-Apr-2025\0\\#t
  hf aug-cc-pvdz iop(5/13=1,5/36=2,99/5=2) pseudo=read geom=check guess
 =(read,tcheck) scf=(maxcycle=1)\\title\\0,1\H,0,1.82037896,-1.1252997,
 2.45423408\H,0,2.45327614,-0.04590354,1.18406648\H,0,1.26048817,-1.302
 78481,0.75605091\H,0,-1.35656486,-1.06874241,1.510339\H,0,-1.8999986,0
 .31018714,2.5058364\H,0,-0.84910966,-0.93302114,3.2309401\O,0,0.704774
 22,1.412934,2.93921594\S,0,0.30796869,0.58975017,1.82729483\O,0,-0.016
 49706,1.22000253,0.56448154\C,0,1.58998555,-0.61149627,1.52558836\C,0,

 Normal termination of Gaussian 16 at Wed Apr  9 17:55:11 2025.
