 Gaussian 16, Revision C.01,

 ----------------------------------------------------------------------
 #t hf aug-cc-pvdz symm=none int=(grid=ultrafine) guess=(read,tcheck) s
 table=(opt,rrhf)
 ----------------------------------------------------------------------
 -----
 title
 -----
 Symbolic Z-matrix:
 Charge =  0 Multiplicity = 1

 SCF Done:  E(RHF) =  -855.901460011     A.U. after   14 cycles
 Normal termination of Gaussian 16 at Wed Apr  9 17:22:15 2025.
 Gaussian 16:  ES64L-G16RevC.01  3-Jul-2019

 ----------------------------------------------------------------------
 #t hf aug-cc-pvdz iop(5/13=1,5/36=2,99/5=2) pseudo=read geom=check gue
 ss=(read,tcheck) scf=(maxcycle=1)
 ----------------------------------------------------------------------
 -----
 title
 -----
 Structure from the checkpoint file:  "HB300SPXx10_1032_4.07_0.85_phosphaalkyne_methanethiol_dimer_mol1.chk"
 Charge =  0 Multiplicity = 1

                         Standard orientation:
 ---------------------------------------------------------------------
 Center     Atomic      Atomic             Coordinates (Angstroms)
 Number     Number       Type             X           Y           Z
 ---------------------------------------------------------------------
      1          1           0       -1.001534    2.135653    1.294419
      2          1           0       -1.274623    2.530703   -0.404911
      3          1           0        0.242984    1.770168    0.087633
      4         15           0       -2.011558   -0.919976   -0.170163
      5          6           0       -1.413026    0.480945    0.057860
      6          6           0       -0.833898    1.795558    0.270857
      7          1           0        0.787503   -0.197260    1.542103
      8          1           0        2.523000   -0.548458    1.612350
      9          1           0        1.407971   -1.758062    0.961171
     10          1           0        0.692050   -0.204161   -1.105043
     11          6           0        1.611307   -0.694171    1.039032
     12         16           0        1.913108    0.036066   -0.602611
 ---------------------------------------------------------------------

 SCF Done:  E(RHF) =  -855.977192610     A.U. after    2 cycles

 The electronic state is 1-A.
 Alpha  occ. eigenvalues --  -93.52879 -81.24861 -11.29206 -11.26563 -11.26060
 Alpha  occ. eigenvalues --   -8.82680  -7.75757  -6.16846  -6.16639  -6.16349
 Alpha  occ. eigenvalues --   -4.89764  -4.89267  -4.89230  -1.04704  -1.02294
 Alpha  occ. eigenvalues --   -0.88412  -0.85998  -0.65188  -0.62248  -0.60333
 Alpha  occ. eigenvalues --   -0.60067  -0.57825  -0.52672  -0.46564  -0.45698
 Alpha  occ. eigenvalues --   -0.36634  -0.36290  -0.34907
 Alpha virt. eigenvalues --    0.03303   0.04395   0.05143   0.05573   0.06392
 Alpha virt. eigenvalues --    0.06942   0.07203   0.07891   0.08023   0.08913
 Alpha virt. eigenvalues --    0.11187   0.12618   0.13137   0.14391   0.14574

 Mulliken charges:
               1
     1  H    0.054289
     2  H   -0.012066
     3  H   -0.122572
     4  P   -0.215268
     5  C   -0.427477
     6  C    0.709985
     7  H   -0.177922
     8  H   -0.089526
     9  H   -0.091304
    10  H    0.142838
    11  C    0.179037
    12  S    0.049987
 Sum of Mulliken charges =  -0.00000

 Dipole moment (field-independent basis, Debye):
    X=             -0.6476    Y=              0.2285    Z=              1.2581  Tot=              1.4333

 Test job not archived.
 1\1\GINC-SE226\SP\RHF\Aug-CC-pVDZ\C3H7P1S1\OHZDE\09-Apr-2025\0\\#t hf
 aug-cc-pvdz iop(5/13=1,5/36=2,99/5=2) pseudo=read geom=check guess=(re
 ad,tcheck) scf=(maxcycle=1)\\title\\0,1\H,0,0.38933231,2.34404549,-1.6
 8180664\H,0,-1.19987448,1.75919838,-2.18254684\H,0,0.10218747,0.605834
 91,-1.86864837\P,0,-1.17058474,1.34195856,1.32892267\C,0,-0.7484701,1.
 45533882,-0.14816129\C,0,-0.34350289,1.5476729,-1.53972175\H,0,1.74880
 208,0.33896887,0.00223318\H,0,2.7922282,-1.08043716,-0.18953256\H,0,1.
 71964529,-0.96206551,1.21261537\H,0,-0.50049771,-1.02880475,-0.2916789

 Normal termination of Gaussian 16 at Wed Apr  9 17:22:19 2025.
