 Gaussian 16, Revision C.01,

 ----------------------------------------------------------------------
 #t hf aug-cc-pvdz symm=none int=(grid=ultrafine) guess=(read,tcheck) s
 table=(opt,rrhf)
 ----------------------------------------------------------------------
 -----
 title
 -----
 Symbolic Z-matrix:
 Charge =  0 Multiplicity = 1

 SCF Done:  E(RHF) =  -513.773699522     A.U. after   12 cycles
 Normal termination of Gaussian 16 at Wed Apr  9 17:44:08 2025.
 Gaussian 16:  ES64L-G16RevC.01  3-Jul-2019

 ----------------------------------------------------------------------
 #t hf aug-cc-pvdz iop(5/13=1,5/36=2,99/5=2) pseudo=read geom=check gue
 ss=(read,tcheck) scf=(maxcycle=1)
 ----------------------------------------------------------------------
 -----
 title
 -----
 Structure from the checkpoint file:  "HB300SPXx10_1164_4.21_0.95_water_methanethiol_dimer_mol1.chk"
 Charge =  0 Multiplicity = 1

                         Standard orientation:
 ---------------------------------------------------------------------
 Center     Atomic      Atomic             Coordinates (Angstroms)
 Number     Number       Type             X           Y           Z
 ---------------------------------------------------------------------
      1          8           0       -2.253047    0.110653    0.054368
      2          1           0       -1.436319   -0.388763   -0.089113
      3          1           0       -2.953846   -0.438333   -0.303452
      4          1           0       -0.022829    1.529174    0.494011
      5          1           0        0.884136    1.506874   -1.022220
      6          1           0        1.766090    1.510649    0.511683
      7          1           0        0.847234   -0.901049    1.239175
      8          6           0        0.872607    1.157436    0.006475
      9         16           0        0.856517   -0.665525   -0.081492
 ---------------------------------------------------------------------

 SCF Done:  E(RHF) =  -513.834839917     A.U. after    2 cycles

 The electronic state is 1-A.
 Alpha  occ. eigenvalues --  -93.54598 -20.56056 -11.27210  -8.84367  -6.18530
 Alpha  occ. eigenvalues --   -6.18304  -6.18066  -1.29533  -1.03560  -0.86997
 Alpha  occ. eigenvalues --   -0.72038  -0.61555  -0.59848  -0.58419  -0.53682
 Alpha  occ. eigenvalues --   -0.51146  -0.46630  -0.37108
 Alpha virt. eigenvalues --    0.03509   0.04720   0.05116   0.06253   0.07321
 Alpha virt. eigenvalues --    0.09851   0.11201   0.11724   0.14256   0.15023
 Alpha virt. eigenvalues --    0.15716   0.17009   0.18026   0.21177   0.21379

 Mulliken charges:
               1
     1  O   -0.325028
     2  H    0.207730
     3  H    0.186747
     4  H   -0.133432
     5  H   -0.055334
     6  H   -0.111362
     7  H    0.097491
     8  C    0.149869
     9  S   -0.016681
 Sum of Mulliken charges =  -0.00000

 Dipole moment (field-independent basis, Debye):
    X=              0.6810    Y=             -0.2357    Z=              0.0037  Tot=              0.7207

 Test job not archived.
 1\1\GINC-SE041\SP\RHF\Aug-CC-pVDZ\C1H6O1S1\OHZDE\09-Apr-2025\0\\#t hf
 aug-cc-pvdz iop(5/13=1,5/36=2,99/5=2) pseudo=read geom=check guess=(re
 ad,tcheck) scf=(maxcycle=1)\\title\\0,1\O,0,-0.58582535,-1.65985485,-1
 .57348405\H,0,-0.07487288,-1.34797585,-0.81275631\H,0,-0.15829821,-2.4
 72369,-1.85201796\H,0,-1.189239,0.83712284,-0.81167621\H,0,0.31048816,
 1.76451051,-0.92484677\H,0,-0.85175481,2.15432649,0.35106413\H,0,-0.55
 206908,-0.21052178,1.57887151\C,0,-0.42339105,1.35025451,-0.23908724\S
 ,0,0.48689518,0.18000064,0.82536961\\Version=ES64L-G16RevC.01\State=1-

 Normal termination of Gaussian 16 at Wed Apr  9 17:44:10 2025.
