 Gaussian 16, Revision C.01,

 ----------------------------------------------------------------------
 #t hf aug-cc-pvdz symm=none int=(grid=ultrafine) guess=(read,tcheck) s
 table=(opt,rrhf)
 ----------------------------------------------------------------------
 -----
 title
 -----
 Symbolic Z-matrix:
 Charge =  0 Multiplicity = 1

 SCF Done:  E(RHF) =  -571.988208735     A.U. after   12 cycles
 Normal termination of Gaussian 16 at Wed Apr  9 17:29:30 2025.
 Gaussian 16:  ES64L-G16RevC.01  3-Jul-2019

 ----------------------------------------------------------------------
 #t hf aug-cc-pvdz iop(5/13=1,5/36=2,99/5=2) pseudo=read geom=check gue
 ss=(read,tcheck) scf=(maxcycle=1)
 ----------------------------------------------------------------------
 -----
 title
 -----
 Structure from the checkpoint file:  "HB300SPXx10_1072_4.11_0.85_methylamine_dimethylsulfide_dimer_mol1.chk"
 Charge =  0 Multiplicity = 1

                         Standard orientation:
 ---------------------------------------------------------------------
 Center     Atomic      Atomic             Coordinates (Angstroms)
 Number     Number       Type             X           Y           Z
 ---------------------------------------------------------------------
      1          7           0       -1.615998   -0.795662    0.149534
      2          1           0       -1.960196   -1.736536    0.013294
      3          1           0       -0.849090   -0.657552   -0.499445
      4          6           0       -2.674354    0.182943   -0.096427
      5          1           0       -2.277746    1.186036    0.058384
      6          1           0       -3.109646    0.149272   -1.101944
      7          1           0       -3.479464    0.038664    0.623509
      8          1           0        1.357724    1.667906    1.295522
      9          1           0       -0.262894    0.940753    1.127552
     10          1           0        0.238560    2.272282    0.063666
     11          1           0        1.997805   -1.966677   -0.172298
     12          1           0        0.736556   -1.494270    0.985892
     13          1           0        2.398209   -0.872180    1.160679
     14          6           0        0.575022    1.384819    0.594180
     15         16           0        1.211056    0.224283   -0.643713
     16          6           0        1.623544   -1.158861    0.451890
 ---------------------------------------------------------------------

 SCF Done:  E(RHF) =  -572.069296534     A.U. after    2 cycles

 The electronic state is 1-A.
 Alpha  occ. eigenvalues --  -93.52437 -15.59093 -11.25653 -11.25420 -11.24848
 Alpha  occ. eigenvalues --   -8.82213  -6.16367  -6.16155  -6.15921  -1.13274
 Alpha  occ. eigenvalues --   -1.04956  -0.94562  -0.88674  -0.80026  -0.66800
 Alpha  occ. eigenvalues --   -0.60491  -0.59968  -0.59900  -0.57640  -0.56177
 Alpha  occ. eigenvalues --   -0.54784  -0.51500  -0.49234  -0.43197  -0.38032
 Alpha  occ. eigenvalues --   -0.33366
 Alpha virt. eigenvalues --    0.03551   0.04227   0.04526   0.05056   0.06436
 Alpha virt. eigenvalues --    0.06633   0.07329   0.08050   0.09231   0.09345
 Alpha virt. eigenvalues --    0.10318   0.11822   0.13788   0.14301   0.15221

 Mulliken charges:
               1
     1  N   -0.364333
     2  H   -0.032375
     3  H    0.149228
     4  C    0.854920
     5  H   -0.241550
     6  H   -0.141035
     7  H   -0.164387
     8  H   -0.154120
     9  H   -0.160651
    10  H   -0.087651
    11  H   -0.105531
    12  H   -0.187858
    13  H   -0.087821
    14  C    0.346542
    15  S    0.097995
    16  C    0.278628
 Sum of Mulliken charges =   0.00000

 Dipole moment (field-independent basis, Debye):
    X=             -0.4486    Y=             -0.3990    Z=              0.6073  Tot=              0.8540

 Test job not archived.
 1\1\GINC-SE454\SP\RHF\Aug-CC-pVDZ\C3H11N1S1\OHZDE\09-Apr-2025\0\\#t hf
  aug-cc-pvdz iop(5/13=1,5/36=2,99/5=2) pseudo=read geom=check guess=(r
 ead,tcheck) scf=(maxcycle=1)\\title\\0,1\N,0,-1.19251098,0.46771599,1.
 69699571\H,0,-2.17204653,0.34511648,1.91553075\H,0,-1.12099987,0.60068
 208,0.69419832\C,0,-0.64549649,1.62445241,2.40482331\H,0,0.40921091,1.
 73255139,2.15309408\H,0,-1.13947726,2.57752576,2.18276464\H,0,-0.70604
 436,1.45678733,3.47978713\H,0,2.14244315,-0.88038273,-0.11578933\H,0,1
 .04490646,-0.21713135,1.12472721\H,0,1.98285095,0.8721049,0.08064556\H

 Normal termination of Gaussian 16 at Wed Apr  9 17:29:35 2025.
