 Gaussian 16, Revision C.01,

 ----------------------------------------------------------------------
 #t hf aug-cc-pvdz symm=none int=(grid=ultrafine) guess=(read,tcheck) s
 table=(opt,rrhf)
 ----------------------------------------------------------------------
 -----
 title
 -----
 Symbolic Z-matrix:
 Charge =  0 Multiplicity = 1

 SCF Done:  E(RHF) =  -1102.15215545     A.U. after   13 cycles
 Normal termination of Gaussian 16 at Wed Apr  9 17:37:11 2025.
 Gaussian 16:  ES64L-G16RevC.01  3-Jul-2019

 ----------------------------------------------------------------------
 #t hf aug-cc-pvdz iop(5/13=1,5/36=2,99/5=2) pseudo=read geom=check gue
 ss=(read,tcheck) scf=(maxcycle=1)
 ----------------------------------------------------------------------
 -----
 title
 -----
 Structure from the checkpoint file:  "HB300SPXx10_1113_4.15_0.90_aceticacid_dimethyldisulfide_dimer_mol1.chk"
 Charge =  0 Multiplicity = 1

                         Standard orientation:
 ---------------------------------------------------------------------
 Center     Atomic      Atomic             Coordinates (Angstroms)
 Number     Number       Type             X           Y           Z
 ---------------------------------------------------------------------
      1          6           0        2.733173   -0.069831   -0.042618
      2          8           0        2.412965    1.083904   -0.197600
      3          8           0        1.854269   -1.084336   -0.049363
      4          1           0        0.957556   -0.720603   -0.210675
      5          6           0        4.140322   -0.550529    0.178444
      6          1           0        4.818663    0.295060    0.198247
      7          1           0        4.199775   -1.101933    1.115729
      8          1           0        4.422715   -1.237006   -0.618750
      9          1           0       -4.638330   -0.625667    0.242050
     10          1           0       -3.890765   -0.048370   -1.262835
     11          1           0       -3.887438    0.980049    0.195628
     12          1           0       -0.355913    1.278306    1.571514
     13          1           0       -1.361247    2.346741    0.552757
     14          1           0        0.378358    2.131509    0.201671
     15          6           0       -3.824039   -0.037617   -0.179021
     16         16           0       -2.286337   -0.841269    0.371083
     17         16           0       -0.833439    0.262685   -0.567943
     18          6           0       -0.526929    1.651761    0.566547
 ---------------------------------------------------------------------

 SCF Done:  E(RHF) =  -1102.29735139     A.U. after    2 cycles

 The electronic state is 1-A.
 Alpha  occ. eigenvalues --  -93.56371 -93.56031 -20.59988 -20.55400 -11.39216
 Alpha  occ. eigenvalues --  -11.27540 -11.26460 -11.24624  -8.86070  -8.85677
 Alpha  occ. eigenvalues --   -6.20225  -6.19950  -6.19798  -6.19733  -6.19535
 Alpha  occ. eigenvalues --   -6.19212  -1.41131  -1.31428  -1.07946  -1.01519
 Alpha  occ. eigenvalues --   -1.00567  -0.90473  -0.82647  -0.78364  -0.71140
 Alpha  occ. eigenvalues --   -0.68379  -0.65049  -0.61805  -0.60716  -0.60111
 Alpha  occ. eigenvalues --   -0.58977  -0.57770  -0.56887  -0.55633  -0.53522
 Alpha  occ. eigenvalues --   -0.49502  -0.48901  -0.46350  -0.44425  -0.37055
 Alpha  occ. eigenvalues --   -0.35748
 Alpha virt. eigenvalues --    0.03436   0.04023   0.04886   0.05311   0.06034
 Alpha virt. eigenvalues --    0.06206   0.06473   0.07340   0.08178   0.08501
 Alpha virt. eigenvalues --    0.10062   0.11016   0.11920   0.12093   0.13644

 Mulliken charges:
               1
     1  C    0.255905
     2  O   -0.474054
     3  O   -0.463957
     4  H    0.321743
     5  C    0.421971
     6  H   -0.035877
     7  H    0.029439
     8  H    0.039368
     9  H   -0.077533
    10  H   -0.036701
    11  H   -0.075482
    12  H   -0.068314
    13  H   -0.134762
    14  H   -0.055814
    15  C    0.070137
    16  S    0.177057
    17  S   -0.171060
    18  C    0.277932
 Sum of Mulliken charges =  -0.00000

 Dipole moment (field-independent basis, Debye):
    X=             -1.3225    Y=              0.2890    Z=              0.7291  Tot=              1.5376

 Test job not archived.
 1\1\GINC-SE135\SP\RHF\Aug-CC-pVDZ\C4H10O2S2\OHZDE\09-Apr-2025\0\\#t hf
  aug-cc-pvdz iop(5/13=1,5/36=2,99/5=2) pseudo=read geom=check guess=(r
 ead,tcheck) scf=(maxcycle=1)\\title\\0,1\C,0,2.51189353,-1.3688008,0.0
 1480743\O,0,1.76216303,-1.97148126,0.7444221\O,0,2.20838592,-0.1819016
 3,-0.53372859\H,0,1.31541707,0.08523139,-0.22768185\C,0,3.88111819,-1.
 83853704,-0.39087365\H,0,4.08390343,-2.80677129,0.05292751\H,0,3.94369
 33,-1.90220497,-1.47628393\H,0,4.62800978,-1.11523999,-0.06604891\H,0,
 -3.65414313,2.65567856,-0.70115812\H,0,-2.89238105,2.55229971,0.900664

 Normal termination of Gaussian 16 at Wed Apr  9 17:37:19 2025.
