 Gaussian 16, Revision C.01,

 ----------------------------------------------------------------------
 #t hf aug-cc-pvdz symm=none int=(grid=ultrafine) guess=(read,tcheck) s
 table=(opt,rrhf)
 ----------------------------------------------------------------------
 -----
 title
 -----
 Symbolic Z-matrix:
 Charge =  0 Multiplicity = 1

 SCF Done:  E(RHF) =  -630.504351740     A.U. after   14 cycles

 1\1\GINC-SE041\Stability\RHF\Aug-CC-pVDZ\C6H10S1\OHZDE\09-Apr-2025\0\\
 #t hf aug-cc-pvdz symm=none int=(grid=ultrafine) guess=(read,tcheck) s
 table=(opt,rrhf)\\title\\0,1\C,0,2.59090187,-0.04968862,0.43961338\H,0
 ,1.93323189,0.27193926,-0.33858357\C,0,3.30609004,-0.41751171,1.325807
 27\H,0,3.94715573,-0.74121457,2.10714096\H,0,0.52860003,-1.70531399,-0
 .4282398\H,0,-0.94606012,-1.75214698,-1.4037208\H,0,-1.19391173,-2.011
 69113,1.24893256\H,0,-1.5091135,1.78419372,0.32614917\H,0,-2.2909489,-
 0.91123447,0.41685778\H,0,0.20273902,1.97483312,0.72039919\H,0,-1.3022

 Normal termination of Gaussian 16 at Wed Apr  9 17:18:44 2025.
 Gaussian 16:  ES64L-G16RevC.01  3-Jul-2019

 ----------------------------------------------------------------------
 #t hf aug-cc-pvdz iop(5/13=1,5/36=2,99/5=2) pseudo=read geom=check gue
 ss=(read,tcheck) scf=(maxcycle=1)
 ----------------------------------------------------------------------
 -----
 title
 -----
 Structure from the checkpoint file:  "HB300SPXx10_1002_4.04_0.85_ethyne_tetrahydrothiophene_dimer_mol1.chk"
 Charge =  0 Multiplicity = 1

                         Standard orientation:
 ---------------------------------------------------------------------
 Center     Atomic      Atomic             Coordinates (Angstroms)
 Number     Number       Type             X           Y           Z
 ---------------------------------------------------------------------
      1          6           0       -2.317667   -0.404275   -0.060938
      2          1           0       -1.453047   -1.030064   -0.012089
      3          6           0       -3.270014    0.318344   -0.115554
      4          1           0       -4.119709    0.952309   -0.163920
      5          1           0       -0.164647    0.041548   -1.767718
      6          1           0        1.523226   -0.389110   -2.074307
      7          1           0        0.995513    2.114736   -1.288407
      8          1           0        1.718132   -0.068864    1.884814
      9          1           0        2.328769    1.264362   -0.509859
     10          1           0       -0.025656   -0.271102    2.086107
     11          1           0        0.905897    2.133431    1.315349
     12          1           0       -0.531091    1.477715    0.535985
     13         16           0        0.759880   -1.294772    0.032244
     14          6           0        0.822448   -0.048201   -1.317091
     15          6           0        1.247888    1.261471   -0.658495
     16          6           0        0.535843    1.319217    0.692129
     17          6           0        0.758925   -0.031324    1.372972
 ---------------------------------------------------------------------

 SCF Done:  E(RHF) =  -630.598753350     A.U. after    2 cycles

 The electronic state is 1-A.
 Alpha  occ. eigenvalues --  -93.52200 -11.26609 -11.26546 -11.24304 -11.24109
 Alpha  occ. eigenvalues --  -11.23959 -11.23554  -8.82028  -6.16163  -6.16004
 Alpha  occ. eigenvalues --   -6.15765  -1.11918  -1.01881  -0.98429  -0.96264
 Alpha  occ. eigenvalues --   -0.79777  -0.78576  -0.75621  -0.68135  -0.65517
 Alpha  occ. eigenvalues --   -0.64195  -0.60642  -0.55131  -0.51099  -0.49704
 Alpha  occ. eigenvalues --   -0.48651  -0.48094  -0.42589  -0.40588  -0.40418
 Alpha  occ. eigenvalues --   -0.33949
 Alpha virt. eigenvalues --    0.03175   0.03963   0.04491   0.05089   0.05698
 Alpha virt. eigenvalues --    0.06607   0.06904   0.07205   0.08119   0.08877
 Alpha virt. eigenvalues --    0.10452   0.11593   0.12834   0.13350   0.14170

 Mulliken charges:
               1
     1  C    0.660821
     2  H   -0.313588
     3  C    0.056161
     4  H   -0.341518
     5  H   -0.171211
     6  H   -0.088282
     7  H   -0.088127
     8  H   -0.149826
     9  H   -0.159218
    10  H   -0.131201
    11  H   -0.065501
    12  H   -0.239345
    13  S    0.230554
    14  C    0.160486
    15  C    0.215637
    16  C    0.229358
    17  C    0.194798
 Sum of Mulliken charges =   0.00000

 Dipole moment (field-independent basis, Debye):
    X=              0.5672    Y=              2.2677    Z=              0.0008  Tot=              2.3375

 Test job not archived.
 1\1\GINC-SE041\SP\RHF\Aug-CC-pVDZ\C6H10S1\OHZDE\09-Apr-2025\0\\#t hf a
 ug-cc-pvdz iop(5/13=1,5/36=2,99/5=2) pseudo=read geom=check guess=(rea
 d,tcheck) scf=(maxcycle=1)\\title\\0,1\C,0,2.59090187,-0.04968862,0.43
 961338\H,0,1.93323189,0.27193926,-0.33858357\C,0,3.30609004,-0.4175117
 1,1.32580727\H,0,3.94715573,-0.74121457,2.10714096\H,0,0.52860003,-1.7
 0531399,-0.4282398\H,0,-0.94606012,-1.75214698,-1.4037208\H,0,-1.19391
 173,-2.01169113,1.24893256\H,0,-1.5091135,1.78419372,0.32614917\H,0,-2
 .2909489,-0.91123447,0.41685778\H,0,0.20273902,1.97483312,0.72039919\H

 Normal termination of Gaussian 16 at Wed Apr  9 17:18:50 2025.
