 Gaussian 16, Revision C.01,

 ----------------------------------------------------------------------
 #t hf aug-cc-pvdz symm=none int=(grid=ultrafine) guess=(read,tcheck) s
 table=(opt,rrhf)
 ----------------------------------------------------------------------
 -----
 title
 -----
 Symbolic Z-matrix:
 Charge =  0 Multiplicity = 1

 SCF Done:  E(RHF) =  -977.993866105     A.U. after   13 cycles
 Normal termination of Gaussian 16 at Wed Apr  9 17:58:15 2025.
 Gaussian 16:  ES64L-G16RevC.01  3-Jul-2019

 ----------------------------------------------------------------------
 #t hf aug-cc-pvdz iop(5/13=1,5/36=2,99/5=2) pseudo=read geom=check gue
 ss=(read,tcheck) scf=(maxcycle=1)
 ----------------------------------------------------------------------
 -----
 title
 -----
 Structure from the checkpoint file:  "HB300SPXx10_1445_5.07_1.00_methanethiol_phosphineF2_dimer_mol1.chk"
 Charge =  0 Multiplicity = 1

                         Standard orientation:
 ---------------------------------------------------------------------
 Center     Atomic      Atomic             Coordinates (Angstroms)
 Number     Number       Type             X           Y           Z
 ---------------------------------------------------------------------
      1          1           0        1.509635    1.661117   -0.078746
      2          1           0        2.118535    0.918153   -1.564209
      3          1           0        3.246338    1.281176   -0.248784
      4          1           0        2.019733   -0.449579    1.437978
      5          6           0        2.235440    0.963859   -0.484970
      6         16           0        1.922904   -0.722851    0.128185
      7         15           0       -1.224179   -0.242101   -0.275606
      8          9           0       -0.904136    0.943903    0.756543
      9          9           0       -2.826537   -0.132355   -0.226348
     10          1           0       -1.134594   -1.300838    0.674961
 ---------------------------------------------------------------------

 SCF Done:  E(RHF) =  -978.138566526     A.U. after    2 cycles

 The electronic state is 1-A.
 Alpha  occ. eigenvalues --  -93.54861 -81.38907 -26.13527 -26.12792 -11.27668
 Alpha  occ. eigenvalues --   -8.84631  -7.87626  -6.18792  -6.18570  -6.18290
 Alpha  occ. eigenvalues --   -5.01742  -5.01471  -5.00968  -1.66951  -1.65272
 Alpha  occ. eigenvalues --   -1.03968  -0.89470  -0.87308  -0.78881  -0.77288
 Alpha  occ. eigenvalues --   -0.76551  -0.73173  -0.70554  -0.62208  -0.61474
 Alpha  occ. eigenvalues --   -0.60173  -0.54097  -0.47000  -0.40627  -0.36690
 Alpha virt. eigenvalues --    0.03463   0.04623   0.05132   0.06164   0.06889
 Alpha virt. eigenvalues --    0.08258   0.09676   0.10249   0.11543   0.12499
 Alpha virt. eigenvalues --    0.14433   0.15417   0.15846   0.16123   0.16581

 Mulliken charges:
               1
     1  H   -0.123244
     2  H   -0.071047
     3  H   -0.121537
     4  H    0.101267
     5  C    0.125816
     6  S    0.075563
     7  P    1.273800
     8  F   -0.624535
     9  F   -0.645022
    10  H    0.008938
 Sum of Mulliken charges =  -0.00000

 Dipole moment (field-independent basis, Debye):
    X=              2.2667    Y=             -0.0384    Z=             -0.1459  Tot=              2.2717

 Test job not archived.
 1\1\GINC-SE226\SP\RHF\Aug-CC-pVDZ\C1H5F2P1S1\OHZDE\09-Apr-2025\0\\#t h
 f aug-cc-pvdz iop(5/13=1,5/36=2,99/5=2) pseudo=read geom=check guess=(
 read,tcheck) scf=(maxcycle=1)\\title\\0,1\H,0,-1.72434823,-0.02735536,
 -1.47402619\H,0,-1.29643549,-1.41515971,-2.4840979\H,0,-1.57230153,0.1
 6002765,-3.24353895\H,0,0.52779021,1.28305094,-1.94983564\C,0,-1.18500
 823,-0.34129171,-2.36202164\S,0,0.60124692,-0.03772908,-2.17289215\P,0
 ,0.41786823,-1.09063299,0.85300708\F,0,-0.61973631,0.13057973,0.932897
 8\F,0,0.49698927,-1.39816901,2.4281843\H,0,1.59591396,-0.28856669,0.81

 Normal termination of Gaussian 16 at Wed Apr  9 17:58:18 2025.
