 Gaussian 16, Revision C.01,

 ----------------------------------------------------------------------
 #t hf aug-cc-pvdz symm=none int=(grid=ultrafine) guess=(read,tcheck) s
 table=(opt,rrhf)
 ----------------------------------------------------------------------
 -----
 title
 -----
 Symbolic Z-matrix:
 Charge =  0 Multiplicity = 1

 SCF Done:  E(RHF) =  -1334.39621342     A.U. after   13 cycles
 Normal termination of Gaussian 16 at Wed Apr  9 17:52:39 2025.
 Gaussian 16:  ES64L-G16RevC.01  3-Jul-2019

 ----------------------------------------------------------------------
 #t hf aug-cc-pvdz iop(5/13=1,5/36=2,99/5=2) pseudo=read geom=check gue
 ss=(read,tcheck) scf=(maxcycle=1)
 ----------------------------------------------------------------------
 -----
 title
 -----
 Structure from the checkpoint file:  "HB300SPXx10_1315_4.36_1.00_hydrogenchloride_dimethyldisulfide_dimer_mol1.chk"
 Charge =  0 Multiplicity = 1

                         Standard orientation:
 ---------------------------------------------------------------------
 Center     Atomic      Atomic             Coordinates (Angstroms)
 Number     Number       Type             X           Y           Z
 ---------------------------------------------------------------------
      1          1           0       -1.792369   -0.197114    0.378343
      2         17           0       -2.965559   -0.528273   -0.089387
      3          1           0        3.533632   -1.284656   -0.546523
      4          1           0        3.291225   -0.298927    0.911411
      5          1           0        3.169680    0.442762   -0.707740
      6          1           0       -0.571631    1.388916   -1.410829
      7          1           0        0.974829    2.194256   -1.019263
      8          1           0       -0.518255    2.680805   -0.191109
      9          6           0        2.980833   -0.449803   -0.118086
     10         16           0        1.225458   -0.924449   -0.192064
     11         16           0        0.292682    0.655249    0.727711
     12          6           0        0.025360    1.843436   -0.626092
 ---------------------------------------------------------------------

 SCF Done:  E(RHF) =  -1334.48509089     A.U. after    2 cycles

 The electronic state is 1-A.
 Alpha  occ. eigenvalues -- -103.64979 -93.57282 -93.56630 -11.28091 -11.28010
 Alpha  occ. eigenvalues --  -10.68252  -8.86905  -8.86268  -8.34000  -8.33710
 Alpha  occ. eigenvalues --   -8.33708  -6.21038  -6.20767  -6.20562  -6.20390
 Alpha  occ. eigenvalues --   -6.20120  -6.19796  -1.13470  -1.08618  -1.01523
 Alpha  occ. eigenvalues --   -0.91315  -0.79221  -0.63305  -0.62115  -0.61181
 Alpha  occ. eigenvalues --   -0.60107  -0.59531  -0.54343  -0.50262  -0.46617
 Alpha  occ. eigenvalues --   -0.46575  -0.45039  -0.37438  -0.36395
 Alpha virt. eigenvalues --    0.03119   0.04180   0.05223   0.05609   0.06722
 Alpha virt. eigenvalues --    0.07122   0.08049   0.09009   0.09761   0.12004
 Alpha virt. eigenvalues --    0.13276   0.13797   0.14142   0.14604   0.15241

 Mulliken charges:
               1
     1  H    0.253328
     2  Cl  -0.169915
     3  H   -0.074674
     4  H   -0.027872
     5  H   -0.075459
     6  H   -0.102528
     7  H   -0.109381
     8  H   -0.048770
     9  C    0.058697
    10  S    0.185191
    11  S   -0.111867
    12  C    0.223250
 Sum of Mulliken charges =  -0.00000

 Dipole moment (field-independent basis, Debye):
    X=              3.6151    Y=              1.9994    Z=             -0.6855  Tot=              4.1876

 Test job not archived.
 1\1\GINC-SE112\SP\RHF\Aug-CC-pVDZ\C2H7Cl1S2\OHZDE\09-Apr-2025\0\\#t hf
  aug-cc-pvdz iop(5/13=1,5/36=2,99/5=2) pseudo=read geom=check guess=(r
 ead,tcheck) scf=(maxcycle=1)\\title\\0,1\H,0,-0.26068265,0.62653872,-1
 .61580209\Cl,0,0.10581098,1.51670262,-2.49790267\H,0,1.80887421,-2.024
 13598,2.75401213\H,0,0.21053562,-2.64273185,2.28641366\H,0,0.35574905,
 -1.09607564,3.16578335\H,0,-0.58736917,1.84862411,0.75202693\H,0,-1.27
 681916,0.97363882,2.14934462\H,0,-2.29399121,1.35170937,0.74424939\C,0
 ,0.80881751,-1.74705506,2.42350231\S,0,1.03045102,-0.87931107,0.839203

 Normal termination of Gaussian 16 at Wed Apr  9 17:52:43 2025.
