 Gaussian 16, Revision C.01,

 ----------------------------------------------------------------------
 #t hf aug-cc-pvdz symm=none int=(grid=ultrafine) guess=(read,tcheck) s
 table=(opt,rrhf)
 ----------------------------------------------------------------------
 -----
 title
 -----
 Symbolic Z-matrix:
 Charge =  0 Multiplicity = 1

 SCF Done:  E(RHF) =  -513.771565711     A.U. after   12 cycles
 Normal termination of Gaussian 16 at Wed Apr  9 17:43:24 2025.
 Gaussian 16:  ES64L-G16RevC.01  3-Jul-2019

 ----------------------------------------------------------------------
 #t hf aug-cc-pvdz iop(5/13=1,5/36=2,99/5=2) pseudo=read geom=check gue
 ss=(read,tcheck) scf=(maxcycle=1)
 ----------------------------------------------------------------------
 -----
 title
 -----
 Structure from the checkpoint file:  "HB300SPXx10_1163_4.21_0.90_water_methanethiol_dimer_mol1.chk"
 Charge =  0 Multiplicity = 1

                         Standard orientation:
 ---------------------------------------------------------------------
 Center     Atomic      Atomic             Coordinates (Angstroms)
 Number     Number       Type             X           Y           Z
 ---------------------------------------------------------------------
      1          8           0       -2.165103    0.116010    0.054541
      2          1           0       -1.352051   -0.389377   -0.088910
      3          1           0       -2.869888   -0.427812   -0.303335
      4          1           0       -0.045134    1.533577    0.493944
      5          1           0        0.861727    1.504674   -1.022237
      6          1           0        1.743600    1.501935    0.511714
      7          1           0        0.807045   -0.902983    1.239081
      8          6           0        0.847579    1.155298    0.006446
      9         16           0        0.818128   -0.667493   -0.081579
 ---------------------------------------------------------------------

 SCF Done:  E(RHF) =  -513.832714540     A.U. after    2 cycles

 The electronic state is 1-A.
 Alpha  occ. eigenvalues --  -93.54624 -20.55679 -11.27191  -8.84421  -6.18585
 Alpha  occ. eigenvalues --   -6.18358  -6.18131  -1.29315  -1.03645  -0.87092
 Alpha  occ. eigenvalues --   -0.71995  -0.61604  -0.59770  -0.58210  -0.53728
 Alpha  occ. eigenvalues --   -0.50867  -0.46710  -0.37212
 Alpha virt. eigenvalues --    0.03517   0.04745   0.05125   0.06274   0.07321
 Alpha virt. eigenvalues --    0.09833   0.11179   0.11730   0.14291   0.14938
 Alpha virt. eigenvalues --    0.15767   0.17027   0.18049   0.21290   0.21348

 Mulliken charges:
               1
     1  O   -0.335908
     2  H    0.235571
     3  H    0.187458
     4  H   -0.127456
     5  H   -0.058570
     6  H   -0.110840
     7  H    0.109066
     8  C    0.157234
     9  S   -0.056555
 Sum of Mulliken charges =  -0.00000

 Dipole moment (field-independent basis, Debye):
    X=              0.7245    Y=             -0.2383    Z=              0.0084  Tot=              0.7627

 Test job not archived.
 1\1\GINC-SE362\SP\RHF\Aug-CC-pVDZ\C1H6O1S1\OHZDE\09-Apr-2025\0\\#t hf
 aug-cc-pvdz iop(5/13=1,5/36=2,99/5=2) pseudo=read geom=check guess=(re
 ad,tcheck) scf=(maxcycle=1)\\title\\0,1\O,0,-0.58582535,-1.65985485,-1
 .57348405\H,0,-0.07487288,-1.34797585,-0.81275631\H,0,-0.15829821,-2.4
 72369,-1.85201796\H,0,-1.21880574,0.75670302,-0.89789336\H,0,0.2809214
 2,1.68409069,-1.01106392\H,0,-0.88132155,2.07390668,0.26484697\H,0,-0.
 58163582,-0.2909416,1.49265436\C,0,-0.45295779,1.2698347,-0.32530439\S
 ,0,0.45732844,0.09958082,0.73915246\\Version=ES64L-G16RevC.01\State=1-

 Normal termination of Gaussian 16 at Wed Apr  9 17:43:26 2025.
