 Gaussian 16, Revision C.01,

 ----------------------------------------------------------------------
 #t hf aug-cc-pvdz symm=none int=(grid=ultrafine) guess=(read,tcheck) s
 table=(opt,rrhf)
 ----------------------------------------------------------------------
 -----
 title
 -----
 Symbolic Z-matrix:
 Charge =  0 Multiplicity = 1

 SCF Done:  E(RHF) =  -626.436313444     A.U. after   13 cycles
 Normal termination of Gaussian 16 at Wed Apr  9 17:54:39 2025.
 Gaussian 16:  ES64L-G16RevC.01  3-Jul-2019

 ----------------------------------------------------------------------
 #t hf aug-cc-pvdz iop(5/13=1,5/36=2,99/5=2) pseudo=read geom=check gue
 ss=(read,tcheck) scf=(maxcycle=1)
 ----------------------------------------------------------------------
 -----
 title
 -----
 Structure from the checkpoint file:  "HB300SPXx10_1391_5.02_0.80_dimethylsulfone_phosphineF2_dimer_mol2.chk"
 Charge =  0 Multiplicity = 1

                         Standard orientation:
 ---------------------------------------------------------------------
 Center     Atomic      Atomic             Coordinates (Angstroms)
 Number     Number       Type             X           Y           Z
 ---------------------------------------------------------------------
      1          1           0        1.405013    1.479897   -0.937814
      2          1           0        2.282375    0.271315    0.036119
      3          1           0        1.360859    1.560944    0.856701
      4          1           0       -1.372662    1.541372    0.869906
      5          1           0       -2.280871    0.276920   -0.004221
      6          1           0       -1.381671    1.506724   -0.928737
      7          8           0        0.001755   -0.943097   -1.224829
      8         16           0       -0.000362   -0.184562   -0.001688
      9          8           0       -0.005351   -0.888445    1.263901
     10          6           0        1.405234    0.911692   -0.012286
     11          6           0       -1.401647    0.916333   -0.017300
 ---------------------------------------------------------------------

 SCF Done:  E(RHF) =  -626.587680201     A.U. after    2 cycles

 The electronic state is 1-A.
 Alpha  occ. eigenvalues --  -93.77921 -20.55296 -20.55046 -11.28866 -11.28855
 Alpha  occ. eigenvalues --   -9.04751  -6.39408  -6.39181  -6.39097  -1.42150
 Alpha  occ. eigenvalues --   -1.30284  -1.06724  -1.00882  -0.81489  -0.69713
 Alpha  occ. eigenvalues --   -0.68654  -0.67722  -0.62413  -0.62282  -0.60820
 Alpha  occ. eigenvalues --   -0.58709  -0.51435  -0.51305  -0.48734  -0.45557
 Alpha virt. eigenvalues --    0.02591   0.04281   0.04771   0.05616   0.06886
 Alpha virt. eigenvalues --    0.06932   0.09460   0.12093   0.13031   0.13774
 Alpha virt. eigenvalues --    0.14427   0.15520   0.15758   0.15928   0.17301

 Mulliken charges:
               1
     1  H    0.007237
     2  H    0.039189
     3  H   -0.000002
     4  H    0.004513
     5  H    0.039460
     6  H    0.005043
     7  O   -1.071584
     8  S    2.007172
     9  O   -1.077381
    10  C    0.023927
    11  C    0.022426
 Sum of Mulliken charges =  -0.00000

 Dipole moment (field-independent basis, Debye):
    X=              0.0099    Y=              5.4816    Z=             -0.1664  Tot=              5.4841

 Test job not archived.
 1\1\GINC-SE112\SP\RHF\Aug-CC-pVDZ\C2H6O2S1\OHZDE\09-Apr-2025\0\\#t hf
 aug-cc-pvdz iop(5/13=1,5/36=2,99/5=2) pseudo=read geom=check guess=(re
 ad,tcheck) scf=(maxcycle=1)\\title\\0,1\H,0,1.82037896,-1.1252997,2.45
 423408\H,0,2.45327614,-0.04590354,1.18406648\H,0,1.26048817,-1.3027848
 1,0.75605091\H,0,-1.35656486,-1.06874241,1.510339\H,0,-1.8999986,0.310
 18714,2.5058364\H,0,-0.84910966,-0.93302114,3.2309401\O,0,0.70477422,1
 .412934,2.93921594\S,0,0.30796869,0.58975017,1.82729483\O,0,-0.0164970
 6,1.22000253,0.56448154\C,0,1.58998555,-0.61149627,1.52558836\C,0,-1.0

 Normal termination of Gaussian 16 at Wed Apr  9 17:54:42 2025.
