 Gaussian 16, Revision C.01,

 ----------------------------------------------------------------------
 #t hf aug-cc-pvdz symm=none int=(grid=ultrafine) guess=(read,tcheck) s
 table=(opt,rrhf)
 ----------------------------------------------------------------------
 -----
 title
 -----
 Symbolic Z-matrix:
 Charge =  0 Multiplicity = 1

 SCF Done:  E(RHF) =  -1054.89383407     A.U. after   14 cycles
 Normal termination of Gaussian 16 at Wed Apr  9 18:02:34 2025.
 Gaussian 16:  ES64L-G16RevC.01  3-Jul-2019

 ----------------------------------------------------------------------
 #t hf aug-cc-pvdz iop(5/13=1,5/36=2,99/5=2) pseudo=read geom=check gue
 ss=(read,tcheck) scf=(maxcycle=1)
 ----------------------------------------------------------------------
 -----
 title
 -----
 Structure from the checkpoint file:  "HB300SPXx10_1486_5.11_1.05_thioacetone_phosphineF2_dimer_mol1.chk"
 Charge =  0 Multiplicity = 1

                         Standard orientation:
 ---------------------------------------------------------------------
 Center     Atomic      Atomic             Coordinates (Angstroms)
 Number     Number       Type             X           Y           Z
 ---------------------------------------------------------------------
      1          1           0        0.691829    1.671683   -0.098576
      2          1           0        1.949602    1.918048    1.130512
      3          1           0        2.340545    2.149185   -0.557947
      4          1           0        3.883393   -1.186478    0.198023
      5          1           0        4.206268    0.406435   -0.520224
      6          6           0        1.743339    1.540480    0.125250
      7          6           0        2.171302    0.109171    0.037380
      8         16           0        1.133431   -1.110260   -0.252865
      9          6           0        3.635708   -0.131505    0.241119
     10          1           0        3.947771    0.277801    1.205290
     11         15           0       -2.027352   -0.256756    0.269785
     12          9           0       -3.627772   -0.092609    0.297728
     13          9           0       -1.709360    1.033496   -0.628811
     14          1           0       -2.011925   -1.198021   -0.800750
 ---------------------------------------------------------------------

 SCF Done:  E(RHF) =  -1055.05896503     A.U. after    2 cycles

 The electronic state is 1-A.
 Alpha  occ. eigenvalues --  -93.51894 -81.38389 -26.12985 -26.12307 -11.34368
 Alpha  occ. eigenvalues --  -11.26017 -11.25741  -8.81875  -7.87108  -6.16055
 Alpha  occ. eigenvalues --   -6.15678  -6.15470  -5.01220  -5.00958  -5.00454
 Alpha  occ. eigenvalues --   -1.66406  -1.64724  -1.12127  -0.97388  -0.95196
 Alpha  occ. eigenvalues --   -0.88890  -0.78319  -0.76772  -0.76055  -0.72879
 Alpha  occ. eigenvalues --   -0.72621  -0.69954  -0.62695  -0.62498  -0.62047
 Alpha  occ. eigenvalues --   -0.60585  -0.56914  -0.54118  -0.50544  -0.40551
 Alpha  occ. eigenvalues --   -0.38660  -0.34325
 Alpha virt. eigenvalues --    0.02905   0.03933   0.04695   0.05193   0.06202
 Alpha virt. eigenvalues --    0.06569   0.07326   0.07748   0.08885   0.09484
 Alpha virt. eigenvalues --    0.10091   0.11749   0.12283   0.14100   0.14617

 Mulliken charges:
               1
     1  H   -0.205814
     2  H    0.087071
     3  H    0.077147
     4  H   -0.070359
     5  H    0.051918
     6  C    0.362501
     7  C   -0.814295
     8  S    0.121939
     9  C    0.360304
    10  H    0.048622
    11  P    1.263052
    12  F   -0.651200
    13  F   -0.637439
    14  H    0.006552
 Sum of Mulliken charges =  -0.00000

 Dipole moment (field-independent basis, Debye):
    X=              4.1075    Y=              0.7675    Z=              0.7001  Tot=              4.2369

 Test job not archived.
 1\1\GINC-SE362\SP\RHF\Aug-CC-pVDZ\C3H7F2P1S1\OHZDE\09-Apr-2025\0\\#t h
 f aug-cc-pvdz iop(5/13=1,5/36=2,99/5=2) pseudo=read geom=check guess=(
 read,tcheck) scf=(maxcycle=1)\\title\\0,1\H,0,-0.82524406,-0.11851319,
 -2.18150719\H,0,-1.6981931,1.21808686,-2.95919937\H,0,-0.71897066,0.14
 764096,-3.93512177\H,0,1.41759528,3.22175764,-3.68330427\H,0,0.7352472
 6,2.04678605,-4.82844268\C,0,-0.77357806,0.63435768,-2.9583614\C,0,0.3
 925438,1.55581911,-2.78347778\S,0,1.39271927,1.4865874,-1.50157001\C,0
 ,0.57891903,2.56210758,-3.87735604\H,0,-0.33203334,3.15446018,-3.99493

 Normal termination of Gaussian 16 at Wed Apr  9 18:02:39 2025.
