 Gaussian 16, Revision C.01,

 ----------------------------------------------------------------------
 #t hf aug-cc-pvdz symm=none int=(grid=ultrafine) guess=(read,tcheck) s
 table=(opt,rrhf)
 ----------------------------------------------------------------------
 -----
 title
 -----
 Symbolic Z-matrix:
 Charge =  0 Multiplicity = 1

 SCF Done:  E(RHF) =  -645.423896422     A.U. after   13 cycles
 Normal termination of Gaussian 16 at Wed Apr  9 17:52:33 2025.
 Gaussian 16:  ES64L-G16RevC.01  3-Jul-2019

 ----------------------------------------------------------------------
 #t hf aug-cc-pvdz iop(5/13=1,5/36=2,99/5=2) pseudo=read geom=check gue
 ss=(read,tcheck) scf=(maxcycle=1)
 ----------------------------------------------------------------------
 -----
 title
 -----
 Structure from the checkpoint file:  "HB300SPXx10_130_1.13_2.00_sulfane_pyridine_dimer_mol1.chk"
 Charge =  0 Multiplicity = 1

                         Standard orientation:
 ---------------------------------------------------------------------
 Center     Atomic      Atomic             Coordinates (Angstroms)
 Number     Number       Type             X           Y           Z
 ---------------------------------------------------------------------
      1          1           0        3.498919   -0.301677   -0.033650
      2          1           0        4.949306   -0.037364    1.252549
      3         16           0        4.817546    0.014611   -0.080715
      4          1           0       -3.672293   -1.818939   -0.010123
      5          1           0       -1.234016   -2.294598    0.003211
      6          6           0       -3.375303    0.316732   -0.005692
      7          6           0       -2.959567   -1.007482   -0.004701
      8          6           0       -1.596899   -1.274467    0.002915
      9          7           0       -0.668958   -0.318241    0.009604
     10          6           0       -1.075099    0.950938    0.008411
     11          6           0       -2.414409    1.317855    0.000947
     12          1           0       -0.292866    1.700109    0.012852
     13          1           0       -2.691848    2.361607   -0.000029
     14          1           0       -4.427579    0.563313   -0.011891
 ---------------------------------------------------------------------

 SCF Done:  E(RHF) =  -645.518352562     A.U. after    2 cycles

 The electronic state is 1-A.
 Alpha  occ. eigenvalues --  -93.54260 -15.63299 -11.28779 -11.28766 -11.27124
 Alpha  occ. eigenvalues --  -11.25389 -11.25385  -8.83993  -6.18166  -6.17955
 Alpha  occ. eigenvalues --   -6.17582  -1.23657  -1.08164  -1.03413  -0.95926
 Alpha  occ. eigenvalues --   -0.86151  -0.86043  -0.72988  -0.66992  -0.65864
 Alpha  occ. eigenvalues --   -0.60776  -0.58192  -0.57993  -0.54808  -0.52740
 Alpha  occ. eigenvalues --   -0.48872  -0.41556  -0.38797  -0.37539  -0.35439
 Alpha virt. eigenvalues --    0.02986   0.03703   0.03801   0.05342   0.05915
 Alpha virt. eigenvalues --    0.06936   0.08147   0.08855   0.10092   0.10461
 Alpha virt. eigenvalues --    0.11404   0.11944   0.12429   0.12685   0.13799

 Mulliken charges:
               1
     1  H    0.020496
     2  H    0.014941
     3  S   -0.032072
     4  H   -0.413708
     5  H   -0.365698
     6  C   -0.182498
     7  C    0.783957
     8  C    0.496963
     9  N   -0.414485
    10  C    0.511291
    11  C    0.775872
    12  H   -0.374997
    13  H   -0.416331
    14  H   -0.403731
 Sum of Mulliken charges =  -0.00000

 Dipole moment (field-independent basis, Debye):
    X=             -3.0286    Y=              0.2902    Z=              0.7767  Tot=              3.1400

 Test job not archived.
 1\1\GINC-SE103\SP\RHF\Aug-CC-pVDZ\C5H7N1S1\OHZDE\09-Apr-2025\0\\#t hf
 aug-cc-pvdz iop(5/13=1,5/36=2,99/5=2) pseudo=read geom=check guess=(re
 ad,tcheck) scf=(maxcycle=1)\\title\\0,1\H,0,1.25021154,1.5960457,0.136
 91261\H,0,3.15091491,1.84193998,0.53016902\S,0,2.02337536,2.53859467,0
 .73260516\H,0,-3.14236181,-3.4400568,-2.875047\H,0,-1.60397945,-1.4904
 0621,-2.81286394\C,0,-3.01508076,-3.75797696,-0.74618803\C,0,-2.718480
 73,-3.11100035,-1.93775443\C,0,-1.85857089,-2.02121644,-1.90414188\N,0
 ,-1.30413903,-1.56726671,-0.78074502\C,0,-1.5933738,-2.19299791,0.3596

 Normal termination of Gaussian 16 at Wed Apr  9 17:52:37 2025.
