 Gaussian 16, Revision C.01,

 ----------------------------------------------------------------------
 #t hf aug-cc-pvdz symm=none int=(grid=ultrafine) guess=(read,tcheck) s
 table=(opt,rrhf)
 ----------------------------------------------------------------------
 -----
 title
 -----
 Symbolic Z-matrix:
 Charge =  0 Multiplicity = 1

 SCF Done:  E(RHF) =  -989.361302879     A.U. after   13 cycles
 Normal termination of Gaussian 16 at Wed Apr  9 17:41:46 2025.
 Gaussian 16:  ES64L-G16RevC.01  3-Jul-2019

 ----------------------------------------------------------------------
 #t hf aug-cc-pvdz iop(5/13=1,5/36=2,99/5=2) pseudo=read geom=check gue
 ss=(read,tcheck) scf=(maxcycle=1)
 ----------------------------------------------------------------------
 -----
 title
 -----
 Structure from the checkpoint file:  "HB300SPXx10_1143_4.19_0.90_methanol_dimethyldisulfide_dimer_mol1.chk"
 Charge =  0 Multiplicity = 1

                         Standard orientation:
 ---------------------------------------------------------------------
 Center     Atomic      Atomic             Coordinates (Angstroms)
 Number     Number       Type             X           Y           Z
 ---------------------------------------------------------------------
      1          8           0        2.635431    0.150891   -0.140105
      2          1           0        1.816726    0.350490   -0.610042
      3          6           0        2.600718   -1.212695    0.251585
      4          1           0        3.514253   -1.410962    0.808000
      5          1           0        1.746059   -1.432207    0.897906
      6          1           0        2.567655   -1.886008   -0.609733
      7          1           0       -3.149026   -1.633633    0.575359
      8          1           0       -3.234991   -0.361561   -0.662665
      9          1           0       -2.917945    0.061307    1.041759
     10          1           0        0.800239    1.328097    1.386269
     11          1           0       -0.882264    1.940427    1.417435
     12          1           0        0.367689    2.803967    0.500265
     13          6           0       -2.749323   -0.671529    0.257743
     14         16           0       -0.969440   -0.932634   -0.019668
     15         16           0       -0.338399    0.894910   -0.705549
     16          6           0        0.017534    1.823649    0.820631
 ---------------------------------------------------------------------

 SCF Done:  E(RHF) =  -989.470749653     A.U. after    2 cycles

 The electronic state is 1-A.
 Alpha  occ. eigenvalues --  -93.56551 -93.56248 -20.54832 -11.27720 -11.27286
 Alpha  occ. eigenvalues --  -11.26741  -8.86192  -8.85893  -6.20341  -6.20062
 Alpha  occ. eigenvalues --   -6.20007  -6.19851  -6.19761  -6.19432  -1.29933
 Alpha  occ. eigenvalues --   -1.08168  -1.01017  -0.91105  -0.90833  -0.78712
 Alpha  occ. eigenvalues --   -0.69149  -0.62114  -0.61936  -0.60877  -0.59720
 Alpha  occ. eigenvalues --   -0.59126  -0.58708  -0.53903  -0.50233  -0.49424
 Alpha  occ. eigenvalues --   -0.44788  -0.44498  -0.36977  -0.35887
 Alpha virt. eigenvalues --    0.03213   0.04355   0.04821   0.05262   0.06109
 Alpha virt. eigenvalues --    0.06540   0.07079   0.08086   0.08231   0.09157
 Alpha virt. eigenvalues --    0.10018   0.11160   0.13103   0.13550   0.14002

 Mulliken charges:
               1
     1  O   -0.513997
     2  H    0.268781
     3  C    0.946734
     4  H   -0.210892
     5  H   -0.183703
     6  H   -0.164177
     7  H   -0.074803
     8  H   -0.031112
     9  H   -0.088991
    10  H   -0.134700
    11  H   -0.116720
    12  H   -0.060099
    13  C    0.013556
    14  S    0.236460
    15  S   -0.155917
    16  C    0.269581
 Sum of Mulliken charges =  -0.00000

 Dipole moment (field-independent basis, Debye):
    X=             -3.2249    Y=             -0.0045    Z=              1.3867  Tot=              3.5104

 Test job not archived.
 1\1\GINC-SE362\SP\RHF\Aug-CC-pVDZ\C3H10O1S2\OHZDE\09-Apr-2025\0\\#t hf
  aug-cc-pvdz iop(5/13=1,5/36=2,99/5=2) pseudo=read geom=check guess=(r
 ead,tcheck) scf=(maxcycle=1)\\title\\0,1\O,0,-0.42925951,1.22968046,-2
 .50380826\H,0,-0.36156068,1.36890772,-1.5514469\C,0,-1.37991091,0.2017
 0921,-2.7351714\H,0,-1.41855104,0.0350798,-3.80950666\H,0,-1.09677682,
 -0.73598734,-2.24842974\H,0,-2.37984798,0.48334645,-2.39294418\H,0,-0.
 61558151,-2.51483719,2.30246143\H,0,-0.15014888,-0.94405671,2.99114402
 \H,0,1.01668661,-1.88245661,2.02042217\H,0,1.64443901,-0.01906843,-1.3

 Normal termination of Gaussian 16 at Wed Apr  9 17:41:51 2025.
