 Gaussian 16, Revision C.01,

 ----------------------------------------------------------------------
 #t hf aug-cc-pvdz symm=none int=(grid=ultrafine) guess=(read,tcheck) s
 table=(opt,rrhf)
 ----------------------------------------------------------------------
 -----
 title
 -----
 Symbolic Z-matrix:
 Charge =  0 Multiplicity = 1

 SCF Done:  E(RHF) =  -1166.69254179     A.U. after   13 cycles
 Normal termination of Gaussian 16 at Wed Apr  9 04:11:03 2025.
 Gaussian 16:  ES64L-G16RevC.01  3-Jul-2019

 ----------------------------------------------------------------------
 #t hf aug-cc-pvdz iop(5/13=1,5/36=2,99/5=2) pseudo=read geom=check gue
 ss=(read,tcheck) scf=(maxcycle=1)
 ----------------------------------------------------------------------
 -----
 title
 -----
 Structure from the checkpoint file:  "HB300SPXx10_1391_5.02_0.80_dimethylsulfone_phosphineF2_dimer_mol1.chk"
 Charge =  0 Multiplicity = 1

                         Standard orientation:
 ---------------------------------------------------------------------
 Center     Atomic      Atomic             Coordinates (Angstroms)
 Number     Number       Type             X           Y           Z
 ---------------------------------------------------------------------
      1          1           0        2.122039    0.477649    2.076030
      2          1           0        1.377543   -1.140841    2.003929
      3          1           0        0.341425    0.309007    1.903465
      4          1           0        0.330340    1.873220   -0.338366
      5          1           0        1.413674    1.510139   -1.710351
      6          1           0        2.106786    2.110465   -0.182309
      7          8           0        2.831987   -0.613689   -0.419440
      8         16           0        1.494036   -0.180321   -0.113610
      9          8           0        0.372773   -0.925246   -0.647512
     10          6           0        1.311508   -0.112261    1.658292
     11          6           0        1.314033    1.516471   -0.627721
     12         15           0       -1.880447   -0.438451   -0.057502
     13          9           0       -3.446442   -0.087204   -0.035112
     14          9           0       -1.337253    1.029809    0.339742
     15          1           0       -1.727746   -0.274955   -1.461581
 ---------------------------------------------------------------------

 SCF Done:  E(RHF) =  -1166.95116103     A.U. after    2 cycles

 The electronic state is 1-A.
 Alpha  occ. eigenvalues --  -93.79456 -81.37910 -26.14141 -26.11613 -20.57775
 Alpha  occ. eigenvalues --  -20.56681 -11.29501 -11.28938  -9.06343  -7.86635
 Alpha  occ. eigenvalues --   -6.41023  -6.40771  -6.40669  -5.00750  -5.00489
 Alpha  occ. eigenvalues --   -4.99939  -1.67566  -1.64594  -1.44366  -1.32776
 Alpha  occ. eigenvalues --   -1.07750  -1.01589  -0.89633  -0.83535  -0.79122
 Alpha  occ. eigenvalues --   -0.78058  -0.77073  -0.72950  -0.71364  -0.71177
 Alpha  occ. eigenvalues --   -0.70957  -0.68493  -0.63936  -0.62863  -0.61980
 Alpha  occ. eigenvalues --   -0.59324  -0.58845  -0.54003  -0.53422  -0.50796
 Alpha  occ. eigenvalues --   -0.47190  -0.38411
 Alpha virt. eigenvalues --    0.02751   0.04231   0.04735   0.05542   0.06372
 Alpha virt. eigenvalues --    0.06626   0.07295   0.09036   0.09363   0.10617
 Alpha virt. eigenvalues --    0.12547   0.13558   0.13908   0.14269   0.15062

 Mulliken charges:
               1
     1  H   -0.015679
     2  H    0.047356
     3  H   -0.035790
     4  H   -0.036553
     5  H    0.030050
     6  H   -0.015463
     7  O   -1.052129
     8  S    1.958955
     9  O   -1.106962
    10  C    0.124191
    11  C    0.177736
    12  P    1.264691
    13  F   -0.661036
    14  F   -0.711731
    15  H    0.032364
 Sum of Mulliken charges =  -0.00000

 Dipole moment (field-independent basis, Debye):
    X=              1.3887    Y=              2.7736    Z=              1.8152  Tot=              3.5939

 Test job not archived.
 1\1\GINC-SE403\SP\RHF\Aug-CC-pVDZ\C2H7F2O2P1S1\OHZDE\09-Apr-2025\0\\#t
  hf aug-cc-pvdz iop(5/13=1,5/36=2,99/5=2) pseudo=read geom=check guess
 =(read,tcheck) scf=(maxcycle=1)\\title\\0,1\H,0,1.82037896,-1.1252997,
 2.45423408\H,0,2.45327614,-0.04590354,1.18406648\H,0,1.26048817,-1.302
 78481,0.75605091\H,0,-1.35656486,-1.06874241,1.510339\H,0,-1.8999986,0
 .31018714,2.5058364\H,0,-0.84910966,-0.93302114,3.2309401\O,0,0.704774
 22,1.412934,2.93921594\S,0,0.30796869,0.58975017,1.82729483\O,0,-0.016
 49706,1.22000253,0.56448154\C,0,1.58998555,-0.61149627,1.52558836\C,0,

 Normal termination of Gaussian 16 at Wed Apr  9 04:11:09 2025.
