 Gaussian 16, Revision C.01,

 ----------------------------------------------------------------------
 #t hf aug-cc-pvdz symm=none int=(grid=ultrafine) guess=(read,tcheck) s
 table=(opt,rrhf)
 ----------------------------------------------------------------------
 -----
 title
 -----
 Symbolic Z-matrix:
 Charge =  0 Multiplicity = 1

 SCF Done:  E(RHF) =  -952.361967094     A.U. after   14 cycles

 1\1\GINC-SE174\Stability\RHF\Aug-CC-pVDZ\C4H10S2\OHZDE\09-Apr-2025\0\\
 #t hf aug-cc-pvdz symm=none int=(grid=ultrafine) guess=(read,tcheck) s
 table=(opt,rrhf)\\title\\0,1\H,0,1.94048627,-0.28311522,0.30003006\H,0
 ,2.70886397,-1.74966836,-0.33633756\H,0,2.5169729,-1.54996222,1.410513
 58\H,0,-0.19256655,-1.5118813,1.21090974\C,0,2.06439688,-1.35234501,0.
 4434425\S,0,0.46794236,-2.21627191,0.2804649\H,0,-3.18976057,1.1018623
 4,0.47638368\H,0,-3.24772505,1.55833798,-1.2397855\H,0,-2.60585386,-0.
 00834516,-0.78631237\H,0,0.45586078,2.03401585,-1.57890331\H,0,-0.3206

 Normal termination of Gaussian 16 at Wed Apr  9 17:21:37 2025.
 Gaussian 16:  ES64L-G16RevC.01  3-Jul-2019

 ----------------------------------------------------------------------
 #t hf aug-cc-pvdz iop(5/13=1,5/36=2,99/5=2) pseudo=read geom=check gue
 ss=(read,tcheck) scf=(maxcycle=1)
 ----------------------------------------------------------------------
 -----
 title
 -----
 Structure from the checkpoint file:  "HB300SPXx10_1028_4.06_1.25_methanethiol_thioacetone_dimer_mol1.chk"
 Charge =  0 Multiplicity = 1

                         Standard orientation:
 ---------------------------------------------------------------------
 Center     Atomic      Atomic             Coordinates (Angstroms)
 Number     Number       Type             X           Y           Z
 ---------------------------------------------------------------------
      1          1           0        1.752850   -1.358452    0.772175
      2          1           0        3.324299   -0.783588    1.360585
      3          1           0        3.236124   -1.690881   -0.155080
      4          1           0        1.696823    0.217629   -1.325994
      5          6           0        2.722690   -0.970812    0.474992
      6         16           0        2.546159    0.631892   -0.374584
      7          1           0       -2.192598    1.286369   -1.616770
      8          1           0       -2.782570    2.009138   -0.104650
      9          1           0       -1.083466    2.137608   -0.515349
     10          1           0       -1.180282   -0.542630    2.126711
     11          1           0       -0.335576    0.944733    1.643267
     12          6           0       -1.952015    1.477924   -0.576677
     13          6           0       -1.669446    0.212686    0.172499
     14         16           0       -1.753265   -1.255963   -0.523463
     15          6           0       -1.284608    0.403449    1.606609
     16          1           0       -2.021638    1.025727    2.119308
 ---------------------------------------------------------------------

 SCF Done:  E(RHF) =  -952.453272779     A.U. after    2 cycles

 The electronic state is 1-A.
 Alpha  occ. eigenvalues --  -93.53572 -93.50851 -11.33410 -11.26842 -11.25208
 Alpha  occ. eigenvalues --  -11.25105  -8.83326  -8.80787  -6.17488  -6.17271
 Alpha  occ. eigenvalues --   -6.16941  -6.14964  -6.14604  -6.14352  -1.11260
 Alpha  occ. eigenvalues --   -1.02795  -0.96636  -0.94197  -0.86185  -0.71959
 Alpha  occ. eigenvalues --   -0.62082  -0.61373  -0.61233  -0.61014  -0.59456
 Alpha  occ. eigenvalues --   -0.56261  -0.53355  -0.53031  -0.49589  -0.45818
 Alpha  occ. eigenvalues --   -0.38338  -0.35776  -0.33309
 Alpha virt. eigenvalues --    0.03211   0.04012   0.04518   0.05326   0.05952
 Alpha virt. eigenvalues --    0.06254   0.06739   0.07275   0.08152   0.08629
 Alpha virt. eigenvalues --    0.09287   0.10047   0.11599   0.12149   0.12816

 Mulliken charges:
               1
     1  H   -0.177235
     2  H   -0.081242
     3  H   -0.106192
     4  H    0.071163
     5  C    0.134242
     6  S    0.151082
     7  H   -0.073815
     8  H    0.040367
     9  H    0.024962
    10  H   -0.094962
    11  H    0.076656
    12  C    0.328229
    13  C   -0.679904
    14  S   -0.003513
    15  C    0.388518
    16  H    0.001645
 Sum of Mulliken charges =  -0.00000

 Dipole moment (field-independent basis, Debye):
    X=             -0.0974    Y=              1.3704    Z=              1.6055  Tot=              2.1130

 Test job not archived.
 1\1\GINC-SE174\SP\RHF\Aug-CC-pVDZ\C4H10S2\OHZDE\09-Apr-2025\0\\#t hf a
 ug-cc-pvdz iop(5/13=1,5/36=2,99/5=2) pseudo=read geom=check guess=(rea
 d,tcheck) scf=(maxcycle=1)\\title\\0,1\H,0,1.94048627,-0.28311522,0.30
 003006\H,0,2.70886397,-1.74966836,-0.33633756\H,0,2.5169729,-1.5499622
 2,1.41051358\H,0,-0.19256655,-1.5118813,1.21090974\C,0,2.06439688,-1.3
 5234501,0.4434425\S,0,0.46794236,-2.21627191,0.2804649\H,0,-3.18976057
 ,1.10186234,0.47638368\H,0,-3.24772505,1.55833798,-1.2397855\H,0,-2.60
 585386,-0.00834516,-0.78631237\H,0,0.45586078,2.03401585,-1.57890331\H

 Normal termination of Gaussian 16 at Wed Apr  9 17:21:42 2025.
