 Gaussian 16, Revision C.01,

 ----------------------------------------------------------------------
 #t hf aug-cc-pvdz symm=none int=(grid=ultrafine) guess=(read,tcheck) s
 table=(opt,rrhf)
 ----------------------------------------------------------------------
 -----
 title
 -----
 Symbolic Z-matrix:
 Charge =  0 Multiplicity = 1

 SCF Done:  E(RHF) =  -800.719633341     A.U. after   14 cycles
 Normal termination of Gaussian 16 at Wed Apr  9 17:38:38 2025.
 Gaussian 16:  ES64L-G16RevC.01  3-Jul-2019

 ----------------------------------------------------------------------
 #t hf aug-cc-pvdz iop(5/13=1,5/36=2,99/5=2) pseudo=read geom=check gue
 ss=(read,tcheck) scf=(maxcycle=1)
 ----------------------------------------------------------------------
 -----
 title
 -----
 Structure from the checkpoint file:  "HB300SPXx10_1103_4.14_0.90_Nmethylacetamide_tetrahydrothiophene_dimer_mol1.chk"
 Charge =  0 Multiplicity = 1

                         Standard orientation:
 ---------------------------------------------------------------------
 Center     Atomic      Atomic             Coordinates (Angstroms)
 Number     Number       Type             X           Y           Z
 ---------------------------------------------------------------------
      1          6           0       -2.262946   -1.654332   -0.148460
      2          1           0       -2.189778   -2.143024    0.821793
      3          1           0       -1.422912   -1.953767   -0.771810
      4          1           0       -3.188370   -1.990647   -0.612059
      5          6           0       -2.348420   -0.156156    0.065248
      6          8           0       -3.245972    0.348368    0.720150
      7          7           0       -1.370592    0.572128   -0.531099
      8          1           0       -0.597814    0.087047   -0.965346
      9          6           0       -1.300284    2.011332   -0.396059
     10          1           0       -2.306511    2.405217   -0.286448
     11          1           0       -0.723359    2.315866    0.481258
     12          1           0       -0.840150    2.439424   -1.284227
     13          1           0        1.409534    1.636579   -0.840597
     14          1           0        3.032486    1.068315   -1.239065
     15          1           0        2.519992    1.817093    1.293315
     16          1           0        2.062631   -2.024013    0.915290
     17          1           0        3.454127    0.351536    1.011417
     18          1           0        0.314754   -1.800394    0.790702
     19          1           0        1.639242   -0.285232    2.554981
     20          1           0        0.445717    0.489031    1.517976
     21         16           0        1.473414   -0.777108   -1.073190
     22          6           0        2.155934    0.874750   -0.627235
     23          6           0        2.477763    0.815583    0.865496
     24          6           0        1.397062   -0.043120    1.520318
     25          6           0        1.277174   -1.309915    0.677417
 ---------------------------------------------------------------------

 SCF Done:  E(RHF) =  -800.866232912     A.U. after    2 cycles

 The electronic state is 1-A.
 Alpha  occ. eigenvalues --  -93.53478 -20.51832 -15.63194 -11.35009 -11.27811
 Alpha  occ. eigenvalues --  -11.27649 -11.26443 -11.25400 -11.25107 -11.23837
 Alpha  occ. eigenvalues --   -8.83291  -6.17436  -6.17271  -6.17035  -1.33241
 Alpha  occ. eigenvalues --   -1.18629  -1.13036  -1.00740  -0.99522  -0.97379
 Alpha  occ. eigenvalues --   -0.92167  -0.80915  -0.79851  -0.77633  -0.68942
 Alpha  occ. eigenvalues --   -0.67582  -0.65595  -0.64831  -0.63018  -0.61607
 Alpha  occ. eigenvalues --   -0.58690  -0.58312  -0.56060  -0.55115  -0.54531
 Alpha  occ. eigenvalues --   -0.52239  -0.50924  -0.50434  -0.49450  -0.49238
 Alpha  occ. eigenvalues --   -0.43751  -0.42722  -0.38384  -0.35045
 Alpha virt. eigenvalues --    0.02706   0.03489   0.04163   0.04382   0.05446
 Alpha virt. eigenvalues --    0.05791   0.05954   0.06549   0.07202   0.07884
 Alpha virt. eigenvalues --    0.08594   0.08697   0.09953   0.10387   0.10846

 Mulliken charges:
               1
     1  C    0.577148
     2  H    0.049909
     3  H   -0.217413
     4  H   -0.097809
     5  C    0.190977
     6  O   -0.589351
     7  N   -0.207514
     8  H    0.043230
     9  C    0.919670
    10  H   -0.271869
    11  H   -0.159951
    12  H   -0.171430
    13  H   -0.333006
    14  H   -0.074369
    15  H   -0.087969
    16  H   -0.161306
    17  H   -0.177812
    18  H   -0.316172
    19  H   -0.069963
    20  H   -0.326183
    21  S    0.197715
    22  C    0.269725
    23  C    0.250548
    24  C    0.407230
    25  C    0.355964
 Sum of Mulliken charges =  -0.00000

 Dipole moment (field-independent basis, Debye):
    X=              4.6559    Y=             -0.1389    Z=             -0.3196  Tot=              4.6689

 Test job not archived.
 1\1\GINC-SE114\SP\RHF\Aug-CC-pVDZ\C7H15N1O1S1\OHZDE\09-Apr-2025\0\\#t
 hf aug-cc-pvdz iop(5/13=1,5/36=2,99/5=2) pseudo=read geom=check guess=
 (read,tcheck) scf=(maxcycle=1)\\title\\0,1\C,0,-2.35790997,-0.53076315
 ,1.51380969\H,0,-2.45888814,0.43106478,2.01406411\H,0,-1.4356415,-1.01
 232631,1.83224394\H,0,-3.20368729,-1.14467685,1.81747472\C,0,-2.435185
 38,-0.3119418,0.01592702\O,0,-3.41358688,0.19433185,-0.50891479\N,0,-1
 .3525984,-0.72916607,-0.68842032\H,0,-0.53292762,-1.03795931,-0.184588
 74\C,0,-1.26500492,-0.56327277,-2.12344447\H,0,-2.26409386,-0.61429593

 Normal termination of Gaussian 16 at Wed Apr  9 17:38:56 2025.
