 Gaussian 16, Revision C.01,

 ----------------------------------------------------------------------
 #t hf aug-cc-pvdz symm=none int=(grid=ultrafine) guess=(read,tcheck) s
 table=(opt,rrhf)
 ----------------------------------------------------------------------
 -----
 title
 -----
 Symbolic Z-matrix:
 Charge =  0 Multiplicity = 1

 SCF Done:  E(RHF) =  -914.495160078     A.U. after   12 cycles

 1\1\GINC-SE454\Stability\RHF\Aug-CC-pVDZ\C3H10S2\OHZDE\09-Apr-2025\0\\
 #t hf aug-cc-pvdz symm=none int=(grid=ultrafine) guess=(read,tcheck) s
 table=(opt,rrhf)\\title\\0,1\H,0,2.306559,-2.0578968,-0.64952301\H,0,3
 .32031438,-1.47471252,0.67641305\H,0,2.52307119,-0.31083024,-0.3888258
 5\H,0,0.07002633,-1.01993654,0.36023035\C,0,2.42249764,-1.27751778,0.0
 9684023\S,0,1.02865784,-1.2837739,1.27093846\H,0,0.61402831,1.59930914
 ,-0.05019179\H,0,-0.29878043,2.87795022,-0.89351268\H,0,0.71608463,1.7
 5831833,-1.8158505\H,0,-3.09167672,0.35750957,0.34204842\H,0,-2.567742

 Normal termination of Gaussian 16 at Wed Apr  9 17:45:44 2025.
 Gaussian 16:  ES64L-G16RevC.01  3-Jul-2019

 ----------------------------------------------------------------------
 #t hf aug-cc-pvdz iop(5/13=1,5/36=2,99/5=2) pseudo=read geom=check gue
 ss=(read,tcheck) scf=(maxcycle=1)
 ----------------------------------------------------------------------
 -----
 title
 -----
 Structure from the checkpoint file:  "HB300SPXx10_1186_4.23_1.05_methanethiol_dimethylsulfide_dimer_mol1.chk"
 Charge =  0 Multiplicity = 1

                         Standard orientation:
 ---------------------------------------------------------------------
 Center     Atomic      Atomic             Coordinates (Angstroms)
 Number     Number       Type             X           Y           Z
 ---------------------------------------------------------------------
      1          1           0        2.762036    1.030221   -1.283903
      2          1           0        3.621036    0.949465    0.259310
      3          1           0        1.996289    1.643534    0.200872
      4          1           0        0.839689   -0.644916   -0.510898
      5          6           0        2.645860    0.878219   -0.214843
      6         16           0        2.009894   -0.791855    0.142557
      7          1           0       -0.414744    0.965442    1.266173
      8          1           0       -2.117277    1.478172    1.399668
      9          1           0       -1.024448    2.314979    0.286244
     10          1           0       -2.311324   -2.042537   -0.402126
     11          1           0       -2.891677   -1.107535    0.985845
     12          1           0       -1.175154   -1.568797    0.874888
     13          6           0       -1.275283    1.350995    0.722080
     14         16           0       -1.709085    0.240538   -0.641011
     15          6           0       -2.053472   -1.262039    0.309294
 ---------------------------------------------------------------------

 SCF Done:  E(RHF) =  -914.579187046     A.U. after    2 cycles

 The electronic state is 1-A.
 Alpha  occ. eigenvalues --  -93.53047 -93.52657 -11.26520 -11.26412 -11.26390
 Alpha  occ. eigenvalues --   -8.82792  -8.82419  -6.16938  -6.16726  -6.16581
 Alpha  occ. eigenvalues --   -6.16451  -6.16375  -6.16044  -1.05574  -1.02201
 Alpha  occ. eigenvalues --   -0.95312  -0.85583  -0.80577  -0.61833  -0.61057
 Alpha  occ. eigenvalues --   -0.60057  -0.59119  -0.58413  -0.57177  -0.52230
 Alpha  occ. eigenvalues --   -0.49947  -0.45334  -0.43720  -0.35025  -0.34007
 Alpha virt. eigenvalues --    0.03485   0.04179   0.04848   0.05364   0.06324
 Alpha virt. eigenvalues --    0.06808   0.07008   0.07822   0.08982   0.10004
 Alpha virt. eigenvalues --    0.10380   0.13057   0.13362   0.14207   0.14718

 Mulliken charges:
               1
     1  H   -0.114872
     2  H   -0.101862
     3  H   -0.132930
     4  H    0.135315
     5  C    0.105086
     6  S    0.135638
     7  H   -0.134338
     8  H   -0.117664
     9  H   -0.110238
    10  H   -0.090416
    11  H   -0.083696
    12  H   -0.176788
    13  C    0.239723
    14  S    0.242171
    15  C    0.204872
 Sum of Mulliken charges =  -0.00000

 Dipole moment (field-independent basis, Debye):
    X=             -0.4061    Y=              1.2123    Z=              1.0197  Tot=              1.6353

 Test job not archived.
 1\1\GINC-SE454\SP\RHF\Aug-CC-pVDZ\C3H10S2\OHZDE\09-Apr-2025\0\\#t hf a
 ug-cc-pvdz iop(5/13=1,5/36=2,99/5=2) pseudo=read geom=check guess=(rea
 d,tcheck) scf=(maxcycle=1)\\title\\0,1\H,0,2.306559,-2.0578968,-0.6495
 2301\H,0,3.32031438,-1.47471252,0.67641305\H,0,2.52307119,-0.31083024,
 -0.38882585\H,0,0.07002633,-1.01993654,0.36023035\C,0,2.42249764,-1.27
 751778,0.09684023\S,0,1.02865784,-1.2837739,1.27093846\H,0,0.61402831,
 1.59930914,-0.05019179\H,0,-0.29878043,2.87795022,-0.89351268\H,0,0.71
 608463,1.75831833,-1.8158505\H,0,-3.09167672,0.35750957,0.34204842\H,0

 Normal termination of Gaussian 16 at Wed Apr  9 17:45:49 2025.
