 Gaussian 16, Revision C.01,

 ----------------------------------------------------------------------
 #t hf aug-cc-pvdz symm=none int=(grid=ultrafine) guess=(read,tcheck) s
 table=(opt,rrhf)
 ----------------------------------------------------------------------
 -----
 title
 -----
 Symbolic Z-matrix:
 Charge =  0 Multiplicity = 1

 SCF Done:  E(RHF) =  -747.047120969     A.U. after   14 cycles
 Normal termination of Gaussian 16 at Wed Apr  9 17:58:49 2025.
 Gaussian 16:  ES64L-G16RevC.01  3-Jul-2019

 ----------------------------------------------------------------------
 #t hf aug-cc-pvdz iop(5/13=1,5/36=2,99/5=2) pseudo=read geom=check gue
 ss=(read,tcheck) scf=(maxcycle=1)
 ----------------------------------------------------------------------
 -----
 title
 -----
 Structure from the checkpoint file:  "HB300SPXx10_1455_5.08_1.00_methylcyanate_phosphineF2_dimer_mol1.chk"
 Charge =  0 Multiplicity = 1

                         Standard orientation:
 ---------------------------------------------------------------------
 Center     Atomic      Atomic             Coordinates (Angstroms)
 Number     Number       Type             X           Y           Z
 ---------------------------------------------------------------------
      1          1           0       -2.807958   -1.062975    1.318658
      2          1           0       -3.396856   -1.782346   -0.207841
      3          1           0       -1.637697   -1.673884    0.108227
      4          6           0       -2.606576   -1.209634    0.261012
      5          8           0       -2.630674    0.088004   -0.415158
      6          6           0       -1.738522    0.923819   -0.040754
      7          7           0       -0.939054    1.697399    0.270738
      8         15           0        1.706653    0.345401   -0.161140
      9          9           0        0.734258   -0.939030   -0.087242
     10          9           0        3.089633   -0.424944    0.099469
     11          1           0        1.517054    0.743022    1.192570
 ---------------------------------------------------------------------

 SCF Done:  E(RHF) =  -747.223977812     A.U. after    2 cycles

 The electronic state is 1-A.
 Alpha  occ. eigenvalues --  -81.38710 -26.13678 -26.12899 -20.68110 -15.64377
 Alpha  occ. eigenvalues --  -11.36467 -11.34333  -7.87442  -5.01556  -5.01286
 Alpha  occ. eigenvalues --   -5.00769  -1.67028  -1.65407  -1.45570  -1.20277
 Alpha  occ. eigenvalues --   -1.02032  -0.89516  -0.81524  -0.79034  -0.77435
 Alpha  occ. eigenvalues --   -0.76643  -0.73333  -0.72899  -0.71545  -0.70554
 Alpha  occ. eigenvalues --   -0.61686  -0.60083  -0.58811  -0.56051  -0.47108
 Alpha  occ. eigenvalues --   -0.45604  -0.39607
 Alpha virt. eigenvalues --    0.02648   0.04666   0.05229   0.06117   0.06889
 Alpha virt. eigenvalues --    0.08923   0.09446   0.10444   0.11286   0.11800
 Alpha virt. eigenvalues --    0.13535   0.14517   0.14871   0.15231   0.15909

 Mulliken charges:
               1
     1  H   -0.098994
     2  H   -0.156560
     3  H   -0.069130
     4  C    0.905043
     5  O   -0.385680
     6  C   -0.148278
     7  N   -0.049759
     8  P    1.267445
     9  F   -0.661334
    10  F   -0.643765
    11  H    0.041012
 Sum of Mulliken charges =  -0.00000

 Dipole moment (field-independent basis, Debye):
    X=             -3.0501    Y=             -2.1049    Z=              0.7673  Tot=              3.7845

 Test job not archived.
 1\1\GINC-SE362\SP\RHF\Aug-CC-pVDZ\C2H4F2N1O1P1\OHZDE\09-Apr-2025\0\\#t
  hf aug-cc-pvdz iop(5/13=1,5/36=2,99/5=2) pseudo=read geom=check guess
 =(read,tcheck) scf=(maxcycle=1)\\title\\0,1\H,0,-2.89287834,1.38344137
 ,-2.41875402\H,0,-2.88368966,0.15494314,-3.71690786\H,0,-2.33807438,-0
 .28314113,-2.0686702\C,0,-2.39546429,0.50243917,-2.8151059\O,0,-1.0419
 8507,0.86597867,-3.23651367\C,0,-0.26338211,1.27221362,-2.30729377\N,0
 ,0.4658792,1.6354549,-1.48824768\P,0,0.56410365,-0.57189984,0.54451304
 \F,0,-0.8234986,-0.92414149,-0.19795637\F,0,0.31684351,-1.4397834,1.87

 Normal termination of Gaussian 16 at Wed Apr  9 17:58:53 2025.
