 Gaussian 16, Revision C.01,

 ----------------------------------------------------------------------
 #t hf aug-cc-pvdz symm=none int=(grid=ultrafine) guess=(read,tcheck) s
 table=(opt,rrhf)
 ----------------------------------------------------------------------
 -----
 title
 -----
 Symbolic Z-matrix:
 Charge =  0 Multiplicity = 1

 SCF Done:  E(RHF) =  -532.972254057     A.U. after   12 cycles
 Normal termination of Gaussian 16 at Wed Apr  9 17:25:11 2025.
 Gaussian 16:  ES64L-G16RevC.01  3-Jul-2019

 ----------------------------------------------------------------------
 #t hf aug-cc-pvdz iop(5/13=1,5/36=2,99/5=2) pseudo=read geom=check gue
 ss=(read,tcheck) scf=(maxcycle=1)
 ----------------------------------------------------------------------
 -----
 title
 -----
 Structure from the checkpoint file:  "HB300SPXx10_1047_4.08_1.10_ammonia_dimethylsulfide_dimer_mol1.chk"
 Charge =  0 Multiplicity = 1

                         Standard orientation:
 ---------------------------------------------------------------------
 Center     Atomic      Atomic             Coordinates (Angstroms)
 Number     Number       Type             X           Y           Z
 ---------------------------------------------------------------------
      1          7           0        3.168241   -0.235895    0.135681
      2          1           0        3.819309   -0.305131    0.907399
      3          1           0        2.325608   -0.733514    0.401603
      4          1           0        3.575232   -0.736116   -0.644442
      5          1           0       -0.307766    1.590044    1.072106
      6          1           0       -0.888848    2.042900   -0.549839
      7          1           0        0.809509    1.566553   -0.299210
      8          1           0       -2.561741   -1.510009    0.220779
      9          1           0       -2.923928    0.184421   -0.141863
     10          1           0       -2.216138   -0.262020    1.429262
     11          6           0       -0.218496    1.389779    0.005655
     12         16           0       -0.569964   -0.351085   -0.347597
     13          6           0       -2.229752   -0.484530    0.363677
 ---------------------------------------------------------------------

 SCF Done:  E(RHF) =  -533.042312357     A.U. after    2 cycles

 The electronic state is 1-A.
 Alpha  occ. eigenvalues --  -93.52238 -15.60122 -11.25983 -11.25409  -8.81999
 Alpha  occ. eigenvalues --   -6.16145  -6.15930  -6.15600  -1.10207  -1.04742
 Alpha  occ. eigenvalues --   -0.94601  -0.79802  -0.62285  -0.62084  -0.60333
 Alpha  occ. eigenvalues --   -0.60088  -0.57699  -0.56558  -0.49156  -0.43036
 Alpha  occ. eigenvalues --   -0.41602  -0.33329
 Alpha virt. eigenvalues --    0.03565   0.04479   0.04954   0.05273   0.06577
 Alpha virt. eigenvalues --    0.06822   0.07611   0.08161   0.09281   0.11281
 Alpha virt. eigenvalues --    0.13709   0.15029   0.15543   0.16397   0.16996

 Mulliken charges:
               1
     1  N   -0.129360
     2  H    0.048905
     3  H    0.044385
     4  H    0.037119
     5  H   -0.079874
     6  H   -0.079156
     7  H   -0.135228
     8  H   -0.103524
     9  H   -0.081444
    10  H   -0.078594
    11  C    0.147120
    12  S    0.316879
    13  C    0.092774
 Sum of Mulliken charges =  -0.00000

 Dipole moment (field-independent basis, Debye):
    X=             -0.6475    Y=             -0.1866    Z=              1.1462  Tot=              1.3296

 Test job not archived.
 1\1\GINC-SE220\SP\RHF\Aug-CC-pVDZ\C2H9N1S1\OHZDE\09-Apr-2025\0\\#t hf
 aug-cc-pvdz iop(5/13=1,5/36=2,99/5=2) pseudo=read geom=check guess=(re
 ad,tcheck) scf=(maxcycle=1)\\title\\0,1\N,0,-1.73355141,-2.37393966,0.
 81983189\H,0,-2.47172211,-2.47256241,1.50511242\H,0,-1.77953232,-1.428
 67287,0.45551723\H,0,-1.951459,-2.99867579,0.05388488\H,0,0.96118335,0
 .49852299,1.70353521\H,0,2.32825341,-0.00650549,0.67908179\H,0,0.99062
 753,-1.13284087,1.02005433\H,0,0.26737064,2.62212414,-1.52515379\H,0,1
 .84789215,2.31074256,-0.79114117\H,0,0.44308068,2.68444825,0.23626306\

 Normal termination of Gaussian 16 at Wed Apr  9 17:25:14 2025.
