 Gaussian 16, Revision C.01,

 ----------------------------------------------------------------------
 #t hf aug-cc-pvdz symm=none int=(grid=ultrafine) guess=(read,tcheck) s
 table=(opt,rrhf)
 ----------------------------------------------------------------------
 -----
 title
 -----
 Symbolic Z-matrix:
 Charge =  0 Multiplicity = 1

 SCF Done:  E(RHF) =  -1054.89281451     A.U. after   15 cycles
 Normal termination of Gaussian 16 at Wed Apr  9 18:02:41 2025.
 Gaussian 16:  ES64L-G16RevC.01  3-Jul-2019

 ----------------------------------------------------------------------
 #t hf aug-cc-pvdz iop(5/13=1,5/36=2,99/5=2) pseudo=read geom=check gue
 ss=(read,tcheck) scf=(maxcycle=1)
 ----------------------------------------------------------------------
 -----
 title
 -----
 Structure from the checkpoint file:  "HB300SPXx10_1485_5.11_1.00_thioacetone_phosphineF2_dimer_mol1.chk"
 Charge =  0 Multiplicity = 1

                         Standard orientation:
 ---------------------------------------------------------------------
 Center     Atomic      Atomic             Coordinates (Angstroms)
 Number     Number       Type             X           Y           Z
 ---------------------------------------------------------------------
      1          1           0        0.630055    1.661242   -0.110337
      2          1           0        1.880130    1.917503    1.124567
      3          1           0        2.278225    2.147552   -0.562369
      4          1           0        3.836879   -1.177413    0.208168
      5          1           0        4.153978    0.415932   -0.511691
      6          6           0        1.681177    1.536703    0.119051
      7          6           0        2.118010    0.107775    0.036258
      8         16           0        1.088828   -1.118348   -0.256723
      9          6           0        3.582763   -0.123837    0.247863
     10          1           0        3.887534    0.289242    1.212757
     11         15           0       -1.965500   -0.251366    0.274017
     12          9           0       -3.566981   -0.096620    0.293562
     13          9           0       -1.650589    1.038933   -0.625596
     14          1           0       -1.939117   -1.194673   -0.794504
 ---------------------------------------------------------------------

 SCF Done:  E(RHF) =  -1055.05793233     A.U. after    2 cycles

 The electronic state is 1-A.
 Alpha  occ. eigenvalues --  -93.51975 -81.38249 -26.12941 -26.12131 -11.34450
 Alpha  occ. eigenvalues --  -11.26067 -11.25728  -8.81969  -7.86966  -6.16148
 Alpha  occ. eigenvalues --   -6.15771  -6.15570  -5.01080  -5.00818  -5.00310
 Alpha  occ. eigenvalues --   -1.66352  -1.64608  -1.12197  -0.97428  -0.95301
 Alpha  occ. eigenvalues --   -0.88806  -0.78248  -0.76713  -0.76038  -0.72927
 Alpha  occ. eigenvalues --   -0.72525  -0.69885  -0.62737  -0.62641  -0.62073
 Alpha  occ. eigenvalues --   -0.60446  -0.56941  -0.54136  -0.50578  -0.40713
 Alpha  occ. eigenvalues --   -0.38567  -0.34382
 Alpha virt. eigenvalues --    0.02896   0.03896   0.04691   0.05203   0.06148
 Alpha virt. eigenvalues --    0.06575   0.07319   0.07792   0.08941   0.09482
 Alpha virt. eigenvalues --    0.10155   0.11789   0.12296   0.14109   0.14619

 Mulliken charges:
               1
     1  H   -0.224376
     2  H    0.091438
     3  H    0.080934
     4  H   -0.070444
     5  H    0.051900
     6  C    0.376831
     7  C   -0.819920
     8  S    0.121343
     9  C    0.365005
    10  H    0.048820
    11  P    1.255269
    12  F   -0.652477
    13  F   -0.639169
    14  H    0.014845
 Sum of Mulliken charges =  -0.00000

 Dipole moment (field-independent basis, Debye):
    X=              4.1726    Y=              0.7808    Z=              0.6933  Tot=              4.3013

 Test job not archived.
 1\1\GINC-SE162\SP\RHF\Aug-CC-pVDZ\C3H7F2P1S1\OHZDE\09-Apr-2025\0\\#t h
 f aug-cc-pvdz iop(5/13=1,5/36=2,99/5=2) pseudo=read geom=check guess=(
 read,tcheck) scf=(maxcycle=1)\\title\\0,1\H,0,-0.82524406,-0.11851319,
 -2.18150719\H,0,-1.6981931,1.21808686,-2.95919937\H,0,-0.71897066,0.14
 764096,-3.93512177\H,0,1.41759528,3.22175764,-3.68330427\H,0,0.7352472
 6,2.04678605,-4.82844268\C,0,-0.77357806,0.63435768,-2.9583614\C,0,0.3
 925438,1.55581911,-2.78347778\S,0,1.39271927,1.4865874,-1.50157001\C,0
 ,0.57891903,2.56210758,-3.87735604\H,0,-0.33203334,3.15446018,-3.99493

 Normal termination of Gaussian 16 at Wed Apr  9 18:02:46 2025.
