 Gaussian 16, Revision C.01,

 ----------------------------------------------------------------------
 #t hf aug-cc-pvdz symm=none int=(grid=ultrafine) guess=(read,tcheck) s
 table=(opt,rrhf)
 ----------------------------------------------------------------------
 -----
 title
 -----
 Symbolic Z-matrix:
 Charge =  0 Multiplicity = 1

 SCF Done:  E(RHF) =  -514.629206454     A.U. after   12 cycles
 Normal termination of Gaussian 16 at Wed Apr  9 17:40:08 2025.
 Gaussian 16:  ES64L-G16RevC.01  3-Jul-2019

 ----------------------------------------------------------------------
 #t hf aug-cc-pvdz iop(5/13=1,5/36=2,99/5=2) pseudo=read geom=check gue
 ss=(read,tcheck) scf=(maxcycle=1)
 ----------------------------------------------------------------------
 -----
 title
 -----
 Structure from the checkpoint file:  "HB300SPXx10_1131_4.17_0.80_aceticacid_thioacetone_dimer_mol3.chk"
 Charge =  0 Multiplicity = 1

                         Standard orientation:
 ---------------------------------------------------------------------
 Center     Atomic      Atomic             Coordinates (Angstroms)
 Number     Number       Type             X           Y           Z
 ---------------------------------------------------------------------
      1          1           0       -2.154054    0.310976    0.000000
      2          1           0       -1.363296    1.642065    0.874412
      3          1           0       -1.363296    1.642065   -0.874412
      4          1           0        2.142116    0.557045    0.000000
      5          1           0        1.192493    1.781942   -0.872921
      6          6           0       -1.307484    0.988957    0.000000
      7          6           0        0.000000    0.258518    0.000000
      8         16           0        0.055840   -1.371425    0.000000
      9          6           0        1.217503    1.123651    0.000000
     10          1           0        1.192493    1.781942    0.872921
 ---------------------------------------------------------------------

 SCF Done:  E(RHF) =  -514.685486177     A.U. after    2 cycles

 The electronic state is 1-A'.
 Alpha  occ. eigenvalues --  -93.50716 -11.33283 -11.25418 -11.25253  -8.80638
 Alpha  occ. eigenvalues --   -6.14805  -6.14439  -6.14194  -1.11245  -0.96783
 Alpha  occ. eigenvalues --   -0.94032  -0.72069  -0.62090  -0.61433  -0.61271
 Alpha  occ. eigenvalues --   -0.56317  -0.53676  -0.49378  -0.38074  -0.33120
 Alpha virt. eigenvalues --    0.03045   0.04361   0.04770   0.06136   0.07040
 Alpha virt. eigenvalues --    0.07464   0.07596   0.08807   0.10641   0.13380
 Alpha virt. eigenvalues --    0.14531   0.14616   0.16542   0.16744   0.16852

 Mulliken charges:
               1
     1  H   -0.073742
     2  H    0.044355
     3  H    0.044355
     4  H   -0.072243
     5  H    0.051267
     6  C    0.312805
     7  C   -0.723246
     8  S    0.044539
     9  C    0.320643
    10  H    0.051267
 Sum of Mulliken charges =   0.00000

 Dipole moment (field-independent basis, Debye):
    X=             -0.1303    Y=              3.3122    Z=             -0.0000  Tot=              3.3147

 Test job not archived.
 1\1\GINC-SE135\SP\RHF\Aug-CC-pVDZ\C3H6S1\OHZDE\09-Apr-2025\0\\#t hf au
 g-cc-pvdz iop(5/13=1,5/36=2,99/5=2) pseudo=read geom=check guess=(read
 ,tcheck) scf=(maxcycle=1)\\title\\0,1\H,0,-0.56683422,-3.69438738,0.\H
 ,0,0.9758559,-3.56323056,-0.87441231\H,0,0.9758559,-3.56323056,0.87441
 231\H,0,1.52805716,0.06447593,0.\H,0,2.21624809,-1.32424657,0.87292068
 \C,0,0.41245578,-3.22820092,0.\C,0,0.32528707,-1.7330563,0.\S,0,-1.117
 16528,-0.97202844,0.\C,0,1.6347512,-1.01467575,0.\H,0,2.21624809,-1.32
 424657,-0.87292068\\Version=ES64L-G16RevC.01\State=1-A'\HF=-514.685486

 Normal termination of Gaussian 16 at Wed Apr  9 17:40:11 2025.
