 Gaussian 16, Revision C.01,

 ----------------------------------------------------------------------
 #t hf aug-cc-pvdz symm=none int=(grid=ultrafine) guess=(read,tcheck) s
 table=(opt,rrhf)
 ----------------------------------------------------------------------
 -----
 title
 -----
 Symbolic Z-matrix:
 Charge =  0 Multiplicity = 1

 SCF Done:  E(RHF) =  -952.360888478     A.U. after   15 cycles

 1\1\GINC-SE112\Stability\RHF\Aug-CC-pVDZ\C4H10S2\OHZDE\09-Apr-2025\0\\
 #t hf aug-cc-pvdz symm=none int=(grid=ultrafine) guess=(read,tcheck) s
 table=(opt,rrhf)\\title\\0,1\H,0,1.94048627,-0.28311522,0.30003006\H,0
 ,2.70886397,-1.74966836,-0.33633756\H,0,2.5169729,-1.54996222,1.410513
 58\H,0,-0.19256655,-1.5118813,1.21090974\C,0,2.06439688,-1.35234501,0.
 4434425\S,0,0.46794236,-2.21627191,0.2804649\H,0,-2.76786656,0.6912168
 9,0.37000932\H,0,-2.82583104,1.14769254,-1.34615986\H,0,-2.18395985,-0
 .4189906,-0.89268673\H,0,0.87775479,1.62337041,-1.68527767\H,0,0.10121

 Normal termination of Gaussian 16 at Wed Apr  9 17:21:35 2025.
 Gaussian 16:  ES64L-G16RevC.01  3-Jul-2019

 ----------------------------------------------------------------------
 #t hf aug-cc-pvdz iop(5/13=1,5/36=2,99/5=2) pseudo=read geom=check gue
 ss=(read,tcheck) scf=(maxcycle=1)
 ----------------------------------------------------------------------
 -----
 title
 -----
 Structure from the checkpoint file:  "HB300SPXx10_1026_4.06_1.05_methanethiol_thioacetone_dimer_mol1.chk"
 Charge =  0 Multiplicity = 1

                         Standard orientation:
 ---------------------------------------------------------------------
 Center     Atomic      Atomic             Coordinates (Angstroms)
 Number     Number       Type             X           Y           Z
 ---------------------------------------------------------------------
      1          1           0        1.366389   -1.359750    0.718848
      2          1           0        2.901935   -0.796421    1.405074
      3          1           0        2.901291   -1.691137   -0.120598
      4          1           0        1.442271    0.233338   -1.365809
      5          6           0        2.353778   -0.973933    0.483514
      6         16           0        2.234633    0.636281   -0.361835
      7          1           0       -1.871126    1.300690   -1.639830
      8          1           0       -2.547899    2.013850   -0.159848
      9          1           0       -0.826753    2.138266   -0.466945
     10          1           0       -1.092035   -0.562634    2.142327
     11          1           0       -0.214174    0.924894    1.722665
     12          6           0       -1.692587    1.482855   -0.585645
     13          6           0       -1.460283    0.210438    0.168630
     14         16           0       -1.507865   -1.252205   -0.543218
     15          6           0       -1.161370    0.388028    1.624747
     16          1           0       -1.925416    1.009353    2.097497
 ---------------------------------------------------------------------

 SCF Done:  E(RHF) =  -952.451434091     A.U. after    2 cycles

 The electronic state is 1-A.
 Alpha  occ. eigenvalues --  -93.53473 -93.50824 -11.33454 -11.26641 -11.25104
 Alpha  occ. eigenvalues --  -11.25042  -8.83229  -8.80769  -6.17399  -6.17179
 Alpha  occ. eigenvalues --   -6.16866  -6.14949  -6.14603  -6.14343  -1.11252
 Alpha  occ. eigenvalues --   -1.02690  -0.96599  -0.94210  -0.86099  -0.71947
 Alpha  occ. eigenvalues --   -0.62217  -0.61374  -0.61221  -0.60842  -0.59220
 Alpha  occ. eigenvalues --   -0.56187  -0.53333  -0.52899  -0.49599  -0.45771
 Alpha  occ. eigenvalues --   -0.38357  -0.35757  -0.33338
 Alpha virt. eigenvalues --    0.03232   0.04084   0.04549   0.05283   0.06056
 Alpha virt. eigenvalues --    0.06308   0.06848   0.07298   0.08145   0.08733
 Alpha virt. eigenvalues --    0.09366   0.10252   0.11702   0.12230   0.13127

 Mulliken charges:
               1
     1  H   -0.196718
     2  H   -0.077429
     3  H   -0.124011
     4  H    0.092678
     5  C    0.182358
     6  S    0.119058
     7  H   -0.068413
     8  H    0.049539
     9  H    0.010489
    10  H   -0.109487
    11  H    0.085193
    12  C    0.339793
    13  C   -0.741958
    14  S   -0.016332
    15  C    0.469931
    16  H   -0.014692
 Sum of Mulliken charges =   0.00000

 Dipole moment (field-independent basis, Debye):
    X=             -0.2058    Y=              1.3798    Z=              1.6065  Tot=              2.1277

 Test job not archived.
 1\1\GINC-SE112\SP\RHF\Aug-CC-pVDZ\C4H10S2\OHZDE\09-Apr-2025\0\\#t hf a
 ug-cc-pvdz iop(5/13=1,5/36=2,99/5=2) pseudo=read geom=check guess=(rea
 d,tcheck) scf=(maxcycle=1)\\title\\0,1\H,0,1.94048627,-0.28311522,0.30
 003006\H,0,2.70886397,-1.74966836,-0.33633756\H,0,2.5169729,-1.5499622
 2,1.41051358\H,0,-0.19256655,-1.5118813,1.21090974\C,0,2.06439688,-1.3
 5234501,0.4434425\S,0,0.46794236,-2.21627191,0.2804649\H,0,-2.76786656
 ,0.69121689,0.37000932\H,0,-2.82583104,1.14769254,-1.34615986\H,0,-2.1
 8395985,-0.4189906,-0.89268673\H,0,0.87775479,1.62337041,-1.68527767\H

 Normal termination of Gaussian 16 at Wed Apr  9 17:21:40 2025.
