 Gaussian 16, Revision C.01,

 ----------------------------------------------------------------------
 #t hf aug-cc-pvdz symm=none int=(grid=ultrafine) guess=(read,tcheck) s
 table=(opt,rrhf)
 ----------------------------------------------------------------------
 -----
 title
 -----
 Symbolic Z-matrix:
 Charge =  0 Multiplicity = 1

 SCF Done:  E(RHF) =  -1166.69836995     A.U. after   13 cycles
 Normal termination of Gaussian 16 at Wed Apr  9 17:55:14 2025.
 Gaussian 16:  ES64L-G16RevC.01  3-Jul-2019

 ----------------------------------------------------------------------
 #t hf aug-cc-pvdz iop(5/13=1,5/36=2,99/5=2) pseudo=read geom=check gue
 ss=(read,tcheck) scf=(maxcycle=1)
 ----------------------------------------------------------------------
 -----
 title
 -----
 Structure from the checkpoint file:  "HB300SPXx10_1392_5.02_0.85_dimethylsulfone_phosphineF2_dimer_mol1.chk"
 Charge =  0 Multiplicity = 1

                         Standard orientation:
 ---------------------------------------------------------------------
 Center     Atomic      Atomic             Coordinates (Angstroms)
 Number     Number       Type             X           Y           Z
 ---------------------------------------------------------------------
      1          1           0        2.147494    0.484510    2.079746
      2          1           0        1.382081   -1.124317    2.010462
      3          1           0        0.366817    0.338550    1.888195
      4          1           0        0.402030    1.886816   -0.364431
      5          1           0        1.495711    1.499503   -1.721499
      6          1           0        2.179650    2.101310   -0.189910
      7          8           0        2.870642   -0.633943   -0.399877
      8         16           0        1.535309   -0.180504   -0.112244
      9          8           0        0.410165   -0.914091   -0.653626
     10          6           0        1.333820   -0.097423    1.656961
     11          6           0        1.384008    1.514857   -0.640138
     12         15           0       -1.948164   -0.443943   -0.051016
     13          9           0       -3.509428   -0.071569   -0.048810
     14          9           0       -1.389703    1.019680    0.342147
     15          1           0       -1.777505   -0.292483   -1.454376
 ---------------------------------------------------------------------

 SCF Done:  E(RHF) =  -1166.95697968     A.U. after    2 cycles

 The electronic state is 1-A.
 Alpha  occ. eigenvalues --  -93.79260 -81.38202 -26.14112 -26.12056 -20.57389
 Alpha  occ. eigenvalues --  -20.56501 -11.29388 -11.29015  -9.06134  -7.86927
 Alpha  occ. eigenvalues --   -6.40809  -6.40563  -6.40464  -5.01041  -5.00782
 Alpha  occ. eigenvalues --   -5.00242  -1.67442  -1.64930  -1.44022  -1.32402
 Alpha  occ. eigenvalues --   -1.07594  -1.01491  -0.89624  -0.83171  -0.79145
 Alpha  occ. eigenvalues --   -0.77877  -0.77021  -0.73171  -0.71173  -0.70871
 Alpha  occ. eigenvalues --   -0.70846  -0.68467  -0.63713  -0.62782  -0.62089
 Alpha  occ. eigenvalues --   -0.59278  -0.59156  -0.53597  -0.53139  -0.50605
 Alpha  occ. eigenvalues --   -0.46994  -0.38918
 Alpha virt. eigenvalues --    0.02764   0.04250   0.04732   0.05545   0.06347
 Alpha virt. eigenvalues --    0.06617   0.07280   0.08914   0.09362   0.10580
 Alpha virt. eigenvalues --    0.12455   0.13575   0.13883   0.14307   0.15092

 Mulliken charges:
               1
     1  H   -0.014226
     2  H    0.044942
     3  H   -0.035461
     4  H   -0.027664
     5  H    0.026943
     6  H   -0.013401
     7  O   -1.057514
     8  S    1.978683
     9  O   -1.108587
    10  C    0.114873
    11  C    0.156808
    12  P    1.275078
    13  F   -0.660723
    14  F   -0.709542
    15  H    0.029790
 Sum of Mulliken charges =  -0.00000

 Dipole moment (field-independent basis, Debye):
    X=              1.2159    Y=              2.7959    Z=              1.8186  Tot=              3.5500

 Test job not archived.
 1\1\GINC-SE114\SP\RHF\Aug-CC-pVDZ\C2H7F2O2P1S1\OHZDE\09-Apr-2025\0\\#t
  hf aug-cc-pvdz iop(5/13=1,5/36=2,99/5=2) pseudo=read geom=check guess
 =(read,tcheck) scf=(maxcycle=1)\\title\\0,1\H,0,1.82037896,-1.1252997,
 2.45423408\H,0,2.45327614,-0.04590354,1.18406648\H,0,1.26048817,-1.302
 78481,0.75605091\H,0,-1.35656486,-1.06874241,1.510339\H,0,-1.8999986,0
 .31018714,2.5058364\H,0,-0.84910966,-0.93302114,3.2309401\O,0,0.704774
 22,1.412934,2.93921594\S,0,0.30796869,0.58975017,1.82729483\O,0,-0.016
 49706,1.22000253,0.56448154\C,0,1.58998555,-0.61149627,1.52558836\C,0,

 Normal termination of Gaussian 16 at Wed Apr  9 17:55:20 2025.
