 Gaussian 16, Revision C.01,

 ----------------------------------------------------------------------
 #t hf aug-cc-pvdz symm=none int=(grid=ultrafine) guess=(read,tcheck) s
 table=(opt,rrhf)
 ----------------------------------------------------------------------
 -----
 title
 -----
 Symbolic Z-matrix:
 Charge =  0 Multiplicity = 1

 SCF Done:  E(RHF) =  -1013.77821024     A.U. after   12 cycles
 Normal termination of Gaussian 16 at Wed Apr  9 04:10:49 2025.
 Gaussian 16:  ES64L-G16RevC.01  3-Jul-2019

 ----------------------------------------------------------------------
 #t hf aug-cc-pvdz iop(5/13=1,5/36=2,99/5=2) pseudo=read geom=check gue
 ss=(read,tcheck) scf=(maxcycle=1)
 ----------------------------------------------------------------------
 -----
 title
 -----
 Structure from the checkpoint file:  "HB300SPXx10_1366_4.41_1.05_hydrogenchloride_tetrahydrothiophene_dimer_mol1.chk"
 Charge =  0 Multiplicity = 1

                         Standard orientation:
 ---------------------------------------------------------------------
 Center     Atomic      Atomic             Coordinates (Angstroms)
 Number     Number       Type             X           Y           Z
 ---------------------------------------------------------------------
      1          1           0       -1.593944   -0.448829    0.051283
      2         17           0       -2.677986    0.295103   -0.150525
      3          1           0        1.786369   -0.088344    1.943137
      4          1           0        0.076542    0.353896    2.058972
      5          1           0        1.753365    2.106484    0.906807
      6          1           0        0.150896   -0.162222   -1.823043
      7          1           0        0.200006    1.787979    0.137407
      8          1           0        1.604684   -1.171887   -1.821336
      9          1           0        1.907564    1.490287   -1.620332
     10          1           0        2.857208    0.453483   -0.559538
     11         16           0        0.455269   -1.264156    0.304792
     12          6           0        0.897636    0.169054    1.371619
     13          6           0        1.150922    1.338315    0.422410
     14          6           0        1.841782    0.761936   -0.812487
     15          6           0        1.026120   -0.454490   -1.246727
 ---------------------------------------------------------------------

 SCF Done:  E(RHF) =  -1013.86395199     A.U. after    2 cycles

 The electronic state is 1-A.
 Alpha  occ. eigenvalues -- -103.64658 -93.53783 -11.27586 -11.27573 -11.25219
 Alpha  occ. eigenvalues --  -11.25016 -10.67900  -8.83568  -8.33637  -8.33367
 Alpha  occ. eigenvalues --   -8.33364  -6.17690  -6.17534  -6.17305  -1.13227
 Alpha  occ. eigenvalues --   -1.12482  -0.99417  -0.97317  -0.80708  -0.79456
 Alpha  occ. eigenvalues --   -0.67439  -0.65371  -0.61622  -0.60792  -0.55922
 Alpha  occ. eigenvalues --   -0.52071  -0.50702  -0.49598  -0.49093  -0.46323
 Alpha  occ. eigenvalues --   -0.46226  -0.43647  -0.35273
 Alpha virt. eigenvalues --    0.03114   0.04244   0.04639   0.05148   0.06448
 Alpha virt. eigenvalues --    0.06941   0.07281   0.07809   0.08066   0.10449
 Alpha virt. eigenvalues --    0.12310   0.13771   0.14029   0.14230   0.14678

 Mulliken charges:
               1
     1  H    0.291107
     2  Cl  -0.241109
     3  H   -0.121291
     4  H   -0.130516
     5  H   -0.060092
     6  H   -0.184327
     7  H   -0.176967
     8  H   -0.062638
     9  H   -0.067249
    10  H   -0.145940
    11  S    0.262606
    12  C    0.114428
    13  C    0.185916
    14  C    0.248181
    15  C    0.087890
 Sum of Mulliken charges =  -0.00000

 Dipole moment (field-independent basis, Debye):
    X=              3.2699    Y=              1.0439    Z=             -0.1408  Tot=              3.4354

 Test job not archived.
 1\1\GINC-SE058\SP\RHF\Aug-CC-pVDZ\C4H9Cl1S1\OHZDE\09-Apr-2025\0\\#t hf
  aug-cc-pvdz iop(5/13=1,5/36=2,99/5=2) pseudo=read geom=check guess=(r
 ead,tcheck) scf=(maxcycle=1)\\title\\0,1\H,0,-0.21838216,0.19107529,-1
 .4737198\Cl,0,-0.27626126,1.34164549,-2.13866114\H,0,-1.60302176,-1.22
 75839,1.87377996\H,0,-2.03095958,-0.14122796,0.54366618\H,0,-0.8592578
 ,0.92590772,2.71141174\H,0,1.8507151,0.04901912,0.05545028\H,0,-0.3023
 7893,1.42393063,1.11510104\H,0,2.19356357,-1.45746718,0.91909465\H,0,1
 .71793984,0.75573956,2.36644074\H,0,0.948581,-0.7509093,2.85650934\S,0

 Normal termination of Gaussian 16 at Wed Apr  9 04:10:55 2025.
