 Gaussian 16, Revision C.01,

 ----------------------------------------------------------------------
 #t hf aug-cc-pvdz symm=none int=(grid=ultrafine) guess=(read,tcheck) s
 table=(opt,rrhf)
 ----------------------------------------------------------------------
 -----
 title
 -----
 Symbolic Z-matrix:
 Charge =  0 Multiplicity = 1

 SCF Done:  E(RHF) =  -1017.02684644     A.U. after   12 cycles
 Normal termination of Gaussian 16 at Wed Apr  9 04:10:40 2025.
 Gaussian 16:  ES64L-G16RevC.01  3-Jul-2019

 ----------------------------------------------------------------------
 #t hf aug-cc-pvdz iop(5/13=1,5/36=2,99/5=2) pseudo=read geom=check gue
 ss=(read,tcheck) scf=(maxcycle=1)
 ----------------------------------------------------------------------
 -----
 title
 -----
 Structure from the checkpoint file:  "HB300SPXx10_1385_5.01_1.00_dimethylsulfide_phosphineF2_dimer_mol1.chk"
 Charge =  0 Multiplicity = 1

                         Standard orientation:
 ---------------------------------------------------------------------
 Center     Atomic      Atomic             Coordinates (Angstroms)
 Number     Number       Type             X           Y           Z
 ---------------------------------------------------------------------
      1          1           0       -0.673275    0.843642    1.428991
      2          1           0       -2.395232    1.304324    1.432253
      3          1           0       -1.215795    2.255200    0.512029
      4          1           0       -2.286232   -2.047271   -0.699874
      5          1           0       -3.000256   -1.283214    0.727786
      6          1           0       -1.263191   -1.677957    0.700047
      7          6           0       -1.486669    1.253359    0.835020
      8         16           0       -1.753308    0.264590   -0.658442
      9          6           0       -2.108791   -1.338631    0.105595
     10         15           0        2.109139   -0.325654   -0.341808
     11          9           0        1.297668   -0.961364    0.884137
     12          9           0        1.785566    1.216047   -0.082068
     13          1           0        1.073475   -0.523871   -1.301353
 ---------------------------------------------------------------------

 SCF Done:  E(RHF) =  -1017.18615520     A.U. after    2 cycles

 The electronic state is 1-A.
 Alpha  occ. eigenvalues --  -93.52318 -81.39517 -26.14378 -26.14217 -11.25898
 Alpha  occ. eigenvalues --  -11.25623  -8.82085  -7.88315  -6.16229  -6.16020
 Alpha  occ. eigenvalues --   -6.15710  -5.02470  -5.02162  -5.01686  -1.68025
 Alpha  occ. eigenvalues --   -1.66621  -1.04847  -0.94707  -0.90436  -0.80170
 Alpha  occ. eigenvalues --   -0.79951  -0.78308  -0.77594  -0.74406  -0.71724
 Alpha  occ. eigenvalues --   -0.61960  -0.60343  -0.60157  -0.57786  -0.56614
 Alpha  occ. eigenvalues --   -0.49307  -0.43203  -0.40797  -0.33321
 Alpha virt. eigenvalues --    0.03796   0.04663   0.05034   0.05970   0.06637
 Alpha virt. eigenvalues --    0.06756   0.07607   0.08319   0.09387   0.09756
 Alpha virt. eigenvalues --    0.11977   0.13947   0.14825   0.15693   0.16107

 Mulliken charges:
               1
     1  H   -0.106998
     2  H   -0.098585
     3  H   -0.114175
     4  H   -0.115866
     5  H   -0.088278
     6  H   -0.108209
     7  C    0.199806
     8  S    0.282497
     9  C    0.148614
    10  P    1.188659
    11  F   -0.646702
    12  F   -0.602451
    13  H    0.061687
 Sum of Mulliken charges =  -0.00000

 Dipole moment (field-independent basis, Debye):
    X=              0.2192    Y=             -1.2244    Z=             -0.0408  Tot=              1.2445

 Test job not archived.
 1\1\GINC-SE252\SP\RHF\Aug-CC-pVDZ\C2H7F2P1S1\OHZDE\09-Apr-2025\0\\#t h
 f aug-cc-pvdz iop(5/13=1,5/36=2,99/5=2) pseudo=read geom=check guess=(
 read,tcheck) scf=(maxcycle=1)\\title\\0,1\H,0,0.35324965,2.18742239,-0
 .72380577\H,0,0.23256961,2.54349189,-2.46622469\H,0,1.47961489,1.43776
 879,-1.86264863\H,0,-2.97879656,0.33269977,-1.6977403\H,0,-2.43534977,
 1.89515642,-2.32640837\H,0,-2.24831697,1.5140911,-0.59615001\C,0,0.456
 3691,1.7777672,-1.72571744\S,0,-0.61885679,0.337269,-1.94490696\C,0,-2
 .22218849,1.10820804,-1.60517522\P,0,0.08256794,-0.13074574,1.88342285

 Normal termination of Gaussian 16 at Wed Apr  9 04:10:44 2025.
