 Gaussian 16, Revision C.01,

 ----------------------------------------------------------------------
 #t hf aug-cc-pvdz symm=none int=(grid=ultrafine) guess=(read,tcheck) s
 table=(opt,rrhf)
 ----------------------------------------------------------------------
 -----
 title
 -----
 Symbolic Z-matrix:
 Charge =  0 Multiplicity = 1

 SCF Done:  E(RHF) =  -1054.89114673     A.U. after   15 cycles
 Normal termination of Gaussian 16 at Wed Apr  9 18:02:41 2025.
 Gaussian 16:  ES64L-G16RevC.01  3-Jul-2019

 ----------------------------------------------------------------------
 #t hf aug-cc-pvdz iop(5/13=1,5/36=2,99/5=2) pseudo=read geom=check gue
 ss=(read,tcheck) scf=(maxcycle=1)
 ----------------------------------------------------------------------
 -----
 title
 -----
 Structure from the checkpoint file:  "HB300SPXx10_1484_5.11_0.95_thioacetone_phosphineF2_dimer_mol1.chk"
 Charge =  0 Multiplicity = 1

                         Standard orientation:
 ---------------------------------------------------------------------
 Center     Atomic      Atomic             Coordinates (Angstroms)
 Number     Number       Type             X           Y           Z
 ---------------------------------------------------------------------
      1          1           0        0.568119    1.650221   -0.122727
      2          1           0        1.810104    1.916844    1.118132
      3          1           0        2.215602    2.145744   -0.567197
      4          1           0        3.790688   -1.167867    0.218685
      5          1           0        4.101714    0.425867   -0.502964
      6          6           0        1.618774    1.532673    0.112419
      7          6           0        2.064845    0.106299    0.035009
      8         16           0        1.044797   -1.126786   -0.260684
      9          6           0        3.529871   -0.115800    0.254765
     10          1           0        3.827028    0.301218    1.220340
     11         15           0       -1.903860   -0.245697    0.278501
     12          9           0       -3.506345   -0.100813    0.289343
     13          9           0       -1.592209    1.044599   -0.622252
     14          1           0       -1.866059   -1.191104   -0.787819
 ---------------------------------------------------------------------

 SCF Done:  E(RHF) =  -1055.05626850     A.U. after    2 cycles

 The electronic state is 1-A.
 Alpha  occ. eigenvalues --  -93.52054 -81.38102 -26.12908 -26.11936 -11.34536
 Alpha  occ. eigenvalues --  -11.26118 -11.25695  -8.82067  -7.86816  -6.16245
 Alpha  occ. eigenvalues --   -6.15867  -6.15673  -5.00932  -5.00671  -5.00158
 Alpha  occ. eigenvalues --   -1.66314  -1.64479  -1.12270  -0.97467  -0.95417
 Alpha  occ. eigenvalues --   -0.88725  -0.78182  -0.76676  -0.76048  -0.72967
 Alpha  occ. eigenvalues --   -0.72422  -0.69821  -0.62839  -0.62748  -0.62086
 Alpha  occ. eigenvalues --   -0.60303  -0.56963  -0.54141  -0.50591  -0.40912
 Alpha  occ. eigenvalues --   -0.38456  -0.34432
 Alpha virt. eigenvalues --    0.02887   0.03853   0.04686   0.05211   0.06091
 Alpha virt. eigenvalues --    0.06581   0.07313   0.07832   0.08991   0.09477
 Alpha virt. eigenvalues --    0.10218   0.11825   0.12309   0.14114   0.14616

 Mulliken charges:
               1
     1  H   -0.244802
     2  H    0.096211
     3  H    0.084678
     4  H   -0.070626
     5  H    0.051802
     6  C    0.395289
     7  C   -0.826822
     8  S    0.117833
     9  C    0.371192
    10  H    0.049053
    11  P    1.244658
    12  F   -0.653351
    13  F   -0.640470
    14  H    0.025355
 Sum of Mulliken charges =  -0.00000

 Dipole moment (field-independent basis, Debye):
    X=              4.2400    Y=              0.7923    Z=              0.6827  Tot=              4.3671

 Test job not archived.
 1\1\GINC-SE112\SP\RHF\Aug-CC-pVDZ\C3H7F2P1S1\OHZDE\09-Apr-2025\0\\#t h
 f aug-cc-pvdz iop(5/13=1,5/36=2,99/5=2) pseudo=read geom=check guess=(
 read,tcheck) scf=(maxcycle=1)\\title\\0,1\H,0,-0.82524406,-0.11851319,
 -2.18150719\H,0,-1.6981931,1.21808686,-2.95919937\H,0,-0.71897066,0.14
 764096,-3.93512177\H,0,1.41759528,3.22175764,-3.68330427\H,0,0.7352472
 6,2.04678605,-4.82844268\C,0,-0.77357806,0.63435768,-2.9583614\C,0,0.3
 925438,1.55581911,-2.78347778\S,0,1.39271927,1.4865874,-1.50157001\C,0
 ,0.57891903,2.56210758,-3.87735604\H,0,-0.33203334,3.15446018,-3.99493

 Normal termination of Gaussian 16 at Wed Apr  9 18:02:46 2025.
