 Gaussian 16, Revision C.01,

 ----------------------------------------------------------------------
 #t hf aug-cc-pvdz symm=none int=(grid=ultrafine) guess=(read,tcheck) s
 table=(opt,rrhf)
 ----------------------------------------------------------------------
 -----
 title
 -----
 Symbolic Z-matrix:
 Charge =  0 Multiplicity = 1

 SCF Done:  E(RHF) =  -797.391080006     A.U. after   11 cycles
 Normal termination of Gaussian 16 at Wed Apr  9 17:49:07 2025.
 Gaussian 16:  ES64L-G16RevC.01  3-Jul-2019

 ----------------------------------------------------------------------
 #t hf aug-cc-pvdz iop(5/13=1,5/36=2,99/5=2) pseudo=read geom=check gue
 ss=(read,tcheck) scf=(maxcycle=1)
 ----------------------------------------------------------------------
 -----
 title
 -----
 Structure from the checkpoint file:  "HB300SPXx10_1222_4.27_0.85_sulfane_sulfane_dimer_mol1.chk"
 Charge =  0 Multiplicity = 1

                         Standard orientation:
 ---------------------------------------------------------------------
 Center     Atomic      Atomic             Coordinates (Angstroms)
 Number     Number       Type             X           Y           Z
 ---------------------------------------------------------------------
      1          1           0       -0.531096   -0.080252   -0.107241
      2          1           0       -1.923183    1.263118    0.082220
      3         16           0       -1.872663   -0.074179   -0.003444
      4          1           0        1.745742    0.374572    1.219308
      5          1           0        1.949729    1.133738   -0.554157
      6         16           0        1.795088   -0.094020   -0.036564
 ---------------------------------------------------------------------

 SCF Done:  E(RHF) =  -797.433863716     A.U. after    2 cycles

 The electronic state is 1-A.
 Alpha  occ. eigenvalues --  -93.56342 -93.53031  -8.86139  -8.82869  -6.20308
 Alpha  occ. eigenvalues --   -6.20117  -6.19811  -6.17054  -6.16847  -6.16479
 Alpha  occ. eigenvalues --   -0.98714  -0.95323  -0.60396  -0.58172  -0.51186
 Alpha  occ. eigenvalues --   -0.48852  -0.39044  -0.36873
 Alpha virt. eigenvalues --    0.02899   0.05591   0.05996   0.06985   0.10869
 Alpha virt. eigenvalues --    0.11752   0.11990   0.14024   0.14612   0.15436
 Alpha virt. eigenvalues --    0.17689   0.19793   0.20570   0.23101   0.24453

 Mulliken charges:
               1
     1  H    0.043204
     2  H    0.007066
     3  S    0.006530
     4  H    0.049219
     5  H    0.043464
     6  S   -0.149484
 Sum of Mulliken charges =  -0.00000

 Dipole moment (field-independent basis, Debye):
    X=              1.5379    Y=              1.6845    Z=              0.3963  Tot=              2.3151

 Test job not archived.
 1\1\GINC-SE232\SP\RHF\Aug-CC-pVDZ\H4S2\OHZDE\09-Apr-2025\0\\#t hf aug-
 cc-pvdz iop(5/13=1,5/36=2,99/5=2) pseudo=read geom=check guess=(read,t
 check) scf=(maxcycle=1)\\title\\0,1\H,0,0.53139832,0.64498716,-0.29055
 053\H,0,2.23879772,0.67266195,0.63813986\S,0,1.60273769,1.45777787,-0.
 24349168\H,0,-1.56352201,-0.2596858,1.10353221\H,0,-0.79555129,-1.7752
 4489,0.1673575\S,0,-1.41001587,-0.63329646,-0.17556034\\Version=ES64L-
 G16RevC.01\State=1-A\HF=-797.4338637\RMSD=9.672e-03\Dipole=-0.2398797,
 -0.6891836,0.5450674\Quadrupole=-1.1433377,0.305239,0.8380987,-1.91291

 Normal termination of Gaussian 16 at Wed Apr  9 17:49:09 2025.
