 Gaussian 16, Revision C.01,

 ----------------------------------------------------------------------
 #t hf aug-cc-pvdz symm=none int=(grid=ultrafine) guess=(read,tcheck) s
 table=(opt,rrhf)
 ----------------------------------------------------------------------
 -----
 title
 -----
 Symbolic Z-matrix:
 Charge =  0 Multiplicity = 1

 SCF Done:  E(RHF) =  -875.460381460     A.U. after   12 cycles
 Normal termination of Gaussian 16 at Wed Apr  9 17:47:14 2025.
 Gaussian 16:  ES64L-G16RevC.01  3-Jul-2019

 ----------------------------------------------------------------------
 #t hf aug-cc-pvdz iop(5/13=1,5/36=2,99/5=2) pseudo=read geom=check gue
 ss=(read,tcheck) scf=(maxcycle=1)
 ----------------------------------------------------------------------
 -----
 title
 -----
 Structure from the checkpoint file:  "HB300SPXx10_1196_4.24_1.05_methanethiol_methanethiol_dimer_mol1.chk"
 Charge =  0 Multiplicity = 1

                         Standard orientation:
 ---------------------------------------------------------------------
 Center     Atomic      Atomic             Coordinates (Angstroms)
 Number     Number       Type             X           Y           Z
 ---------------------------------------------------------------------
      1          1           0       -1.043253    0.914831    1.338097
      2          1           0       -2.805129    0.974457    1.228784
      3          1           0       -1.830267    1.841931    0.036890
      4          1           0       -0.782448   -0.366456   -1.000430
      5          6           0       -1.885029    0.947863    0.651122
      6         16           0       -1.960239   -0.552731   -0.378411
      7          1           0        2.333378   -0.471672    1.740979
      8          1           0        2.263683   -1.724898    0.497388
      9          1           0        0.758949   -1.003913    1.077099
     10          1           0        1.436477    1.450607    0.136889
     11          6           0        1.803982   -0.807140    0.854430
     12         16           0        1.969920    0.399029   -0.502152
 ---------------------------------------------------------------------

 SCF Done:  E(RHF) =  -875.530505332     A.U. after    2 cycles

 The electronic state is 1-A.
 Alpha  occ. eigenvalues --  -93.54134 -93.53040 -11.27207 -11.26936  -8.83878
 Alpha  occ. eigenvalues --   -8.82800  -6.18039  -6.17817  -6.17511  -6.16957
 Alpha  occ. eigenvalues --   -6.16753  -6.16416  -1.03388  -1.02540  -0.86699
 Alpha  occ. eigenvalues --   -0.85977  -0.61863  -0.61056  -0.60150  -0.58996
 Alpha  occ. eigenvalues --   -0.53529  -0.52676  -0.46300  -0.45573  -0.36231
 Alpha  occ. eigenvalues --   -0.35340
 Alpha virt. eigenvalues --    0.03240   0.04392   0.05081   0.05258   0.07097
 Alpha virt. eigenvalues --    0.07315   0.07551   0.09188   0.10521   0.12440
 Alpha virt. eigenvalues --    0.12783   0.13046   0.14726   0.14848   0.15145

 Mulliken charges:
               1
     1  H   -0.125169
     2  H   -0.113419
     3  H   -0.109160
     4  H    0.111628
     5  C    0.104229
     6  S    0.144894
     7  H   -0.108935
     8  H   -0.083962
     9  H   -0.149085
    10  H    0.066117
    11  C    0.134878
    12  S    0.127985
 Sum of Mulliken charges =  -0.00000

 Dipole moment (field-independent basis, Debye):
    X=              0.4781    Y=              0.8582    Z=              1.9629  Tot=              2.1950

 Test job not archived.
 1\1\GINC-SE041\SP\RHF\Aug-CC-pVDZ\C2H8S2\OHZDE\09-Apr-2025\0\\#t hf au
 g-cc-pvdz iop(5/13=1,5/36=2,99/5=2) pseudo=read geom=check guess=(read
 ,tcheck) scf=(maxcycle=1)\\title\\0,1\H,0,1.48841111,-0.83932977,-0.94
 699875\H,0,2.60301323,-1.84400864,-0.01533608\H,0,2.55978836,-0.100175
 65,0.26866848\H,0,0.07877426,-0.11956038,1.21477831\C,0,1.95766928,-0.
 9705586,0.02469451\S,0,0.71991769,-1.29709475,1.32035013\H,0,-1.623917
 28,0.2674242,-2.5516324\H,0,-2.69381653,0.19976185,-1.14710868\H,0,-1.
 14615781,-0.64977676,-1.0910397\H,0,0.26243188,1.66123225,-1.29796606\

 Normal termination of Gaussian 16 at Wed Apr  9 17:47:17 2025.
