 Gaussian 16, Revision C.01,

 ----------------------------------------------------------------------
 #t hf aug-cc-pvdz symm=none int=(grid=ultrafine) guess=(read,tcheck) s
 table=(opt,rrhf)
 ----------------------------------------------------------------------
 -----
 title
 -----
 Symbolic Z-matrix:
 Charge =  0 Multiplicity = 1

 SCF Done:  E(RHF) =  -783.968480716     A.U. after   15 cycles
 Normal termination of Gaussian 16 at Wed Apr  9 17:59:50 2025.
 Gaussian 16:  ES64L-G16RevC.01  3-Jul-2019

 ----------------------------------------------------------------------
 #t hf aug-cc-pvdz iop(5/13=1,5/36=2,99/5=2) pseudo=read geom=check gue
 ss=(read,tcheck) scf=(maxcycle=1)
 ----------------------------------------------------------------------
 -----
 title
 -----
 Structure from the checkpoint file:  "HB300SPXx10_1463_5.09_0.90_nitromethane_phosphineF2_dimer_mol1.chk"
 Charge =  0 Multiplicity = 1

                         Standard orientation:
 ---------------------------------------------------------------------
 Center     Atomic      Atomic             Coordinates (Angstroms)
 Number     Number       Type             X           Y           Z
 ---------------------------------------------------------------------
      1          1           0       -1.471155    1.743107    0.075502
      2          1           0       -2.690924    1.192895   -1.098240
      3          1           0       -3.054742    1.160130    0.670681
      4          6           0       -2.298588    1.060093   -0.097144
      5          7           0       -1.720431   -0.314177   -0.009392
      6          8           0       -1.842488   -0.916019    1.038542
      7          8           0       -1.125871   -0.727086   -0.994286
      8         15           0        1.532094   -0.195219   -0.393911
      9          9           0        2.901480   -0.052593    0.420576
     10          9           0        0.749316    1.051588    0.255766
     11          1           0        0.959664   -1.175284    0.468204
 ---------------------------------------------------------------------

 SCF Done:  E(RHF) =  -784.154305577     A.U. after    2 cycles

 The electronic state is 1-A.
 Alpha  occ. eigenvalues --  -81.38929 -26.14242 -26.13242 -20.64245 -20.63275
 Alpha  occ. eigenvalues --  -15.93259 -11.32486  -7.87688  -5.01828  -5.01538
 Alpha  occ. eigenvalues --   -5.01018  -1.67664  -1.65936  -1.57251  -1.38832
 Alpha  occ. eigenvalues --   -1.10217  -0.90036  -0.87831  -0.79748  -0.79083
 Alpha  occ. eigenvalues --   -0.77684  -0.77225  -0.76416  -0.75132  -0.73711
 Alpha  occ. eigenvalues --   -0.71040  -0.63946  -0.61673  -0.60680  -0.53203
 Alpha  occ. eigenvalues --   -0.52556  -0.49677  -0.39941
 Alpha virt. eigenvalues --    0.02808   0.04854   0.05167   0.05390   0.07096
 Alpha virt. eigenvalues --    0.08092   0.09702   0.09970   0.10787   0.13319
 Alpha virt. eigenvalues --    0.14515   0.15379   0.15786   0.16032   0.17570

 Mulliken charges:
               1
     1  H   -0.013858
     2  H   -0.074109
     3  H   -0.104937
     4  C    0.878092
     5  N    0.532658
     6  O   -0.579622
     7  O   -0.615850
     8  P    1.244397
     9  F   -0.637212
    10  F   -0.658910
    11  H    0.029353
 Sum of Mulliken charges =   0.00000

 Dipole moment (field-independent basis, Debye):
    X=             -2.9865    Y=              2.0737    Z=             -0.9147  Tot=              3.7491

 Test job not archived.
 1\1\GINC-SE232\SP\RHF\Aug-CC-pVDZ\C1H4F2N1O2P1\OHZDE\09-Apr-2025\0\\#t
  hf aug-cc-pvdz iop(5/13=1,5/36=2,99/5=2) pseudo=read geom=check guess
 =(read,tcheck) scf=(maxcycle=1)\\title\\0,1\H,0,0.49481138,0.55069733,
 -2.50359179\H,0,-1.08891031,0.71291216,-3.29967626\H,0,-0.00441746,2.1
 4812453,-3.13671373\C,0,-0.34098337,1.21704881,-2.69950341\N,0,-0.9468
 7558,1.51662809,-1.36768821\O,0,-0.63929751,2.55888018,-0.82511637\O,0
 ,-1.68734525,0.66720154,-0.89420145\P,0,-0.01834723,-0.73511777,0.8251
 1735\F,0,1.11012556,-1.05776424,1.91203816\F,0,0.94966634,-0.35640333,

 Normal termination of Gaussian 16 at Wed Apr  9 17:59:54 2025.
