 Gaussian 16, Revision C.01,

 ----------------------------------------------------------------------
 #t hf aug-cc-pvdz symm=none int=(grid=ultrafine) guess=(read,tcheck) s
 table=(opt,rrhf)
 ----------------------------------------------------------------------
 -----
 title
 -----
 Symbolic Z-matrix:
 Charge =  0 Multiplicity = 1

 SCF Done:  E(RHF) =  -704.600377528     A.U. after   13 cycles
 Normal termination of Gaussian 16 at Wed Apr  9 17:38:50 2025.
 Gaussian 16:  ES64L-G16RevC.01  3-Jul-2019

 ----------------------------------------------------------------------
 #t hf aug-cc-pvdz iop(5/13=1,5/36=2,99/5=2) pseudo=read geom=check gue
 ss=(read,tcheck) scf=(maxcycle=1)
 ----------------------------------------------------------------------
 -----
 title
 -----
 Structure from the checkpoint file:  "HB300SPXx10_1121_4.16_0.80_aceticacid_dimethylsulfide_dimer_mol1.chk"
 Charge =  0 Multiplicity = 1

                         Standard orientation:
 ---------------------------------------------------------------------
 Center     Atomic      Atomic             Coordinates (Angstroms)
 Number     Number       Type             X           Y           Z
 ---------------------------------------------------------------------
      1          6           0        0.280790    1.615629   -0.000000
      2          8           0       -0.876859    1.265222   -0.000000
      3          8           0        1.309806    0.760767   -0.000000
      4          1           0        0.966336   -0.167265    0.000000
      5          6           0        0.738892    3.048103   -0.000000
      6          1           0       -0.120131    3.709721   -0.000000
      7          1           0        1.356879    3.236979    0.876781
      8          1           0        1.356879    3.236979   -0.876781
      9          1           0       -1.707557   -2.145347    1.379195
     10          1           0       -1.241447   -0.421121    1.315483
     11          1           0       -0.306825   -1.571509    2.299403
     12          1           0       -0.306825   -1.571509   -2.299403
     13          1           0       -1.241447   -0.421121   -1.315483
     14          1           0       -1.707557   -2.145347   -1.379195
     15          6           0       -0.876859   -1.443074    1.382643
     16         16           0        0.243271   -1.788368    0.000000
     17          6           0       -0.876859   -1.443074   -1.382643
 ---------------------------------------------------------------------

 SCF Done:  E(RHF) =  -704.724890460     A.U. after    2 cycles

 The electronic state is 1-A'.
 Alpha  occ. eigenvalues --  -93.53658 -20.58422 -20.55064 -11.38922 -11.25984
 Alpha  occ. eigenvalues --  -11.25969 -11.24389  -8.83661  -6.17802  -6.17615
 Alpha  occ. eigenvalues --   -6.17437  -1.40652  -1.30999  -1.06482  -1.01023
 Alpha  occ. eigenvalues --   -0.95205  -0.83911  -0.79966  -0.71037  -0.68370
 Alpha  occ. eigenvalues --   -0.64890  -0.61682  -0.60783  -0.58373  -0.57402
 Alpha  occ. eigenvalues --   -0.57349  -0.56407  -0.54957  -0.50152  -0.48360
 Alpha  occ. eigenvalues --   -0.46162  -0.44100  -0.35799
 Alpha virt. eigenvalues --    0.03501   0.04420   0.04537   0.05427   0.06219
 Alpha virt. eigenvalues --    0.06362   0.07266   0.07421   0.08102   0.09005
 Alpha virt. eigenvalues --    0.11189   0.11508   0.13278   0.14236   0.14794

 Mulliken charges:
               1
     1  C    0.198662
     2  O   -0.539580
     3  O   -0.521289
     4  H    0.460296
     5  C    0.505143
     6  H   -0.036637
     7  H    0.039879
     8  H    0.039879
     9  H   -0.102411
    10  H   -0.136305
    11  H   -0.092883
    12  H   -0.092883
    13  H   -0.136305
    14  H   -0.102411
    15  C    0.320076
    16  S   -0.123307
    17  C    0.320076
 Sum of Mulliken charges =  -0.00000

 Dipole moment (field-independent basis, Debye):
    X=             -0.2604    Y=              0.2295    Z=             -0.0000  Tot=              0.3471

 Test job not archived.
 1\1\GINC-SE162\SP\RHF\Aug-CC-pVDZ\C4H10O2S1\OHZDE\09-Apr-2025\0\\#t hf
  aug-cc-pvdz iop(5/13=1,5/36=2,99/5=2) pseudo=read geom=check guess=(r
 ead,tcheck) scf=(maxcycle=1)\\title\\0,1\C,0,0.08152563,1.86646531,0.\
 O,0,1.12794826,1.25988757,0.\O,0,-1.11612638,1.27040068,0.\H,0,-0.9946
 6015,0.28833063,0.\C,0,-0.03582077,3.36582142,0.\H,0,0.95204799,3.8127
 8193,0.\H,0,-0.5940149,3.69140047,-0.87678098\H,0,-0.5940149,3.6914004
 7,0.87678098\H,0,1.15427315,-2.25029033,-1.37919498\H,0,1.09604659,-0.
 46512234,-1.31548339\H,0,-0.07750735,-1.37048569,-2.29940307\H,0,-0.07

 Normal termination of Gaussian 16 at Wed Apr  9 17:38:55 2025.
