 Gaussian 16, Revision C.01,

 ----------------------------------------------------------------------
 #t hf aug-cc-pvdz symm=none int=(grid=ultrafine) guess=(read,tcheck) s
 table=(opt,rrhf)
 ----------------------------------------------------------------------
 -----
 title
 -----
 Symbolic Z-matrix:
 Charge =  0 Multiplicity = 1

 SCF Done:  E(RHF) =  -969.532005094     A.U. after   13 cycles
 Normal termination of Gaussian 16 at Wed Apr  9 17:28:39 2025.
 Gaussian 16:  ES64L-G16RevC.01  3-Jul-2019

 ----------------------------------------------------------------------
 #t hf aug-cc-pvdz iop(5/13=1,5/36=2,99/5=2) pseudo=read geom=check gue
 ss=(read,tcheck) scf=(maxcycle=1)
 ----------------------------------------------------------------------
 -----
 title
 -----
 Structure from the checkpoint file:  "HB300SPXx10_1064_4.10_0.95_methylamine_dimethyldisulfide_dimer_mol1.chk"
 Charge =  0 Multiplicity = 1

                         Standard orientation:
 ---------------------------------------------------------------------
 Center     Atomic      Atomic             Coordinates (Angstroms)
 Number     Number       Type             X           Y           Z
 ---------------------------------------------------------------------
      1          7           0        2.139468    0.931586   -0.007338
      2          1           0        2.315748    1.880991   -0.307924
      3          1           0        1.434324    0.550553   -0.626921
      4          6           0        3.364480    0.134368   -0.066627
      5          1           0        3.149443   -0.878720    0.271621
      6          1           0        3.821964    0.065134   -1.059986
      7          1           0        4.103177    0.552933    0.615883
      8          1           0       -1.826147    2.559741    0.643226
      9          1           0       -0.821888    2.192993   -0.774284
     10          1           0       -0.261638    1.741844    0.857634
     11          1           0       -0.497574   -2.021673    1.565740
     12          1           0        0.770294   -0.782419    1.314242
     13          1           0        0.912897   -2.378645    0.546509
     14          6           0       -1.126466    1.846356    0.209514
     15         16           0       -2.036579    0.274240    0.077081
     16         16           0       -0.639091   -1.041368   -0.642037
     17          6           0        0.217627   -1.602355    0.864602
 ---------------------------------------------------------------------

 SCF Done:  E(RHF) =  -969.634131439     A.U. after    2 cycles

 The electronic state is 1-A.
 Alpha  occ. eigenvalues --  -93.55251 -93.55070 -15.60462 -11.26360 -11.26245
 Alpha  occ. eigenvalues --  -11.25612  -8.84869  -8.84697  -6.19030  -6.18821
 Alpha  occ. eigenvalues --   -6.18729  -6.18563  -6.18482  -6.18237  -1.14160
 Alpha  occ. eigenvalues --   -1.06884  -0.99810  -0.89720  -0.89451  -0.77395
 Alpha  occ. eigenvalues --   -0.67016  -0.60989  -0.60785  -0.59699  -0.59433
 Alpha  occ. eigenvalues --   -0.57887  -0.55825  -0.52983  -0.51978  -0.48522
 Alpha  occ. eigenvalues --   -0.43425  -0.38856  -0.35586  -0.34601
 Alpha virt. eigenvalues --    0.03289   0.04062   0.04502   0.04985   0.06101
 Alpha virt. eigenvalues --    0.06720   0.07284   0.07917   0.08495   0.09488
 Alpha virt. eigenvalues --    0.09914   0.10404   0.11665   0.13215   0.14329

 Mulliken charges:
               1
     1  N   -0.385238
     2  H   -0.041570
     3  H    0.102073
     4  C    0.837764
     5  H   -0.243678
     6  H   -0.130755
     7  H   -0.174494
     8  H   -0.129630
     9  H   -0.085377
    10  H   -0.063956
    11  H   -0.134735
    12  H   -0.140472
    13  H   -0.059358
    14  C    0.245969
    15  S    0.096235
    16  S   -0.008627
    17  C    0.315850
 Sum of Mulliken charges =   0.00000

 Dipole moment (field-independent basis, Debye):
    X=              2.0189    Y=              1.0039    Z=              0.3337  Tot=              2.2793

 Test job not archived.
 1\1\GINC-SE232\SP\RHF\Aug-CC-pVDZ\C3H11N1S2\OHZDE\09-Apr-2025\0\\#t hf
  aug-cc-pvdz iop(5/13=1,5/36=2,99/5=2) pseudo=read geom=check guess=(r
 ead,tcheck) scf=(maxcycle=1)\\title\\0,1\N,0,-0.790217,0.77789413,2.28
 472778\H,0,-1.73224372,0.61681804,2.6155392\H,0,-0.85550262,0.99181266
 ,1.29666237\C,0,-0.16836631,1.8838218,3.01270443\H,0,0.84688345,2.0289
 6517,2.64500493\H,0,-0.69345824,2.84224623,2.93178871\H,0,-0.0959132,1
 .62767695,4.06903376\H,0,-1.76356837,-2.64886345,-0.18714213\H,0,-2.29
 27501,-0.95634145,-0.0993459\H,0,-0.95996695,-1.52999282,0.93756546\H,

 Normal termination of Gaussian 16 at Wed Apr  9 17:28:45 2025.
