 Gaussian 16, Revision C.01,

 ----------------------------------------------------------------------
 #t hf aug-cc-pvdz symm=none int=(grid=ultrafine) guess=(read,tcheck) s
 table=(opt,rrhf)
 ----------------------------------------------------------------------
 -----
 title
 -----
 Symbolic Z-matrix:
 Charge =  0 Multiplicity = 1

 SCF Done:  E(RHF) =  -571.989900040     A.U. after   12 cycles
 Normal termination of Gaussian 16 at Wed Apr  9 17:54:31 2025.
 Gaussian 16:  ES64L-G16RevC.01  3-Jul-2019

 ----------------------------------------------------------------------
 #t hf aug-cc-pvdz iop(5/13=1,5/36=2,99/5=2) pseudo=read geom=check gue
 ss=(read,tcheck) scf=(maxcycle=1)
 ----------------------------------------------------------------------
 -----
 title
 -----
 Structure from the checkpoint file:  "HB300SPXx10_135_1.14_1.00_sulfane_trimethylamine_dimer_mol1.chk"
 Charge =  0 Multiplicity = 1

                         Standard orientation:
 ---------------------------------------------------------------------
 Center     Atomic      Atomic             Coordinates (Angstroms)
 Number     Number       Type             X           Y           Z
 ---------------------------------------------------------------------
      1          1           0       -1.068524    0.042560    0.000000
      2          1           0       -2.693795   -1.066906    0.000000
      3         16           0       -2.424119    0.246300    0.000000
      4          1           0        2.405761   -0.830501    1.303193
      5          1           0        0.910880   -0.270451    2.080506
      6          1           0        0.922331   -1.798323    1.197590
      7          1           0        0.922331   -1.798323   -1.197590
      8          1           0        2.405761   -0.830501   -1.303193
      9          1           0        0.910880   -0.270451   -2.080506
     10          1           0        2.405549    1.414548    0.000000
     11          1           0        0.916757    1.806758   -0.882789
     12          6           0        1.310570   -0.780987    1.205875
     13          7           0        0.891565   -0.086508    0.000000
     14          6           0        1.310570   -0.780987   -1.205875
     15          6           0        1.310570    1.305239    0.000000
     16          1           0        0.916757    1.806758    0.882789
 ---------------------------------------------------------------------

 SCF Done:  E(RHF) =  -572.068697027     A.U. after    2 cycles

 The electronic state is 1-A'.
 Alpha  occ. eigenvalues --  -93.51535 -15.62744 -11.26255 -11.26253 -11.26238
 Alpha  occ. eigenvalues --   -8.81350  -6.15555  -6.15341  -6.14989  -1.20956
 Alpha  occ. eigenvalues --   -0.96202  -0.96200  -0.93747  -0.81234  -0.66503
 Alpha  occ. eigenvalues --   -0.64482  -0.64458  -0.56078  -0.55956  -0.55451
 Alpha  occ. eigenvalues --   -0.53205  -0.51756  -0.51755  -0.47159  -0.35877
 Alpha  occ. eigenvalues --   -0.35528
 Alpha virt. eigenvalues --    0.03162   0.04307   0.04562   0.04857   0.06966
 Alpha virt. eigenvalues --    0.07196   0.07247   0.07696   0.07800   0.09357
 Alpha virt. eigenvalues --    0.10013   0.12561   0.13290   0.14399   0.14445

 Mulliken charges:
               1
     1  H    0.053665
     2  H   -0.026295
     3  S    0.031269
     4  H   -0.069053
     5  H   -0.183614
     6  H   -0.185781
     7  H   -0.185781
     8  H   -0.069053
     9  H   -0.183614
    10  H   -0.093612
    11  H   -0.177641
    12  C    0.799651
    13  N   -1.126346
    14  C    0.799651
    15  C    0.794195
    16  H   -0.177641
 Sum of Mulliken charges =  -0.00000

 Dipole moment (field-independent basis, Debye):
    X=              2.7102    Y=             -0.9170    Z=              0.0000  Tot=              2.8612

 Test job not archived.
 1\1\GINC-SE229\SP\RHF\Aug-CC-pVDZ\C3H11N1S1\OHZDE\09-Apr-2025\0\\#t hf
  aug-cc-pvdz iop(5/13=1,5/36=2,99/5=2) pseudo=read geom=check guess=(r
 ead,tcheck) scf=(maxcycle=1)\\title\\0,1\H,0,0.06719299,0.97177334,0.\
 H,0,1.32304535,2.48678341,0.\S,0,-0.00955285,2.34044335,0.\H,0,0.61325
 896,-2.56866514,-1.30319342\H,0,0.19470503,-1.02816621,-2.08050641\H,0
 ,1.71488628,-1.18170313,-1.19759028\H,0,1.71488628,-1.18170313,1.19759
 028\H,0,0.61325896,-2.56866514,1.30319342\H,0,0.19470503,-1.02816621,2
 .08050641\H,0,-1.62203451,-2.35959871,0.\H,0,-1.87404255,-0.84077635,0

 Normal termination of Gaussian 16 at Wed Apr  9 17:54:34 2025.
