 Gaussian 16, Revision C.01,

 ----------------------------------------------------------------------
 #t hf aug-cc-pvdz symm=none int=(grid=ultrafine) guess=(read,tcheck) s
 table=(opt,rrhf)
 ----------------------------------------------------------------------
 -----
 title
 -----
 Symbolic Z-matrix:
 Charge =  0 Multiplicity = 1

 SCF Done:  E(RHF) =  -989.364005927     A.U. after   13 cycles
 Normal termination of Gaussian 16 at Wed Apr  9 17:42:38 2025.
 Gaussian 16:  ES64L-G16RevC.01  3-Jul-2019

 ----------------------------------------------------------------------
 #t hf aug-cc-pvdz iop(5/13=1,5/36=2,99/5=2) pseudo=read geom=check gue
 ss=(read,tcheck) scf=(maxcycle=1)
 ----------------------------------------------------------------------
 -----
 title
 -----
 Structure from the checkpoint file:  "HB300SPXx10_1144_4.19_0.95_methanol_dimethyldisulfide_dimer_mol1.chk"
 Charge =  0 Multiplicity = 1

                         Standard orientation:
 ---------------------------------------------------------------------
 Center     Atomic      Atomic             Coordinates (Angstroms)
 Number     Number       Type             X           Y           Z
 ---------------------------------------------------------------------
      1          8           0        2.720296    0.180407   -0.140780
      2          1           0        1.897127    0.365045   -0.609034
      3          6           0        2.712117   -1.184080    0.249219
      4          1           0        3.630225   -1.365697    0.803787
      5          1           0        1.862913   -1.420557    0.896744
      6          1           0        2.690297   -1.856821   -0.612904
      7          1           0       -3.148328   -1.686325    0.577403
      8          1           0       -3.260566   -0.414563   -0.658835
      9          1           0       -2.948581    0.012105    1.045577
     10          1           0        0.745535    1.348694    1.385239
     11          1           0       -0.948210    1.928991    1.420121
     12          1           0        0.283536    2.817208    0.501886
     13          6           0       -2.767488   -0.716423    0.260327
     14         16           0       -0.983469   -0.943406   -0.020517
     15         16           0       -0.388380    0.896624   -0.705148
     16          6           0       -0.047416    1.830032    0.821601
 ---------------------------------------------------------------------

 SCF Done:  E(RHF) =  -989.473536167     A.U. after    2 cycles

 The electronic state is 1-A.
 Alpha  occ. eigenvalues --  -93.56511 -93.56205 -20.55176 -11.27686 -11.27306
 Alpha  occ. eigenvalues --  -11.26892  -8.86132  -8.85848  -6.20281  -6.20005
 Alpha  occ. eigenvalues --   -6.19958  -6.19777  -6.19713  -6.19387  -1.30111
 Alpha  occ. eigenvalues --   -1.08089  -1.00971  -0.91211  -0.90780  -0.78622
 Alpha  occ. eigenvalues --   -0.69134  -0.62090  -0.61894  -0.60848  -0.59947
 Alpha  occ. eigenvalues --   -0.59149  -0.58860  -0.53856  -0.50193  -0.49493
 Alpha  occ. eigenvalues --   -0.44863  -0.44561  -0.36913  -0.35855
 Alpha virt. eigenvalues --    0.03225   0.04357   0.04796   0.05269   0.06103
 Alpha virt. eigenvalues --    0.06514   0.07075   0.08073   0.08230   0.09169
 Alpha virt. eigenvalues --    0.09979   0.11118   0.13070   0.13574   0.14008

 Mulliken charges:
               1
     1  O   -0.503029
     2  H    0.231720
     3  C    0.930599
     4  H   -0.207707
     5  H   -0.178157
     6  H   -0.161090
     7  H   -0.074176
     8  H   -0.031474
     9  H   -0.088537
    10  H   -0.133703
    11  H   -0.115357
    12  H   -0.055280
    13  C    0.013536
    14  S    0.231532
    15  S   -0.111515
    16  C    0.252638
 Sum of Mulliken charges =  -0.00000

 Dipole moment (field-independent basis, Debye):
    X=             -3.1787    Y=             -0.0810    Z=              1.3853  Tot=              3.4684

 Test job not archived.
 1\1\GINC-SE103\SP\RHF\Aug-CC-pVDZ\C3H10O1S2\OHZDE\09-Apr-2025\0\\#t hf
  aug-cc-pvdz iop(5/13=1,5/36=2,99/5=2) pseudo=read geom=check guess=(r
 ead,tcheck) scf=(maxcycle=1)\\title\\0,1\O,0,-0.42925951,1.22968046,-2
 .50380826\H,0,-0.36156068,1.36890772,-1.5514469\C,0,-1.37991091,0.2017
 0921,-2.7351714\H,0,-1.41855104,0.0350798,-3.80950666\H,0,-1.09677682,
 -0.73598734,-2.24842974\H,0,-2.37984798,0.48334645,-2.39294418\H,0,-0.
 57272873,-2.5417492,2.41523284\H,0,-0.10729611,-0.97096871,3.10391543\
 H,0,1.05953938,-1.90936862,2.13319358\H,0,1.68729178,-0.04598043,-1.28

 Normal termination of Gaussian 16 at Wed Apr  9 17:42:44 2025.
