 Gaussian 16, Revision C.01,

 ----------------------------------------------------------------------
 #t hf aug-cc-pvdz symm=none int=(grid=ultrafine) guess=(read,tcheck) s
 table=(opt,rrhf)
 ----------------------------------------------------------------------
 -----
 title
 -----
 Symbolic Z-matrix:
 Charge =  0 Multiplicity = 1

 SCF Done:  E(RHF) =  -952.374430998     A.U. after   12 cycles

 1\1\GINC-SE174\Stability\RHF\Aug-CC-pVDZ\C4H10S2\OHZDE\09-Apr-2025\0\\
 #t hf aug-cc-pvdz symm=none int=(grid=ultrafine) guess=(read,tcheck) s
 table=(opt,rrhf)\\title\\0,1\H,0,1.25927999,1.11406487,-0.28265552\H,0
 ,2.28279017,2.73418341,-0.67577847\S,0,1.07110419,2.4516331,-0.1764195
 4\H,0,0.2965772,0.20454817,1.78216092\H,0,0.20675843,-1.53866555,2.063
 16962\H,0,-2.09622417,-0.18388658,1.874162\H,0,-1.11363684,-1.50705765
 ,-1.68133606\H,0,-1.94884466,-1.70211244,0.99185542\H,0,-0.40938916,0.
 07874449,-2.02485985\H,0,-2.72167063,-0.02786353,-0.65102153\H,0,-1.46

 Normal termination of Gaussian 16 at Wed Apr  9 17:51:03 2025.
 Gaussian 16:  ES64L-G16RevC.01  3-Jul-2019

 ----------------------------------------------------------------------
 #t hf aug-cc-pvdz iop(5/13=1,5/36=2,99/5=2) pseudo=read geom=check gue
 ss=(read,tcheck) scf=(maxcycle=1)
 ----------------------------------------------------------------------
 -----
 title
 -----
 Structure from the checkpoint file:  "HB300SPXx10_1233_4.28_0.90_sulfane_tetrahydrothiophene_dimer_mol1.chk"
 Charge =  0 Multiplicity = 1

                         Standard orientation:
 ---------------------------------------------------------------------
 Center     Atomic      Atomic             Coordinates (Angstroms)
 Number     Number       Type             X           Y           Z
 ---------------------------------------------------------------------
      1          1           0       -1.502598   -0.576656   -0.001278
      2          1           0       -3.455267   -0.604993    0.113543
      3         16           0       -2.513126    0.316050   -0.134300
      4          1           0        0.058000    0.007564   -1.801473
      5          1           0        1.609734   -0.821501   -1.976402
      6          1           0        1.649332    1.798799   -1.422017
      7          1           0        1.743334   -0.206021    1.943943
      8          1           0        2.723041    0.739045   -0.511377
      9          1           0       -0.006436    0.019067    2.071941
     10          1           0        1.487588    2.066353    1.165323
     11          1           0       -0.037601    1.698485    0.371841
     12         16           0        0.577818   -1.332616    0.148512
     13          6           0        0.980780   -0.261512   -1.289910
     14          6           0        1.676324    0.969679   -0.714822
     15          6           0        0.956871    1.307972    0.589885
     16          6           0        0.835325    0.008013    1.384607
 ---------------------------------------------------------------------

 SCF Done:  E(RHF) =  -952.462653556     A.U. after    2 cycles

 The electronic state is 1-A.
 Alpha  occ. eigenvalues --  -93.52656 -93.52562 -11.26872 -11.26859 -11.24658
 Alpha  occ. eigenvalues --  -11.24529  -8.82467  -8.82429  -6.16644  -6.16591
 Alpha  occ. eigenvalues --   -6.16438  -6.16415  -6.16194  -6.16063  -1.12267
 Alpha  occ. eigenvalues --   -0.98780  -0.96841  -0.94894  -0.80106  -0.78714
 Alpha  occ. eigenvalues --   -0.66873  -0.64712  -0.60989  -0.58220  -0.54927
 Alpha  occ. eigenvalues --   -0.51440  -0.50117  -0.49188  -0.48425  -0.47846
 Alpha  occ. eigenvalues --   -0.42846  -0.36654  -0.33709
 Alpha virt. eigenvalues --    0.03345   0.04520   0.04593   0.04931   0.06167
 Alpha virt. eigenvalues --    0.06670   0.07244   0.07953   0.08235   0.09128
 Alpha virt. eigenvalues --    0.11861   0.12747   0.12940   0.14346   0.14510

 Mulliken charges:
               1
     1  H    0.100690
     2  H   -0.058211
     3  S    0.006183
     4  H   -0.206366
     5  H   -0.072362
     6  H   -0.077182
     7  H   -0.135104
     8  H   -0.148937
     9  H   -0.126630
    10  H   -0.059122
    11  H   -0.226077
    12  S    0.258171
    13  C    0.156774
    14  C    0.201964
    15  C    0.224458
    16  C    0.161750
 Sum of Mulliken charges =   0.00000

 Dipole moment (field-independent basis, Debye):
    X=              1.4974    Y=              0.8501    Z=              0.1131  Tot=              1.7256

 Test job not archived.
 1\1\GINC-SE174\SP\RHF\Aug-CC-pVDZ\C4H10S2\OHZDE\09-Apr-2025\0\\#t hf a
 ug-cc-pvdz iop(5/13=1,5/36=2,99/5=2) pseudo=read geom=check guess=(rea
 d,tcheck) scf=(maxcycle=1)\\title\\0,1\H,0,1.25927999,1.11406487,-0.28
 265552\H,0,2.28279017,2.73418341,-0.67577847\S,0,1.07110419,2.4516331,
 -0.17641954\H,0,0.2965772,0.20454817,1.78216092\H,0,0.20675843,-1.5386
 6555,2.06316962\H,0,-2.09622417,-0.18388658,1.874162\H,0,-1.11363684,-
 1.50705765,-1.68133606\H,0,-1.94884466,-1.70211244,0.99185542\H,0,-0.4
 0938916,0.07874449,-2.02485985\H,0,-2.72167063,-0.02786353,-0.65102153

 Normal termination of Gaussian 16 at Wed Apr  9 17:51:09 2025.
