 Gaussian 16, Revision C.01,

 ----------------------------------------------------------------------
 #t hf aug-cc-pvdz symm=none int=(grid=ultrafine) guess=(read,tcheck) s
 table=(opt,rrhf)
 ----------------------------------------------------------------------
 -----
 title
 -----
 Symbolic Z-matrix:
 Charge =  0 Multiplicity = 1

 SCF Done:  E(RHF) =  -1121.32593822     A.U. after   13 cycles
 Normal termination of Gaussian 16 at Wed Apr  9 17:33:46 2025.
 Gaussian 16:  ES64L-G16RevC.01  3-Jul-2019

 ----------------------------------------------------------------------
 #t hf aug-cc-pvdz iop(5/13=1,5/36=2,99/5=2) pseudo=read geom=check gue
 ss=(read,tcheck) scf=(maxcycle=1)
 ----------------------------------------------------------------------
 -----
 title
 -----
 Structure from the checkpoint file:  "HB300SPXx10_1091_4.13_0.80_Nmethylacetamide_dimethyldisulfide_dimer_mol1.chk"
 Charge =  0 Multiplicity = 1

                         Standard orientation:
 ---------------------------------------------------------------------
 Center     Atomic      Atomic             Coordinates (Angstroms)
 Number     Number       Type             X           Y           Z
 ---------------------------------------------------------------------
      1          6           0       -1.532279    1.678255   -0.760027
      2          1           0       -0.872908    1.514087   -1.612343
      3          1           0       -0.961626    2.149103    0.038137
      4          1           0       -2.333012    2.340422   -1.077738
      5          6           0       -2.130005    0.345587   -0.353278
      6          8           0       -3.042737   -0.166241   -0.979213
      7          7           0       -1.567745   -0.226322    0.743544
      8          1           0       -0.738238    0.198430    1.124180
      9          6           0       -1.910001   -1.564633    1.178189
     10          1           0       -2.915597   -1.789596    0.836834
     11          1           0       -1.227052   -2.309001    0.763250
     12          1           0       -1.875739   -1.622310    2.264472
     13          1           0        2.567992   -2.161039   -1.756742
     14          1           0        3.164226   -1.897672   -0.103493
     15          1           0        3.318733   -0.612375   -1.331857
     16          1           0        0.949683    2.318514   -0.466672
     17          1           0        2.690519    1.945679   -0.361799
     18          1           0        1.875708    2.761462    0.985354
     19          6           0        2.699760   -1.425802   -0.964088
     20         16           0        1.028843   -0.839106   -0.543773
     21         16           0        1.368001    0.447684    1.016644
     22          6           0        1.759845    2.023464    0.192768
 ---------------------------------------------------------------------

 SCF Done:  E(RHF) =  -1121.47497147     A.U. after    2 cycles

 The electronic state is 1-A.
 Alpha  occ. eigenvalues --  -93.57111 -93.56650 -20.51303 -15.62275 -11.34468
 Alpha  occ. eigenvalues --  -11.28371 -11.27937 -11.25109 -11.23522  -8.86797
 Alpha  occ. eigenvalues --   -8.86287  -6.20974  -6.20682  -6.20468  -6.20417
 Alpha  occ. eigenvalues --   -6.20166  -6.19832  -1.32671  -1.18071  -1.08873
 Alpha  occ. eigenvalues --   -1.01726  -1.00141  -0.92015  -0.91028  -0.79635
 Alpha  occ. eigenvalues --   -0.77159  -0.68411  -0.64686  -0.62927  -0.62689
 Alpha  occ. eigenvalues --   -0.61818  -0.61221  -0.59689  -0.57932  -0.57063
 Alpha  occ. eigenvalues --   -0.55133  -0.53893  -0.53204  -0.50491  -0.50048
 Alpha  occ. eigenvalues --   -0.45059  -0.42185  -0.37940  -0.37103  -0.36280
 Alpha virt. eigenvalues --    0.02752   0.03602   0.04160   0.04720   0.05661
 Alpha virt. eigenvalues --    0.05981   0.06114   0.07084   0.07430   0.08373
 Alpha virt. eigenvalues --    0.08504   0.09006   0.09105   0.11088   0.11226

 Mulliken charges:
               1
     1  C    0.457899
     2  H    0.027502
     3  H   -0.099103
     4  H   -0.056320
     5  C    0.348188
     6  O   -0.620635
     7  N   -0.201061
     8  H    0.067536
     9  C    0.776600
    10  H   -0.181631
    11  H   -0.088576
    12  H   -0.171908
    13  H   -0.076883
    14  H   -0.055194
    15  H   -0.101295
    16  H   -0.310862
    17  H   -0.148114
    18  H    0.004098
    19  C    0.154884
    20  S    0.177236
    21  S   -0.188683
    22  C    0.286323
 Sum of Mulliken charges =  -0.00000

 Dipole moment (field-independent basis, Debye):
    X=              5.8422    Y=              1.6559    Z=              1.2144  Tot=              6.1926

 Test job not archived.
 1\1\GINC-SE340\SP\RHF\Aug-CC-pVDZ\C5H13N1O1S2\OHZDE\09-Apr-2025\0\\#t
 hf aug-cc-pvdz iop(5/13=1,5/36=2,99/5=2) pseudo=read geom=check guess=
 (read,tcheck) scf=(maxcycle=1)\\title\\0,1\C,0,-1.31055971,-0.36190707
 ,2.17525478\H,0,-0.76310857,0.57466921,2.28149083\H,0,-0.59510431,-1.1
 7658722,2.08130356\H,0,-1.91110445,-0.50300543,3.06969011\C,0,-2.23351
 851,-0.24400233,0.97818704\O,0,-3.28055753,0.37845097,1.03390772\N,0,-
 1.80028089,-0.8717422,-0.1463058\H,0,-0.86873727,-1.25332097,-0.144399
 63\C,0,-2.47826303,-0.73306099,-1.41840567\H,0,-3.52176476,-0.50262299

 Normal termination of Gaussian 16 at Wed Apr  9 17:33:57 2025.
