 Gaussian 16, Revision C.01,

 ----------------------------------------------------------------------
 #t hf aug-cc-pvdz symm=none int=(grid=ultrafine) guess=(read,tcheck) s
 table=(opt,rrhf)
 ----------------------------------------------------------------------
 -----
 title
 -----
 Symbolic Z-matrix:
 Charge =  0 Multiplicity = 1

 SCF Done:  E(RHF) =  -704.618030635     A.U. after   13 cycles
 Normal termination of Gaussian 16 at Wed Apr  9 17:39:40 2025.
 Gaussian 16:  ES64L-G16RevC.01  3-Jul-2019

 ----------------------------------------------------------------------
 #t hf aug-cc-pvdz iop(5/13=1,5/36=2,99/5=2) pseudo=read geom=check gue
 ss=(read,tcheck) scf=(maxcycle=1)
 ----------------------------------------------------------------------
 -----
 title
 -----
 Structure from the checkpoint file:  "HB300SPXx10_1129_4.16_1.50_aceticacid_dimethylsulfide_dimer_mol1.chk"
 Charge =  0 Multiplicity = 1

                         Standard orientation:
 ---------------------------------------------------------------------
 Center     Atomic      Atomic             Coordinates (Angstroms)
 Number     Number       Type             X           Y           Z
 ---------------------------------------------------------------------
      1          6           0        0.244140    2.411198   -0.000000
      2          8           0       -0.847038    1.889406   -0.000000
      3          8           0        1.390819    1.722147   -0.000000
      4          1           0        1.191951    0.752783   -0.000000
      5          6           0        0.479873    3.896549   -0.000000
      6          1           0       -0.469491    4.420349   -0.000000
      7          1           0        1.062100    4.176895    0.876781
      8          1           0        1.062100    4.176895   -0.876781
      9          1           0       -1.561718   -3.105619    1.379195
     10          1           0       -1.362283   -1.330671    1.315483
     11          1           0       -0.264124   -2.326140    2.299403
     12          1           0       -0.264124   -2.326140   -2.299403
     13          1           0       -1.362283   -1.330671   -1.315483
     14          1           0       -1.561718   -3.105619   -1.379195
     15          6           0       -0.847038   -2.285572    1.382643
     16         16           0        0.312482   -2.457132    0.000000
     17          6           0       -0.847038   -2.285572   -1.382643
 ---------------------------------------------------------------------

 SCF Done:  E(RHF) =  -704.742804834     A.U. after    2 cycles

 The electronic state is 1-A'.
 Alpha  occ. eigenvalues --  -93.52697 -20.62517 -20.56118 -11.40040 -11.26028
 Alpha  occ. eigenvalues --  -11.26012 -11.25349  -8.82444  -6.16582  -6.16377
 Alpha  occ. eigenvalues --   -6.16064  -1.42355  -1.32312  -1.05139  -1.02105
 Alpha  occ. eigenvalues --   -0.94897  -0.83632  -0.80073  -0.71573  -0.69163
 Alpha  occ. eigenvalues --   -0.66195  -0.60884  -0.60640  -0.59105  -0.57956
 Alpha  occ. eigenvalues --   -0.57582  -0.56947  -0.56662  -0.49796  -0.49555
 Alpha  occ. eigenvalues --   -0.46960  -0.43275  -0.33800
 Alpha virt. eigenvalues --    0.03407   0.04268   0.04580   0.05341   0.05905
 Alpha virt. eigenvalues --    0.06254   0.07186   0.07584   0.07865   0.08755
 Alpha virt. eigenvalues --    0.10421   0.11109   0.13438   0.13687   0.13856

 Mulliken charges:
               1
     1  C    0.316420
     2  O   -0.458176
     3  O   -0.451557
     4  H    0.180632
     5  C    0.366404
     6  H   -0.021312
     7  H    0.033629
     8  H    0.033629
     9  H   -0.085315
    10  H   -0.086408
    11  H   -0.115768
    12  H   -0.115768
    13  H   -0.086408
    14  H   -0.085315
    15  C    0.141334
    16  S    0.292646
    17  C    0.141334
 Sum of Mulliken charges =  -0.00000

 Dipole moment (field-independent basis, Debye):
    X=              0.0159    Y=              0.9436    Z=              0.0000  Tot=              0.9438

 Test job not archived.
 1\1\GINC-SE173\SP\RHF\Aug-CC-pVDZ\C4H10O2S1\OHZDE\09-Apr-2025\0\\#t hf
  aug-cc-pvdz iop(5/13=1,5/36=2,99/5=2) pseudo=read geom=check guess=(r
 ead,tcheck) scf=(maxcycle=1)\\title\\0,1\C,0,0.08152563,1.86646531,0.\
 O,0,1.12794826,1.25988757,0.\O,0,-1.11612638,1.27040068,0.\H,0,-0.9946
 6015,0.28833063,0.\C,0,-0.03582077,3.36582142,0.\H,0,0.95204799,3.8127
 8193,0.\H,0,-0.5940149,3.69140047,-0.87678098\H,0,-0.5940149,3.6914004
 7,0.87678098\H,0,1.4447584,-3.77605139,-1.37919498\H,0,1.38653184,-1.9
 908834,-1.31548339\H,0,0.21297789,-2.89624675,-2.29940307\H,0,0.212977

 Normal termination of Gaussian 16 at Wed Apr  9 17:39:45 2025.
