 Gaussian 16, Revision C.01,

 ----------------------------------------------------------------------
 #t hf aug-cc-pvdz symm=none int=(grid=ultrafine) guess=(read,tcheck) s
 table=(opt,rrhf)
 ----------------------------------------------------------------------
 -----
 title
 -----
 Symbolic Z-matrix:
 Charge =  0 Multiplicity = 1

 SCF Done:  E(RHF) =  -897.816490954     A.U. after   12 cycles
 Normal termination of Gaussian 16 at Wed Apr  9 17:54:10 2025.
 Gaussian 16:  ES64L-G16RevC.01  3-Jul-2019

 ----------------------------------------------------------------------
 #t hf aug-cc-pvdz iop(5/13=1,5/36=2,99/5=2) pseudo=read geom=check gue
 ss=(read,tcheck) scf=(maxcycle=1)
 ----------------------------------------------------------------------
 -----
 title
 -----
 Structure from the checkpoint file:  "HB300SPXx10_1332_4.38_0.85_hydrogenchloride_methanethiol_dimer_mol1.chk"
 Charge =  0 Multiplicity = 1

                         Standard orientation:
 ---------------------------------------------------------------------
 Center     Atomic      Atomic             Coordinates (Angstroms)
 Number     Number       Type             X           Y           Z
 ---------------------------------------------------------------------
      1          1           0       -0.705458   -0.406709   -0.090535
      2         17           0       -1.924065    0.063237    0.004296
      3          1           0        0.610953    1.589218    0.556162
      4          1           0        1.435340    1.485924   -1.005029
      5          1           0        2.382269    1.362257    0.484998
      6          1           0        1.214819   -0.935659    1.232135
      7          6           0        1.431547    1.123536    0.019135
      8         16           0        1.198869   -0.681955   -0.085349
 ---------------------------------------------------------------------

 SCF Done:  E(RHF) =  -897.871044296     A.U. after    2 cycles

 The electronic state is 1-A.
 Alpha  occ. eigenvalues -- -103.63295 -93.56496 -11.28789 -10.66711  -8.86374
 Alpha  occ. eigenvalues --   -8.32446  -8.32173  -8.32170  -6.20522  -6.20301
 Alpha  occ. eigenvalues --   -6.20104  -1.12754  -1.05437  -0.89028  -0.64310
 Alpha  occ. eigenvalues --   -0.63017  -0.59497  -0.55443  -0.48456  -0.45632
 Alpha  occ. eigenvalues --   -0.45588  -0.38369
 Alpha virt. eigenvalues --    0.03048   0.04608   0.05432   0.06235   0.08097
 Alpha virt. eigenvalues --    0.09989   0.11027   0.12563   0.13997   0.14377
 Alpha virt. eigenvalues --    0.16045   0.16609   0.17317   0.18183   0.19799

 Mulliken charges:
               1
     1  H    0.332521
     2  Cl  -0.234631
     3  H   -0.136312
     4  H   -0.060346
     5  H   -0.103521
     6  H    0.146945
     7  C    0.190562
     8  S   -0.135217
 Sum of Mulliken charges =  -0.00000

 Dipole moment (field-independent basis, Debye):
    X=              3.0834    Y=              0.8074    Z=              0.7498  Tot=              3.2743

 Test job not archived.
 1\1\GINC-SE030\SP\RHF\Aug-CC-pVDZ\C1H5Cl1S1\OHZDE\09-Apr-2025\0\\#t hf
  aug-cc-pvdz iop(5/13=1,5/36=2,99/5=2) pseudo=read geom=check guess=(r
 ead,tcheck) scf=(maxcycle=1)\\title\\0,1\H,0,-0.71323053,0.36081391,-0
 .38963987\Cl,0,-0.97574618,1.50432633,-0.9712843\H,0,1.59008032,0.7736
 0661,0.42229867\H,0,2.1151857,-0.63222362,-0.51338675\H,0,2.34743525,-
 0.62287484,1.24107111\H,0,-0.28620345,-0.60385354,1.75600075\C,0,1.694
 32852,-0.30696273,0.43389184\S,0,0.06562445,-1.11599059,0.56675089\\Ve
 rsion=ES64L-G16RevC.01\State=1-A\HF=-897.8710443\RMSD=6.190e-03\Dipole

 Normal termination of Gaussian 16 at Wed Apr  9 17:54:13 2025.
