 Gaussian 16, Revision C.01,

 ----------------------------------------------------------------------
 #t hf aug-cc-pvdz symm=none int=(grid=ultrafine) guess=(read,tcheck) s
 table=(opt,rrhf)
 ----------------------------------------------------------------------
 -----
 title
 -----
 Symbolic Z-matrix:
 Charge =  0 Multiplicity = 1

 SCF Done:  E(RHF) =  -1091.84865628     A.U. after   14 cycles
 Normal termination of Gaussian 16 at Wed Apr  9 17:56:08 2025.
 Gaussian 16:  ES64L-G16RevC.01  3-Jul-2019

 ----------------------------------------------------------------------
 #t hf aug-cc-pvdz iop(5/13=1,5/36=2,99/5=2) pseudo=read geom=check gue
 ss=(read,tcheck) scf=(maxcycle=1)
 ----------------------------------------------------------------------
 -----
 title
 -----
 Structure from the checkpoint file:  "HB300SPXx10_1403_5.03_0.90_dimethylsulfoxide_phosphineF2_dimer_mol1.chk"
 Charge =  0 Multiplicity = 1

                         Standard orientation:
 ---------------------------------------------------------------------
 Center     Atomic      Atomic             Coordinates (Angstroms)
 Number     Number       Type             X           Y           Z
 ---------------------------------------------------------------------
      1          1           0        1.932399    1.677557   -1.467713
      2          1           0        2.755879    1.775904    0.107393
      3          1           0        0.960679    1.810883    0.023265
      4          1           0        1.524310   -1.593296    1.681733
      5          1           0        0.787728    0.028632    1.790398
      6          6           0        1.872266    1.414320   -0.415128
      7         16           0        1.835592   -0.394801   -0.333221
      8          8           0        0.537378   -0.827961   -0.938680
      9          6           0        1.656071   -0.536954    1.463961
     10          1           0        2.565327   -0.171444    1.937234
     11         15           0       -1.688936   -0.366048   -0.096984
     12          9           0       -3.229185    0.084617    0.085948
     13          9           0       -1.039578    0.983778    0.513039
     14          1           0       -1.611944    0.023234   -1.460452
 ---------------------------------------------------------------------

 SCF Done:  E(RHF) =  -1092.04961057     A.U. after    2 cycles

 The electronic state is 1-A.
 Alpha  occ. eigenvalues --  -93.67297 -81.36320 -26.12025 -26.09842 -20.54162
 Alpha  occ. eigenvalues --  -11.28336 -11.28115  -8.95782  -7.84981  -6.30092
 Alpha  occ. eigenvalues --   -6.29866  -6.29570  -4.99071  -4.98838  -4.98295
 Alpha  occ. eigenvalues --   -1.65238  -1.62589  -1.33140  -1.06977  -0.98521
 Alpha  occ. eigenvalues --   -0.87494  -0.83365  -0.76836  -0.75560  -0.74837
 Alpha  occ. eigenvalues --   -0.70921  -0.68796  -0.65632  -0.64988  -0.64377
 Alpha  occ. eigenvalues --   -0.61838  -0.59999  -0.56543  -0.56059  -0.54886
 Alpha  occ. eigenvalues --   -0.46418  -0.40358  -0.36442
 Alpha virt. eigenvalues --    0.02749   0.04145   0.04975   0.05626   0.06693
 Alpha virt. eigenvalues --    0.06960   0.07758   0.08611   0.09436   0.10743
 Alpha virt. eigenvalues --    0.12221   0.12825   0.13210   0.14526   0.15132

 Mulliken charges:
               1
     1  H   -0.047123
     2  H   -0.054505
     3  H   -0.065052
     4  H   -0.034906
     5  H   -0.085861
     6  C    0.238283
     7  S    1.015242
     8  O   -1.049225
     9  C    0.214183
    10  H   -0.053805
    11  P    1.258615
    12  F   -0.663061
    13  F   -0.701229
    14  H    0.028444
 Sum of Mulliken charges =  -0.00000

 Dipole moment (field-independent basis, Debye):
    X=              5.2107    Y=              1.1026    Z=              1.2908  Tot=              5.4803

 Test job not archived.
 1\1\GINC-SE220\SP\RHF\Aug-CC-pVDZ\C2H7F2O1P1S1\OHZDE\09-Apr-2025\0\\#t
  hf aug-cc-pvdz iop(5/13=1,5/36=2,99/5=2) pseudo=read geom=check guess
 =(read,tcheck) scf=(maxcycle=1)\\title\\0,1\H,0,1.67395499,0.82417178,
 -3.38423362\H,0,0.49124302,-0.02078366,-4.41184902\H,0,0.89589517,-0.6
 6534236,-2.78340018\H,0,-2.718683,0.46280377,-2.2188292\H,0,-1.5421980
 9,-0.87905323,-2.20106353\C,0,0.76564588,0.22768029,-3.38836814\S,0,-0
 .5351395,1.25679703,-2.66046249\O,0,-0.17783951,1.44910918,-1.22000404
 \C,0,-1.85989706,0.022286,-2.71790313\H,0,-2.10168806,-0.18449539,-3.7

 Normal termination of Gaussian 16 at Wed Apr  9 17:56:13 2025.
