 Gaussian 16, Revision C.01,

 ----------------------------------------------------------------------
 #t hf aug-cc-pvdz symm=none int=(grid=ultrafine) guess=(read,tcheck) s
 table=(opt,rrhf)
 ----------------------------------------------------------------------
 -----
 title
 -----
 Symbolic Z-matrix:
 Charge =  0 Multiplicity = 1

 SCF Done:  E(RHF) =  -1054.87855838     A.U. after   15 cycles
 Normal termination of Gaussian 16 at Wed Apr  9 18:02:11 2025.
 Gaussian 16:  ES64L-G16RevC.01  3-Jul-2019

 ----------------------------------------------------------------------
 #t hf aug-cc-pvdz iop(5/13=1,5/36=2,99/5=2) pseudo=read geom=check gue
 ss=(read,tcheck) scf=(maxcycle=1)
 ----------------------------------------------------------------------
 -----
 title
 -----
 Structure from the checkpoint file:  "HB300SPXx10_1481_5.11_0.80_thioacetone_phosphineF2_dimer_mol1.chk"
 Charge =  0 Multiplicity = 1

                         Standard orientation:
 ---------------------------------------------------------------------
 Center     Atomic      Atomic             Coordinates (Angstroms)
 Number     Number       Type             X           Y           Z
 ---------------------------------------------------------------------
      1          1           0        0.381308    1.613180   -0.164081
      2          1           0        1.596401    1.914018    1.095439
      3          1           0        2.025681    2.139083   -0.584507
      4          1           0        3.654221   -1.135921    0.252583
      5          1           0        3.944991    0.458628   -0.475678
      6          6           0        1.429996    1.518823    0.089564
      7          6           0        1.906207    0.101348    0.030371
      8         16           0        0.916585   -1.154419   -0.273160
      9          6           0        3.371506   -0.089175    0.276378
     10          1           0        3.643714    0.340735    1.243653
     11         15           0       -1.720380   -0.226814    0.293639
     12          9           0       -3.325431   -0.114647    0.276460
     13          9           0       -1.419784    1.063099   -0.611409
     14          1           0       -1.645302   -1.178864   -0.764769
 ---------------------------------------------------------------------

 SCF Done:  E(RHF) =  -1055.04384579     A.U. after    2 cycles

 The electronic state is 1-A.
 Alpha  occ. eigenvalues --  -93.52257 -81.37632 -26.12917 -26.11218 -11.34803
 Alpha  occ. eigenvalues --  -11.26252 -11.25368  -8.82366  -7.86341  -6.16535
 Alpha  occ. eigenvalues --   -6.16156  -6.15989  -5.00465  -5.00206  -4.99672
 Alpha  occ. eigenvalues --   -1.66416  -1.64001  -1.12508  -0.97579  -0.95869
 Alpha  occ. eigenvalues --   -0.88561  -0.78077  -0.76983  -0.76276  -0.72971
 Alpha  occ. eigenvalues --   -0.72071  -0.69720  -0.63531  -0.62813  -0.61981
 Alpha  occ. eigenvalues --   -0.59868  -0.56963  -0.53965  -0.50419  -0.41721
 Alpha  occ. eigenvalues --   -0.38023  -0.34505
 Alpha virt. eigenvalues --    0.02863   0.03682   0.04671   0.05207   0.05925
 Alpha virt. eigenvalues --    0.06588   0.07301   0.07924   0.09100   0.09461
 Alpha virt. eigenvalues --    0.10389   0.11892   0.12355   0.14101   0.14557

 Mulliken charges:
               1
     1  H   -0.301432
     2  H    0.109309
     3  H    0.091426
     4  H   -0.071362
     5  H    0.051408
     6  C    0.468210
     7  C   -0.860480
     8  S    0.088719
     9  C    0.398313
    10  H    0.050778
    11  P    1.199720
    12  F   -0.654031
    13  F   -0.637802
    14  H    0.067224
 Sum of Mulliken charges =  -0.00000

 Dipole moment (field-independent basis, Debye):
    X=              4.4373    Y=              0.8136    Z=              0.6260  Tot=              4.5545

 Test job not archived.
 1\1\GINC-SE220\SP\RHF\Aug-CC-pVDZ\C3H7F2P1S1\OHZDE\09-Apr-2025\0\\#t h
 f aug-cc-pvdz iop(5/13=1,5/36=2,99/5=2) pseudo=read geom=check guess=(
 read,tcheck) scf=(maxcycle=1)\\title\\0,1\H,0,-0.82524406,-0.11851319,
 -2.18150719\H,0,-1.6981931,1.21808686,-2.95919937\H,0,-0.71897066,0.14
 764096,-3.93512177\H,0,1.41759528,3.22175764,-3.68330427\H,0,0.7352472
 6,2.04678605,-4.82844268\C,0,-0.77357806,0.63435768,-2.9583614\C,0,0.3
 925438,1.55581911,-2.78347778\S,0,1.39271927,1.4865874,-1.50157001\C,0
 ,0.57891903,2.56210758,-3.87735604\H,0,-0.33203334,3.15446018,-3.99493

 Normal termination of Gaussian 16 at Wed Apr  9 18:02:16 2025.
