 Gaussian 16, Revision C.01,

 ----------------------------------------------------------------------
 #t hf aug-cc-pvdz symm=none int=(grid=ultrafine) guess=(read,tcheck) s
 table=(opt,rrhf)
 ----------------------------------------------------------------------
 -----
 title
 -----
 Symbolic Z-matrix:
 Charge =  0 Multiplicity = 1

 SCF Done:  E(RHF) =  -704.615202611     A.U. after   13 cycles
 Normal termination of Gaussian 16 at Wed Apr  9 17:38:53 2025.
 Gaussian 16:  ES64L-G16RevC.01  3-Jul-2019

 ----------------------------------------------------------------------
 #t hf aug-cc-pvdz iop(5/13=1,5/36=2,99/5=2) pseudo=read geom=check gue
 ss=(read,tcheck) scf=(maxcycle=1)
 ----------------------------------------------------------------------
 -----
 title
 -----
 Structure from the checkpoint file:  "HB300SPXx10_1123_4.16_0.90_aceticacid_dimethylsulfide_dimer_mol1.chk"
 Charge =  0 Multiplicity = 1

                         Standard orientation:
 ---------------------------------------------------------------------
 Center     Atomic      Atomic             Coordinates (Angstroms)
 Number     Number       Type             X           Y           Z
 ---------------------------------------------------------------------
      1          6           0        0.273813    1.729349    0.000000
      2          8           0       -0.872404    1.343184    0.000000
      3          8           0        1.328864    0.906834   -0.000000
      4          1           0        1.014360   -0.031411   -0.000000
      5          6           0        0.687238    3.175350    0.000000
      6          1           0       -0.191904    3.809990    0.000000
      7          1           0        1.299066    3.383314    0.876781
      8          1           0        1.299066    3.383314   -0.876781
      9          1           0       -1.680906   -2.296868    1.379195
     10          1           0       -1.268531   -0.559007    1.315483
     11          1           0       -0.298658   -1.679836    2.299403
     12          1           0       -0.298658   -1.679836   -2.299403
     13          1           0       -1.268531   -0.559007   -1.315483
     14          1           0       -1.680906   -2.296868   -1.379195
     15          6           0       -0.872404   -1.569153    1.382643
     16         16           0        0.257903   -1.879518   -0.000000
     17          6           0       -0.872404   -1.569153   -1.382643
 ---------------------------------------------------------------------

 SCF Done:  E(RHF) =  -704.739069088     A.U. after    2 cycles

 The electronic state is 1-A'.
 Alpha  occ. eigenvalues --  -93.53635 -20.59676 -20.55357 -11.39225 -11.26034
 Alpha  occ. eigenvalues --  -11.26018 -11.24651  -8.83491  -6.17636  -6.17443
 Alpha  occ. eigenvalues --   -6.17249  -1.41005  -1.31297  -1.06005  -1.01317
 Alpha  occ. eigenvalues --   -0.95123  -0.83146  -0.80334  -0.71081  -0.68467
 Alpha  occ. eigenvalues --   -0.65121  -0.61476  -0.60823  -0.58242  -0.57835
 Alpha  occ. eigenvalues --   -0.57193  -0.56710  -0.55461  -0.50021  -0.48820
 Alpha  occ. eigenvalues --   -0.46355  -0.44022  -0.35482
 Alpha virt. eigenvalues --    0.03495   0.04400   0.04543   0.05422   0.06163
 Alpha virt. eigenvalues --    0.06348   0.07273   0.07461   0.08120   0.08981
 Alpha virt. eigenvalues --    0.11072   0.11489   0.13370   0.14415   0.14875

 Mulliken charges:
               1
     1  C    0.242582
     2  O   -0.520710
     3  O   -0.489142
     4  H    0.368624
     5  C    0.450602
     6  H   -0.035337
     7  H    0.041311
     8  H    0.041311
     9  H   -0.101404
    10  H   -0.131940
    11  H   -0.091948
    12  H   -0.091948
    13  H   -0.131940
    14  H   -0.101404
    15  C    0.291829
    16  S   -0.032317
    17  C    0.291829
 Sum of Mulliken charges =  -0.00000

 Dipole moment (field-independent basis, Debye):
    X=             -0.2020    Y=              0.3788    Z=             -0.0000  Tot=              0.4293

 Test job not archived.
 1\1\GINC-SE362\SP\RHF\Aug-CC-pVDZ\C4H10O2S1\OHZDE\09-Apr-2025\0\\#t hf
  aug-cc-pvdz iop(5/13=1,5/36=2,99/5=2) pseudo=read geom=check guess=(r
 ead,tcheck) scf=(maxcycle=1)\\title\\0,1\C,0,0.08152563,1.86646531,0.\
 O,0,1.12794826,1.25988757,0.\O,0,-1.11612638,1.27040068,0.\H,0,-0.9946
 6015,0.28833063,0.\C,0,-0.03582077,3.36582142,0.\H,0,0.95204799,3.8127
 8193,0.\H,0,-0.5940149,3.69140047,-0.87678098\H,0,-0.5940149,3.6914004
 7,0.87678098\H,0,1.19577105,-2.4682562,-1.37919498\H,0,1.13754449,-0.6
 830882,-1.31548339\H,0,-0.03600946,-1.58845155,-2.29940307\H,0,-0.0360

 Normal termination of Gaussian 16 at Wed Apr  9 17:38:57 2025.
