 Gaussian 16, Revision C.01,

 ----------------------------------------------------------------------
 #t hf aug-cc-pvdz symm=none int=(grid=ultrafine) guess=(read,tcheck) s
 table=(opt,rrhf)
 ----------------------------------------------------------------------
 -----
 title
 -----
 Symbolic Z-matrix:
 Charge =  0 Multiplicity = 1

 SCF Done:  E(RHF) =  -460.091297453     A.U. after    9 cycles
 Normal termination of Gaussian 16 at Wed Apr  9 17:53:07 2025.
 Gaussian 16:  ES64L-G16RevC.01  3-Jul-2019

 ----------------------------------------------------------------------
 #t hf aug-cc-pvdz iop(5/13=1,5/36=2,99/5=2) pseudo=read geom=check gue
 ss=(read,tcheck) scf=(maxcycle=1)
 ----------------------------------------------------------------------
 -----
 title
 -----
 Structure from the checkpoint file:  "HB300SPXx10_1321_4.37_0.80_hydrogenchloride_dimethylsulfide_dimer_mol2.chk"
 Charge =  0 Multiplicity = 1

                         Standard orientation:
 ---------------------------------------------------------------------
 Center     Atomic      Atomic             Coordinates (Angstroms)
 Number     Number       Type             X           Y           Z
 ---------------------------------------------------------------------
      1          1           0       -0.000000   -0.000000   -1.250684
      2         17           0        0.000000    0.000000    0.073570
 ---------------------------------------------------------------------

 SCF Done:  E(RHF) =  -460.110212088     A.U. after    2 cycles

 The electronic state is 1-SG.
 Alpha  occ. eigenvalues -- -103.68000 -10.71137  -8.36882  -8.36571  -8.36571
 Alpha  occ. eigenvalues --   -1.15478  -0.62892  -0.48893  -0.48893
 Alpha virt. eigenvalues --    0.03354   0.12682   0.13872   0.13872   0.16244
 Alpha virt. eigenvalues --    0.21369   0.31192   0.31192   0.46196   0.46196
 Alpha virt. eigenvalues --    0.48239   0.57477   0.59905   0.59905   0.86820

 Mulliken charges:
               1
     1  H    0.160638
     2  Cl  -0.160638
 Sum of Mulliken charges =   0.00000

 Dipole moment (field-independent basis, Debye):
    X=             -0.0000    Y=              0.0000    Z=             -1.3003  Tot=              1.3003

 Test job not archived.
 1\1\GINC-SE226\SP\RHF\Aug-CC-pVDZ\Cl1H1\OHZDE\09-Apr-2025\0\\#t hf aug
 -cc-pvdz iop(5/13=1,5/36=2,99/5=2) pseudo=read geom=check guess=(read,
 tcheck) scf=(maxcycle=1)\\title\\0,1\H,0,-0.09169332,-0.01707414,-1.03
 147385\Cl,0,0.64323048,-0.44620369,-2.04605842\\Version=ES64L-G16RevC.
 01\State=1-SG\HF=-460.1102121\RMSD=3.185e-03\Dipole=-0.2839047,0.16577
 49,0.3919391\Quadrupole=-0.0759559,-0.6844109,0.7603668,-0.5390847,-1.
 2745499,0.7442228\PG=C*V [C*(H1Cl1)]\\@

 Normal termination of Gaussian 16 at Wed Apr  9 17:53:08 2025.
