 Gaussian 16, Revision C.01,

 ----------------------------------------------------------------------
 #t hf aug-cc-pvdz symm=none int=(grid=ultrafine) guess=(read,tcheck) s
 table=(opt,rrhf)
 ----------------------------------------------------------------------
 -----
 title
 -----
 Symbolic Z-matrix:
 Charge =  0 Multiplicity = 1

 SCF Done:  E(RHF) =  -513.762216615     A.U. after   12 cycles
 Normal termination of Gaussian 16 at Wed Apr  9 17:43:25 2025.
 Gaussian 16:  ES64L-G16RevC.01  3-Jul-2019

 ----------------------------------------------------------------------
 #t hf aug-cc-pvdz iop(5/13=1,5/36=2,99/5=2) pseudo=read geom=check gue
 ss=(read,tcheck) scf=(maxcycle=1)
 ----------------------------------------------------------------------
 -----
 title
 -----
 Structure from the checkpoint file:  "HB300SPXx10_1161_4.21_0.80_water_methanethiol_dimer_mol1.chk"
 Charge =  0 Multiplicity = 1

                         Standard orientation:
 ---------------------------------------------------------------------
 Center     Atomic      Atomic             Coordinates (Angstroms)
 Number     Number       Type             X           Y           Z
 ---------------------------------------------------------------------
      1          8           0       -1.988833    0.131285    0.054934
      2          1           0       -1.185460   -0.389362   -0.088470
      3          1           0       -2.703730   -0.399100   -0.303052
      4          1           0       -0.083010    1.543970    0.493813
      5          1           0        0.823298    1.498042   -1.022278
      6          1           0        1.704805    1.478539    0.511763
      7          1           0        0.722908   -0.908305    1.238867
      8          6           0        0.802447    1.148927    0.006380
      9         16           0        0.738573   -0.672977   -0.081775
 ---------------------------------------------------------------------

 SCF Done:  E(RHF) =  -513.823702047     A.U. after    2 cycles

 The electronic state is 1-A.
 Alpha  occ. eigenvalues --  -93.54608 -20.54675 -11.27130  -8.84509  -6.18668
 Alpha  occ. eigenvalues --   -6.18441  -6.18235  -1.28849  -1.03887  -0.87382
 Alpha  occ. eigenvalues --   -0.72037  -0.61748  -0.59575  -0.57665  -0.53837
 Alpha  occ. eigenvalues --   -0.50166  -0.46889  -0.37312
 Alpha virt. eigenvalues --    0.03526   0.04791   0.05144   0.06318   0.07316
 Alpha virt. eigenvalues --    0.09769   0.11092   0.11733   0.14363   0.14779
 Alpha virt. eigenvalues --    0.15859   0.17055   0.18082   0.21171   0.21551

 Mulliken charges:
               1
     1  O   -0.362817
     2  H    0.307325
     3  H    0.182842
     4  H   -0.110504
     5  H   -0.069803
     6  H   -0.109444
     7  H    0.135765
     8  C    0.169302
     9  S   -0.142667
 Sum of Mulliken charges =  -0.00000

 Dipole moment (field-independent basis, Debye):
    X=              0.8150    Y=             -0.2531    Z=              0.0177  Tot=              0.8536

 Test job not archived.
 1\1\GINC-SE174\SP\RHF\Aug-CC-pVDZ\C1H6O1S1\OHZDE\09-Apr-2025\0\\#t hf
 aug-cc-pvdz iop(5/13=1,5/36=2,99/5=2) pseudo=read geom=check guess=(re
 ad,tcheck) scf=(maxcycle=1)\\title\\0,1\O,0,-0.58582535,-1.65985485,-1
 .57348405\H,0,-0.07487288,-1.34797585,-0.81275631\H,0,-0.15829821,-2.4
 72369,-1.85201796\H,0,-1.27793922,0.59586339,-1.07032767\H,0,0.2217879
 4,1.52325106,-1.18349823\H,0,-0.94045503,1.91306705,0.09241267\H,0,-0.
 6407693,-0.45178123,1.32022005\C,0,-0.51209127,1.10899507,-0.4977387\S
 ,0,0.39819496,-0.06125881,0.56671815\\Version=ES64L-G16RevC.01\State=1

 Normal termination of Gaussian 16 at Wed Apr  9 17:43:27 2025.
