 Gaussian 16, Revision C.01,

 ----------------------------------------------------------------------
 #t hf aug-cc-pvdz symm=none int=(grid=ultrafine) guess=(read,tcheck) s
 table=(opt,rrhf)
 ----------------------------------------------------------------------
 -----
 title
 -----
 Symbolic Z-matrix:
 Charge =  0 Multiplicity = 1

 SCF Done:  E(RHF) =  -571.996679426     A.U. after   12 cycles
 Normal termination of Gaussian 16 at Wed Apr  9 17:30:31 2025.
 Gaussian 16:  ES64L-G16RevC.01  3-Jul-2019

 ----------------------------------------------------------------------
 #t hf aug-cc-pvdz iop(5/13=1,5/36=2,99/5=2) pseudo=read geom=check gue
 ss=(read,tcheck) scf=(maxcycle=1)
 ----------------------------------------------------------------------
 -----
 title
 -----
 Structure from the checkpoint file:  "HB300SPXx10_1075_4.11_1.00_methylamine_dimethylsulfide_dimer_mol1.chk"
 Charge =  0 Multiplicity = 1

                         Standard orientation:
 ---------------------------------------------------------------------
 Center     Atomic      Atomic             Coordinates (Angstroms)
 Number     Number       Type             X           Y           Z
 ---------------------------------------------------------------------
      1          7           0       -1.910987   -0.770581    0.153393
      2          1           0       -2.317063   -1.685833    0.013055
      3          1           0       -1.132658   -0.683348   -0.490805
      4          6           0       -2.899424    0.277661   -0.096535
      5          1           0       -2.436970    1.251419    0.062817
      6          1           0       -3.330000    0.275284   -1.104639
      7          1           0       -3.716704    0.186720    0.618382
      8          1           0        1.588668    1.615375    1.299155
      9          1           0       -0.076289    0.999549    1.120139
     10          1           0        0.520184    2.296153    0.062161
     11          1           0        1.990798   -2.051419   -0.173022
     12          1           0        0.757423   -1.497103    0.978863
     13          1           0        2.456191   -0.988881    1.164699
     14          6           0        0.792840    1.387037    0.592642
     15         16           0        1.356483    0.188498   -0.644117
     16          6           0        1.668182   -1.221335    0.450779
 ---------------------------------------------------------------------

 SCF Done:  E(RHF) =  -572.078037656     A.U. after    2 cycles

 The electronic state is 1-A.
 Alpha  occ. eigenvalues --  -93.52432 -15.59799 -11.25736 -11.25636 -11.25044
 Alpha  occ. eigenvalues --   -8.82175  -6.16322  -6.16114  -6.15843  -1.13420
 Alpha  occ. eigenvalues --   -1.04901  -0.94586  -0.88803  -0.79915  -0.66293
 Alpha  occ. eigenvalues --   -0.60452  -0.60251  -0.59991  -0.57688  -0.56469
 Alpha  occ. eigenvalues --   -0.55286  -0.51581  -0.49256  -0.43136  -0.38177
 Alpha  occ. eigenvalues --   -0.33487
 Alpha virt. eigenvalues --    0.03533   0.04210   0.04494   0.05046   0.06327
 Alpha virt. eigenvalues --    0.06521   0.07331   0.07954   0.09216   0.09267
 Alpha virt. eigenvalues --    0.10208   0.11738   0.13753   0.14212   0.15092

 Mulliken charges:
               1
     1  N   -0.366053
     2  H   -0.023162
     3  H    0.082017
     4  C    0.845498
     5  H   -0.209968
     6  H   -0.135768
     7  H   -0.170990
     8  H   -0.112978
     9  H   -0.158002
    10  H   -0.108874
    11  H   -0.101037
    12  H   -0.168889
    13  H   -0.086047
    14  C    0.275406
    15  S    0.211981
    16  C    0.226866
 Sum of Mulliken charges =   0.00000

 Dipole moment (field-independent basis, Debye):
    X=             -0.5325    Y=             -0.3474    Z=              0.5771  Tot=              0.8586

 Test job not archived.
 1\1\GINC-SE454\SP\RHF\Aug-CC-pVDZ\C3H11N1S1\OHZDE\09-Apr-2025\0\\#t hf
  aug-cc-pvdz iop(5/13=1,5/36=2,99/5=2) pseudo=read geom=check guess=(r
 ead,tcheck) scf=(maxcycle=1)\\title\\0,1\N,0,-1.19251098,0.46771599,1.
 69699571\H,0,-2.17204653,0.34511648,1.91553075\H,0,-1.12099987,0.60068
 208,0.69419832\C,0,-0.64549649,1.62445241,2.40482331\H,0,0.40921091,1.
 73255139,2.15309408\H,0,-1.13947726,2.57752576,2.18276464\H,0,-0.70604
 436,1.45678733,3.47978713\H,0,2.3591833,-0.98600217,-0.43028212\H,0,1.
 26164662,-0.32275079,0.81023443\H,0,2.19959111,0.76648545,-0.23384722\

 Normal termination of Gaussian 16 at Wed Apr  9 17:30:36 2025.
