 Gaussian 16, Revision C.01,

 ----------------------------------------------------------------------
 #t hf aug-cc-pvdz symm=none int=(grid=ultrafine) guess=(read,tcheck) s
 table=(opt,rrhf)
 ----------------------------------------------------------------------
 -----
 title
 -----
 Symbolic Z-matrix:
 Charge =  0 Multiplicity = 1

 SCF Done:  E(RHF) =  -936.857314216     A.U. after   11 cycles
 Normal termination of Gaussian 16 at Wed Apr  9 17:53:34 2025.
 Gaussian 16:  ES64L-G16RevC.01  3-Jul-2019

 ----------------------------------------------------------------------
 #t hf aug-cc-pvdz iop(5/13=1,5/36=2,99/5=2) pseudo=read geom=check gue
 ss=(read,tcheck) scf=(maxcycle=1)
 ----------------------------------------------------------------------
 -----
 title
 -----
 Structure from the checkpoint file:  "HB300SPXx10_1330_4.37_2.00_hydrogenchloride_dimethylsulfide_dimer_mol1.chk"
 Charge =  0 Multiplicity = 1

                         Standard orientation:
 ---------------------------------------------------------------------
 Center     Atomic      Atomic             Coordinates (Angstroms)
 Number     Number       Type             X           Y           Z
 ---------------------------------------------------------------------
      1          1           0       -2.425564   -0.000003   -0.399230
      2         17           0       -3.679164   -0.000001    0.027542
      3          1           0        1.110986   -1.354202    1.200256
      4          1           0        2.889885   -1.365705    1.052081
      5          1           0        1.893942   -2.299391   -0.078350
      6          1           0        1.893936    2.299392   -0.078351
      7          1           0        2.889878    1.365708    1.052084
      8          1           0        1.110978    1.354203    1.200253
      9          6           0        1.948961   -1.385386    0.507106
     10         16           0        1.862141    0.000000   -0.656389
     11          6           0        1.948956    1.385388    0.507105
 ---------------------------------------------------------------------

 SCF Done:  E(RHF) =  -936.926108048     A.U. after    2 cycles

 The electronic state is 1-A.
 Alpha  occ. eigenvalues -- -103.67647 -93.52981 -11.26635 -11.26618 -10.70785
 Alpha  occ. eigenvalues --   -8.82742  -8.36532  -8.36225  -8.36224  -6.16880
 Alpha  occ. eigenvalues --   -6.16669  -6.16332  -1.15138  -1.05609  -0.95533
 Alpha  occ. eigenvalues --   -0.80600  -0.62519  -0.61346  -0.61189  -0.58592
 Alpha  occ. eigenvalues --   -0.57582  -0.50104  -0.48577  -0.48573  -0.43679
 Alpha  occ. eigenvalues --   -0.34062
 Alpha virt. eigenvalues --    0.03216   0.04383   0.04701   0.05648   0.06803
 Alpha virt. eigenvalues --    0.07240   0.07787   0.09379   0.12150   0.12757
 Alpha virt. eigenvalues --    0.13694   0.13855   0.14779   0.16047   0.16307

 Mulliken charges:
               1
     1  H    0.154607
     2  Cl  -0.154838
     3  H   -0.084844
     4  H   -0.081890
     5  H   -0.107386
     6  H   -0.107385
     7  H   -0.081890
     8  H   -0.084843
     9  C    0.113852
    10  S    0.320766
    11  C    0.113850
 Sum of Mulliken charges =  -0.00000

 Dipole moment (field-independent basis, Debye):
    X=              1.5503    Y=             -0.0000    Z=              1.3711  Tot=              2.0696

 Test job not archived.
 1\1\GINC-SE340\SP\RHF\Aug-CC-pVDZ\C2H7Cl1S1\OHZDE\09-Apr-2025\0\\#t hf
  aug-cc-pvdz iop(5/13=1,5/36=2,99/5=2) pseudo=read geom=check guess=(r
 ead,tcheck) scf=(maxcycle=1)\\title\\0,1\H,0,-0.09169332,-0.01707414,-
 1.03147385\Cl,0,0.64323048,-0.44620369,-2.04605842\H,0,0.80382746,1.28
 299166,2.76421731\H,0,0.1518641,1.7194473,4.36765777\H,0,-0.08684223,2
 .79961881,2.98281335\H,0,-2.13952384,-1.30800438,3.23328309\H,0,-1.067
 30662,-0.72024756,4.51642024\H,0,-0.40507834,-1.13614993,2.9117235\C,0
 ,-0.01750885,1.76066349,3.29418821\S,0,-1.59117622,0.97020313,2.870753

 Normal termination of Gaussian 16 at Wed Apr  9 17:53:37 2025.
