 Gaussian 16, Revision C.01,

 ----------------------------------------------------------------------
 #t hf aug-cc-pvdz symm=none int=(grid=ultrafine) guess=(read,tcheck) s
 table=(opt,rrhf)
 ----------------------------------------------------------------------
 -----
 title
 -----
 Symbolic Z-matrix:
 Charge =  0 Multiplicity = 1

 SCF Done:  E(RHF) =  -977.995288356     A.U. after   12 cycles
 Normal termination of Gaussian 16 at Wed Apr  9 17:58:16 2025.
 Gaussian 16:  ES64L-G16RevC.01  3-Jul-2019

 ----------------------------------------------------------------------
 #t hf aug-cc-pvdz iop(5/13=1,5/36=2,99/5=2) pseudo=read geom=check gue
 ss=(read,tcheck) scf=(maxcycle=1)
 ----------------------------------------------------------------------
 -----
 title
 -----
 Structure from the checkpoint file:  "HB300SPXx10_1447_5.07_1.10_methanethiol_phosphineF2_dimer_mol1.chk"
 Charge =  0 Multiplicity = 1

                         Standard orientation:
 ---------------------------------------------------------------------
 Center     Atomic      Atomic             Coordinates (Angstroms)
 Number     Number       Type             X           Y           Z
 ---------------------------------------------------------------------
      1          1           0        1.676804    1.673643   -0.099055
      2          1           0        2.306248    0.911629   -1.566191
      3          1           0        3.410326    1.264151   -0.227981
      4          1           0        2.117917   -0.435773    1.440903
      5          6           0        2.399819    0.962053   -0.484890
      6         16           0        2.045778   -0.715479    0.130876
      7         15           0       -1.327458   -0.252760   -0.267502
      8          9           0       -1.010873    0.934157    0.764665
      9          9           0       -2.928476   -0.116374   -0.254752
     10          1           0       -1.276641   -1.306950    0.690948
 ---------------------------------------------------------------------

 SCF Done:  E(RHF) =  -978.140085145     A.U. after    2 cycles

 The electronic state is 1-A.
 Alpha  occ. eigenvalues --  -93.54634 -81.39155 -26.13641 -26.13103 -11.27594
 Alpha  occ. eigenvalues --   -8.84391  -7.87881  -6.18551  -6.18330  -6.18033
 Alpha  occ. eigenvalues --   -5.01993  -5.01722  -5.01225  -1.67083  -1.65481
 Alpha  occ. eigenvalues --   -1.03745  -0.89607  -0.87119  -0.79024  -0.77445
 Alpha  occ. eigenvalues --   -0.76659  -0.73358  -0.70677  -0.61975  -0.61538
 Alpha  occ. eigenvalues --   -0.60259  -0.53923  -0.46795  -0.40647  -0.36579
 Alpha virt. eigenvalues --    0.03465   0.04625   0.05124   0.06123   0.06795
 Alpha virt. eigenvalues --    0.08182   0.09495   0.10256   0.11572   0.12296
 Alpha virt. eigenvalues --    0.14604   0.15372   0.15814   0.15937   0.16565

 Mulliken charges:
               1
     1  H   -0.120287
     2  H   -0.069888
     3  H   -0.111705
     4  H    0.091522
     5  C    0.097047
     6  S    0.103650
     7  P    1.275540
     8  F   -0.620578
     9  F   -0.642273
    10  H   -0.003029
 Sum of Mulliken charges =  -0.00000

 Dipole moment (field-independent basis, Debye):
    X=              2.1244    Y=             -0.0495    Z=             -0.1530  Tot=              2.1305

 Test job not archived.
 1\1\GINC-SE029\SP\RHF\Aug-CC-pVDZ\C1H5F2P1S1\OHZDE\09-Apr-2025\0\\#t h
 f aug-cc-pvdz iop(5/13=1,5/36=2,99/5=2) pseudo=read geom=check guess=(
 read,tcheck) scf=(maxcycle=1)\\title\\0,1\H,0,-1.72434823,-0.02735536,
 -1.47402619\H,0,-1.29643549,-1.41515971,-2.4840979\H,0,-1.57230153,0.1
 6002765,-3.24353895\H,0,0.52779021,1.28305094,-1.94983564\C,0,-1.18500
 823,-0.34129171,-2.36202164\S,0,0.60124692,-0.03772908,-2.17289215\P,0
 ,0.52832942,-1.07483949,1.09369948\F,0,-0.50927512,0.14637323,1.173590
 2\F,0,0.60745046,-1.3823755,2.6688767\H,0,1.70637515,-0.27277318,1.055

 Normal termination of Gaussian 16 at Wed Apr  9 17:58:19 2025.
