 Gaussian 16, Revision C.01,

 ----------------------------------------------------------------------
 #t hf aug-cc-pvdz symm=none int=(grid=ultrafine) guess=(read,tcheck) s
 table=(opt,rrhf)
 ----------------------------------------------------------------------
 -----
 title
 -----
 Symbolic Z-matrix:
 Charge =  0 Multiplicity = 1

 SCF Done:  E(RHF) =  -952.363513632     A.U. after   13 cycles

 1\1\GINC-SE226\Stability\RHF\Aug-CC-pVDZ\C4H10S2\OHZDE\09-Apr-2025\0\\
 #t hf aug-cc-pvdz symm=none int=(grid=ultrafine) guess=(read,tcheck) s
 table=(opt,rrhf)\\title\\0,1\H,0,1.25927999,1.11406487,-0.28265552\H,0
 ,2.28279017,2.73418341,-0.67577847\S,0,1.07110419,2.4516331,-0.1764195
 4\H,0,0.35084184,0.44495166,1.77692132\H,0,0.26102308,-1.29826206,2.05
 793002\H,0,-2.04195953,0.05651692,1.8689224\H,0,-1.05937219,-1.2666541
 6,-1.68657566\H,0,-1.89458001,-1.46170895,0.98661582\H,0,-0.35512451,0
 .31914798,-2.03009945\H,0,-2.66740598,0.21253996,-0.65626113\H,0,-1.41

 Normal termination of Gaussian 16 at Wed Apr  9 17:50:43 2025.
 Gaussian 16:  ES64L-G16RevC.01  3-Jul-2019

 ----------------------------------------------------------------------
 #t hf aug-cc-pvdz iop(5/13=1,5/36=2,99/5=2) pseudo=read geom=check gue
 ss=(read,tcheck) scf=(maxcycle=1)
 ----------------------------------------------------------------------
 -----
 title
 -----
 Structure from the checkpoint file:  "HB300SPXx10_1231_4.28_0.80_sulfane_tetrahydrothiophene_dimer_mol1.chk"
 Charge =  0 Multiplicity = 1

                         Standard orientation:
 ---------------------------------------------------------------------
 Center     Atomic      Atomic             Coordinates (Angstroms)
 Number     Number       Type             X           Y           Z
 ---------------------------------------------------------------------
      1          1           0        1.363428    0.573289    0.009091
      2          1           0        3.316378    0.506272    0.100735
      3         16           0        2.328678   -0.363006   -0.156525
      4          1           0       -0.016434    0.011459   -1.806165
      5          1           0       -1.528689    0.917061   -1.943255
      6          1           0       -1.687109   -1.710627   -1.448244
      7          1           0       -1.648043    0.217333    1.963394
      8          1           0       -2.698876   -0.622659   -0.500695
      9          1           0        0.090306   -0.093437    2.064910
     10          1           0       -1.509648   -2.045833    1.130171
     11          1           0        0.022466   -1.732328    0.326753
     12         16           0       -0.450076    1.328940    0.180021
     13          6           0       -0.919599    0.312004   -1.277405
     14          6           0       -1.666674   -0.897882   -0.722074
     15          6           0       -0.949764   -1.300268    0.565730
     16          6           0       -0.757535   -0.026431    1.388311
 ---------------------------------------------------------------------

 SCF Done:  E(RHF) =  -952.451995975     A.U. after    2 cycles

 The electronic state is 1-A.
 Alpha  occ. eigenvalues --  -93.53002 -93.51311 -11.27090 -11.27069 -11.24796
 Alpha  occ. eigenvalues --  -11.24587  -8.82890  -8.81289  -6.17004  -6.16852
 Alpha  occ. eigenvalues --   -6.16649  -6.15513  -6.15280  -6.14937  -1.12592
 Alpha  occ. eigenvalues --   -0.99005  -0.97458  -0.94195  -0.80276  -0.79140
 Alpha  occ. eigenvalues --   -0.67237  -0.64967  -0.61237  -0.58690  -0.54382
 Alpha  occ. eigenvalues --   -0.51622  -0.50295  -0.49463  -0.48730  -0.47355
 Alpha  occ. eigenvalues --   -0.43201  -0.35936  -0.33427
 Alpha virt. eigenvalues --    0.03303   0.04472   0.04691   0.04893   0.06184
 Alpha virt. eigenvalues --    0.06640   0.07239   0.07949   0.08096   0.09178
 Alpha virt. eigenvalues --    0.12041   0.12829   0.12874   0.14257   0.14434

 Mulliken charges:
               1
     1  H    0.165763
     2  H   -0.074691
     3  S    0.003907
     4  H   -0.212405
     5  H   -0.070251
     6  H   -0.084893
     7  H   -0.137321
     8  H   -0.146999
     9  H   -0.125491
    10  H   -0.061831
    11  H   -0.220553
    12  S    0.164810
    13  C    0.193234
    14  C    0.185662
    15  C    0.226624
    16  C    0.194437
 Sum of Mulliken charges =   0.00000

 Dipole moment (field-independent basis, Debye):
    X=             -1.8870    Y=             -0.6374    Z=              0.1495  Tot=              1.9974

 Test job not archived.
 1\1\GINC-SE226\SP\RHF\Aug-CC-pVDZ\C4H10S2\OHZDE\09-Apr-2025\0\\#t hf a
 ug-cc-pvdz iop(5/13=1,5/36=2,99/5=2) pseudo=read geom=check guess=(rea
 d,tcheck) scf=(maxcycle=1)\\title\\0,1\H,0,1.25927999,1.11406487,-0.28
 265552\H,0,2.28279017,2.73418341,-0.67577847\S,0,1.07110419,2.4516331,
 -0.17641954\H,0,0.35084184,0.44495166,1.77692132\H,0,0.26102308,-1.298
 26206,2.05793002\H,0,-2.04195953,0.05651692,1.8689224\H,0,-1.05937219,
 -1.26665416,-1.68657566\H,0,-1.89458001,-1.46170895,0.98661582\H,0,-0.
 35512451,0.31914798,-2.03009945\H,0,-2.66740598,0.21253996,-0.65626113

 Normal termination of Gaussian 16 at Wed Apr  9 17:50:49 2025.
