 Gaussian 16, Revision C.01,

 ----------------------------------------------------------------------
 #t hf aug-cc-pvdz symm=none int=(grid=ultrafine) guess=(read,tcheck) s
 table=(opt,rrhf)
 ----------------------------------------------------------------------
 -----
 title
 -----
 Symbolic Z-matrix:
 Charge =  0 Multiplicity = 1

 SCF Done:  E(RHF) =  -989.356911297     A.U. after   13 cycles
 Normal termination of Gaussian 16 at Wed Apr  9 17:41:51 2025.
 Gaussian 16:  ES64L-G16RevC.01  3-Jul-2019

 ----------------------------------------------------------------------
 #t hf aug-cc-pvdz iop(5/13=1,5/36=2,99/5=2) pseudo=read geom=check gue
 ss=(read,tcheck) scf=(maxcycle=1)
 ----------------------------------------------------------------------
 -----
 title
 -----
 Structure from the checkpoint file:  "HB300SPXx10_1142_4.19_0.85_methanol_dimethyldisulfide_dimer_mol1.chk"
 Charge =  0 Multiplicity = 1

                         Standard orientation:
 ---------------------------------------------------------------------
 Center     Atomic      Atomic             Coordinates (Angstroms)
 Number     Number       Type             X           Y           Z
 ---------------------------------------------------------------------
      1          8           0        2.550783    0.118334   -0.139409
      2          1           0        1.737420    0.334743   -0.611180
      3          6           0        2.486143   -1.243630    0.254123
      4          1           0        3.394181   -1.460612    0.812550
      5          1           0        1.625773   -1.443859    0.899126
      6          1           0        2.440278   -1.917320   -0.606313
      7          1           0       -3.152848   -1.573678    0.573138
      8          1           0       -3.209237   -0.301841   -0.666827
      9          1           0       -2.886394    0.116596    1.037603
     10          1           0        0.857417    1.303971    1.387402
     11          1           0       -0.811642    1.952233    1.414515
     12          1           0        0.458231    2.787487    0.498513
     13          6           0       -2.732039   -0.620812    0.254935
     14         16           0       -0.957641   -0.920370   -0.018728
     15         16           0       -0.286324    0.892253   -0.705967
     16          6           0        0.086563    1.815354    0.819585
 ---------------------------------------------------------------------

 SCF Done:  E(RHF) =  -989.466367757     A.U. after    2 cycles

 The electronic state is 1-A.
 Alpha  occ. eigenvalues --  -93.56568 -93.56291 -20.54411 -11.27750 -11.27259
 Alpha  occ. eigenvalues --  -11.26568  -8.86244  -8.85939  -6.20393  -6.20111
 Alpha  occ. eigenvalues --   -6.20054  -6.19916  -6.19810  -6.19478  -1.29744
 Alpha  occ. eigenvalues --   -1.08260  -1.01071  -0.91006  -0.90892  -0.78824
 Alpha  occ. eigenvalues --   -0.69209  -0.62138  -0.61990  -0.60906  -0.59456
 Alpha  occ. eigenvalues --   -0.59128  -0.58495  -0.53951  -0.50309  -0.49327
 Alpha  occ. eigenvalues --   -0.44809  -0.44308  -0.37019  -0.35901
 Alpha virt. eigenvalues --    0.03202   0.04352   0.04844   0.05255   0.06115
 Alpha virt. eigenvalues --    0.06566   0.07081   0.08093   0.08229   0.09140
 Alpha virt. eigenvalues --    0.10056   0.11202   0.13121   0.13525   0.13997

 Mulliken charges:
               1
     1  O   -0.528806
     2  H    0.315252
     3  C    0.962694
     4  H   -0.215345
     5  H   -0.187760
     6  H   -0.167081
     7  H   -0.075398
     8  H   -0.030677
     9  H   -0.089485
    10  H   -0.132550
    11  H   -0.117492
    12  H   -0.065744
    13  C    0.014635
    14  S    0.239044
    15  S   -0.205555
    16  C    0.284268
 Sum of Mulliken charges =  -0.00000

 Dipole moment (field-independent basis, Debye):
    X=             -3.2697    Y=              0.0820    Z=              1.3872  Tot=              3.5527

 Test job not archived.
 1\1\GINC-SE229\SP\RHF\Aug-CC-pVDZ\C3H10O1S2\OHZDE\09-Apr-2025\0\\#t hf
  aug-cc-pvdz iop(5/13=1,5/36=2,99/5=2) pseudo=read geom=check guess=(r
 ead,tcheck) scf=(maxcycle=1)\\title\\0,1\O,0,-0.42925951,1.22968046,-2
 .50380826\H,0,-0.36156068,1.36890772,-1.5514469\C,0,-1.37991091,0.2017
 0921,-2.7351714\H,0,-1.41855104,0.0350798,-3.80950666\H,0,-1.09677682,
 -0.73598734,-2.24842974\H,0,-2.37984798,0.48334645,-2.39294418\H,0,-0.
 65843428,-2.48792519,2.18969002\H,0,-0.19300165,-0.9171447,2.87837261\
 H,0,0.97383384,-1.8555446,1.90765076\H,0,1.60158624,0.00784358,-1.5102

 Normal termination of Gaussian 16 at Wed Apr  9 17:41:57 2025.
