 Gaussian 16, Revision C.01,

 ----------------------------------------------------------------------
 #t hf aug-cc-pvdz symm=none int=(grid=ultrafine) guess=(read,tcheck) s
 table=(opt,rrhf)
 ----------------------------------------------------------------------
 -----
 title
 -----
 Symbolic Z-matrix:
 Charge =  0 Multiplicity = 1

 SCF Done:  E(RHF) =  -742.482616792     A.U. after   14 cycles
 Normal termination of Gaussian 16 at Wed Apr  9 17:41:04 2025.
 Gaussian 16:  ES64L-G16RevC.01  3-Jul-2019

 ----------------------------------------------------------------------
 #t hf aug-cc-pvdz iop(5/13=1,5/36=2,99/5=2) pseudo=read geom=check gue
 ss=(read,tcheck) scf=(maxcycle=1)
 ----------------------------------------------------------------------
 -----
 title
 -----
 Structure from the checkpoint file:  "HB300SPXx10_1139_4.17_1.50_aceticacid_thioacetone_dimer_mol1.chk"
 Charge =  0 Multiplicity = 1

                         Standard orientation:
 ---------------------------------------------------------------------
 Center     Atomic      Atomic             Coordinates (Angstroms)
 Number     Number       Type             X           Y           Z
 ---------------------------------------------------------------------
      1          6           0        2.716617   -1.523272    0.000000
      2          8           0        2.804723   -0.318267    0.000000
      3          8           0        1.549829   -2.179302    0.000000
      4          1           0        0.803250   -1.537931    0.000000
      5          6           0        3.888471   -2.466303    0.000000
      6          1           0        4.814628   -1.902482    0.000000
      7          1           0        3.842514   -3.110637    0.876954
      8          1           0        3.842514   -3.110637   -0.876954
      9          1           0       -4.293931    1.912185    0.000000
     10          1           0       -3.345962    3.136296    0.874412
     11          1           0       -3.345962    3.136296   -0.874412
     12          1           0       -0.000000    1.629738    0.000000
     13          1           0       -0.792303    2.961809   -0.872921
     14          6           0       -3.370634    2.481273    0.000000
     15          6           0       -2.162555    1.596061    0.000000
     16         16           0       -2.306948   -0.028434    0.000000
     17          6           0       -0.848180    2.305417    0.000000
     18          1           0       -0.792303    2.961809    0.872921
 ---------------------------------------------------------------------

 SCF Done:  E(RHF) =  -742.613889454     A.U. after    2 cycles

 The electronic state is 1-A'.
 Alpha  occ. eigenvalues --  -93.51252 -20.62098 -20.55807 -11.39704 -11.33727
 Alpha  occ. eigenvalues --  -11.25506 -11.25272 -11.25062  -8.81175  -6.15350
 Alpha  occ. eigenvalues --   -6.14974  -6.14748  -1.42036  -1.32067  -1.11532
 Alpha  occ. eigenvalues --   -1.01820  -0.96867  -0.94403  -0.83455  -0.72264
 Alpha  occ. eigenvalues --   -0.71244  -0.68833  -0.65862  -0.62179  -0.61653
 Alpha  occ. eigenvalues --   -0.61409  -0.58815  -0.57292  -0.56366  -0.56354
 Alpha  occ. eigenvalues --   -0.53729  -0.49797  -0.49496  -0.46631  -0.38530
 Alpha  occ. eigenvalues --   -0.33769
 Alpha virt. eigenvalues --    0.03127   0.03935   0.04270   0.05203   0.05996
 Alpha virt. eigenvalues --    0.06084   0.06532   0.06820   0.07561   0.07808
 Alpha virt. eigenvalues --    0.09076   0.09748   0.11388   0.12172   0.12644

 Mulliken charges:
               1
     1  C    0.316969
     2  O   -0.447881
     3  O   -0.443811
     4  H    0.182058
     5  C    0.351948
     6  H   -0.022088
     7  H    0.031167
     8  H    0.031167
     9  H   -0.073023
    10  H    0.046565
    11  H    0.046565
    12  H   -0.203509
    13  H    0.074223
    14  C    0.322189
    15  C   -0.756642
    16  S    0.073815
    17  C    0.396063
    18  H    0.074223
 Sum of Mulliken charges =  -0.00000

 Dipole moment (field-independent basis, Debye):
    X=             -0.1832    Y=              1.4269    Z=             -0.0000  Tot=              1.4386

 Test job not archived.
 1\1\GINC-SE454\SP\RHF\Aug-CC-pVDZ\C5H10O2S1\OHZDE\09-Apr-2025\0\\#t hf
  aug-cc-pvdz iop(5/13=1,5/36=2,99/5=2) pseudo=read geom=check guess=(r
 ead,tcheck) scf=(maxcycle=1)\\title\\0,1\C,0,0.15920132,2.45664609,0.\
 O,0,1.21885316,1.87618237,0.\O,0,-1.02533188,1.83322707,0.\H,0,-0.8922
 641,0.85801947,0.\C,0,0.00380934,3.95277518,0.\H,0,0.98023034,4.424223
 4,0.\H,0,-0.56217465,4.2641268,-0.87695442\H,0,-0.56217465,4.2641268,0
 .87695442\H,0,-0.76362275,-5.29567931,0.\H,0,0.77906737,-5.16452249,-0
 .87441231\H,0,0.77906737,-5.16452249,0.87441231\H,0,1.33126862,-1.5368

 Normal termination of Gaussian 16 at Wed Apr  9 17:41:10 2025.
