 Gaussian 16, Revision C.01,

 ----------------------------------------------------------------------
 #t hf aug-cc-pvdz symm=none int=(grid=ultrafine) guess=(read,tcheck) s
 table=(opt,rrhf)
 ----------------------------------------------------------------------
 -----
 title
 -----
 Symbolic Z-matrix:
 Charge =  0 Multiplicity = 1

 SCF Done:  E(RHF) =  -645.423496581     A.U. after   14 cycles
 Normal termination of Gaussian 16 at Wed Apr  9 17:51:36 2025.
 Gaussian 16:  ES64L-G16RevC.01  3-Jul-2019

 ----------------------------------------------------------------------
 #t hf aug-cc-pvdz iop(5/13=1,5/36=2,99/5=2) pseudo=read geom=check gue
 ss=(read,tcheck) scf=(maxcycle=1)
 ----------------------------------------------------------------------
 -----
 title
 -----
 Structure from the checkpoint file:  "HB300SPXx10_124_1.13_0.95_sulfane_pyridine_dimer_mol1.chk"
 Charge =  0 Multiplicity = 1

                         Standard orientation:
 ---------------------------------------------------------------------
 Center     Atomic      Atomic             Coordinates (Angstroms)
 Number     Number       Type             X           Y           Z
 ---------------------------------------------------------------------
      1          1           0        1.967435   -0.305745   -0.026964
      2          1           0        3.423543   -0.040017    1.252459
      3         16           0        3.285502    0.011898   -0.080171
      4          1           0       -3.014035   -1.819422   -0.002954
      5          1           0       -0.575235   -2.292580   -0.001042
      6          6           0       -2.719217    0.316552    0.000219
      7          6           0       -2.302123   -1.007235   -0.000813
      8          6           0       -0.939161   -1.272822    0.000420
      9          7           0       -0.012181   -0.315645    0.002830
     10          6           0       -0.419624    0.953117    0.003613
     11          6           0       -1.759330    1.318660    0.002429
     12          1           0        0.361853    1.703089    0.004445
     13          1           0       -2.037841    2.362126    0.002813
     14          1           0       -3.771762    0.562054   -0.001049
 ---------------------------------------------------------------------

 SCF Done:  E(RHF) =  -645.517066543     A.U. after    2 cycles

 The electronic state is 1-A.
 Alpha  occ. eigenvalues --  -93.51358 -15.64415 -11.29772 -11.29632 -11.27962
 Alpha  occ. eigenvalues --  -11.26152 -11.26118  -8.81194  -6.15394  -6.15182
 Alpha  occ. eigenvalues --   -6.14831  -1.24798  -1.09110  -1.04284  -0.93719
 Alpha  occ. eigenvalues --   -0.87109  -0.86912  -0.73981  -0.67953  -0.66623
 Alpha  occ. eigenvalues --   -0.61577  -0.60060  -0.55907  -0.55408  -0.53542
 Alpha  occ. eigenvalues --   -0.47632  -0.41406  -0.39840  -0.36220  -0.35397
 Alpha virt. eigenvalues --    0.02726   0.03625   0.04227   0.05732   0.06036
 Alpha virt. eigenvalues --    0.07098   0.07985   0.08896   0.09452   0.10814
 Alpha virt. eigenvalues --    0.11350   0.12168   0.13031   0.13504   0.13844

 Mulliken charges:
               1
     1  H    0.033057
     2  H    0.019560
     3  S   -0.012176
     4  H   -0.419504
     5  H   -0.384154
     6  C   -0.163496
     7  C    0.803992
     8  C    0.510438
     9  N   -0.434631
    10  C    0.531623
    11  C    0.779459
    12  H   -0.447572
    13  H   -0.418223
    14  H   -0.398374
 Sum of Mulliken charges =  -0.00000

 Dipole moment (field-independent basis, Debye):
    X=             -4.1956    Y=              0.2011    Z=              0.7520  Tot=              4.2672

 Test job not archived.
 1\1\GINC-SE232\SP\RHF\Aug-CC-pVDZ\C5H7N1S1\OHZDE\09-Apr-2025\0\\#t hf
 aug-cc-pvdz iop(5/13=1,5/36=2,99/5=2) pseudo=read geom=check guess=(re
 ad,tcheck) scf=(maxcycle=1)\\title\\0,1\H,0,1.25021154,1.5960457,0.136
 91261\H,0,3.15091491,1.84193998,0.53016902\S,0,2.02337536,2.53859467,0
 .73260516\H,0,-1.80132776,-1.77931778,-2.39327674\H,0,-0.26294541,0.17
 03328,-2.33109368\C,0,-1.67404671,-2.09723794,-0.26441777\C,0,-1.37744
 669,-1.45026133,-1.45598418\C,0,-0.51753684,-0.36047743,-1.42237162\N,
 0,0.03689502,0.09347231,-0.29897477\C,0,-0.25233976,-0.5322589,0.84145

 Normal termination of Gaussian 16 at Wed Apr  9 17:51:41 2025.
