 Gaussian 16, Revision C.01,

 ----------------------------------------------------------------------
 #t hf aug-cc-pvdz symm=none int=(grid=ultrafine) guess=(read,tcheck) s
 table=(opt,rrhf)
 ----------------------------------------------------------------------
 -----
 title
 -----
 Symbolic Z-matrix:
 Charge =  0 Multiplicity = 1

 SCF Done:  E(RHF) =  -1091.85156264     A.U. after   14 cycles
 Normal termination of Gaussian 16 at Wed Apr  9 17:56:06 2025.
 Gaussian 16:  ES64L-G16RevC.01  3-Jul-2019

 ----------------------------------------------------------------------
 #t hf aug-cc-pvdz iop(5/13=1,5/36=2,99/5=2) pseudo=read geom=check gue
 ss=(read,tcheck) scf=(maxcycle=1)
 ----------------------------------------------------------------------
 -----
 title
 -----
 Structure from the checkpoint file:  "HB300SPXx10_1404_5.03_0.95_dimethylsulfoxide_phosphineF2_dimer_mol1.chk"
 Charge =  0 Multiplicity = 1

                         Standard orientation:
 ---------------------------------------------------------------------
 Center     Atomic      Atomic             Coordinates (Angstroms)
 Number     Number       Type             X           Y           Z
 ---------------------------------------------------------------------
      1          1           0        2.013983    1.676014   -1.461941
      2          1           0        2.824615    1.764865    0.120377
      3          1           0        1.030730    1.819990    0.020461
      4          1           0        1.541529   -1.590564    1.682941
      5          1           0        0.822253    0.039507    1.785540
      6          6           0        1.941637    1.413299   -0.409995
      7         16           0        1.883959   -0.395310   -0.328884
      8          8           0        0.586350   -0.813785   -0.945858
      9          6           0        1.687040   -0.535731    1.466612
     10          1           0        2.596135   -0.180518    1.947964
     11         15           0       -1.753837   -0.371772   -0.097452
     12          9           0       -3.290486    0.096110    0.072034
     13          9           0       -1.094780    0.970588    0.518614
     14          1           0       -1.660484    0.016841   -1.460088
 ---------------------------------------------------------------------

 SCF Done:  E(RHF) =  -1092.05248450     A.U. after    2 cycles

 The electronic state is 1-A.
 Alpha  occ. eigenvalues --  -93.67089 -81.36700 -26.12086 -26.10345 -20.53769
 Alpha  occ. eigenvalues --  -11.28211 -11.28067  -8.95561  -7.85368  -6.29869
 Alpha  occ. eigenvalues --   -6.29649  -6.29349  -4.99458  -4.99223  -4.98691
 Alpha  occ. eigenvalues --   -1.65264  -1.62977  -1.32641  -1.06761  -0.98402
 Alpha  occ. eigenvalues --   -0.87617  -0.83041  -0.76981  -0.75604  -0.74903
 Alpha  occ. eigenvalues --   -0.71218  -0.68944  -0.65289  -0.64968  -0.64140
 Alpha  occ. eigenvalues --   -0.61489  -0.59955  -0.56591  -0.56349  -0.54570
 Alpha  occ. eigenvalues --   -0.45965  -0.40033  -0.37024
 Alpha virt. eigenvalues --    0.02788   0.04180   0.04989   0.05635   0.06711
 Alpha virt. eigenvalues --    0.06905   0.07744   0.08634   0.09372   0.10637
 Alpha virt. eigenvalues --    0.12205   0.12928   0.13112   0.14527   0.15166

 Mulliken charges:
               1
     1  H   -0.047605
     2  H   -0.053263
     3  H   -0.061880
     4  H   -0.038751
     5  H   -0.082578
     6  C    0.226268
     7  S    1.018531
     8  O   -1.050060
     9  C    0.203108
    10  H   -0.051560
    11  P    1.267377
    12  F   -0.662599
    13  F   -0.693020
    14  H    0.026032
 Sum of Mulliken charges =  -0.00000

 Dipole moment (field-independent basis, Debye):
    X=              4.9955    Y=              1.0668    Z=              1.3619  Tot=              5.2866

 Test job not archived.
 1\1\GINC-SE114\SP\RHF\Aug-CC-pVDZ\C2H7F2O1P1S1\OHZDE\09-Apr-2025\0\\#t
  hf aug-cc-pvdz iop(5/13=1,5/36=2,99/5=2) pseudo=read geom=check guess
 =(read,tcheck) scf=(maxcycle=1)\\title\\0,1\H,0,1.67395499,0.82417178,
 -3.38423362\H,0,0.49124302,-0.02078366,-4.41184902\H,0,0.89589517,-0.6
 6534236,-2.78340018\H,0,-2.718683,0.46280377,-2.2188292\H,0,-1.5421980
 9,-0.87905323,-2.20106353\C,0,0.76564588,0.22768029,-3.38836814\S,0,-0
 .5351395,1.25679703,-2.66046249\O,0,-0.17783951,1.44910918,-1.22000404
 \C,0,-1.85989706,0.022286,-2.71790313\H,0,-2.10168806,-0.18449539,-3.7

 Normal termination of Gaussian 16 at Wed Apr  9 17:56:11 2025.
