 Gaussian 16, Revision C.01,

 ----------------------------------------------------------------------
 #t hf aug-cc-pvdz symm=none int=(grid=ultrafine) guess=(read,tcheck) s
 table=(opt,rrhf)
 ----------------------------------------------------------------------
 -----
 title
 -----
 Symbolic Z-matrix:
 Charge =  0 Multiplicity = 1

 SCF Done:  E(RHF) =  -875.444656447     A.U. after   12 cycles
 Normal termination of Gaussian 16 at Wed Apr  9 17:46:13 2025.
 Gaussian 16:  ES64L-G16RevC.01  3-Jul-2019

 ----------------------------------------------------------------------
 #t hf aug-cc-pvdz iop(5/13=1,5/36=2,99/5=2) pseudo=read geom=check gue
 ss=(read,tcheck) scf=(maxcycle=1)
 ----------------------------------------------------------------------
 -----
 title
 -----
 Structure from the checkpoint file:  "HB300SPXx10_1191_4.24_0.80_methanethiol_methanethiol_dimer_mol1.chk"
 Charge =  0 Multiplicity = 1

                         Standard orientation:
 ---------------------------------------------------------------------
 Center     Atomic      Atomic             Coordinates (Angstroms)
 Number     Number       Type             X           Y           Z
 ---------------------------------------------------------------------
      1          1           0       -0.848886    0.920540    1.381592
      2          1           0       -2.603558    0.861214    1.188411
      3          1           0       -1.637032    1.822067    0.063214
      4          1           0       -0.389828   -0.283418   -0.967488
      5          6           0       -1.657809    0.911913    0.655519
      6         16           0       -1.579535   -0.565237   -0.407157
      7          1           0        1.959210   -0.463322    1.764779
      8          1           0        2.035696   -1.688261    0.493708
      9          1           0        0.458707   -1.086754    1.014670
     10          1           0        1.006120    1.430407    0.159132
     11          6           0        1.496690   -0.813167    0.846928
     12         16           0        1.641178    0.433677   -0.474887
 ---------------------------------------------------------------------

 SCF Done:  E(RHF) =  -875.514312228     A.U. after    2 cycles

 The electronic state is 1-A.
 Alpha  occ. eigenvalues --  -93.54397 -93.51873 -11.27003 -11.26799  -8.84199
 Alpha  occ. eigenvalues --   -8.81743  -6.18360  -6.18140  -6.17894  -6.15904
 Alpha  occ. eigenvalues --   -6.15714  -6.15410  -1.04341  -1.01866  -0.87132
 Alpha  occ. eigenvalues --   -0.85830  -0.62998  -0.61324  -0.60203  -0.58051
 Alpha  occ. eigenvalues --   -0.53941  -0.52495  -0.46630  -0.45648  -0.35760
 Alpha  occ. eigenvalues --   -0.34659
 Alpha virt. eigenvalues --    0.03330   0.04435   0.05126   0.05331   0.07240
 Alpha virt. eigenvalues --    0.07451   0.07673   0.08800   0.10586   0.12807
 Alpha virt. eigenvalues --    0.13128   0.13484   0.14852   0.14910   0.15385

 Mulliken charges:
               1
     1  H   -0.185381
     2  H   -0.147508
     3  H   -0.100962
     4  H    0.205119
     5  C    0.182000
     6  S    0.091160
     7  H   -0.091129
     8  H   -0.107142
     9  H   -0.177770
    10  H    0.100319
    11  C    0.223584
    12  S    0.007709
 Sum of Mulliken charges =   0.00000

 Dipole moment (field-independent basis, Debye):
    X=              0.6003    Y=              0.8290    Z=              1.9202  Tot=              2.1759

 Test job not archived.
 1\1\GINC-SE219\SP\RHF\Aug-CC-pVDZ\C2H8S2\OHZDE\09-Apr-2025\0\\#t hf au
 g-cc-pvdz iop(5/13=1,5/36=2,99/5=2) pseudo=read geom=check guess=(read
 ,tcheck) scf=(maxcycle=1)\\title\\0,1\H,0,1.48841111,-0.83932977,-0.94
 699875\H,0,2.60301323,-1.84400864,-0.01533608\H,0,2.55978836,-0.100175
 65,0.26866848\H,0,0.07877426,-0.11956038,1.21477831\C,0,1.95766928,-0.
 9705586,0.02469451\S,0,0.71991769,-1.29709475,1.32035013\H,0,-1.377691
 29,-0.17833774,-2.08535597\H,0,-2.44759054,-0.24600009,-0.68083224\H,0
 ,-0.89993182,-1.09553869,-0.62476327\H,0,0.50865787,1.21547032,-0.8316

 Normal termination of Gaussian 16 at Wed Apr  9 17:46:17 2025.
