 Gaussian 16, Revision C.01,

 ----------------------------------------------------------------------
 #t hf aug-cc-pvdz symm=none int=(grid=ultrafine) guess=(read,tcheck) s
 table=(opt,rrhf)
 ----------------------------------------------------------------------
 -----
 title
 -----
 Symbolic Z-matrix:
 Charge =  0 Multiplicity = 1

 SCF Done:  E(RHF) =  -3015.76250838     A.U. after   14 cycles
 Normal termination of Gaussian 16 at Wed Apr  9 04:10:28 2025.
 Gaussian 16:  ES64L-G16RevC.01  3-Jul-2019

 ----------------------------------------------------------------------
 #t hf aug-cc-pvdz iop(5/13=1,5/36=2,99/5=2) pseudo=read geom=check gue
 ss=(read,tcheck) scf=(maxcycle=1)
 ----------------------------------------------------------------------
 -----
 title
 -----
 Structure from the checkpoint file:  "HB300SPXx10_1344_4.39_0.95_hydrogenchloride_P4S3_dimer_mol1.chk"
 Charge =  0 Multiplicity = 1

                         Standard orientation:
 ---------------------------------------------------------------------
 Center     Atomic      Atomic             Coordinates (Angstroms)
 Number     Number       Type             X           Y           Z
 ---------------------------------------------------------------------
      1          1           0       -2.543851   -0.483477   -0.515884
      2         17           0       -3.612533    0.006807    0.016589
      3         16           0       -0.437335   -0.717050   -1.546575
      4         15           0       -0.165867    1.325119   -1.068206
      5         16           0       -0.207828   -0.728363    1.679374
      6         16           0        2.467872   -0.666236   -0.145572
      7         15           0        1.859320    1.353060   -0.084992
      8         15           0       -0.006939    1.309795    1.176922
      9         15           0        0.633057   -1.711031    0.005492
 ---------------------------------------------------------------------

 SCF Done:  E(RHF) =  -3015.90604788     A.U. after    2 cycles

 The electronic state is 1-A.
 Alpha  occ. eigenvalues -- -103.66146 -93.58463 -93.57911 -93.57869 -81.36513
 Alpha  occ. eigenvalues --  -81.32635 -81.32562 -81.32528 -10.69434  -8.88350
 Alpha  occ. eigenvalues --   -8.87846  -8.87798  -8.35191  -8.34888  -8.34884
 Alpha  occ. eigenvalues --   -7.86268  -7.82807  -7.82731  -7.82702  -6.22417
 Alpha  occ. eigenvalues --   -6.22190  -6.21973  -6.21910  -6.21860  -6.21685
 Alpha  occ. eigenvalues --   -6.21622  -6.21372  -6.21333  -4.99957  -4.99951
 Alpha  occ. eigenvalues --   -4.99744  -4.96612  -4.96495  -4.96450  -4.96292
 Alpha  occ. eigenvalues --   -4.96265  -4.96213  -4.96192  -4.96162  -4.96152
 Alpha  occ. eigenvalues --   -1.14822  -1.07138  -0.98085  -0.97841  -0.89751
 Alpha  occ. eigenvalues --   -0.72649  -0.68859  -0.68811  -0.63192  -0.55287
 Alpha  occ. eigenvalues --   -0.54881  -0.54522  -0.47970  -0.47814  -0.45809
 Alpha  occ. eigenvalues --   -0.44004  -0.43926  -0.42681  -0.42403  -0.39200
 Alpha  occ. eigenvalues --   -0.38033  -0.34790  -0.34676
 Alpha virt. eigenvalues --    0.02740   0.05192   0.05356   0.05569   0.05823
 Alpha virt. eigenvalues --    0.06134   0.06233   0.07342   0.07486   0.08618
 Alpha virt. eigenvalues --    0.09787   0.09906   0.10490   0.10654   0.10790

 Mulliken charges:
               1
     1  H    0.221580
     2  Cl  -0.126890
     3  S   -0.423850
     4  P    0.223269
     5  S   -0.269238
     6  S   -0.256338
     7  P    0.189337
     8  P    0.229288
     9  P    0.212842
 Sum of Mulliken charges =   0.00000

 Dipole moment (field-independent basis, Debye):
    X=              1.8102    Y=              0.2528    Z=             -0.2554  Tot=              1.8455

 Test job not archived.
 1\1\GINC-SE207\SP\RHF\Aug-CC-pVDZ\Cl1H1P4S3\OHZDE\09-Apr-2025\0\\#t hf
  aug-cc-pvdz iop(5/13=1,5/36=2,99/5=2) pseudo=read geom=check guess=(r
 ead,tcheck) scf=(maxcycle=1)\\title\\0,1\H,0,-0.57388532,0.23171594,-0
 .00983813\Cl,0,-1.31085335,0.72448843,-0.94794305\S,0,0.82935649,-0.00
 876286,1.8682912\P,0,0.3223346,2.00024352,2.29233181\S,0,-2.29864467,-
 0.18015704,2.67189486\S,0,-0.02454863,-0.10272521,4.97757359\P,0,-0.27
 907411,1.92695803,4.46069737\P,0,-1.85445667,1.87354219,2.8505608\P,0,
 -0.4605042,-1.10400213,3.16419184\\Version=ES64L-G16RevC.01\State=1-A\

 Normal termination of Gaussian 16 at Wed Apr  9 04:10:34 2025.
