 Gaussian 16, Revision C.01,

 ----------------------------------------------------------------------
 #t hf aug-cc-pvdz symm=none int=(grid=ultrafine) guess=(read,tcheck) s
 table=(opt,rrhf)
 ----------------------------------------------------------------------
 -----
 title
 -----
 Symbolic Z-matrix:
 Charge =  0 Multiplicity = 1

 SCF Done:  E(RHF) =  -936.857857515     A.U. after   12 cycles
 Normal termination of Gaussian 16 at Wed Apr  9 17:53:37 2025.
 Gaussian 16:  ES64L-G16RevC.01  3-Jul-2019

 ----------------------------------------------------------------------
 #t hf aug-cc-pvdz iop(5/13=1,5/36=2,99/5=2) pseudo=read geom=check gue
 ss=(read,tcheck) scf=(maxcycle=1)
 ----------------------------------------------------------------------
 -----
 title
 -----
 Structure from the checkpoint file:  "HB300SPXx10_1324_4.37_0.95_hydrogenchloride_dimethylsulfide_dimer_mol1.chk"
 Charge =  0 Multiplicity = 1

                         Standard orientation:
 ---------------------------------------------------------------------
 Center     Atomic      Atomic             Coordinates (Angstroms)
 Number     Number       Type             X           Y           Z
 ---------------------------------------------------------------------
      1          1           0       -0.975293   -0.000003   -0.442785
      2         17           0       -2.207770   -0.000002    0.041619
      3          1           0        0.389208   -1.354202    1.230276
      4          1           0        2.159330   -1.365703    0.999826
      5          1           0        1.112074   -2.299390   -0.083238
      6          1           0        1.112063    2.299393   -0.083240
      7          1           0        2.159320    1.365710    0.999829
      8          1           0        0.389197    1.354203    1.230273
      9          6           0        1.194163   -1.385386    0.499039
     10         16           0        1.053518    0.000001   -0.659183
     11          6           0        1.194155    1.385388    0.499038
 ---------------------------------------------------------------------

 SCF Done:  E(RHF) =  -936.925711653     A.U. after    2 cycles

 The electronic state is 1-A.
 Alpha  occ. eigenvalues -- -103.63819 -93.55197 -11.27743 -11.27725 -10.67141
 Alpha  occ. eigenvalues --   -8.84998  -8.32875  -8.32608  -8.32606  -6.19131
 Alpha  occ. eigenvalues --   -6.18923  -6.18741  -1.12597  -1.07280  -0.96731
 Alpha  occ. eigenvalues --   -0.82516  -0.64355  -0.62372  -0.59800  -0.59083
 Alpha  occ. eigenvalues --   -0.58723  -0.51542  -0.45876  -0.45812  -0.45423
 Alpha  occ. eigenvalues --   -0.36218
 Alpha virt. eigenvalues --    0.03245   0.04297   0.05181   0.05942   0.07025
 Alpha virt. eigenvalues --    0.07770   0.08071   0.09665   0.12456   0.12824
 Alpha virt. eigenvalues --    0.14960   0.15155   0.15667   0.16166   0.16642

 Mulliken charges:
               1
     1  H    0.355430
     2  Cl  -0.249690
     3  H   -0.153169
     4  H   -0.076759
     5  H   -0.089037
     6  H   -0.089036
     7  H   -0.076759
     8  H   -0.153168
     9  C    0.250603
    10  S    0.030982
    11  C    0.250602
 Sum of Mulliken charges =  -0.00000

 Dipole moment (field-independent basis, Debye):
    X=              3.0225    Y=              0.0000    Z=              1.2062  Tot=              3.2542

 Test job not archived.
 1\1\GINC-SE030\SP\RHF\Aug-CC-pVDZ\C2H7Cl1S1\OHZDE\09-Apr-2025\0\\#t hf
  aug-cc-pvdz iop(5/13=1,5/36=2,99/5=2) pseudo=read geom=check guess=(r
 ead,tcheck) scf=(maxcycle=1)\\title\\0,1\H,0,-0.09169332,-0.01707414,-
 1.03147385\Cl,0,0.64323048,-0.44620369,-2.04605842\H,0,1.59105598,0.76
 467109,0.71554786\H,0,0.93909262,1.20112673,2.31898832\H,0,0.70038629,
 2.28129824,0.9341439\H,0,-1.35229532,-1.82632494,1.18461364\H,0,-0.280
 0781,-1.23856813,2.46775079\H,0,0.38215018,-1.65447049,0.86305405\C,0,
 0.76971967,1.24234292,1.24551876\S,0,-0.8039477,0.45188257,0.82208423\

 Normal termination of Gaussian 16 at Wed Apr  9 17:53:41 2025.
