 Gaussian 16, Revision C.01,

 ----------------------------------------------------------------------
 #t hf aug-cc-pvdz symm=none int=(grid=ultrafine) guess=(read,tcheck) s
 table=(opt,rrhf)
 ----------------------------------------------------------------------
 -----
 title
 -----
 Symbolic Z-matrix:
 Charge =  0 Multiplicity = 1

 SCF Done:  E(RHF) =  -914.477722401     A.U. after   12 cycles

 1\1\GINC-SE226\Stability\RHF\Aug-CC-pVDZ\C3H10S2\OHZDE\09-Apr-2025\0\\
 #t hf aug-cc-pvdz symm=none int=(grid=ultrafine) guess=(read,tcheck) s
 table=(opt,rrhf)\\title\\0,1\H,0,2.306559,-2.0578968,-0.64952301\H,0,3
 .32031438,-1.47471252,0.67641305\H,0,2.52307119,-0.31083024,-0.3888258
 5\H,0,0.07002633,-1.01993654,0.36023035\C,0,2.42249764,-1.27751778,0.0
 9684023\S,0,1.02865784,-1.2837739,1.27093846\H,0,0.94391804,1.18954033
 ,0.31985728\H,0,0.03110929,2.46818142,-0.52346361\H,0,1.04597435,1.348
 54953,-1.44580142\H,0,-2.76178699,-0.05225924,0.71209749\H,0,-2.237853

 Normal termination of Gaussian 16 at Wed Apr  9 17:45:28 2025.
 Gaussian 16:  ES64L-G16RevC.01  3-Jul-2019

 ----------------------------------------------------------------------
 #t hf aug-cc-pvdz iop(5/13=1,5/36=2,99/5=2) pseudo=read geom=check gue
 ss=(read,tcheck) scf=(maxcycle=1)
 ----------------------------------------------------------------------
 -----
 title
 -----
 Structure from the checkpoint file:  "HB300SPXx10_1181_4.23_0.80_methanethiol_dimethylsulfide_dimer_mol1.chk"
 Charge =  0 Multiplicity = 1

                         Standard orientation:
 ---------------------------------------------------------------------
 Center     Atomic      Atomic             Coordinates (Angstroms)
 Number     Number       Type             X           Y           Z
 ---------------------------------------------------------------------
      1          1           0        2.541194    0.871493   -1.282917
      2          1           0        3.373072    0.701033    0.267835
      3          1           0        1.835524    1.570186    0.193883
      4          1           0        0.439104   -0.578624   -0.523035
      5          6           0        2.399995    0.736521   -0.214584
      6         16           0        1.580398   -0.851962    0.140825
      7          1           0       -0.064946    0.889404    1.276390
      8          1           0       -1.701446    1.587510    1.394073
      9          1           0       -0.513562    2.295047    0.288380
     10          1           0       -2.268303   -1.895686   -0.401901
     11          1           0       -2.753361   -0.898054    0.979023
     12          1           0       -1.097458   -1.546485    0.883890
     13          6           0       -0.873026    1.366014    0.724062
     14         16           0       -1.415474    0.306131   -0.640384
     15          6           0       -1.931736   -1.146289    0.310074
 ---------------------------------------------------------------------

 SCF Done:  E(RHF) =  -914.561439063     A.U. after    2 cycles

 The electronic state is 1-A.
 Alpha  occ. eigenvalues --  -93.53665 -93.50919 -11.26765 -11.26513 -11.25954
 Alpha  occ. eigenvalues --   -8.83477  -8.80830  -6.17624  -6.17405  -6.17208
 Alpha  occ. eigenvalues --   -6.14998  -6.14809  -6.14504  -1.06535  -1.01449
 Alpha  occ. eigenvalues --   -0.95719  -0.85255  -0.81217  -0.63346  -0.61494
 Alpha  occ. eigenvalues --   -0.59411  -0.59076  -0.58716  -0.56739  -0.51711
 Alpha  occ. eigenvalues --   -0.50424  -0.45204  -0.44172  -0.34082  -0.33621
 Alpha virt. eigenvalues --    0.03505   0.04186   0.04883   0.05377   0.06416
 Alpha virt. eigenvalues --    0.06940   0.06991   0.07980   0.08985   0.10141
 Alpha virt. eigenvalues --    0.10602   0.13094   0.13498   0.14568   0.14773

 Mulliken charges:
               1
     1  H   -0.126690
     2  H   -0.088705
     3  H   -0.224857
     4  H    0.310716
     5  C    0.168414
     6  S    0.050347
     7  H   -0.143582
     8  H   -0.183779
     9  H   -0.061466
    10  H   -0.101850
    11  H   -0.081736
    12  H   -0.217894
    13  C    0.350528
    14  S    0.057904
    15  C    0.292649
 Sum of Mulliken charges =  -0.00000

 Dipole moment (field-independent basis, Debye):
    X=             -0.8469    Y=              1.3280    Z=              0.9404  Tot=              1.8345

 Test job not archived.
 1\1\GINC-SE226\SP\RHF\Aug-CC-pVDZ\C3H10S2\OHZDE\09-Apr-2025\0\\#t hf a
 ug-cc-pvdz iop(5/13=1,5/36=2,99/5=2) pseudo=read geom=check guess=(rea
 d,tcheck) scf=(maxcycle=1)\\title\\0,1\H,0,2.306559,-2.0578968,-0.6495
 2301\H,0,3.32031438,-1.47471252,0.67641305\H,0,2.52307119,-0.31083024,
 -0.38882585\H,0,0.07002633,-1.01993654,0.36023035\C,0,2.42249764,-1.27
 751778,0.09684023\S,0,1.02865784,-1.2837739,1.27093846\H,0,0.94391804,
 1.18954033,0.31985728\H,0,0.03110929,2.46818142,-0.52346361\H,0,1.0459
 7435,1.34854953,-1.44580142\H,0,-2.76178699,-0.05225924,0.71209749\H,0

 Normal termination of Gaussian 16 at Wed Apr  9 17:45:33 2025.
