 Gaussian 16, Revision C.01,

 ----------------------------------------------------------------------
 #t hf aug-cc-pvdz symm=none int=(grid=ultrafine) guess=(read,tcheck) s
 table=(opt,rrhf)
 ----------------------------------------------------------------------
 -----
 title
 -----
 Symbolic Z-matrix:
 Charge =  0 Multiplicity = 1

 SCF Done:  E(RHF) =  -858.785443579     A.U. after   11 cycles

 1\1\GINC-SE021\Stability\RHF\Aug-CC-pVDZ\Cl1H3S1\OHZDE\09-Apr-2025\0\\
 #t hf aug-cc-pvdz symm=none int=(grid=ultrafine) guess=(read,tcheck) s
 table=(opt,rrhf)\\title\\0,1\H,0,-0.07574771,0.51696812,0.\Cl,0,0.0020
 5903,1.81286821,0.\H,0,0.86735225,-1.57172316,0.97032462\H,0,0.8673522
 5,-1.57172316,-0.97032462\S,0,-0.05789486,-1.51820773,0.\\Version=ES64
 L-G16RevC.01\HF=-858.7854436\RMSD=4.240e-09\Dipole=0.4310912,-1.044959
 4,0.\Quadrupole=0.743469,-2.4361643,1.6926952,-1.5645112,0.,0.\PG=Unkn
 own\\@

 Normal termination of Gaussian 16 at Wed Apr  9 04:10:20 2025.
 Gaussian 16:  ES64L-G16RevC.01  3-Jul-2019

 ----------------------------------------------------------------------
 #t hf aug-cc-pvdz iop(5/13=1,5/36=2,99/5=2) pseudo=read geom=check gue
 ss=(read,tcheck) scf=(maxcycle=1)
 ----------------------------------------------------------------------
 -----
 title
 -----
 Structure from the checkpoint file:  "HB300SPXx10_1352_4.40_0.85_hydrogenchloride_sulfane_dimer_mol1.chk"
 Charge =  0 Multiplicity = 1

                         Standard orientation:
 ---------------------------------------------------------------------
 Center     Atomic      Atomic             Coordinates (Angstroms)
 Number     Number       Type             X           Y           Z
 ---------------------------------------------------------------------
      1          1           0       -0.104408    0.406795    0.000000
      2         17           0       -0.049935    1.703886    0.000000
      3          1           0        0.876126   -1.664586    0.970325
      4          1           0        0.876126   -1.664586   -0.970325
      5         16           0       -0.049935   -1.627730   -0.000000
 ---------------------------------------------------------------------

 SCF Done:  E(RHF) =  -858.826176873     A.U. after    2 cycles

 The electronic state is 1-A'.
 Alpha  occ. eigenvalues -- -103.64200 -93.57853 -10.67577  -8.87718  -8.33320
 Alpha  occ. eigenvalues --   -8.33032  -8.33031  -6.21873  -6.21691  -6.21417
 Alpha  occ. eigenvalues --   -1.13364  -1.00284  -0.62646  -0.61814  -0.52563
 Alpha  occ. eigenvalues --   -0.46287  -0.46253  -0.40965
 Alpha virt. eigenvalues --    0.02878   0.05756   0.06866   0.10105   0.10286
 Alpha virt. eigenvalues --    0.12285   0.15742   0.15815   0.16436   0.17011
 Alpha virt. eigenvalues --    0.18892   0.22732   0.24724   0.26389   0.26572

 Mulliken charges:
               1
     1  H    0.267004
     2  Cl  -0.191533
     3  H    0.082107
     4  H    0.082107
     5  S   -0.239686
 Sum of Mulliken charges =  -0.00000

 Dipole moment (field-independent basis, Debye):
    X=              1.0828    Y=             -2.6836    Z=             -0.0000  Tot=              2.8938

 Test job not archived.
 1\1\GINC-SE021\SP\RHF\Aug-CC-pVDZ\Cl1H3S1\OHZDE\09-Apr-2025\0\\#t hf a
 ug-cc-pvdz iop(5/13=1,5/36=2,99/5=2) pseudo=read geom=check guess=(rea
 d,tcheck) scf=(maxcycle=1)\\title\\0,1\H,0,-0.07574771,0.51696812,0.\C
 l,0,0.00205903,1.81286821,0.\H,0,0.86735225,-1.57172316,0.97032462\H,0
 ,0.86735225,-1.57172316,-0.97032462\S,0,-0.05789486,-1.51820773,0.\\Ve
 rsion=ES64L-G16RevC.01\State=1-A'\HF=-858.8261769\RMSD=8.038e-03\Dipol
 e=0.4069402,-1.0633066,0.\Quadrupole=0.5512549,-2.0906182,1.5393633,-1
 .5321179,0.,0.\PG=CS [SG(Cl1H1S1),X(H2)]\\@

 Normal termination of Gaussian 16 at Wed Apr  9 04:10:21 2025.
