 Gaussian 16, Revision C.01,

 ----------------------------------------------------------------------
 #t hf aug-cc-pvdz symm=none int=(grid=ultrafine) guess=(read,tcheck) s
 table=(opt,rrhf)
 ----------------------------------------------------------------------
 -----
 title
 -----
 Symbolic Z-matrix:
 Charge =  0 Multiplicity = 1

 SCF Done:  E(RHF) =  -704.620716328     A.U. after   13 cycles
 Normal termination of Gaussian 16 at Wed Apr  9 17:39:44 2025.
 Gaussian 16:  ES64L-G16RevC.01  3-Jul-2019

 ----------------------------------------------------------------------
 #t hf aug-cc-pvdz iop(5/13=1,5/36=2,99/5=2) pseudo=read geom=check gue
 ss=(read,tcheck) scf=(maxcycle=1)
 ----------------------------------------------------------------------
 -----
 title
 -----
 Structure from the checkpoint file:  "HB300SPXx10_1125_4.16_1.00_aceticacid_dimethylsulfide_dimer_mol1.chk"
 Charge =  0 Multiplicity = 1

                         Standard orientation:
 ---------------------------------------------------------------------
 Center     Atomic      Atomic             Coordinates (Angstroms)
 Number     Number       Type             X           Y           Z
 ---------------------------------------------------------------------
      1          6           0        0.267541    1.843012    0.000000
      2          8           0       -0.867853    1.426098    0.000000
      3          8           0        1.344375    1.049229    0.000000
      4          1           0        1.055271    0.102850    0.000000
      5          6           0        0.641847    3.299630    0.000000
      6          1           0       -0.254079    3.910346    0.000000
      7          1           0        1.247848    3.524007    0.876781
      8          1           0        1.247848    3.524007   -0.876781
      9          1           0       -1.656450   -2.441957    1.379195
     10          1           0       -1.291059   -0.693614    1.315483
     11          1           0       -0.291333   -1.787898    2.299403
     12          1           0       -0.291333   -1.787898   -2.299403
     13          1           0       -1.291059   -0.693614   -1.315483
     14          1           0       -1.656450   -2.441957   -1.379195
     15          6           0       -0.867853   -1.692717    1.382643
     16         16           0        0.270408   -1.972508   -0.000000
     17          6           0       -0.867853   -1.692717   -1.382643
 ---------------------------------------------------------------------

 SCF Done:  E(RHF) =  -704.744455143     A.U. after    2 cycles

 The electronic state is 1-A'.
 Alpha  occ. eigenvalues --  -93.53533 -20.60602 -20.55591 -11.39469 -11.26056
 Alpha  occ. eigenvalues --  -11.26040 -11.24861  -8.83305  -6.17451  -6.17255
 Alpha  occ. eigenvalues --   -6.17041  -1.41355  -1.31576  -1.05712  -1.01551
 Alpha  occ. eigenvalues --   -0.95062  -0.82942  -0.80442  -0.71166  -0.68613
 Alpha  occ. eigenvalues --   -0.65388  -0.61278  -0.60819  -0.58206  -0.58156
 Alpha  occ. eigenvalues --   -0.57089  -0.56969  -0.55839  -0.49907  -0.49147
 Alpha  occ. eigenvalues --   -0.46537  -0.43876  -0.35086
 Alpha virt. eigenvalues --    0.03483   0.04381   0.04549   0.05413   0.06110
 Alpha virt. eigenvalues --    0.06330   0.07274   0.07495   0.08114   0.08954
 Alpha virt. eigenvalues --    0.10954   0.11462   0.13444   0.14497   0.14907

 Mulliken charges:
               1
     1  C    0.265035
     2  O   -0.500631
     3  O   -0.461194
     4  H    0.287981
     5  C    0.417054
     6  H   -0.033026
     7  H    0.041834
     8  H    0.041834
     9  H   -0.097630
    10  H   -0.129407
    11  H   -0.094872
    12  H   -0.094872
    13  H   -0.129407
    14  H   -0.097630
    15  C    0.260815
    16  S    0.063301
    17  C    0.260815
 Sum of Mulliken charges =  -0.00000

 Dipole moment (field-independent basis, Debye):
    X=             -0.1506    Y=              0.5199    Z=             -0.0000  Tot=              0.5412

 Test job not archived.
 1\1\GINC-SE135\SP\RHF\Aug-CC-pVDZ\C4H10O2S1\OHZDE\09-Apr-2025\0\\#t hf
  aug-cc-pvdz iop(5/13=1,5/36=2,99/5=2) pseudo=read geom=check guess=(r
 ead,tcheck) scf=(maxcycle=1)\\title\\0,1\C,0,0.08152563,1.86646531,0.\
 O,0,1.12794826,1.25988757,0.\O,0,-1.11612638,1.27040068,0.\H,0,-0.9946
 6015,0.28833063,0.\C,0,-0.03582077,3.36582142,0.\H,0,0.95204799,3.8127
 8193,0.\H,0,-0.5940149,3.69140047,-0.87678098\H,0,-0.5940149,3.6914004
 7,0.87678098\H,0,1.23726894,-2.68622206,-1.37919498\H,0,1.17904238,-0.
 90105407,-1.31548339\H,0,0.00548843,-1.80641742,-2.29940307\H,0,0.0054

 Normal termination of Gaussian 16 at Wed Apr  9 17:39:49 2025.
