 Gaussian 16, Revision C.01,

 ----------------------------------------------------------------------
 #t hf aug-cc-pvdz symm=none int=(grid=ultrafine) guess=(read,tcheck) s
 table=(opt,rrhf)
 ----------------------------------------------------------------------
 -----
 title
 -----
 Symbolic Z-matrix:
 Charge =  0 Multiplicity = 1

 SCF Done:  E(RHF) =  -418.180204019     A.U. after   14 cycles
 Normal termination of Gaussian 16 at Wed Apr  9 17:22:00 2025.
 Gaussian 16:  ES64L-G16RevC.01  3-Jul-2019

 ----------------------------------------------------------------------
 #t hf aug-cc-pvdz iop(5/13=1,5/36=2,99/5=2) pseudo=read geom=check gue
 ss=(read,tcheck) scf=(maxcycle=1)
 ----------------------------------------------------------------------
 -----
 title
 -----
 Structure from the checkpoint file:  "HB300SPXx10_1031_4.07_0.80_phosphaalkyne_methanethiol_dimer_mol2.chk"
 Charge =  0 Multiplicity = 1

                         Standard orientation:
 ---------------------------------------------------------------------
 Center     Atomic      Atomic             Coordinates (Angstroms)
 Number     Number       Type             X           Y           Z
 ---------------------------------------------------------------------
      1          1           0        2.141404   -0.797341   -0.632927
      2          1           0        2.142304   -0.141456    1.006640
      3          1           0        2.121633    0.955882   -0.378845
      4         15           0       -1.244556    0.000954   -0.000465
      5          6           0        0.295816   -0.006326    0.003125
      6          6           0        1.748018    0.001094   -0.001109
 ---------------------------------------------------------------------

 SCF Done:  E(RHF) =  -418.221820102     A.U. after    2 cycles

 The electronic state is 1-A.
 Alpha  occ. eigenvalues --  -81.24274 -11.28568 -11.26586  -7.75160  -4.89153
 Alpha  occ. eigenvalues --   -4.88613  -4.88612  -1.04157  -0.87809  -0.65005
 Alpha  occ. eigenvalues --   -0.60133  -0.60045  -0.45944  -0.35718  -0.35701
 Alpha virt. eigenvalues --    0.03175   0.05545   0.05552   0.06644   0.07698
 Alpha virt. eigenvalues --    0.07714   0.08592   0.14153   0.14175   0.15447
 Alpha virt. eigenvalues --    0.15468   0.15625   0.16544   0.18720   0.18732

 Mulliken charges:
               1
     1  H    0.036192
     2  H    0.034637
     3  H    0.043361
     4  P   -0.197211
     5  C   -0.420816
     6  C    0.503837
 Sum of Mulliken charges =  -0.00000

 Dipole moment (field-independent basis, Debye):
    X=              1.1387    Y=              0.0175    Z=             -0.0074  Tot=              1.1389

 Test job not archived.
 1\1\GINC-SE226\SP\RHF\Aug-CC-pVDZ\C2H3P1\OHZDE\09-Apr-2025\0\\#t hf au
 g-cc-pvdz iop(5/13=1,5/36=2,99/5=2) pseudo=read geom=check guess=(read
 ,tcheck) scf=(maxcycle=1)\\title\\0,1\H,0,0.38933231,2.34404549,-1.681
 80664\H,0,-1.19987448,1.75919838,-2.18254684\H,0,0.10218747,0.60583491
 ,-1.86864837\P,0,-1.17058474,1.34195856,1.32892267\C,0,-0.7484701,1.45
 533882,-0.14816129\C,0,-0.34350289,1.5476729,-1.53972175\\Version=ES64
 L-G16RevC.01\State=1-A\HF=-418.2218201\RMSD=1.745e-02\Dipole=0.1263692
 ,0.0238549,-0.4292195\Quadrupole=-0.8817953,-1.1042472,1.9860425,0.069

 Normal termination of Gaussian 16 at Wed Apr  9 17:22:02 2025.
