 Gaussian 16, Revision C.01,

 ----------------------------------------------------------------------
 #t hf aug-cc-pvdz symm=none int=(grid=ultrafine) guess=(read,tcheck) s
 table=(opt,rrhf)
 ----------------------------------------------------------------------
 -----
 title
 -----
 Symbolic Z-matrix:
 Charge =  0 Multiplicity = 1

 SCF Done:  E(RHF) =  -783.967659822     A.U. after   15 cycles
 Normal termination of Gaussian 16 at Wed Apr  9 18:00:27 2025.
 Gaussian 16:  ES64L-G16RevC.01  3-Jul-2019

 ----------------------------------------------------------------------
 #t hf aug-cc-pvdz iop(5/13=1,5/36=2,99/5=2) pseudo=read geom=check gue
 ss=(read,tcheck) scf=(maxcycle=1)
 ----------------------------------------------------------------------
 -----
 title
 -----
 Structure from the checkpoint file:  "HB300SPXx10_1470_5.09_2.00_nitromethane_phosphineF2_dimer_mol1.chk"
 Charge =  0 Multiplicity = 1

                         Standard orientation:
 ---------------------------------------------------------------------
 Center     Atomic      Atomic             Coordinates (Angstroms)
 Number     Number       Type             X           Y           Z
 ---------------------------------------------------------------------
      1          1           0       -3.100846    1.834174    0.019299
      2          1           0       -4.292513    1.110105   -1.086998
      3          1           0       -4.582899    1.093987    0.695677
      4          6           0       -3.849861    1.055851   -0.099642
      5          7           0       -3.114059   -0.239787    0.002841
      6          8           0       -3.126088   -0.816968    1.071483
      7          8           0       -2.513527   -0.614146   -0.993767
      8         15           0        2.885801   -0.284904   -0.387470
      9          9           0        4.259418    0.039780    0.365328
     10          9           0        1.989516    0.884969    0.258609
     11          1           0        2.463350   -1.295148    0.524881
 ---------------------------------------------------------------------

 SCF Done:  E(RHF) =  -784.155393678     A.U. after    2 cycles

 The electronic state is 1-A.
 Alpha  occ. eigenvalues --  -81.39955 -26.14191 -26.13943 -20.62809 -20.62286
 Alpha  occ. eigenvalues --  -15.92203 -11.32466  -7.88703  -5.02820  -5.02533
 Alpha  occ. eigenvalues --   -5.02053  -1.67700  -1.66167  -1.56003  -1.37526
 Alpha  occ. eigenvalues --   -1.09650  -0.90222  -0.86857  -0.79658  -0.78040
 Alpha  occ. eigenvalues --   -0.77206  -0.76803  -0.75120  -0.74889  -0.74014
 Alpha  occ. eigenvalues --   -0.71306  -0.63631  -0.62070  -0.60952  -0.51981
 Alpha  occ. eigenvalues --   -0.51570  -0.48109  -0.41023
 Alpha virt. eigenvalues --    0.02692   0.04455   0.05039   0.05175   0.06846
 Alpha virt. eigenvalues --    0.07147   0.08398   0.09359   0.09507   0.13557
 Alpha virt. eigenvalues --    0.14079   0.14289   0.14615   0.15885   0.16083

 Mulliken charges:
               1
     1  H   -0.007429
     2  H   -0.052439
     3  H   -0.081623
     4  C    0.845035
     5  N    0.407585
     6  O   -0.544028
     7  O   -0.566945
     8  P    1.219564
     9  F   -0.602977
    10  F   -0.614651
    11  H   -0.002092
 Sum of Mulliken charges =   0.00000

 Dipole moment (field-independent basis, Debye):
    X=             -2.8390    Y=              1.8641    Z=             -0.9457  Tot=              3.5255

 Test job not archived.
 1\1\GINC-SE045\SP\RHF\Aug-CC-pVDZ\C1H4F2N1O2P1\OHZDE\09-Apr-2025\0\\#t
  hf aug-cc-pvdz iop(5/13=1,5/36=2,99/5=2) pseudo=read geom=check guess
 =(read,tcheck) scf=(maxcycle=1)\\title\\0,1\H,0,0.49481138,0.55069733,
 -2.50359179\H,0,-1.08891031,0.71291216,-3.29967626\H,0,-0.00441746,2.1
 4812453,-3.13671373\C,0,-0.34098337,1.21704881,-2.69950341\N,0,-0.9468
 7558,1.51662809,-1.36768821\O,0,-0.63929751,2.55888018,-0.82511637\O,0
 ,-1.68734525,0.66720154,-0.89420145\P,0,0.53758662,-1.84379635,3.39220
 852\F,0,1.66605941,-2.16644282,4.47912934\F,0,1.50560019,-1.46508191,2

 Normal termination of Gaussian 16 at Wed Apr  9 18:00:32 2025.
