 Gaussian 16, Revision C.01,

 ----------------------------------------------------------------------
 #t hf aug-cc-pvdz symm=none int=(grid=ultrafine) guess=(read,tcheck) s
 table=(opt,rrhf)
 ----------------------------------------------------------------------
 -----
 title
 -----
 Symbolic Z-matrix:
 Charge =  0 Multiplicity = 1

 SCF Done:  E(RHF) =  -977.992220627     A.U. after   13 cycles
 Normal termination of Gaussian 16 at Wed Apr  9 17:58:16 2025.
 Gaussian 16:  ES64L-G16RevC.01  3-Jul-2019

 ----------------------------------------------------------------------
 #t hf aug-cc-pvdz iop(5/13=1,5/36=2,99/5=2) pseudo=read geom=check gue
 ss=(read,tcheck) scf=(maxcycle=1)
 ----------------------------------------------------------------------
 -----
 title
 -----
 Structure from the checkpoint file:  "HB300SPXx10_1444_5.07_0.95_methanethiol_phosphineF2_dimer_mol1.chk"
 Charge =  0 Multiplicity = 1

                         Standard orientation:
 ---------------------------------------------------------------------
 Center     Atomic      Atomic             Coordinates (Angstroms)
 Number     Number       Type             X           Y           Z
 ---------------------------------------------------------------------
      1          1           0        1.425463    1.654070   -0.067387
      2          1           0        2.022837    0.921361   -1.562591
      3          1           0        3.163337    1.290558   -0.259893
      4          1           0        1.973320   -0.456614    1.436127
      5          6           0        2.152548    0.964753   -0.484721
      6         16           0        1.862926   -0.726656    0.126738
      7         15           0       -1.173284   -0.236346   -0.280077
      8          9           0       -0.851417    0.949297    0.751921
      9          9           0       -2.775850   -0.141410   -0.210861
     10          1           0       -1.062411   -1.297191    0.665884
 ---------------------------------------------------------------------

 SCF Done:  E(RHF) =  -978.136902770     A.U. after    2 cycles

 The electronic state is 1-A.
 Alpha  occ. eigenvalues --  -93.54980 -81.38766 -26.13469 -26.12602 -11.27693
 Alpha  occ. eigenvalues --   -8.84764  -7.87482  -6.18924  -6.18701  -6.18431
 Alpha  occ. eigenvalues --   -5.01601  -5.01329  -5.00822  -1.66891  -1.65145
 Alpha  occ. eigenvalues --   -1.04107  -0.89417  -0.87405  -0.78807  -0.77208
 Alpha  occ. eigenvalues --   -0.76511  -0.73066  -0.70496  -0.62379  -0.61452
 Alpha  occ. eigenvalues --   -0.60070  -0.54196  -0.47099  -0.40611  -0.36748
 Alpha virt. eigenvalues --    0.03462   0.04618   0.05134   0.06181   0.06936
 Alpha virt. eigenvalues --    0.08297   0.09742   0.10248   0.11530   0.12605
 Alpha virt. eigenvalues --    0.14302   0.15424   0.15861   0.16201   0.16615

 Mulliken charges:
               1
     1  H   -0.121584
     2  H   -0.071286
     3  H   -0.128028
     4  H    0.107224
     5  C    0.143108
     6  S    0.056518
     7  P    1.267304
     8  F   -0.627059
     9  F   -0.645433
    10  H    0.019236
 Sum of Mulliken charges =   0.00000

 Dipole moment (field-independent basis, Debye):
    X=              2.3466    Y=             -0.0338    Z=             -0.1377  Tot=              2.3509

 Test job not archived.
 1\1\GINC-SE103\SP\RHF\Aug-CC-pVDZ\C1H5F2P1S1\OHZDE\09-Apr-2025\0\\#t h
 f aug-cc-pvdz iop(5/13=1,5/36=2,99/5=2) pseudo=read geom=check guess=(
 read,tcheck) scf=(maxcycle=1)\\title\\0,1\H,0,-1.72434823,-0.02735536,
 -1.47402619\H,0,-1.29643549,-1.41515971,-2.4840979\H,0,-1.57230153,0.1
 6002765,-3.24353895\H,0,0.52779021,1.28305094,-1.94983564\C,0,-1.18500
 823,-0.34129171,-2.36202164\S,0,0.60124692,-0.03772908,-2.17289215\P,0
 ,0.36263764,-1.09852975,0.73266089\F,0,-0.67496691,0.12268297,0.812551
 6\F,0,0.44175868,-1.40606576,2.3078381\H,0,1.54068336,-0.29646345,0.69

 Normal termination of Gaussian 16 at Wed Apr  9 17:58:19 2025.
