 Gaussian 16, Revision C.01,

 ----------------------------------------------------------------------
 #t hf aug-cc-pvdz symm=none int=(grid=ultrafine) guess=(read,tcheck) s
 table=(opt,rrhf)
 ----------------------------------------------------------------------
 -----
 title
 -----
 Symbolic Z-matrix:
 Charge =  0 Multiplicity = 1

 SCF Done:  E(RHF) =  -1312.03409106     A.U. after   13 cycles

 1\1\GINC-SE114\Stability\RHF\Aug-CC-pVDZ\C3H10S3\OHZDE\09-Apr-2025\0\\
 #t hf aug-cc-pvdz symm=none int=(grid=ultrafine) guess=(read,tcheck) s
 table=(opt,rrhf)\\title\\0,1\H,0,1.01554051,-2.06430295,-0.26345232\H,
 0,1.41221348,-3.50790796,0.68330627\H,0,2.28776701,-1.9997821,0.978385
 09\H,0,0.09227498,-0.7095981,1.83267489\C,0,1.324424,-2.42503809,0.712
 77693\S,0,0.06941485,-2.04508424,1.97921636\H,0,-3.03261875,1.15228353
 ,0.11811751\H,0,-1.98203031,-0.17491152,-0.41779971\H,0,-2.60851238,1.
 01749648,-1.59842477\H,0,0.20782914,3.37056642,-2.85391385\H,0,-0.8068

 Normal termination of Gaussian 16 at Wed Apr  9 17:45:39 2025.
 Gaussian 16:  ES64L-G16RevC.01  3-Jul-2019

 ----------------------------------------------------------------------
 #t hf aug-cc-pvdz iop(5/13=1,5/36=2,99/5=2) pseudo=read geom=check gue
 ss=(read,tcheck) scf=(maxcycle=1)
 ----------------------------------------------------------------------
 -----
 title
 -----
 Structure from the checkpoint file:  "HB300SPXx10_1178_4.22_1.25_methanethiol_dimethyldisulfide_dimer_mol1.chk"
 Charge =  0 Multiplicity = 1

                         Standard orientation:
 ---------------------------------------------------------------------
 Center     Atomic      Atomic             Coordinates (Angstroms)
 Number     Number       Type             X           Y           Z
 ---------------------------------------------------------------------
      1          1           0        2.023699   -1.518689    0.823543
      2          1           0        3.778135   -1.749724    0.902746
      3          1           0        2.931208   -1.995756   -0.630320
      4          1           0        2.181087    0.577201   -0.808592
      5          6           0        2.956711   -1.404636    0.280365
      6         16           0        3.291289    0.349381   -0.086741
      7          1           0       -0.751530    2.859513    0.728315
      8          1           0        0.070063    1.399948    1.317421
      9          1           0       -1.671169    1.655870    1.650301
     10          1           0       -3.873879   -0.770208   -0.425075
     11          1           0       -3.368433   -0.510580    1.265987
     12          1           0       -3.374707   -2.146824    0.582448
     13          6           0       -0.866067    1.795985    0.934684
     14         16           0       -1.274854    1.017638   -0.659197
     15         16           0       -1.471122   -0.966208   -0.184317
     16          6           0       -3.202222   -1.093635    0.364501
 ---------------------------------------------------------------------

 SCF Done:  E(RHF) =  -1312.14028394     A.U. after    2 cycles

 The electronic state is 1-A.
 Alpha  occ. eigenvalues --  -93.55697 -93.55665 -93.52830 -11.27279 -11.27031
 Alpha  occ. eigenvalues --  -11.26267  -8.85338  -8.85294  -8.82580  -6.19502
 Alpha  occ. eigenvalues --   -6.19391  -6.19199  -6.19148  -6.18881  -6.18845
 Alpha  occ. eigenvalues --   -6.16739  -6.16525  -6.16182  -1.07471  -1.02097
 Alpha  occ. eigenvalues --   -1.00494  -0.90304  -0.85504  -0.77972  -0.61625
 Alpha  occ. eigenvalues --   -0.60638  -0.60400  -0.60110  -0.58856  -0.58635
 Alpha  occ. eigenvalues --   -0.53379  -0.52312  -0.49121  -0.45129  -0.43978
 Alpha  occ. eigenvalues --   -0.36127  -0.35194  -0.34995
 Alpha virt. eigenvalues --    0.03328   0.04328   0.04463   0.05366   0.06032
 Alpha virt. eigenvalues --    0.06370   0.06991   0.07556   0.08081   0.09162
 Alpha virt. eigenvalues --    0.09688   0.11237   0.12293   0.12606   0.13589

 Mulliken charges:
               1
     1  H   -0.128332
     2  H   -0.090462
     3  H   -0.106147
     4  H    0.062362
     5  C    0.103033
     6  S    0.167443
     7  H   -0.067146
     8  H   -0.089657
     9  H   -0.099277
    10  H   -0.032290
    11  H   -0.085468
    12  H   -0.072778
    13  C    0.158840
    14  S    0.082121
    15  S    0.156061
    16  C    0.041698
 Sum of Mulliken charges =  -0.00000

 Dipole moment (field-independent basis, Debye):
    X=             -2.2801    Y=             -0.7801    Z=              1.7909  Tot=              3.0024

 Test job not archived.
 1\1\GINC-SE114\SP\RHF\Aug-CC-pVDZ\C3H10S3\OHZDE\09-Apr-2025\0\\#t hf a
 ug-cc-pvdz iop(5/13=1,5/36=2,99/5=2) pseudo=read geom=check guess=(rea
 d,tcheck) scf=(maxcycle=1)\\title\\0,1\H,0,1.01554051,-2.06430295,-0.2
 6345232\H,0,1.41221348,-3.50790796,0.68330627\H,0,2.28776701,-1.999782
 1,0.97838509\H,0,0.09227498,-0.7095981,1.83267489\C,0,1.324424,-2.4250
 3809,0.71277693\S,0,0.06941485,-2.04508424,1.97921636\H,0,-3.03261875,
 1.15228353,0.11811751\H,0,-1.98203031,-0.17491152,-0.41779971\H,0,-2.6
 0851238,1.01749648,-1.59842477\H,0,0.20782914,3.37056642,-2.85391385\H

 Normal termination of Gaussian 16 at Wed Apr  9 17:45:45 2025.
