 Gaussian 16, Revision C.01,

 ----------------------------------------------------------------------
 #t hf aug-cc-pvdz symm=none int=(grid=ultrafine) guess=(read,tcheck) s
 table=(opt,rrhf)
 ----------------------------------------------------------------------
 -----
 title
 -----
 Symbolic Z-matrix:
 Charge =  0 Multiplicity = 1

 SCF Done:  E(RHF) =  -1091.84396282     A.U. after   14 cycles
 Normal termination of Gaussian 16 at Wed Apr  9 17:56:12 2025.
 Gaussian 16:  ES64L-G16RevC.01  3-Jul-2019

 ----------------------------------------------------------------------
 #t hf aug-cc-pvdz iop(5/13=1,5/36=2,99/5=2) pseudo=read geom=check gue
 ss=(read,tcheck) scf=(maxcycle=1)
 ----------------------------------------------------------------------
 -----
 title
 -----
 Structure from the checkpoint file:  "HB300SPXx10_1402_5.03_0.85_dimethylsulfoxide_phosphineF2_dimer_mol1.chk"
 Charge =  0 Multiplicity = 1

                         Standard orientation:
 ---------------------------------------------------------------------
 Center     Atomic      Atomic             Coordinates (Angstroms)
 Number     Number       Type             X           Y           Z
 ---------------------------------------------------------------------
      1          1           0        1.848958    1.678984   -1.473471
      2          1           0        2.686083    1.787468    0.093757
      3          1           0        0.889877    1.801052    0.026627
      4          1           0        1.509678   -1.595817    1.680033
      5          1           0        0.754897    0.017250    1.795501
      6          6           0        1.801930    1.415276   -0.420337
      7         16           0        1.787578   -0.394135   -0.337901
      8          8           0        0.488940   -0.842851   -0.930996
      9          6           0        1.626784   -0.538028    1.460915
     10          1           0        2.536063   -0.161616    1.925520
     11         15           0       -1.624340   -0.360032   -0.096571
     12          9           0       -3.168045    0.072303    0.100891
     13          9           0       -0.985356    0.997562    0.507138
     14          1           0       -1.564900    0.029846   -1.460747
 ---------------------------------------------------------------------

 SCF Done:  E(RHF) =  -1092.04506801     A.U. after    2 cycles

 The electronic state is 1-A.
 Alpha  occ. eigenvalues --  -93.67542 -81.35907 -26.11973 -26.09249 -20.54643
 Alpha  occ. eigenvalues --  -11.28488 -11.28155  -8.96044  -7.84558  -6.30359
 Alpha  occ. eigenvalues --   -6.30124  -6.29832  -4.98649  -4.98419  -4.97863
 Alpha  occ. eigenvalues --   -1.65255  -1.62117  -1.33764  -1.07242  -0.98662
 Alpha  occ. eigenvalues --   -0.87411  -0.83757  -0.76695  -0.75580  -0.74797
 Alpha  occ. eigenvalues --   -0.70556  -0.68605  -0.66181  -0.64909  -0.64673
 Alpha  occ. eigenvalues --   -0.62202  -0.60018  -0.56763  -0.55637  -0.55111
 Alpha  occ. eigenvalues --   -0.46947  -0.40741  -0.35754
 Alpha virt. eigenvalues --    0.02704   0.04103   0.04956   0.05616   0.06664
 Alpha virt. eigenvalues --    0.07020   0.07773   0.08575   0.09495   0.10855
 Alpha virt. eigenvalues --    0.12235   0.12706   0.13300   0.14531   0.15091

 Mulliken charges:
               1
     1  H   -0.045439
     2  H   -0.055724
     3  H   -0.071967
     4  H   -0.030879
     5  H   -0.088589
     6  C    0.253280
     7  S    1.013658
     8  O   -1.048305
     9  C    0.225160
    10  H   -0.055898
    11  P    1.242814
    12  F   -0.661942
    13  F   -0.707954
    14  H    0.031785
 Sum of Mulliken charges =  -0.00000

 Dipole moment (field-independent basis, Debye):
    X=              5.4607    Y=              1.1403    Z=              1.2076  Tot=              5.7077

 Test job not archived.
 1\1\GINC-SE045\SP\RHF\Aug-CC-pVDZ\C2H7F2O1P1S1\OHZDE\09-Apr-2025\0\\#t
  hf aug-cc-pvdz iop(5/13=1,5/36=2,99/5=2) pseudo=read geom=check guess
 =(read,tcheck) scf=(maxcycle=1)\\title\\0,1\H,0,1.67395499,0.82417178,
 -3.38423362\H,0,0.49124302,-0.02078366,-4.41184902\H,0,0.89589517,-0.6
 6534236,-2.78340018\H,0,-2.718683,0.46280377,-2.2188292\H,0,-1.5421980
 9,-0.87905323,-2.20106353\C,0,0.76564588,0.22768029,-3.38836814\S,0,-0
 .5351395,1.25679703,-2.66046249\O,0,-0.17783951,1.44910918,-1.22000404
 \C,0,-1.85989706,0.022286,-2.71790313\H,0,-2.10168806,-0.18449539,-3.7

 Normal termination of Gaussian 16 at Wed Apr  9 17:56:20 2025.
