 Gaussian 16, Revision C.01,

 ----------------------------------------------------------------------
 #t hf aug-cc-pvdz symm=none int=(grid=ultrafine) guess=(read,tcheck) s
 table=(opt,rrhf)
 ----------------------------------------------------------------------
 -----
 title
 -----
 Symbolic Z-matrix:
 Charge =  0 Multiplicity = 1

 SCF Done:  E(RHF) =  -591.454130272     A.U. after   14 cycles
 Normal termination of Gaussian 16 at Wed Apr  9 17:19:22 2025.
 Gaussian 16:  ES64L-G16RevC.01  3-Jul-2019

 ----------------------------------------------------------------------
 #t hf aug-cc-pvdz iop(5/13=1,5/36=2,99/5=2) pseudo=read geom=check gue
 ss=(read,tcheck) scf=(maxcycle=1)
 ----------------------------------------------------------------------
 -----
 title
 -----
 Structure from the checkpoint file:  "HB300SPXx10_1012_4.05_0.85_ethyne_thioacetone_dimer_mol1.chk"
 Charge =  0 Multiplicity = 1

                         Standard orientation:
 ---------------------------------------------------------------------
 Center     Atomic      Atomic             Coordinates (Angstroms)
 Number     Number       Type             X           Y           Z
 ---------------------------------------------------------------------
      1          6           0        0.212474   -2.675948    0.000000
      2          1           0       -0.467758   -1.853711    0.000000
      3          6           0        0.992253   -3.583716    0.000000
      4          1           0        1.678224   -4.393338    0.000000
      5          1           0       -1.089976    3.092510    0.000000
      6          1           0        0.457225    3.127709    0.874719
      7          1           0        0.457225    3.127709   -0.874719
      8          1           0        1.388548   -0.417504    0.000000
      9          1           0        1.932203    1.028609   -0.874314
     10          6           0       -0.066562    2.733674    0.000000
     11          6           0       -0.000000    1.236504    0.000000
     12         16           0       -1.339260    0.312378    0.000000
     13          6           0        1.385212    0.666381    0.000000
     14          1           0        1.932203    1.028609    0.874314
 ---------------------------------------------------------------------

 SCF Done:  E(RHF) =  -591.536837331     A.U. after    2 cycles

 The electronic state is 1-A'.
 Alpha  occ. eigenvalues --  -93.51393 -11.34120 -11.25768 -11.25419 -11.23695
 Alpha  occ. eigenvalues --  -11.23141  -8.81423  -6.15602  -6.15224  -6.15061
 Alpha  occ. eigenvalues --   -1.11858  -1.01401  -0.97095  -0.94974  -0.75521
 Alpha  occ. eigenvalues --   -0.72460  -0.66932  -0.62419  -0.61872  -0.61732
 Alpha  occ. eigenvalues --   -0.56630  -0.53916  -0.50216  -0.40184  -0.40120
 Alpha  occ. eigenvalues --   -0.38989  -0.34290
 Alpha virt. eigenvalues --    0.02951   0.03941   0.04096   0.05251   0.06146
 Alpha virt. eigenvalues --    0.06495   0.06997   0.07570   0.08931   0.09880
 Alpha virt. eigenvalues --    0.10640   0.12051   0.13320   0.13506   0.14085

 Mulliken charges:
               1
     1  C    0.471077
     2  H   -0.319823
     3  C    0.164777
     4  H   -0.335356
     5  H   -0.063252
     6  H    0.047112
     7  H    0.047112
     8  H   -0.293559
     9  H    0.115278
    10  C    0.334387
    11  C   -0.806551
    12  S    0.028036
    13  C    0.495484
    14  H    0.115278
 Sum of Mulliken charges =   0.00000

 Dipole moment (field-independent basis, Debye):
    X=              2.5736    Y=              2.4663    Z=             -0.0000  Tot=              3.5645

 Test job not archived.
 1\1\GINC-SE135\SP\RHF\Aug-CC-pVDZ\C5H8S1\OHZDE\09-Apr-2025\0\\#t hf au
 g-cc-pvdz iop(5/13=1,5/36=2,99/5=2) pseudo=read geom=check guess=(read
 ,tcheck) scf=(maxcycle=1)\\title\\0,1\C,0,-0.20751211,-2.93011645,0.\H
 ,0,-0.70775465,-1.98748922,0.\C,0,0.37296237,-3.97660953,0.\H,0,0.8813
 7254,-4.90804053,0.\H,0,-0.31866903,2.98250784,0.\H,0,1.20378407,2.704
 6487,0.87471889\H,0,1.20378407,2.7046487,-0.87471889\H,0,1.40026195,-0
 .9555825,0.\H,0,2.22465095,0.35101114,-0.87431367\C,0,0.61123726,2.424
 46348,0.\C,0,0.37419514,0.94467907,0.\S,0,-1.12404559,0.30993494,0.\C,

 Normal termination of Gaussian 16 at Wed Apr  9 17:19:25 2025.
