 Gaussian 16, Revision C.01,

 ----------------------------------------------------------------------
 #t hf aug-cc-pvdz symm=none int=(grid=ultrafine) guess=(read,tcheck) s
 table=(opt,rrhf)
 ----------------------------------------------------------------------
 -----
 title
 -----
 Symbolic Z-matrix:
 Charge =  0 Multiplicity = 1

 SCF Done:  E(RHF) =  -897.826001743     A.U. after   11 cycles
 Normal termination of Gaussian 16 at Wed Apr  9 04:10:06 2025.
 Gaussian 16:  ES64L-G16RevC.01  3-Jul-2019

 ----------------------------------------------------------------------
 #t hf aug-cc-pvdz iop(5/13=1,5/36=2,99/5=2) pseudo=read geom=check gue
 ss=(read,tcheck) scf=(maxcycle=1)
 ----------------------------------------------------------------------
 -----
 title
 -----
 Structure from the checkpoint file:  "HB300SPXx10_1336_4.38_1.05_hydrogenchloride_methanethiol_dimer_mol1.chk"
 Charge =  0 Multiplicity = 1

                         Standard orientation:
 ---------------------------------------------------------------------
 Center     Atomic      Atomic             Coordinates (Angstroms)
 Number     Number       Type             X           Y           Z
 ---------------------------------------------------------------------
      1          1           0       -0.961316   -0.391193   -0.090905
      2         17           0       -2.190621    0.049900    0.004449
      3          1           0        0.757433    1.580963    0.556482
      4          1           0        1.583405    1.497244   -1.005043
      5          1           0        2.533577    1.395810    0.484599
      6          1           0        1.420897   -0.929035    1.231998
      7          6           0        1.588559    1.134789    0.019091
      8         16           0        1.398450   -0.675676   -0.085457
 ---------------------------------------------------------------------

 SCF Done:  E(RHF) =  -897.879811116     A.U. after    2 cycles

 The electronic state is 1-A.
 Alpha  occ. eigenvalues -- -103.65552 -93.55664 -11.28303 -10.68802  -8.85412
 Alpha  occ. eigenvalues --   -8.34548  -8.34258  -8.34256  -6.19569  -6.19347
 Alpha  occ. eigenvalues --   -6.19099  -1.13842  -1.04584  -0.87991  -0.62864
 Alpha  occ. eigenvalues --   -0.62399  -0.60170  -0.54706  -0.47599  -0.47086
 Alpha  occ. eigenvalues --   -0.47036  -0.37904
 Alpha virt. eigenvalues --    0.03168   0.04705   0.05451   0.06198   0.07897
 Alpha virt. eigenvalues --    0.10152   0.11183   0.12903   0.14139   0.14548
 Alpha virt. eigenvalues --    0.15784   0.16241   0.16955   0.17957   0.19085

 Mulliken charges:
               1
     1  H    0.209175
     2  Cl  -0.170689
     3  H   -0.136895
     4  H   -0.051279
     5  H   -0.111302
     6  H    0.104395
     7  C    0.143083
     8  S    0.013511
 Sum of Mulliken charges =  -0.00000

 Dipole moment (field-independent basis, Debye):
    X=              2.3625    Y=              0.9702    Z=              0.7502  Tot=              2.6618

 Test job not archived.
 1\1\GINC-SE120\SP\RHF\Aug-CC-pVDZ\C1H5Cl1S1\OHZDE\09-Apr-2025\0\\#t hf
  aug-cc-pvdz iop(5/13=1,5/36=2,99/5=2) pseudo=read geom=check guess=(r
 ead,tcheck) scf=(maxcycle=1)\\title\\0,1\H,0,-0.71323053,0.36081391,-0
 .38963987\Cl,0,-0.97574618,1.50432633,-0.9712843\H,0,1.77334032,0.4261
 232,0.64733179\H,0,2.2984457,-0.97970704,-0.28835363\H,0,2.53069524,-0
 .97035825,1.46610423\H,0,-0.10294345,-0.95133696,1.98103387\C,0,1.8775
 8851,-0.65444614,0.65892496\S,0,0.24888445,-1.463474,0.79178401\\Versi
 on=ES64L-G16RevC.01\State=1-A\HF=-897.8798111\RMSD=4.996e-03\Dipole=0.

 Normal termination of Gaussian 16 at Wed Apr  9 04:10:08 2025.
