 Gaussian 16, Revision C.01,

 ----------------------------------------------------------------------
 #t hf aug-cc-pvdz symm=none int=(grid=ultrafine) guess=(read,tcheck) s
 table=(opt,rrhf)
 ----------------------------------------------------------------------
 -----
 title
 -----
 Symbolic Z-matrix:
 Charge =  0 Multiplicity = 1

 SCF Done:  E(RHF) =  -571.992500766     A.U. after   12 cycles
 Normal termination of Gaussian 16 at Wed Apr  9 17:30:24 2025.
 Gaussian 16:  ES64L-G16RevC.01  3-Jul-2019

 ----------------------------------------------------------------------
 #t hf aug-cc-pvdz iop(5/13=1,5/36=2,99/5=2) pseudo=read geom=check gue
 ss=(read,tcheck) scf=(maxcycle=1)
 ----------------------------------------------------------------------
 -----
 title
 -----
 Structure from the checkpoint file:  "HB300SPXx10_1073_4.11_0.90_methylamine_dimethylsulfide_dimer_mol1.chk"
 Charge =  0 Multiplicity = 1

                         Standard orientation:
 ---------------------------------------------------------------------
 Center     Atomic      Atomic             Coordinates (Angstroms)
 Number     Number       Type             X           Y           Z
 ---------------------------------------------------------------------
      1          7           0       -1.715903   -0.786752    0.150887
      2          1           0       -2.083392   -1.718559    0.013171
      3          1           0       -0.944401   -0.667504   -0.496385
      4          6           0       -2.748770    0.218374   -0.096483
      5          1           0       -2.327359    1.211047    0.059964
      6          1           0       -3.182659    0.196433   -1.102929
      7          1           0       -3.558765    0.093867    0.621661
      8          1           0        1.438955    1.649111    1.296855
      9          1           0       -0.199100    0.963117    1.124927
     10          1           0        0.337949    2.282403    0.063163
     11          1           0        1.990411   -1.999325   -0.172570
     12          1           0        0.739027   -1.496189    0.983377
     13          1           0        2.415444   -0.916263    1.162121
     14          6           0        0.650848    1.386350    0.593658
     15         16           0        1.260060    0.211104   -0.643848
     16          6           0        1.635296   -1.182814    0.451492
 ---------------------------------------------------------------------

 SCF Done:  E(RHF) =  -572.073653185     A.U. after    2 cycles

 The electronic state is 1-A.
 Alpha  occ. eigenvalues --  -93.52446 -15.59391 -11.25680 -11.25505 -11.24930
 Alpha  occ. eigenvalues --   -8.82203  -6.16355  -6.16144  -6.15897  -1.13315
 Alpha  occ. eigenvalues --   -1.04931  -0.94561  -0.88721  -0.79968  -0.66572
 Alpha  occ. eigenvalues --   -0.60459  -0.60055  -0.59948  -0.57652  -0.56311
 Alpha  occ. eigenvalues --   -0.54997  -0.51523  -0.49239  -0.43167  -0.38090
 Alpha  occ. eigenvalues --   -0.33445
 Alpha virt. eigenvalues --    0.03545   0.04222   0.04516   0.05053   0.06399
 Alpha virt. eigenvalues --    0.06595   0.07331   0.08019   0.09232   0.09319
 Alpha virt. eigenvalues --    0.10283   0.11801   0.13783   0.14276   0.15188

 Mulliken charges:
               1
     1  N   -0.363805
     2  H   -0.030234
     3  H    0.121955
     4  C    0.851754
     5  H   -0.230369
     6  H   -0.138574
     7  H   -0.167079
     8  H   -0.137716
     9  H   -0.161967
    10  H   -0.097591
    11  H   -0.103181
    12  H   -0.183546
    13  H   -0.088084
    14  C    0.323715
    15  S    0.144018
    16  C    0.260702
 Sum of Mulliken charges =   0.00000

 Dipole moment (field-independent basis, Debye):
    X=             -0.4820    Y=             -0.3804    Z=              0.5968  Tot=              0.8563

 Test job not archived.
 1\1\GINC-SE051\SP\RHF\Aug-CC-pVDZ\C3H11N1S1\OHZDE\09-Apr-2025\0\\#t hf
  aug-cc-pvdz iop(5/13=1,5/36=2,99/5=2) pseudo=read geom=check guess=(r
 ead,tcheck) scf=(maxcycle=1)\\title\\0,1\N,0,-1.19251098,0.46771599,1.
 69699571\H,0,-2.17204653,0.34511648,1.91553075\H,0,-1.12099987,0.60068
 208,0.69419832\C,0,-0.64549649,1.62445241,2.40482331\H,0,0.40921091,1.
 73255139,2.15309408\H,0,-1.13947726,2.57752576,2.18276464\H,0,-0.70604
 436,1.45678733,3.47978713\H,0,2.21468986,-0.91558921,-0.22062026\H,0,1
 .11715318,-0.25233783,1.01989628\H,0,2.05509767,0.83689842,-0.02418537

 Normal termination of Gaussian 16 at Wed Apr  9 17:30:29 2025.
