 Gaussian 16, Revision C.01,

 ----------------------------------------------------------------------
 #t hf aug-cc-pvdz symm=none int=(grid=ultrafine) guess=(read,tcheck) s
 table=(opt,rrhf)
 ----------------------------------------------------------------------
 -----
 title
 -----
 Symbolic Z-matrix:
 Charge =  0 Multiplicity = 1

 SCF Done:  E(RHF) =  -601.591933558     A.U. after   14 cycles
 Normal termination of Gaussian 16 at Wed Apr  9 17:22:08 2025.
 Gaussian 16:  ES64L-G16RevC.01  3-Jul-2019

 ----------------------------------------------------------------------
 #t hf aug-cc-pvdz iop(5/13=1,5/36=2,99/5=2) pseudo=read geom=check gue
 ss=(read,tcheck) scf=(maxcycle=1)
 ----------------------------------------------------------------------
 -----
 title
 -----
 Structure from the checkpoint file:  "HB300SPXx10_102_1.11_0.85_sulfane_methylazide_dimer_mol1.chk"
 Charge =  0 Multiplicity = 1

                         Standard orientation:
 ---------------------------------------------------------------------
 Center     Atomic      Atomic             Coordinates (Angstroms)
 Number     Number       Type             X           Y           Z
 ---------------------------------------------------------------------
      1          1           0       -1.127064   -0.517102   -0.011407
      2          1           0       -2.616621   -0.462238    1.238409
      3         16           0       -2.455748   -0.316938   -0.084903
      4          1           0        1.083167    1.952989   -0.907511
      5          1           0        1.126760    1.988619    0.872320
      6          1           0       -0.419176    1.807984    0.022440
      7          6           0        0.634417    1.552102    0.002285
      8          7           0        0.706322    0.081708    0.030274
      9          7           0        1.830217   -0.406347    0.004128
     10          7           0        2.811804   -0.962769   -0.015760
 ---------------------------------------------------------------------

 SCF Done:  E(RHF) =  -601.675625663     A.U. after    2 cycles

 The electronic state is 1-A.
 Alpha  occ. eigenvalues --  -93.52522 -15.86401 -15.74783 -15.68495 -11.29480
 Alpha  occ. eigenvalues --   -8.82384  -6.16583  -6.16372  -6.16029  -1.46866
 Alpha  occ. eigenvalues --   -1.27838  -1.00203  -0.95155  -0.74293  -0.71859
 Alpha  occ. eigenvalues --   -0.71607  -0.66802  -0.60235  -0.58495  -0.56983
 Alpha  occ. eigenvalues --   -0.48941  -0.43423  -0.38609  -0.36571
 Alpha virt. eigenvalues --    0.03152   0.04495   0.04940   0.06214   0.07582
 Alpha virt. eigenvalues --    0.09669   0.10805   0.11026   0.11925   0.12379
 Alpha virt. eigenvalues --    0.13888   0.14533   0.15932   0.16169   0.18138

 Mulliken charges:
               1
     1  H    0.045991
     2  H    0.021380
     3  S   -0.062732
     4  H   -0.051301
     5  H   -0.052410
     6  H   -0.221075
     7  C    0.820989
     8  N   -0.688365
     9  N    0.460182
    10  N   -0.272658
 Sum of Mulliken charges =  -0.00000

 Dipole moment (field-independent basis, Debye):
    X=              1.4280    Y=              1.8565    Z=              0.7476  Tot=              2.4586

 Test job not archived.
 1\1\GINC-SE045\SP\RHF\Aug-CC-pVDZ\C1H5N3S1\OHZDE\09-Apr-2025\0\\#t hf
 aug-cc-pvdz iop(5/13=1,5/36=2,99/5=2) pseudo=read geom=check guess=(re
 ad,tcheck) scf=(maxcycle=1)\\title\\0,1\H,0,1.21774303,0.78814331,-0.0
 7896573\H,0,1.90622629,2.11329938,-1.32547278\S,0,1.84165876,1.9773473
 1,0.00700442\H,0,-1.9606485,0.36849276,1.15034018\H,0,-2.21149001,0.47
 460626,-0.60942846\H,0,-1.06868415,1.56625566,0.19502189\C,0,-1.476658
 46,0.56152287,0.19205615\N,0,-0.33989092,-0.34873922,-0.02518789\N,0,-
 0.60167877,-1.54573235,-0.0515658\N,0,-0.72601934,-2.66654533,-0.09436

 Normal termination of Gaussian 16 at Wed Apr  9 17:22:14 2025.
