 Gaussian 16, Revision C.01,

 ----------------------------------------------------------------------
 #t hf aug-cc-pvdz symm=none int=(grid=ultrafine) guess=(read,tcheck) s
 table=(opt,rrhf)
 ----------------------------------------------------------------------
 -----
 title
 -----
 Symbolic Z-matrix:
 Charge =  0 Multiplicity = 1

 SCF Done:  E(RHF) =  -797.396218605     A.U. after   10 cycles
 Normal termination of Gaussian 16 at Wed Apr  9 17:49:28 2025.
 Gaussian 16:  ES64L-G16RevC.01  3-Jul-2019

 ----------------------------------------------------------------------
 #t hf aug-cc-pvdz iop(5/13=1,5/36=2,99/5=2) pseudo=read geom=check gue
 ss=(read,tcheck) scf=(maxcycle=1)
 ----------------------------------------------------------------------
 -----
 title
 -----
 Structure from the checkpoint file:  "HB300SPXx10_1225_4.27_1.00_sulfane_sulfane_dimer_mol1.chk"
 Charge =  0 Multiplicity = 1

                         Standard orientation:
 ---------------------------------------------------------------------
 Center     Atomic      Atomic             Coordinates (Angstroms)
 Number     Number       Type             X           Y           Z
 ---------------------------------------------------------------------
      1          1           0       -0.736675   -0.079470   -0.111026
      2          1           0       -2.128928    1.263047    0.083203
      3         16           0       -2.077891   -0.074211   -0.002751
      4          1           0        1.954849    0.374419    1.219059
      5          1           0        2.152459    1.133867   -0.555007
      6         16           0        2.000285   -0.094030   -0.037013
 ---------------------------------------------------------------------

 SCF Done:  E(RHF) =  -797.439233048     A.U. after    2 cycles

 The electronic state is 1-A.
 Alpha  occ. eigenvalues --  -93.56034 -93.53823  -8.85792  -8.83607  -6.19965
 Alpha  occ. eigenvalues --   -6.19766  -6.19436  -6.17789  -6.17579  -6.17206
 Alpha  occ. eigenvalues --   -0.98070  -0.95862  -0.59980  -0.58086  -0.50825
 Alpha  occ. eigenvalues --   -0.48937  -0.39280  -0.37364
 Alpha virt. eigenvalues --    0.02931   0.05393   0.06027   0.07178   0.10987
 Alpha virt. eigenvalues --    0.11727   0.12180   0.13810   0.14287   0.15173
 Alpha virt. eigenvalues --    0.17590   0.20022   0.20335   0.21565   0.25051

 Mulliken charges:
               1
     1  H   -0.005739
     2  H    0.013573
     3  S    0.015126
     4  H    0.034454
     5  H    0.030128
     6  S   -0.087542
 Sum of Mulliken charges =   0.00000

 Dipole moment (field-independent basis, Debye):
    X=              1.2635    Y=              1.7037    Z=              0.4022  Tot=              2.1589

 Test job not archived.
 1\1\GINC-SE173\SP\RHF\Aug-CC-pVDZ\H4S2\OHZDE\09-Apr-2025\0\\#t hf aug-
 cc-pvdz iop(5/13=1,5/36=2,99/5=2) pseudo=read geom=check guess=(read,t
 check) scf=(maxcycle=1)\\title\\0,1\H,0,0.53139832,0.64498716,-0.29055
 053\H,0,2.23879772,0.67266195,0.63813986\S,0,1.60273769,1.45777787,-0.
 24349168\H,0,-1.90612452,-0.48526527,1.1238246\H,0,-1.1381538,-2.00082
 436,0.18764989\S,0,-1.75261837,-0.85887592,-0.15526795\\Version=ES64L-
 G16RevC.01\State=1-A\HF=-797.439233\RMSD=9.239e-03\Dipole=-0.1489428,-
 0.6303674,0.5494491\Quadrupole=-1.0919343,0.2828844,0.8090499,-1.88299

 Normal termination of Gaussian 16 at Wed Apr  9 17:49:30 2025.
