 Gaussian 16, Revision C.01,

 ----------------------------------------------------------------------
 #t hf aug-cc-pvdz symm=none int=(grid=ultrafine) guess=(read,tcheck) s
 table=(opt,rrhf)
 ----------------------------------------------------------------------
 -----
 title
 -----
 Symbolic Z-matrix:
 Charge =  0 Multiplicity = 1

 SCF Done:  E(RHF) =  -897.825039147     A.U. after   11 cycles
 Normal termination of Gaussian 16 at Wed Apr  9 04:10:05 2025.
 Gaussian 16:  ES64L-G16RevC.01  3-Jul-2019

 ----------------------------------------------------------------------
 #t hf aug-cc-pvdz iop(5/13=1,5/36=2,99/5=2) pseudo=read geom=check gue
 ss=(read,tcheck) scf=(maxcycle=1)
 ----------------------------------------------------------------------
 -----
 title
 -----
 Structure from the checkpoint file:  "HB300SPXx10_1335_4.38_1.00_hydrogenchloride_methanethiol_dimer_mol1.chk"
 Charge =  0 Multiplicity = 1

                         Standard orientation:
 ---------------------------------------------------------------------
 Center     Atomic      Atomic             Coordinates (Angstroms)
 Number     Number       Type             X           Y           Z
 ---------------------------------------------------------------------
      1          1           0       -0.896916   -0.394667   -0.090823
      2         17           0       -2.123981    0.052642    0.004414
      3          1           0        0.719432    1.582895    0.556411
      4          1           0        1.545108    1.494970   -1.005040
      5          1           0        2.494623    1.388757    0.484688
      6          1           0        1.370129   -0.930416    1.232029
      7          6           0        1.548338    1.132512    0.019101
      8         16           0        1.349080   -0.676970   -0.085432
 ---------------------------------------------------------------------

 SCF Done:  E(RHF) =  -897.878870991     A.U. after    2 cycles

 The electronic state is 1-A.
 Alpha  occ. eigenvalues -- -103.65135 -93.55847 -11.28403 -10.68411  -8.85611
 Alpha  occ. eigenvalues --   -8.34155  -8.33869  -8.33867  -6.19768  -6.19546
 Alpha  occ. eigenvalues --   -6.19310  -1.13595  -1.04758  -0.88182  -0.63108
 Alpha  occ. eigenvalues --   -0.62519  -0.59995  -0.54853  -0.47768  -0.46805
 Alpha  occ. eigenvalues --   -0.46764  -0.38065
 Alpha virt. eigenvalues --    0.03149   0.04690   0.05457   0.06210   0.07946
 Alpha virt. eigenvalues --    0.10119   0.11152   0.12848   0.14211   0.14433
 Alpha virt. eigenvalues --    0.15897   0.16326   0.17026   0.18026   0.19240

 Mulliken charges:
               1
     1  H    0.232712
     2  Cl  -0.182433
     3  H   -0.138148
     4  H   -0.052132
     5  H   -0.110226
     6  H    0.113254
     7  C    0.155431
     8  S   -0.018458
 Sum of Mulliken charges =  -0.00000

 Dipole moment (field-independent basis, Debye):
    X=              2.5056    Y=              0.9410    Z=              0.7506  Tot=              2.7797

 Test job not archived.
 1\1\GINC-SE090\SP\RHF\Aug-CC-pVDZ\C1H5Cl1S1\OHZDE\09-Apr-2025\0\\#t hf
  aug-cc-pvdz iop(5/13=1,5/36=2,99/5=2) pseudo=read geom=check guess=(r
 ead,tcheck) scf=(maxcycle=1)\\title\\0,1\H,0,-0.71323053,0.36081391,-0
 .38963987\Cl,0,-0.97574618,1.50432633,-0.9712843\H,0,1.72752532,0.5129
 9405,0.59107351\H,0,2.2526307,-0.89283618,-0.34461191\H,0,2.48488025,-
 0.88348739,1.40984595\H,0,-0.14875845,-0.8644661,1.92477559\C,0,1.8317
 7352,-0.56757529,0.60266668\S,0,0.20306945,-1.37660315,0.73552573\\Ver
 sion=ES64L-G16RevC.01\State=1-A\HF=-897.878871\RMSD=5.176e-03\Dipole=0

 Normal termination of Gaussian 16 at Wed Apr  9 04:10:07 2025.
