 Gaussian 16, Revision C.01,

 ----------------------------------------------------------------------
 #t hf aug-cc-pvdz symm=none int=(grid=ultrafine) guess=(read,tcheck) s
 table=(opt,rrhf)
 ----------------------------------------------------------------------
 -----
 title
 -----
 Symbolic Z-matrix:
 Charge =  0 Multiplicity = 1

 SCF Done:  E(RHF) =  -1017.02370533     A.U. after   12 cycles
 Normal termination of Gaussian 16 at Wed Apr  9 04:10:38 2025.
 Gaussian 16:  ES64L-G16RevC.01  3-Jul-2019

 ----------------------------------------------------------------------
 #t hf aug-cc-pvdz iop(5/13=1,5/36=2,99/5=2) pseudo=read geom=check gue
 ss=(read,tcheck) scf=(maxcycle=1)
 ----------------------------------------------------------------------
 -----
 title
 -----
 Structure from the checkpoint file:  "HB300SPXx10_1383_5.01_0.90_dimethylsulfide_phosphineF2_dimer_mol1.chk"
 Charge =  0 Multiplicity = 1

                         Standard orientation:
 ---------------------------------------------------------------------
 Center     Atomic      Atomic             Coordinates (Angstroms)
 Number     Number       Type             X           Y           Z
 ---------------------------------------------------------------------
      1          1           0       -0.576981    0.865733    1.434139
      2          1           0       -2.309559    1.284606    1.424669
      3          1           0       -1.146707    2.263930    0.513216
      4          1           0       -2.103708   -2.062946   -0.706660
      5          1           0       -2.846555   -1.316677    0.715694
      6          1           0       -1.100287   -1.669259    0.700801
      7          6           0       -1.395636    1.255763    0.834174
      8         16           0       -1.627213    0.261127   -0.661239
      9          6           0       -1.949432   -1.350379    0.100114
     10         15           0        1.991807   -0.313363   -0.336351
     11          9           0        1.186913   -0.968769    0.883543
     12          9           0        1.629103    1.220004   -0.078983
     13          1           0        0.968369   -0.536395   -1.303537
 ---------------------------------------------------------------------

 SCF Done:  E(RHF) =  -1017.18271910     A.U. after    2 cycles

 The electronic state is 1-A.
 Alpha  occ. eigenvalues --  -93.52251 -81.39320 -26.14381 -26.14136 -11.25785
 Alpha  occ. eigenvalues --  -11.25533  -8.82032  -7.88133  -6.16178  -6.15968
 Alpha  occ. eigenvalues --   -6.15670  -5.02293  -5.01985  -5.01513  -1.68034
 Alpha  occ. eigenvalues --   -1.66620  -1.04827  -0.94658  -0.90430  -0.80208
 Alpha  occ. eigenvalues --   -0.79944  -0.78333  -0.77666  -0.74442  -0.71744
 Alpha  occ. eigenvalues --   -0.62046  -0.60258  -0.59855  -0.57722  -0.56508
 Alpha  occ. eigenvalues --   -0.49255  -0.43240  -0.40762  -0.33176
 Alpha virt. eigenvalues --    0.03806   0.04660   0.05043   0.05978   0.06672
 Alpha virt. eigenvalues --    0.06787   0.07604   0.08442   0.09435   0.09807
 Alpha virt. eigenvalues --    0.12031   0.13941   0.14987   0.15576   0.16062

 Mulliken charges:
               1
     1  H   -0.114481
     2  H   -0.110831
     3  H   -0.107658
     4  H   -0.112016
     5  H   -0.098656
     6  H   -0.113241
     7  C    0.229991
     8  S    0.251165
     9  C    0.174532
    10  P    1.179692
    11  F   -0.660035
    12  F   -0.600640
    13  H    0.082179
 Sum of Mulliken charges =  -0.00000

 Dipole moment (field-independent basis, Debye):
    X=              0.2393    Y=             -1.1976    Z=             -0.0509  Tot=              1.2224

 Test job not archived.
 1\1\GINC-SE412\SP\RHF\Aug-CC-pVDZ\C2H7F2P1S1\OHZDE\09-Apr-2025\0\\#t h
 f aug-cc-pvdz iop(5/13=1,5/36=2,99/5=2) pseudo=read geom=check guess=(
 read,tcheck) scf=(maxcycle=1)\\title\\0,1\H,0,0.35324965,2.18742239,-0
 .72380577\H,0,0.23256961,2.54349189,-2.46622469\H,0,1.47961489,1.43776
 879,-1.86264863\H,0,-2.97879656,0.33269977,-1.6977403\H,0,-2.43534977,
 1.89515642,-2.32640837\H,0,-2.24831697,1.5140911,-0.59615001\C,0,0.456
 3691,1.7777672,-1.72571744\S,0,-0.61885679,0.337269,-1.94490696\C,0,-2
 .22218849,1.10820804,-1.60517522\P,0,-0.06861653,-0.10048632,1.6659796

 Normal termination of Gaussian 16 at Wed Apr  9 04:10:42 2025.
