 Gaussian 16, Revision C.01,

 ----------------------------------------------------------------------
 #t hf aug-cc-pvdz symm=none int=(grid=ultrafine) guess=(read,tcheck) s
 table=(opt,rrhf)
 ----------------------------------------------------------------------
 -----
 title
 -----
 Symbolic Z-matrix:
 Charge =  0 Multiplicity = 1

 SCF Done:  E(RHF) =  -1054.88852678     A.U. after   15 cycles
 Normal termination of Gaussian 16 at Wed Apr  9 18:02:06 2025.
 Gaussian 16:  ES64L-G16RevC.01  3-Jul-2019

 ----------------------------------------------------------------------
 #t hf aug-cc-pvdz iop(5/13=1,5/36=2,99/5=2) pseudo=read geom=check gue
 ss=(read,tcheck) scf=(maxcycle=1)
 ----------------------------------------------------------------------
 -----
 title
 -----
 Structure from the checkpoint file:  "HB300SPXx10_1483_5.11_0.90_thioacetone_phosphineF2_dimer_mol1.chk"
 Charge =  0 Multiplicity = 1

                         Standard orientation:
 ---------------------------------------------------------------------
 Center     Atomic      Atomic             Coordinates (Angstroms)
 Number     Number       Type             X           Y           Z
 ---------------------------------------------------------------------
      1          1           0        0.506018    1.638572   -0.135786
      2          1           0        1.739494    1.916056    1.111163
      3          1           0        2.152653    2.143743   -0.572468
      4          1           0        3.744836   -1.157800    0.229585
      5          1           0        4.049468    0.436269   -0.494046
      6          6           0        1.556118    1.528367    0.105318
      7          6           0        2.011815    0.104740    0.033621
      8         16           0        1.001381   -1.135596   -0.264746
      9          6           0        3.477031   -0.107365    0.261823
     10          1           0        3.766236    0.313763    1.228027
     11         15           0       -1.842447   -0.239729    0.283254
     12          9           0       -3.445871   -0.105204    0.285079
     13          9           0       -1.534256    1.050506   -0.618775
     14          1           0       -1.792744   -1.187295   -0.780659
 ---------------------------------------------------------------------

 SCF Done:  E(RHF) =  -1055.05367249     A.U. after    2 cycles

 The electronic state is 1-A.
 Alpha  occ. eigenvalues --  -93.52130 -81.37949 -26.12889 -26.11719 -11.34623
 Alpha  occ. eigenvalues --  -11.26167 -11.25633  -8.82167  -7.86660  -6.16342
 Alpha  occ. eigenvalues --   -6.15964  -6.15778  -5.00778  -5.00518  -4.99999
 Alpha  occ. eigenvalues --   -1.66301  -1.64337  -1.12347  -0.97506  -0.95549
 Alpha  occ. eigenvalues --   -0.88652  -0.78124  -0.76681  -0.76094  -0.72992
 Alpha  occ. eigenvalues --   -0.72312  -0.69768  -0.63034  -0.62783  -0.62080
 Alpha  occ. eigenvalues --   -0.60159  -0.56977  -0.54123  -0.50575  -0.41147
 Alpha  occ. eigenvalues --   -0.38329  -0.34472
 Alpha virt. eigenvalues --    0.02879   0.03804   0.04680   0.05214   0.06034
 Alpha virt. eigenvalues --    0.06585   0.07308   0.07869   0.09034   0.09471
 Alpha virt. eigenvalues --    0.10278   0.11854   0.12323   0.14115   0.14605

 Mulliken charges:
               1
     1  H   -0.265787
     2  H    0.101018
     3  H    0.087977
     4  H   -0.070874
     5  H    0.051636
     6  C    0.417498
     7  C   -0.835708
     8  S    0.111229
     9  C    0.378978
    10  H    0.049387
    11  P    1.231607
    12  F   -0.653868
    13  F   -0.640886
    14  H    0.037795
 Sum of Mulliken charges =  -0.00000

 Dipole moment (field-independent basis, Debye):
    X=              4.3081    Y=              0.8017    Z=              0.6681  Tot=              4.4327

 Test job not archived.
 1\1\GINC-SE454\SP\RHF\Aug-CC-pVDZ\C3H7F2P1S1\OHZDE\09-Apr-2025\0\\#t h
 f aug-cc-pvdz iop(5/13=1,5/36=2,99/5=2) pseudo=read geom=check guess=(
 read,tcheck) scf=(maxcycle=1)\\title\\0,1\H,0,-0.82524406,-0.11851319,
 -2.18150719\H,0,-1.6981931,1.21808686,-2.95919937\H,0,-0.71897066,0.14
 764096,-3.93512177\H,0,1.41759528,3.22175764,-3.68330427\H,0,0.7352472
 6,2.04678605,-4.82844268\C,0,-0.77357806,0.63435768,-2.9583614\C,0,0.3
 925438,1.55581911,-2.78347778\S,0,1.39271927,1.4865874,-1.50157001\C,0
 ,0.57891903,2.56210758,-3.87735604\H,0,-0.33203334,3.15446018,-3.99493

 Normal termination of Gaussian 16 at Wed Apr  9 18:02:11 2025.
