 Gaussian 16, Revision C.01,

 ----------------------------------------------------------------------
 #t hf aug-cc-pvdz symm=none int=(grid=ultrafine) guess=(read,tcheck) s
 table=(opt,rrhf)
 ----------------------------------------------------------------------
 -----
 title
 -----
 Symbolic Z-matrix:
 Charge =  0 Multiplicity = 1

 SCF Done:  E(RHF) =  -601.594504543     A.U. after   14 cycles
 Normal termination of Gaussian 16 at Wed Apr  9 17:23:12 2025.
 Gaussian 16:  ES64L-G16RevC.01  3-Jul-2019

 ----------------------------------------------------------------------
 #t hf aug-cc-pvdz iop(5/13=1,5/36=2,99/5=2) pseudo=read geom=check gue
 ss=(read,tcheck) scf=(maxcycle=1)
 ----------------------------------------------------------------------
 -----
 title
 -----
 Structure from the checkpoint file:  "HB300SPXx10_103_1.11_0.90_sulfane_methylazide_dimer_mol1.chk"
 Charge =  0 Multiplicity = 1

                         Standard orientation:
 ---------------------------------------------------------------------
 Center     Atomic      Atomic             Coordinates (Angstroms)
 Number     Number       Type             X           Y           Z
 ---------------------------------------------------------------------
      1          1           0       -1.201565   -0.523134   -0.011891
      2          1           0       -2.689481   -0.447670    1.238805
      3         16           0       -2.527504   -0.305297   -0.084691
      4          1           0        1.149188    1.950500   -0.908435
      5          1           0        1.194357    1.986577    0.871348
      6          1           0       -0.354379    1.826099    0.022521
      7          6           0        0.695692    1.556166    0.001871
      8          7           0        0.747984    0.084960    0.030680
      9          7           0        1.865249   -0.418067    0.004133
     10          7           0        2.839309   -0.987552   -0.016030
 ---------------------------------------------------------------------

 SCF Done:  E(RHF) =  -601.678258832     A.U. after    2 cycles

 The electronic state is 1-A.
 Alpha  occ. eigenvalues --  -93.52930 -15.86233 -15.74576 -15.68354 -11.29449
 Alpha  occ. eigenvalues --   -8.82762  -6.16959  -6.16746  -6.16398  -1.46688
 Alpha  occ. eigenvalues --   -1.27641  -1.00071  -0.95353  -0.73964  -0.71691
 Alpha  occ. eigenvalues --   -0.71410  -0.66610  -0.60154  -0.58415  -0.57152
 Alpha  occ. eigenvalues --   -0.48877  -0.43741  -0.38406  -0.36824
 Alpha virt. eigenvalues --    0.03159   0.04482   0.04924   0.06251   0.07547
 Alpha virt. eigenvalues --    0.09706   0.10879   0.10982   0.11944   0.12449
 Alpha virt. eigenvalues --    0.13881   0.14486   0.15888   0.16110   0.18042

 Mulliken charges:
               1
     1  H    0.031253
     2  H    0.020258
     3  S   -0.050638
     4  H   -0.051811
     5  H   -0.053154
     6  H   -0.220430
     7  C    0.819498
     8  N   -0.686277
     9  N    0.469296
    10  N   -0.277995
 Sum of Mulliken charges =   0.00000

 Dipole moment (field-independent basis, Debye):
    X=              1.2909    Y=              1.8417    Z=              0.7488  Tot=              2.3704

 Test job not archived.
 1\1\GINC-SE112\SP\RHF\Aug-CC-pVDZ\C1H5N3S1\OHZDE\09-Apr-2025\0\\#t hf
 aug-cc-pvdz iop(5/13=1,5/36=2,99/5=2) pseudo=read geom=check guess=(re
 ad,tcheck) scf=(maxcycle=1)\\title\\0,1\H,0,1.21774303,0.78814331,-0.0
 7896573\H,0,1.90622629,2.11329938,-1.32547278\S,0,1.84165876,1.9773473
 1,0.00700442\H,0,-2.05227403,0.30161732,1.15350358\H,0,-2.30311554,0.4
 0773082,-0.60626506\H,0,-1.16030968,1.49938022,0.19818529\C,0,-1.56828
 399,0.49464742,0.19521955\N,0,-0.43151645,-0.41561466,-0.02202449\N,0,
 -0.6933043,-1.61260779,-0.0484024\N,0,-0.81764487,-2.73342077,-0.09119

 Normal termination of Gaussian 16 at Wed Apr  9 17:23:15 2025.
