 Gaussian 16, Revision C.01,

 ----------------------------------------------------------------------
 #t hf aug-cc-pvdz symm=none int=(grid=ultrafine) guess=(read,tcheck) s
 table=(opt,rrhf)
 ----------------------------------------------------------------------
 -----
 title
 -----
 Symbolic Z-matrix:
 Charge =  0 Multiplicity = 1

 SCF Done:  E(RHF) =  -800.714003199     A.U. after   14 cycles
 Normal termination of Gaussian 16 at Wed Apr  9 17:38:40 2025.
 Gaussian 16:  ES64L-G16RevC.01  3-Jul-2019

 ----------------------------------------------------------------------
 #t hf aug-cc-pvdz iop(5/13=1,5/36=2,99/5=2) pseudo=read geom=check gue
 ss=(read,tcheck) scf=(maxcycle=1)
 ----------------------------------------------------------------------
 -----
 title
 -----
 Structure from the checkpoint file:  "HB300SPXx10_1102_4.14_0.85_Nmethylacetamide_tetrahydrothiophene_dimer_mol1.chk"
 Charge =  0 Multiplicity = 1

                         Standard orientation:
 ---------------------------------------------------------------------
 Center     Atomic      Atomic             Coordinates (Angstroms)
 Number     Number       Type             X           Y           Z
 ---------------------------------------------------------------------
      1          6           0       -2.237286   -1.631224   -0.147039
      2          1           0       -2.174766   -2.119061    0.824388
      3          1           0       -1.404360   -1.950905   -0.769873
      4          1           0       -3.170151   -1.947876   -0.609572
      5          6           0       -2.289144   -0.130994    0.063022
      6          8           0       -3.174974    0.395089    0.716921
      7          7           0       -1.295451    0.573767   -0.535361
      8          1           0       -0.533859    0.070454   -0.968620
      9          6           0       -1.192911    2.011363   -0.403863
     10          1           0       -2.190036    2.427934   -0.294954
     11          1           0       -0.609038    2.305050    0.472555
     12          1           0       -0.723592    2.426879   -1.293197
     13          1           0        1.393739    1.625561   -0.842286
     14          1           0        3.003442    1.020148   -1.239784
     15          1           0        2.508631    1.786389    1.290889
     16          1           0        1.965307   -2.044431    0.922388
     17          1           0        3.409647    0.299610    1.012336
     18          1           0        0.222833   -1.782058    0.797709
     19          1           0        1.581454   -0.292613    2.557927
     20          1           0        0.405226    0.505633    1.519341
     21         16           0        1.403515   -0.789512   -1.068985
     22          6           0        2.122970    0.847742   -0.627253
     23          6           0        2.443866    0.785033    0.865533
     24          6           0        1.344425   -0.047668    1.522738
     25          6           0        1.195952   -1.313517    0.682972
 ---------------------------------------------------------------------

 SCF Done:  E(RHF) =  -800.860565461     A.U. after    2 cycles

 The electronic state is 1-A.
 Alpha  occ. eigenvalues --  -93.53500 -20.51738 -15.62831 -11.34897 -11.27854
 Alpha  occ. eigenvalues --  -11.27682 -11.26372 -11.25428 -11.25088 -11.23805
 Alpha  occ. eigenvalues --   -8.83353  -6.17499  -6.17333  -6.17113  -1.33145
 Alpha  occ. eigenvalues --   -1.18544  -1.13087  -1.00773  -0.99529  -0.97512
 Alpha  occ. eigenvalues --   -0.92131  -0.80977  -0.80089  -0.77498  -0.68996
 Alpha  occ. eigenvalues --   -0.67655  -0.65674  -0.64716  -0.62991  -0.61570
 Alpha  occ. eigenvalues --   -0.58792  -0.58288  -0.55956  -0.55105  -0.54522
 Alpha  occ. eigenvalues --   -0.52270  -0.50956  -0.50358  -0.49396  -0.49313
 Alpha  occ. eigenvalues --   -0.43865  -0.42650  -0.38255  -0.35035
 Alpha virt. eigenvalues --    0.02696   0.03480   0.04154   0.04392   0.05459
 Alpha virt. eigenvalues --    0.05823   0.05955   0.06569   0.07213   0.07906
 Alpha virt. eigenvalues --    0.08638   0.08715   0.09970   0.10429   0.10855

 Mulliken charges:
               1
     1  C    0.575172
     2  H    0.066732
     3  H   -0.208535
     4  H   -0.115029
     5  C    0.188970
     6  O   -0.594334
     7  N   -0.200637
     8  H    0.074524
     9  C    0.910930
    10  H   -0.286901
    11  H   -0.155857
    12  H   -0.155989
    13  H   -0.354885
    14  H   -0.078188
    15  H   -0.090723
    16  H   -0.164376
    17  H   -0.178400
    18  H   -0.336039
    19  H   -0.075059
    20  H   -0.325269
    21  S    0.148812
    22  C    0.301623
    23  C    0.249207
    24  C    0.420173
    25  C    0.384077
 Sum of Mulliken charges =  -0.00000

 Dipole moment (field-independent basis, Debye):
    X=              4.6851    Y=             -0.2542    Z=             -0.3328  Tot=              4.7038

 Test job not archived.
 1\1\GINC-SE041\SP\RHF\Aug-CC-pVDZ\C7H15N1O1S1\OHZDE\09-Apr-2025\0\\#t
 hf aug-cc-pvdz iop(5/13=1,5/36=2,99/5=2) pseudo=read geom=check guess=
 (read,tcheck) scf=(maxcycle=1)\\title\\0,1\C,0,-2.35790997,-0.53076315
 ,1.51380969\H,0,-2.45888814,0.43106478,2.01406411\H,0,-1.4356415,-1.01
 232631,1.83224394\H,0,-3.20368729,-1.14467685,1.81747472\C,0,-2.435185
 38,-0.3119418,0.01592702\O,0,-3.41358688,0.19433185,-0.50891479\N,0,-1
 .3525984,-0.72916607,-0.68842032\H,0,-0.53292762,-1.03795931,-0.184588
 74\C,0,-1.26500492,-0.56327277,-2.12344447\H,0,-2.26409386,-0.61429593

 Normal termination of Gaussian 16 at Wed Apr  9 17:38:59 2025.
