 Gaussian 16, Revision C.01,

 ----------------------------------------------------------------------
 #t hf aug-cc-pvdz symm=none int=(grid=ultrafine) guess=(read,tcheck) s
 table=(opt,rrhf)
 ----------------------------------------------------------------------
 -----
 title
 -----
 Symbolic Z-matrix:
 Charge =  0 Multiplicity = 1

 SCF Done:  E(RHF) =  -648.911705959     A.U. after   13 cycles
 Normal termination of Gaussian 16 at Wed Apr  9 17:32:13 2025.
 Gaussian 16:  ES64L-G16RevC.01  3-Jul-2019

 ----------------------------------------------------------------------
 #t hf aug-cc-pvdz iop(5/13=1,5/36=2,99/5=2) pseudo=read geom=check gue
 ss=(read,tcheck) scf=(maxcycle=1)
 ----------------------------------------------------------------------
 -----
 title
 -----
 Structure from the checkpoint file:  "HB300SPXx10_1084_4.12_0.95_methylamine_tetrahydrothiophene_dimer_mol1.chk"
 Charge =  0 Multiplicity = 1

                         Standard orientation:
 ---------------------------------------------------------------------
 Center     Atomic      Atomic             Coordinates (Angstroms)
 Number     Number       Type             X           Y           Z
 ---------------------------------------------------------------------
      1          7           0       -2.181340   -0.275829   -0.831868
      2          1           0       -1.474536   -0.871019   -0.412677
      3          1           0       -2.728336   -0.854505   -1.455146
      4          6           0       -3.030896    0.311953    0.202543
      5          1           0       -3.797052    0.931481   -0.262620
      6          1           0       -3.532345   -0.411929    0.855607
      7          1           0       -2.429361    0.965998    0.833936
      8          1           0        1.432031    0.569082    2.034147
      9          1           0       -0.322828    0.448690    1.876878
     10          1           0        0.925947    2.444074    0.586721
     11          1           0        0.508129   -0.587265   -1.792250
     12          1           0       -0.313566    1.526361   -0.275800
     13          1           0        2.175891   -1.087032   -1.461740
     14          1           0        1.667942    1.530693   -1.735128
     15          1           0        2.691043    1.013941   -0.395541
     16         16           0        0.804196   -1.218611    0.527383
     17          6           0        0.615465    0.428300    1.328746
     18          6           0        0.663572    1.458404    0.201550
     19          6           0        1.685209    0.948350   -0.813793
     20          6           0        1.333199   -0.512005   -1.087618
 ---------------------------------------------------------------------

 SCF Done:  E(RHF) =  -649.011208003     A.U. after    2 cycles

 The electronic state is 1-A.
 Alpha  occ. eigenvalues --  -93.51646 -15.59377 -11.26136 -11.25894 -11.24951
 Alpha  occ. eigenvalues --  -11.23780 -11.23433  -8.81425  -6.15560  -6.15401
 Alpha  occ. eigenvalues --   -6.15130  -1.13230  -1.11258  -0.97857  -0.95523
 Alpha  occ. eigenvalues --   -0.88682  -0.79181  -0.77741  -0.66991  -0.64625
 Alpha  occ. eigenvalues --   -0.63690  -0.60373  -0.59569  -0.55528  -0.54480
 Alpha  occ. eigenvalues --   -0.51554  -0.50474  -0.49147  -0.47911  -0.47450
 Alpha  occ. eigenvalues --   -0.41920  -0.37834  -0.33124
 Alpha virt. eigenvalues --    0.03368   0.04186   0.04227   0.04706   0.06027
 Alpha virt. eigenvalues --    0.06174   0.06357   0.06921   0.08179   0.08841
 Alpha virt. eigenvalues --    0.09231   0.09975   0.10289   0.11977   0.13417

 Mulliken charges:
               1
     1  N   -0.413827
     2  H    0.090432
     3  H    0.002126
     4  C    0.913427
     5  H   -0.176532
     6  H   -0.129840
     7  H   -0.296712
     8  H   -0.136000
     9  H   -0.163744
    10  H   -0.077131
    11  H   -0.196551
    12  H   -0.224011
    13  H   -0.086502
    14  H   -0.093710
    15  H   -0.168023
    16  S    0.300124
    17  C    0.106141
    18  C    0.366194
    19  C    0.160445
    20  C    0.223694
 Sum of Mulliken charges =   0.00000

 Dipole moment (field-independent basis, Debye):
    X=             -0.1436    Y=              1.0825    Z=             -0.2064  Tot=              1.1113

 Test job not archived.
 1\1\GINC-SE174\SP\RHF\Aug-CC-pVDZ\C5H13N1S1\OHZDE\09-Apr-2025\0\\#t hf
  aug-cc-pvdz iop(5/13=1,5/36=2,99/5=2) pseudo=read geom=check guess=(r
 ead,tcheck) scf=(maxcycle=1)\\title\\0,1\N,0,-0.48023551,2.04199658,1.
 33183501\H,0,-0.98136805,1.22913012,0.98881982\H,0,-1.14375731,2.80345
 765,1.38144373\C,0,0.08991425,1.76981847,2.65020044\H,0,0.60698078,2.6
 5693888,3.01468146\H,0,-0.63523497,1.46399211,3.41346792\H,0,0.8338340
 5,0.97768014,2.5643137\H,0,0.86631692,-2.29144429,0.1518098\H,0,0.5764
 9486,-1.14883464,1.466803\H,0,2.59454665,-0.63737524,-0.22771151\H,0,-

 Normal termination of Gaussian 16 at Wed Apr  9 17:32:22 2025.
