 Gaussian 16, Revision C.01,

 ----------------------------------------------------------------------
 #t hf aug-cc-pvdz symm=none int=(grid=ultrafine) guess=(read,tcheck) s
 table=(opt,rrhf)
 ----------------------------------------------------------------------
 -----
 title
 -----
 Symbolic Z-matrix:
 Charge =  0 Multiplicity = 1

 SCF Done:  E(RHF) =  -797.395222263     A.U. after   10 cycles
 Normal termination of Gaussian 16 at Wed Apr  9 17:49:28 2025.
 Gaussian 16:  ES64L-G16RevC.01  3-Jul-2019

 ----------------------------------------------------------------------
 #t hf aug-cc-pvdz iop(5/13=1,5/36=2,99/5=2) pseudo=read geom=check gue
 ss=(read,tcheck) scf=(maxcycle=1)
 ----------------------------------------------------------------------
 -----
 title
 -----
 Structure from the checkpoint file:  "HB300SPXx10_1224_4.27_0.95_sulfane_sulfane_dimer_mol1.chk"
 Charge =  0 Multiplicity = 1

                         Standard orientation:
 ---------------------------------------------------------------------
 Center     Atomic      Atomic             Coordinates (Angstroms)
 Number     Number       Type             X           Y           Z
 ---------------------------------------------------------------------
      1          1           0       -0.668153   -0.079712   -0.109861
      2          1           0       -2.060355    1.263069    0.082899
      3         16           0       -2.009479   -0.074202   -0.002966
      4          1           0        1.885242    0.374466    1.219138
      5          1           0        2.084817    1.133827   -0.554745
      6         16           0        1.931882   -0.094027   -0.036874
 ---------------------------------------------------------------------

 SCF Done:  E(RHF) =  -797.438139469     A.U. after    2 cycles

 The electronic state is 1-A.
 Alpha  occ. eigenvalues --  -93.56126 -93.53618  -8.85890  -8.83414  -6.20062
 Alpha  occ. eigenvalues --   -6.19866  -6.19543  -6.17597  -6.17388  -6.17016
 Alpha  occ. eigenvalues --   -0.98228  -0.95716  -0.60089  -0.58064  -0.50934
 Alpha  occ. eigenvalues --   -0.48891  -0.39266  -0.37230
 Alpha virt. eigenvalues --    0.02925   0.05456   0.06021   0.07118   0.10956
 Alpha virt. eigenvalues --    0.11741   0.12136   0.13875   0.14411   0.15243
 Alpha virt. eigenvalues --    0.17620   0.19967   0.20400   0.21996   0.24857

 Mulliken charges:
               1
     1  H    0.004324
     2  H    0.011995
     3  S    0.015416
     4  H    0.037598
     5  H    0.032634
     6  S   -0.101967
 Sum of Mulliken charges =  -0.00000

 Dipole moment (field-independent basis, Debye):
    X=              1.3362    Y=              1.6985    Z=              0.4008  Tot=              2.1979

 Test job not archived.
 1\1\GINC-SE232\SP\RHF\Aug-CC-pVDZ\H4S2\OHZDE\09-Apr-2025\0\\#t hf aug-
 cc-pvdz iop(5/13=1,5/36=2,99/5=2) pseudo=read geom=check guess=(read,t
 check) scf=(maxcycle=1)\\title\\0,1\H,0,0.53139832,0.64498716,-0.29055
 053\H,0,2.23879772,0.67266195,0.63813986\S,0,1.60273769,1.45777787,-0.
 24349168\H,0,-1.79192368,-0.41007211,1.11706047\H,0,-1.02395296,-1.925
 6312,0.18088576\S,0,-1.63841754,-0.78368277,-0.16203208\\Version=ES64L
 -G16RevC.01\State=1-A\HF=-797.4381395\RMSD=9.377e-03\Dipole=-0.1730919
 ,-0.6458614,0.5483136\Quadrupole=-1.1000555,0.2896974,0.8103581,-1.881

 Normal termination of Gaussian 16 at Wed Apr  9 17:49:30 2025.
