 Gaussian 16, Revision C.01,

 ----------------------------------------------------------------------
 #t hf aug-cc-pvdz symm=none int=(grid=ultrafine) guess=(read,tcheck) s
 table=(opt,rrhf)
 ----------------------------------------------------------------------
 -----
 title
 -----
 Symbolic Z-matrix:
 Charge =  0 Multiplicity = 1

 SCF Done:  E(RHF) =  -783.970311469     A.U. after   15 cycles
 Normal termination of Gaussian 16 at Wed Apr  9 17:59:49 2025.
 Gaussian 16:  ES64L-G16RevC.01  3-Jul-2019

 ----------------------------------------------------------------------
 #t hf aug-cc-pvdz iop(5/13=1,5/36=2,99/5=2) pseudo=read geom=check gue
 ss=(read,tcheck) scf=(maxcycle=1)
 ----------------------------------------------------------------------
 -----
 title
 -----
 Structure from the checkpoint file:  "HB300SPXx10_1464_5.09_0.95_nitromethane_phosphineF2_dimer_mol1.chk"
 Charge =  0 Multiplicity = 1

                         Standard orientation:
 ---------------------------------------------------------------------
 Center     Atomic      Atomic             Coordinates (Angstroms)
 Number     Number       Type             X           Y           Z
 ---------------------------------------------------------------------
      1          1           0       -1.548755    1.750501    0.071939
      2          1           0       -2.767629    1.188268   -1.097025
      3          1           0       -3.125707    1.155768    0.673071
      4          6           0       -2.371138    1.060479   -0.096915
      5          7           0       -1.781565   -0.308889   -0.008491
      6          8           0       -1.895492   -0.909795    1.040895
      7          8           0       -1.186712   -0.718747   -0.994482
      8         15           0        1.592381   -0.201619   -0.393605
      9          9           0        2.963070   -0.046396    0.416374
     10          9           0        0.801506    1.039970    0.256257
     11          1           0        1.030598   -1.184730    0.472037
 ---------------------------------------------------------------------

 SCF Done:  E(RHF) =  -784.156286820     A.U. after    2 cycles

 The electronic state is 1-A.
 Alpha  occ. eigenvalues --  -81.39067 -26.14190 -26.13395 -20.64034 -20.63139
 Alpha  occ. eigenvalues --  -15.93130 -11.32521  -7.87821  -5.01957  -5.01667
 Alpha  occ. eigenvalues --   -5.01156  -1.67608  -1.66004  -1.57062  -1.38632
 Alpha  occ. eigenvalues --   -1.10142  -0.90022  -0.87682  -0.79678  -0.78719
 Alpha  occ. eigenvalues --   -0.77571  -0.77209  -0.76220  -0.75230  -0.73777
 Alpha  occ. eigenvalues --   -0.71089  -0.63919  -0.61626  -0.60825  -0.53021
 Alpha  occ. eigenvalues --   -0.52448  -0.49457  -0.40091
 Alpha virt. eigenvalues --    0.02808   0.04877   0.05154   0.05405   0.07181
 Alpha virt. eigenvalues --    0.08023   0.09611   0.09940   0.10754   0.13352
 Alpha virt. eigenvalues --    0.14451   0.15329   0.15764   0.15934   0.17488

 Mulliken charges:
               1
     1  H   -0.013515
     2  H   -0.073310
     3  H   -0.102655
     4  C    0.873061
     5  N    0.537431
     6  O   -0.582048
     7  O   -0.616427
     8  P    1.245197
     9  F   -0.635772
    10  F   -0.654737
    11  H    0.022774
 Sum of Mulliken charges =  -0.00000

 Dipole moment (field-independent basis, Debye):
    X=             -2.9390    Y=              2.0712    Z=             -0.9177  Tot=              3.7108

 Test job not archived.
 1\1\GINC-SE174\SP\RHF\Aug-CC-pVDZ\C1H4F2N1O2P1\OHZDE\09-Apr-2025\0\\#t
  hf aug-cc-pvdz iop(5/13=1,5/36=2,99/5=2) pseudo=read geom=check guess
 =(read,tcheck) scf=(maxcycle=1)\\title\\0,1\H,0,0.49481138,0.55069733,
 -2.50359179\H,0,-1.08891031,0.71291216,-3.29967626\H,0,-0.00441746,2.1
 4812453,-3.13671373\C,0,-0.34098337,1.21704881,-2.69950341\N,0,-0.9468
 7558,1.51662809,-1.36768821\O,0,-0.63929751,2.55888018,-0.82511637\O,0
 ,-1.68734525,0.66720154,-0.89420145\P,0,0.00692249,-0.78551225,0.94180
 331\F,0,1.13539528,-1.10815872,2.02872413\F,0,0.97493606,-0.40679781,-

 Normal termination of Gaussian 16 at Wed Apr  9 17:59:53 2025.
