 Gaussian 16, Revision C.01,

 ----------------------------------------------------------------------
 #t hf aug-cc-pvdz symm=none int=(grid=ultrafine) guess=(read,tcheck) s
 table=(opt,rrhf)
 ----------------------------------------------------------------------
 -----
 title
 -----
 Symbolic Z-matrix:
 Charge =  0 Multiplicity = 1

 SCF Done:  E(RHF) =  -571.988350988     A.U. after   12 cycles
 Normal termination of Gaussian 16 at Wed Apr  9 04:10:46 2025.
 Gaussian 16:  ES64L-G16RevC.01  3-Jul-2019

 ----------------------------------------------------------------------
 #t hf aug-cc-pvdz iop(5/13=1,5/36=2,99/5=2) pseudo=read geom=check gue
 ss=(read,tcheck) scf=(maxcycle=1)
 ----------------------------------------------------------------------
 -----
 title
 -----
 Structure from the checkpoint file:  "HB300SPXx10_134_1.14_0.95_sulfane_trimethylamine_dimer_mol1.chk"
 Charge =  0 Multiplicity = 1

                         Standard orientation:
 ---------------------------------------------------------------------
 Center     Atomic      Atomic             Coordinates (Angstroms)
 Number     Number       Type             X           Y           Z
 ---------------------------------------------------------------------
      1          1           0       -1.004444    0.038341    0.000000
      2          1           0       -2.629715   -1.071125    0.000000
      3         16           0       -2.360039    0.242080    0.000000
      4          1           0        2.371837   -0.828267    1.303193
      5          1           0        0.876956   -0.268217    2.080506
      6          1           0        0.888406   -1.796089    1.197590
      7          1           0        0.888406   -1.796089   -1.197590
      8          1           0        2.371837   -0.828267   -1.303193
      9          1           0        0.876956   -0.268217   -2.080506
     10          1           0        2.371624    1.416782    0.000000
     11          1           0        0.882832    1.808992   -0.882789
     12          6           0        1.276645   -0.778753    1.205875
     13          7           0        0.857640   -0.084274    0.000000
     14          6           0        1.276645   -0.778753   -1.205875
     15          6           0        1.276645    1.307473    0.000000
     16          1           0        0.882832    1.808992    0.882789
 ---------------------------------------------------------------------

 SCF Done:  E(RHF) =  -572.067079051     A.U. after    2 cycles

 The electronic state is 1-A'.
 Alpha  occ. eigenvalues --  -93.50991 -15.63007 -11.26413 -11.26410 -11.26396
 Alpha  occ. eigenvalues --   -8.80842  -6.15050  -6.14838  -6.14488  -1.21254
 Alpha  occ. eigenvalues --   -0.96393  -0.96386  -0.93449  -0.81448  -0.66893
 Alpha  occ. eigenvalues --   -0.64681  -0.64656  -0.56217  -0.56130  -0.55189
 Alpha  occ. eigenvalues --   -0.53355  -0.51942  -0.51936  -0.46994  -0.35818
 Alpha  occ. eigenvalues --   -0.35185
 Alpha virt. eigenvalues --    0.03117   0.04293   0.04537   0.04881   0.06991
 Alpha virt. eigenvalues --    0.07203   0.07235   0.07669   0.07799   0.09350
 Alpha virt. eigenvalues --    0.10078   0.12645   0.13276   0.14395   0.14471

 Mulliken charges:
               1
     1  H    0.080621
     2  H   -0.028686
     3  S    0.026989
     4  H   -0.076203
     5  H   -0.182554
     6  H   -0.185578
     7  H   -0.185578
     8  H   -0.076203
     9  H   -0.182554
    10  H   -0.102623
    11  H   -0.176393
    12  C    0.807870
    13  N   -1.139845
    14  C    0.807870
    15  C    0.789260
    16  H   -0.176393
 Sum of Mulliken charges =  -0.00000

 Dipole moment (field-independent basis, Debye):
    X=              2.9391    Y=             -0.9267    Z=              0.0000  Tot=              3.0818

 Test job not archived.
 1\1\GINC-SE120\SP\RHF\Aug-CC-pVDZ\C3H11N1S1\OHZDE\09-Apr-2025\0\\#t hf
  aug-cc-pvdz iop(5/13=1,5/36=2,99/5=2) pseudo=read geom=check guess=(r
 ead,tcheck) scf=(maxcycle=1)\\title\\0,1\H,0,0.06719299,0.97177334,0.\
 H,0,1.32304535,2.48678341,0.\S,0,-0.00955285,2.34044335,0.\H,0,0.61595
 079,-2.47048536,-1.30319342\H,0,0.19739685,-0.92998642,-2.08050641\H,0
 ,1.7175781,-1.08352334,-1.19759028\H,0,1.7175781,-1.08352334,1.1975902
 8\H,0,0.61595079,-2.47048536,1.30319342\H,0,0.19739685,-0.92998642,2.0
 8050641\H,0,-1.61934269,-2.26141893,0.\H,0,-1.87135073,-0.74259657,0.8

 Normal termination of Gaussian 16 at Wed Apr  9 04:10:50 2025.
