 Gaussian 16, Revision C.01,

 ----------------------------------------------------------------------
 #t hf aug-cc-pvdz symm=none int=(grid=ultrafine) guess=(read,tcheck) s
 table=(opt,rrhf)
 ----------------------------------------------------------------------
 -----
 title
 -----
 Symbolic Z-matrix:
 Charge =  0 Multiplicity = 1

 SCF Done:  E(RHF) =  -952.377401961     A.U. after   12 cycles

 1\1\GINC-SE112\Stability\RHF\Aug-CC-pVDZ\C4H10S2\OHZDE\09-Apr-2025\0\\
 #t hf aug-cc-pvdz symm=none int=(grid=ultrafine) guess=(read,tcheck) s
 table=(opt,rrhf)\\title\\0,1\H,0,1.25927999,1.11406487,-0.28265552\H,0
 ,2.28279017,2.73418341,-0.67577847\S,0,1.07110419,2.4516331,-0.1764195
 4\H,0,0.26944487,0.08434642,1.78478072\H,0,0.17962611,-1.6588673,2.065
 78942\H,0,-2.1233565,-0.30408832,1.8767818\H,0,-1.14076916,-1.6272594,
 -1.67871626\H,0,-1.97597698,-1.82231419,0.99447522\H,0,-0.43652148,-0.
 04145726,-2.02224005\H,0,-2.74880295,-0.14806528,-0.64840173\H,0,-1.49

 Normal termination of Gaussian 16 at Wed Apr  9 17:51:02 2025.
 Gaussian 16:  ES64L-G16RevC.01  3-Jul-2019

 ----------------------------------------------------------------------
 #t hf aug-cc-pvdz iop(5/13=1,5/36=2,99/5=2) pseudo=read geom=check gue
 ss=(read,tcheck) scf=(maxcycle=1)
 ----------------------------------------------------------------------
 -----
 title
 -----
 Structure from the checkpoint file:  "HB300SPXx10_1234_4.28_0.95_sulfane_tetrahydrothiophene_dimer_mol1.chk"
 Charge =  0 Multiplicity = 1

                         Standard orientation:
 ---------------------------------------------------------------------
 Center     Atomic      Atomic             Coordinates (Angstroms)
 Number     Number       Type             X           Y           Z
 ---------------------------------------------------------------------
      1          1           0       -1.575630   -0.577174   -0.005054
      2          1           0       -3.526812   -0.644965    0.118218
      3         16           0       -2.604116    0.296578   -0.125721
      4          1           0        0.081249    0.013523   -1.799550
      5          1           0        1.648154   -0.783265   -1.988672
      6          1           0        1.638803    1.832386   -1.411468
      7          1           0        1.787780   -0.199391    1.936294
      8          1           0        2.737341    0.786107   -0.514970
      9          1           0        0.034535   -0.009934    2.074065
     10          1           0        1.483812    2.074190    1.178819
     11          1           0       -0.037508    1.683267    0.388942
     12         16           0        0.636334   -1.333067    0.136248
     13          6           0        1.011499   -0.241764   -1.294490
     14          6           0        1.685362    0.997839   -0.711712
     15          6           0        0.965447    1.310535    0.599111
     16          6           0        0.873159    0.001572    1.382915
 ---------------------------------------------------------------------

 SCF Done:  E(RHF) =  -952.465688093     A.U. after    2 cycles

 The electronic state is 1-A.
 Alpha  occ. eigenvalues --  -93.53008 -93.52522 -11.26795 -11.26778 -11.24609
 Alpha  occ. eigenvalues --  -11.24507  -8.82840  -8.82314  -6.17051  -6.16824
 Alpha  occ. eigenvalues --   -6.16468  -6.16439  -6.16283  -6.16026  -1.12161
 Alpha  occ. eigenvalues --   -0.98700  -0.96644  -0.95165  -0.80045  -0.78572
 Alpha  occ. eigenvalues --   -0.66739  -0.64624  -0.60901  -0.58107  -0.55106
 Alpha  occ. eigenvalues --   -0.51374  -0.50057  -0.49102  -0.48321  -0.48053
 Alpha  occ. eigenvalues --   -0.42715  -0.36918  -0.33730
 Alpha virt. eigenvalues --    0.03357   0.04529   0.04556   0.04945   0.06160
 Alpha virt. eigenvalues --    0.06681   0.07243   0.07955   0.08286   0.09101
 Alpha virt. eigenvalues --    0.11742   0.12720   0.12985   0.14375   0.14538

 Mulliken charges:
               1
     1  H    0.075374
     2  H   -0.051118
     3  S    0.008294
     4  H   -0.200749
     5  H   -0.072794
     6  H   -0.073966
     7  H   -0.132512
     8  H   -0.150061
     9  H   -0.125994
    10  H   -0.058524
    11  H   -0.227018
    12  S    0.298584
    13  C    0.134324
    14  C    0.211317
    15  C    0.220821
    16  C    0.144021
 Sum of Mulliken charges =  -0.00000

 Dipole moment (field-independent basis, Debye):
    X=              1.3482    Y=              0.9237    Z=              0.1032  Tot=              1.6375

 Test job not archived.
 1\1\GINC-SE112\SP\RHF\Aug-CC-pVDZ\C4H10S2\OHZDE\09-Apr-2025\0\\#t hf a
 ug-cc-pvdz iop(5/13=1,5/36=2,99/5=2) pseudo=read geom=check guess=(rea
 d,tcheck) scf=(maxcycle=1)\\title\\0,1\H,0,1.25927999,1.11406487,-0.28
 265552\H,0,2.28279017,2.73418341,-0.67577847\S,0,1.07110419,2.4516331,
 -0.17641954\H,0,0.26944487,0.08434642,1.78478072\H,0,0.17962611,-1.658
 8673,2.06578942\H,0,-2.1233565,-0.30408832,1.8767818\H,0,-1.14076916,-
 1.6272594,-1.67871626\H,0,-1.97597698,-1.82231419,0.99447522\H,0,-0.43
 652148,-0.04145726,-2.02224005\H,0,-2.74880295,-0.14806528,-0.64840173

 Normal termination of Gaussian 16 at Wed Apr  9 17:51:08 2025.
