 Gaussian 16, Revision C.01,

 ----------------------------------------------------------------------
 #t hf aug-cc-pvdz symm=none int=(grid=ultrafine) guess=(read,tcheck) s
 table=(opt,rrhf)
 ----------------------------------------------------------------------
 -----
 title
 -----
 Symbolic Z-matrix:
 Charge =  0 Multiplicity = 1

 SCF Done:  E(RHF) =  -800.726905127     A.U. after   13 cycles
 Normal termination of Gaussian 16 at Wed Apr  9 17:38:34 2025.
 Gaussian 16:  ES64L-G16RevC.01  3-Jul-2019

 ----------------------------------------------------------------------
 #t hf aug-cc-pvdz iop(5/13=1,5/36=2,99/5=2) pseudo=read geom=check gue
 ss=(read,tcheck) scf=(maxcycle=1)
 ----------------------------------------------------------------------
 -----
 title
 -----
 Structure from the checkpoint file:  "HB300SPXx10_1106_4.14_1.05_Nmethylacetamide_tetrahydrothiophene_dimer_mol1.chk"
 Charge =  0 Multiplicity = 1

                         Standard orientation:
 ---------------------------------------------------------------------
 Center     Atomic      Atomic             Coordinates (Angstroms)
 Number     Number       Type             X           Y           Z
 ---------------------------------------------------------------------
      1          6           0       -2.360973   -1.706954   -0.151554
      2          1           0       -2.262267   -2.196631    0.815936
      3          1           0       -1.505045   -1.956187   -0.775376
      4          1           0       -3.266012   -2.090756   -0.618505
      5          6           0       -2.528728   -0.217009    0.070772
      6          8           0       -3.453373    0.233661    0.727256
      7          7           0       -1.591603    0.567308   -0.519835
      8          1           0       -0.792873    0.127905   -0.955742
      9          6           0       -1.600483    2.007378   -0.376284
     10          1           0       -2.626925    2.344844   -0.265892
     11          1           0       -1.042167    2.337891    0.503665
     12          1           0       -1.163464    2.465301   -1.261242
     13          1           0        1.478938    1.659631   -0.837212
     14          1           0        3.131081    1.183574   -1.236545
     15          1           0        2.575295    1.888132    1.299391
     16          1           0        2.329707   -1.969969    0.898245
     17          1           0        3.588726    0.477692    1.010345
     18          1           0        0.572347   -1.841789    0.772329
     19          1           0        1.809662   -0.266748    2.547424
     20          1           0        0.576704    0.447031    1.513161
     21         16           0        1.675358   -0.745505   -1.083804
     22          6           0        2.265738    0.938623   -0.627178
     23          6           0        2.588557    0.888362    0.865665
     24          6           0        1.555796   -0.032163    1.513829
     25          6           0        1.506555   -1.298617    0.663362
 ---------------------------------------------------------------------

 SCF Done:  E(RHF) =  -800.873964988     A.U. after    2 cycles

 The electronic state is 1-A.
 Alpha  occ. eigenvalues --  -93.53292 -20.52052 -15.63931 -11.35270 -11.27651
 Alpha  occ. eigenvalues --  -11.27526 -11.26597 -11.25312 -11.25130 -11.23944
 Alpha  occ. eigenvalues --   -8.83058  -6.17196  -6.17034  -6.16758  -1.33469
 Alpha  occ. eigenvalues --   -1.18901  -1.12874  -1.00772  -0.99430  -0.97104
 Alpha  occ. eigenvalues --   -0.92288  -0.80775  -0.79400  -0.77956  -0.68939
 Alpha  occ. eigenvalues --   -0.67366  -0.65421  -0.65087  -0.63150  -0.61575
 Alpha  occ. eigenvalues --   -0.58540  -0.58382  -0.56197  -0.55203  -0.54598
 Alpha  occ. eigenvalues --   -0.52130  -0.50835  -0.50596  -0.49503  -0.49031
 Alpha  occ. eigenvalues --   -0.43467  -0.42909  -0.38680  -0.34843
 Alpha virt. eigenvalues --    0.02727   0.03509   0.04178   0.04356   0.05400
 Alpha virt. eigenvalues --    0.05694   0.05962   0.06470   0.07171   0.07809
 Alpha virt. eigenvalues --    0.08426   0.08646   0.09866   0.10210   0.10819

 Mulliken charges:
               1
     1  C    0.541753
     2  H    0.023621
     3  H   -0.225449
     4  H   -0.048602
     5  C    0.199839
     6  O   -0.577749
     7  N   -0.212601
     8  H   -0.017175
     9  C    0.902037
    10  H   -0.226161
    11  H   -0.145579
    12  H   -0.203287
    13  H   -0.276979
    14  H   -0.068666
    15  H   -0.083203
    16  H   -0.142894
    17  H   -0.178927
    18  H   -0.267670
    19  H   -0.062223
    20  H   -0.328372
    21  S    0.317182
    22  C    0.173777
    23  C    0.269815
    24  C    0.367658
    25  C    0.269855
 Sum of Mulliken charges =  -0.00000

 Dipole moment (field-independent basis, Debye):
    X=              4.5549    Y=              0.1385    Z=             -0.2880  Tot=              4.5661

 Test job not archived.
 1\1\GINC-SE229\SP\RHF\Aug-CC-pVDZ\C7H15N1O1S1\OHZDE\09-Apr-2025\0\\#t
 hf aug-cc-pvdz iop(5/13=1,5/36=2,99/5=2) pseudo=read geom=check guess=
 (read,tcheck) scf=(maxcycle=1)\\title\\0,1\C,0,-2.35790997,-0.53076315
 ,1.51380969\H,0,-2.45888814,0.43106478,2.01406411\H,0,-1.4356415,-1.01
 232631,1.83224394\H,0,-3.20368729,-1.14467685,1.81747472\C,0,-2.435185
 38,-0.3119418,0.01592702\O,0,-3.41358688,0.19433185,-0.50891479\N,0,-1
 .3525984,-0.72916607,-0.68842032\H,0,-0.53292762,-1.03795931,-0.184588
 74\C,0,-1.26500492,-0.56327277,-2.12344447\H,0,-2.26409386,-0.61429593

 Normal termination of Gaussian 16 at Wed Apr  9 17:38:52 2025.
