 Gaussian 16, Revision C.01,

 ----------------------------------------------------------------------
 #t hf aug-cc-pvdz symm=none int=(grid=ultrafine) guess=(read,tcheck) s
 table=(opt,rrhf)
 ----------------------------------------------------------------------
 -----
 title
 -----
 Symbolic Z-matrix:
 Charge =  0 Multiplicity = 1

 SCF Done:  E(RHF) =  -605.473758208     A.U. after   13 cycles
 Normal termination of Gaussian 16 at Wed Apr  9 17:39:26 2025.
 Gaussian 16:  ES64L-G16RevC.01  3-Jul-2019

 ----------------------------------------------------------------------
 #t hf aug-cc-pvdz iop(5/13=1,5/36=2,99/5=2) pseudo=read geom=check gue
 ss=(read,tcheck) scf=(maxcycle=1)
 ----------------------------------------------------------------------
 -----
 title
 -----
 Structure from the checkpoint file:  "HB300SPXx10_112_1.12_0.85_sulfane_methylcyanate_dimer_mol1.chk"
 Charge =  0 Multiplicity = 1

                         Standard orientation:
 ---------------------------------------------------------------------
 Center     Atomic      Atomic             Coordinates (Angstroms)
 Number     Number       Type             X           Y           Z
 ---------------------------------------------------------------------
      1          1           0        1.369986    0.865471    0.030305
      2          1           0        2.365883   -0.351624    1.172072
      3         16           0        2.044494   -0.286446   -0.128318
      4          1           0       -1.715551   -1.271201    1.311532
      5          1           0       -2.061741   -2.115796   -0.224892
      6          1           0       -0.388009   -1.596431    0.151646
      7          6           0       -1.445054   -1.371636    0.263682
      8          8           0       -1.746243   -0.119235   -0.429282
      9          6           0       -1.066202    0.898946   -0.054290
     10          7           0       -0.463572    1.834677    0.255762
 ---------------------------------------------------------------------

 SCF Done:  E(RHF) =  -605.562261400     A.U. after    2 cycles

 The electronic state is 1-A.
 Alpha  occ. eigenvalues --  -93.53764 -20.67767 -15.63993 -11.36096 -11.33690
 Alpha  occ. eigenvalues --   -8.83617  -6.17811  -6.17600  -6.17303  -1.45134
 Alpha  occ. eigenvalues --   -1.20043  -1.01551  -0.96285  -0.81072  -0.72489
 Alpha  occ. eigenvalues --   -0.71118  -0.59822  -0.59707  -0.57884  -0.55727
 Alpha  occ. eigenvalues --   -0.49651  -0.46325  -0.44485  -0.37620
 Alpha virt. eigenvalues --    0.02698   0.04532   0.05110   0.06242   0.07867
 Alpha virt. eigenvalues --    0.08575   0.10684   0.11053   0.11511   0.13391
 Alpha virt. eigenvalues --    0.14309   0.14807   0.15229   0.15439   0.16652

 Mulliken charges:
               1
     1  H    0.075269
     2  H    0.030671
     3  S   -0.103879
     4  H   -0.094695
     5  H   -0.158628
     6  H   -0.035887
     7  C    0.880786
     8  O   -0.400913
     9  C   -0.079748
    10  N   -0.112976
 Sum of Mulliken charges =  -0.00000

 Dipole moment (field-independent basis, Debye):
    X=             -1.5297    Y=             -3.7037    Z=              1.1719  Tot=              4.1750

 Test job not archived.
 1\1\GINC-SE219\SP\RHF\Aug-CC-pVDZ\C2H5N1O1S1\OHZDE\09-Apr-2025\0\\#t h
 f aug-cc-pvdz iop(5/13=1,5/36=2,99/5=2) pseudo=read geom=check guess=(
 read,tcheck) scf=(maxcycle=1)\\title\\0,1\H,0,1.70020261,0.23216325,0.
 14198181\H,0,1.83071194,2.07603691,0.74186388\S,0,1.65222468,0.8789214
 7,1.31945248\H,0,-2.10276787,1.21588164,-0.4031454\H,0,-2.78300529,0.2
 4748635,0.93598604\H,0,-1.11198738,0.88524498,1.05373842\C,0,-1.884078
 55,0.50586086,0.39013303\O,0,-1.4310331,-0.75087107,-0.20551569\C,0,-0
 .32598042,-0.6920352,-0.84984787\N,0,0.67230754,-0.67373163,-1.4312035

 Normal termination of Gaussian 16 at Wed Apr  9 17:39:29 2025.
