 Gaussian 16, Revision C.01,

 ----------------------------------------------------------------------
 #t hf aug-cc-pvdz symm=none int=(grid=ultrafine) guess=(read,tcheck) s
 table=(opt,rrhf)
 ----------------------------------------------------------------------
 -----
 title
 -----
 Symbolic Z-matrix:
 Charge =  0 Multiplicity = 1

 SCF Done:  E(RHF) =  -1312.03183370     A.U. after   13 cycles

 1\1\GINC-SE340\Stability\RHF\Aug-CC-pVDZ\C3H10S3\OHZDE\09-Apr-2025\0\\
 #t hf aug-cc-pvdz symm=none int=(grid=ultrafine) guess=(read,tcheck) s
 table=(opt,rrhf)\\title\\0,1\H,0,1.01554051,-2.06430295,-0.26345232\H,
 0,1.41221348,-3.50790796,0.68330627\H,0,2.28776701,-1.9997821,0.978385
 09\H,0,0.09227498,-0.7095981,1.83267489\C,0,1.324424,-2.42503809,0.712
 77693\S,0,0.06941485,-2.04508424,1.97921636\H,0,-2.84762912,0.62085978
 ,0.53013795\H,0,-1.79704067,-0.70633527,-0.00577927\H,0,-2.42352274,0.
 48607273,-1.18640434\H,0,0.39281878,2.83914267,-2.44189341\H,0,-0.6219

 Normal termination of Gaussian 16 at Wed Apr  9 17:44:52 2025.
 Gaussian 16:  ES64L-G16RevC.01  3-Jul-2019

 ----------------------------------------------------------------------
 #t hf aug-cc-pvdz iop(5/13=1,5/36=2,99/5=2) pseudo=read geom=check gue
 ss=(read,tcheck) scf=(maxcycle=1)
 ----------------------------------------------------------------------
 -----
 title
 -----
 Structure from the checkpoint file:  "HB300SPXx10_1175_4.22_1.00_methanethiol_dimethyldisulfide_dimer_mol1.chk"
 Charge =  0 Multiplicity = 1

                         Standard orientation:
 ---------------------------------------------------------------------
 Center     Atomic      Atomic             Coordinates (Angstroms)
 Number     Number       Type             X           Y           Z
 ---------------------------------------------------------------------
      1          1           0        1.497559   -1.540823    0.830414
      2          1           0        3.238436   -1.860739    0.898962
      3          1           0        2.371559   -2.059109   -0.629856
      4          1           0        1.751909    0.549072   -0.797173
      5          6           0        2.432102   -1.472661    0.282193
      6         16           0        2.853148    0.263184   -0.082288
      7          1           0       -0.366887    2.849779    0.728346
      8          1           0        0.382907    1.348750    1.308958
      9          1           0       -1.341216    1.691667    1.652473
     10          1           0       -3.675707   -0.613640   -0.416507
     11          1           0       -3.148293   -0.384830    1.272295
     12          1           0       -3.241367   -2.016682    0.584575
     13          6           0       -0.534059    1.792838    0.932618
     14         16           0       -0.990704    1.040799   -0.660900
     15         16           0       -1.284674   -0.931900   -0.190034
     16          6           0       -3.016912   -0.972971    0.368366
 ---------------------------------------------------------------------

 SCF Done:  E(RHF) =  -1312.13691346     A.U. after    2 cycles

 The electronic state is 1-A.
 Alpha  occ. eigenvalues --  -93.55845 -93.55820 -93.52368 -11.27403 -11.26913
 Alpha  occ. eigenvalues --  -11.25885  -8.85476  -8.85459  -8.82134  -6.19653
 Alpha  occ. eigenvalues --   -6.19549  -6.19349  -6.19314  -6.19057  -6.19018
 Alpha  occ. eigenvalues --   -6.16303  -6.16090  -6.15769  -1.07624  -1.01787
 Alpha  occ. eigenvalues --   -1.00558  -0.90400  -0.85226  -0.78115  -0.61748
 Alpha  occ. eigenvalues --   -0.60989  -0.60476  -0.59676  -0.58671  -0.58464
 Alpha  occ. eigenvalues --   -0.53486  -0.52008  -0.49214  -0.44943  -0.44074
 Alpha  occ. eigenvalues --   -0.36247  -0.35320  -0.34676
 Alpha virt. eigenvalues --    0.03298   0.04353   0.04582   0.05349   0.06070
 Alpha virt. eigenvalues --    0.06502   0.07143   0.07671   0.08098   0.09249
 Alpha virt. eigenvalues --    0.09843   0.11488   0.12543   0.12931   0.13806

 Mulliken charges:
               1
     1  H   -0.138540
     2  H   -0.101927
     3  H   -0.122184
     4  H    0.111944
     5  C    0.161422
     6  S    0.128029
     7  H   -0.059183
     8  H   -0.131555
     9  H   -0.107465
    10  H   -0.036173
    11  H   -0.083332
    12  H   -0.072684
    13  C    0.230803
    14  S    0.015781
    15  S    0.182031
    16  C    0.023032
 Sum of Mulliken charges =  -0.00000

 Dipole moment (field-independent basis, Debye):
    X=             -2.4476    Y=             -0.6390    Z=              1.7991  Tot=              3.1041

 Test job not archived.
 1\1\GINC-SE340\SP\RHF\Aug-CC-pVDZ\C3H10S3\OHZDE\09-Apr-2025\0\\#t hf a
 ug-cc-pvdz iop(5/13=1,5/36=2,99/5=2) pseudo=read geom=check guess=(rea
 d,tcheck) scf=(maxcycle=1)\\title\\0,1\H,0,1.01554051,-2.06430295,-0.2
 6345232\H,0,1.41221348,-3.50790796,0.68330627\H,0,2.28776701,-1.999782
 1,0.97838509\H,0,0.09227498,-0.7095981,1.83267489\C,0,1.324424,-2.4250
 3809,0.71277693\S,0,0.06941485,-2.04508424,1.97921636\H,0,-2.84762912,
 0.62085978,0.53013795\H,0,-1.79704067,-0.70633527,-0.00577927\H,0,-2.4
 2352274,0.48607273,-1.18640434\H,0,0.39281878,2.83914267,-2.44189341\H

 Normal termination of Gaussian 16 at Wed Apr  9 17:44:56 2025.
