 Gaussian 16, Revision C.01,

 ----------------------------------------------------------------------
 #t hf aug-cc-pvdz symm=none int=(grid=ultrafine) guess=(read,tcheck) s
 table=(opt,rrhf)
 ----------------------------------------------------------------------
 -----
 title
 -----
 Symbolic Z-matrix:
 Charge =  0 Multiplicity = 1

 SCF Done:  E(RHF) =  -952.382031804     A.U. after   12 cycles

 1\1\GINC-SE131\Stability\RHF\Aug-CC-pVDZ\C4H10S2\OHZDE\09-Apr-2025\0\\
 #t hf aug-cc-pvdz symm=none int=(grid=ultrafine) guess=(read,tcheck) s
 table=(opt,rrhf)\\title\\0,1\H,0,1.25927999,1.11406487,-0.28265552\H,0
 ,2.28279017,2.73418341,-0.67577847\S,0,1.07110419,2.4516331,-0.1764195
 4\H,0,0.10665094,-0.63686405,1.80049952\H,0,0.01683218,-2.38007778,2.0
 8150822\H,0,-2.28615043,-1.0252988,1.89250059\H,0,-1.30356309,-2.34846
 988,-1.66299746\H,0,-2.13877091,-2.54352466,1.01019402\H,0,-0.59931541
 ,-0.76266774,-2.00652125\H,0,-2.91159688,-0.86927576,-0.63268293\H,0,-

 Normal termination of Gaussian 16 at Wed Apr  9 17:51:40 2025.
 Gaussian 16:  ES64L-G16RevC.01  3-Jul-2019

 ----------------------------------------------------------------------
 #t hf aug-cc-pvdz iop(5/13=1,5/36=2,99/5=2) pseudo=read geom=check gue
 ss=(read,tcheck) scf=(maxcycle=1)
 ----------------------------------------------------------------------
 -----
 title
 -----
 Structure from the checkpoint file:  "HB300SPXx10_1238_4.28_1.25_sulfane_tetrahydrothiophene_dimer_mol1.chk"
 Charge =  0 Multiplicity = 1

                         Standard orientation:
 ---------------------------------------------------------------------
 Center     Atomic      Atomic             Coordinates (Angstroms)
 Number     Number       Type             X           Y           Z
 ---------------------------------------------------------------------
      1          1           0       -2.044102   -0.571987   -0.017719
      2          1           0       -3.980618   -0.803734    0.134281
      3         16           0       -3.142514    0.217712   -0.092893
      4          1           0        0.241783    0.027815   -1.792207
      5          1           0        1.864687   -0.631130   -2.032626
      6          1           0        1.652684    1.955217   -1.368743
      7          1           0        2.029145   -0.162933    1.906855
      8          1           0        2.849402    0.974732   -0.525113
      9          1           0        0.269153   -0.122631    2.078741
     10          1           0        1.526659    2.100936    1.230288
     11          1           0        0.027888    1.611681    0.452178
     12         16           0        0.940775   -1.329526    0.088690
     13          6           0        1.198987   -0.166125   -1.310784
     14          6           0        1.780180    1.105477   -0.697937
     15          6           0        1.061643    1.316109    0.633849
     16          6           0        1.091049   -0.020284    1.375091
 ---------------------------------------------------------------------

 SCF Done:  E(RHF) =  -952.471255543     A.U. after    2 cycles

 The electronic state is 1-A.
 Alpha  occ. eigenvalues --  -93.54320 -93.52013 -11.26542 -11.26522 -11.24472
 Alpha  occ. eigenvalues --  -11.24420  -8.84074  -8.81786  -6.18268  -6.18046
 Alpha  occ. eigenvalues --   -6.17676  -6.15914  -6.15756  -6.15426  -1.11859
 Alpha  occ. eigenvalues --   -0.98451  -0.96185  -0.96012  -0.79849  -0.78167
 Alpha  occ. eigenvalues --   -0.66345  -0.64360  -0.60629  -0.58256  -0.55342
 Alpha  occ. eigenvalues --   -0.51166  -0.49883  -0.49094  -0.48652  -0.47959
 Alpha  occ. eigenvalues --   -0.42284  -0.37748  -0.33453
 Alpha virt. eigenvalues --    0.03360   0.04337   0.04571   0.04981   0.06122
 Alpha virt. eigenvalues --    0.06721   0.07197   0.07941   0.08419   0.08871
 Alpha virt. eigenvalues --    0.11169   0.12555   0.13160   0.14419   0.14552

 Mulliken charges:
               1
     1  H    0.012767
     2  H   -0.019132
     3  S    0.006823
     4  H   -0.153886
     5  H   -0.071179
     6  H   -0.064886
     7  H   -0.107381
     8  H   -0.152945
     9  H   -0.106936
    10  H   -0.059675
    11  H   -0.211432
    12  S    0.434090
    13  C    0.006727
    14  C    0.262706
    15  C    0.181612
    16  C    0.042727
 Sum of Mulliken charges =  -0.00000

 Dipole moment (field-independent basis, Debye):
    X=              0.8430    Y=              1.1381    Z=              0.0879  Tot=              1.4190

 Test job not archived.
 1\1\GINC-SE131\SP\RHF\Aug-CC-pVDZ\C4H10S2\OHZDE\09-Apr-2025\0\\#t hf a
 ug-cc-pvdz iop(5/13=1,5/36=2,99/5=2) pseudo=read geom=check guess=(rea
 d,tcheck) scf=(maxcycle=1)\\title\\0,1\H,0,1.25927999,1.11406487,-0.28
 265552\H,0,2.28279017,2.73418341,-0.67577847\S,0,1.07110419,2.4516331,
 -0.17641954\H,0,0.10665094,-0.63686405,1.80049952\H,0,0.01683218,-2.38
 007778,2.08150822\H,0,-2.28615043,-1.0252988,1.89250059\H,0,-1.3035630
 9,-2.34846988,-1.66299746\H,0,-2.13877091,-2.54352466,1.01019402\H,0,-
 0.59931541,-0.76266774,-2.00652125\H,0,-2.91159688,-0.86927576,-0.6326

 Normal termination of Gaussian 16 at Wed Apr  9 17:51:45 2025.
