 Gaussian 16, Revision C.01,

 ----------------------------------------------------------------------
 #t hf aug-cc-pvdz symm=none int=(grid=ultrafine) guess=(read,tcheck) s
 table=(opt,rrhf)
 ----------------------------------------------------------------------
 -----
 title
 -----
 Symbolic Z-matrix:
 Charge =  0 Multiplicity = 1

 SCF Done:  E(RHF) =  -704.618725753     A.U. after   13 cycles
 Normal termination of Gaussian 16 at Wed Apr  9 17:39:44 2025.
 Gaussian 16:  ES64L-G16RevC.01  3-Jul-2019

 ----------------------------------------------------------------------
 #t hf aug-cc-pvdz iop(5/13=1,5/36=2,99/5=2) pseudo=read geom=check gue
 ss=(read,tcheck) scf=(maxcycle=1)
 ----------------------------------------------------------------------
 -----
 title
 -----
 Structure from the checkpoint file:  "HB300SPXx10_1124_4.16_0.95_aceticacid_dimethylsulfide_dimer_mol1.chk"
 Charge =  0 Multiplicity = 1

                         Standard orientation:
 ---------------------------------------------------------------------
 Center     Atomic      Atomic             Coordinates (Angstroms)
 Number     Number       Type             X           Y           Z
 ---------------------------------------------------------------------
      1          6           0        0.270594    1.786186   -0.000000
      2          8           0       -0.870129    1.384083    0.000000
      3          8           0        1.337006    0.978455   -0.000000
      4          1           0        1.035610    0.035918   -0.000000
      5          6           0        0.663826    3.237808   -0.000000
      6          1           0       -0.224076    3.860133   -0.000000
      7          1           0        1.272696    3.454279    0.876781
      8          1           0        1.272696    3.454279   -0.876781
      9          1           0       -1.668411   -2.370132    1.379195
     10          1           0       -1.280297   -0.626692    1.315483
     11          1           0       -0.294897   -1.733895    2.299403
     12          1           0       -0.294897   -1.733895   -2.299403
     13          1           0       -1.280297   -0.626692   -1.315483
     14          1           0       -1.668411   -2.370132   -1.379195
     15          6           0       -0.870129   -1.631219    1.382643
     16         16           0        0.264394   -1.925801    0.000000
     17          6           0       -0.870129   -1.631219   -1.382643
 ---------------------------------------------------------------------

 SCF Done:  E(RHF) =  -704.742478938     A.U. after    2 cycles

 The electronic state is 1-A'.
 Alpha  occ. eigenvalues --  -93.53594 -20.60176 -20.55482 -11.39354 -11.26048
 Alpha  occ. eigenvalues --  -11.26032 -11.24762  -8.83401  -6.17546  -6.17352
 Alpha  occ. eigenvalues --   -6.17148  -1.41184  -1.31442  -1.05843  -1.01441
 Alpha  occ. eigenvalues --   -0.95090  -0.82990  -0.80417  -0.71120  -0.68537
 Alpha  occ. eigenvalues --   -0.65255  -0.61373  -0.60825  -0.58195  -0.58029
 Alpha  occ. eigenvalues --   -0.57135  -0.56846  -0.55664  -0.49962  -0.48998
 Alpha  occ. eigenvalues --   -0.46450  -0.43952  -0.35286
 Alpha virt. eigenvalues --    0.03489   0.04391   0.04546   0.05418   0.06136
 Alpha virt. eigenvalues --    0.06339   0.07274   0.07479   0.08120   0.08968
 Alpha virt. eigenvalues --    0.11013   0.11477   0.13409   0.14471   0.14892

 Mulliken charges:
               1
     1  C    0.255790
     2  O   -0.510577
     3  O   -0.474252
     4  H    0.325589
     5  C    0.431566
     6  H   -0.034280
     7  H    0.041704
     8  H    0.041704
     9  H   -0.099840
    10  H   -0.130698
    11  H   -0.093061
    12  H   -0.093061
    13  H   -0.130698
    14  H   -0.099840
    15  C    0.276800
    16  S    0.016356
    17  C    0.276800
 Sum of Mulliken charges =  -0.00000

 Dipole moment (field-independent basis, Debye):
    X=             -0.1755    Y=              0.4511    Z=             -0.0000  Tot=              0.4841

 Test job not archived.
 1\1\GINC-SE041\SP\RHF\Aug-CC-pVDZ\C4H10O2S1\OHZDE\09-Apr-2025\0\\#t hf
  aug-cc-pvdz iop(5/13=1,5/36=2,99/5=2) pseudo=read geom=check guess=(r
 ead,tcheck) scf=(maxcycle=1)\\title\\0,1\C,0,0.08152563,1.86646531,0.\
 O,0,1.12794826,1.25988757,0.\O,0,-1.11612638,1.27040068,0.\H,0,-0.9946
 6015,0.28833063,0.\C,0,-0.03582077,3.36582142,0.\H,0,0.95204799,3.8127
 8193,0.\H,0,-0.5940149,3.69140047,-0.87678098\H,0,-0.5940149,3.6914004
 7,0.87678098\H,0,1.21651999,-2.57723913,-1.37919498\H,0,1.15829343,-0.
 79207113,-1.31548339\H,0,-0.01526051,-1.69743449,-2.29940307\H,0,-0.01

 Normal termination of Gaussian 16 at Wed Apr  9 17:39:49 2025.
