 Gaussian 16, Revision C.01,

 ----------------------------------------------------------------------
 #t hf aug-cc-pvdz symm=none int=(grid=ultrafine) guess=(read,tcheck) s
 table=(opt,rrhf)
 ----------------------------------------------------------------------
 -----
 title
 -----
 Symbolic Z-matrix:
 Charge =  0 Multiplicity = 1

 SCF Done:  E(RHF) =  -648.897413430     A.U. after   13 cycles
 Normal termination of Gaussian 16 at Wed Apr  9 17:32:04 2025.
 Gaussian 16:  ES64L-G16RevC.01  3-Jul-2019

 ----------------------------------------------------------------------
 #t hf aug-cc-pvdz iop(5/13=1,5/36=2,99/5=2) pseudo=read geom=check gue
 ss=(read,tcheck) scf=(maxcycle=1)
 ----------------------------------------------------------------------
 -----
 title
 -----
 Structure from the checkpoint file:  "HB300SPXx10_1081_4.12_0.80_methylamine_tetrahydrothiophene_dimer_mol1.chk"
 Charge =  0 Multiplicity = 1

                         Standard orientation:
 ---------------------------------------------------------------------
 Center     Atomic      Atomic             Coordinates (Angstroms)
 Number     Number       Type             X           Y           Z
 ---------------------------------------------------------------------
      1          7           0       -1.867375   -0.292622   -0.857999
      2          1           0       -1.207400   -0.892260   -0.373836
      3          1           0       -2.379692   -0.874559   -1.507171
      4          6           0       -2.777690    0.337837    0.096510
      5          1           0       -3.492870    0.961939   -0.438468
      6          1           0       -3.342614   -0.359273    0.726468
      7          1           0       -2.209878    0.994151    0.756144
      8          1           0        1.195297    0.603906    2.074049
      9          1           0       -0.545348    0.516786    1.788872
     10          1           0        0.840959    2.453543    0.550879
     11          1           0        0.531674   -0.625049   -1.783582
     12          1           0       -0.351779    1.541556   -0.380888
     13          1           0        2.158465   -1.151734   -1.318192
     14          1           0        1.732124    1.468733   -1.687822
     15          1           0        2.640943    0.963117   -0.264212
     16         16           0        0.640319   -1.206121    0.565354
     17          6           0        0.430317    0.463335    1.312973
     18          6           0        0.585441    1.464586    0.169544
     19          6           0        1.667678    0.908646   -0.754854
     20          6           0        1.303692   -0.550163   -1.021157
 ---------------------------------------------------------------------

 SCF Done:  E(RHF) =  -648.996810477     A.U. after    2 cycles

 The electronic state is 1-A.
 Alpha  occ. eigenvalues --  -93.51614 -15.58348 -11.26140 -11.25829 -11.24642
 Alpha  occ. eigenvalues --  -11.23710 -11.23169  -8.81471  -6.15607  -6.15447
 Alpha  occ. eigenvalues --   -6.15220  -1.13182  -1.11023  -0.97882  -0.95698
 Alpha  occ. eigenvalues --   -0.88489  -0.79140  -0.77914  -0.67820  -0.64142
 Alpha  occ. eigenvalues --   -0.63366  -0.60716  -0.59105  -0.55641  -0.53800
 Alpha  occ. eigenvalues --   -0.51659  -0.50253  -0.49026  -0.47794  -0.47506
 Alpha  occ. eigenvalues --   -0.42103  -0.37359  -0.32917
 Alpha virt. eigenvalues --    0.03357   0.04187   0.04274   0.04659   0.06141
 Alpha virt. eigenvalues --    0.06232   0.06435   0.06890   0.08131   0.08948
 Alpha virt. eigenvalues --    0.09361   0.10109   0.10180   0.12019   0.13336

 Mulliken charges:
               1
     1  N   -0.433778
     2  H    0.158101
     3  H    0.025534
     4  C    0.947114
     5  H   -0.173822
     6  H   -0.128320
     7  H   -0.362732
     8  H   -0.151817
     9  H   -0.177418
    10  H   -0.085676
    11  H   -0.162984
    12  H   -0.231012
    13  H   -0.108054
    14  H   -0.108191
    15  H   -0.162613
    16  S    0.155426
    17  C    0.196806
    18  C    0.394578
    19  C    0.112220
    20  C    0.296640
 Sum of Mulliken charges =  -0.00000

 Dipole moment (field-independent basis, Debye):
    X=             -0.0246    Y=              1.0451    Z=             -0.2569  Tot=              1.0765

 Test job not archived.
 1\1\GINC-SE162\SP\RHF\Aug-CC-pVDZ\C5H13N1S1\OHZDE\09-Apr-2025\0\\#t hf
  aug-cc-pvdz iop(5/13=1,5/36=2,99/5=2) pseudo=read geom=check guess=(r
 ead,tcheck) scf=(maxcycle=1)\\title\\0,1\N,0,-0.48023551,2.04199658,1.
 33183501\H,0,-0.98136805,1.22913012,0.98881982\H,0,-1.14375731,2.80345
 765,1.38144373\C,0,0.08991425,1.76981847,2.65020044\H,0,0.60698078,2.6
 5693888,3.01468146\H,0,-0.63523497,1.46399211,3.41346792\H,0,0.8338340
 5,0.97768014,2.5643137\H,0,0.87882826,-1.95557088,0.35560396\H,0,0.589
 0062,-0.81296124,1.67059715\H,0,2.60705799,-0.30150184,-0.02391735\H,0

 Normal termination of Gaussian 16 at Wed Apr  9 17:32:14 2025.
