 Gaussian 16, Revision C.01,

 ----------------------------------------------------------------------
 #t hf aug-cc-pvdz symm=none int=(grid=ultrafine) guess=(read,tcheck) s
 table=(opt,rrhf)
 ----------------------------------------------------------------------
 -----
 title
 -----
 Symbolic Z-matrix:
 Charge =  0 Multiplicity = 1

 SCF Done:  E(RHF) =  -747.045678500     A.U. after   14 cycles
 Normal termination of Gaussian 16 at Wed Apr  9 17:59:30 2025.
 Gaussian 16:  ES64L-G16RevC.01  3-Jul-2019

 ----------------------------------------------------------------------
 #t hf aug-cc-pvdz iop(5/13=1,5/36=2,99/5=2) pseudo=read geom=check gue
 ss=(read,tcheck) scf=(maxcycle=1)
 ----------------------------------------------------------------------
 -----
 title
 -----
 Structure from the checkpoint file:  "HB300SPXx10_1459_5.08_1.50_methylcyanate_phosphineF2_dimer_mol1.chk"
 Charge =  0 Multiplicity = 1

                         Standard orientation:
 ---------------------------------------------------------------------
 Center     Atomic      Atomic             Coordinates (Angstroms)
 Number     Number       Type             X           Y           Z
 ---------------------------------------------------------------------
      1          1           0       -3.529910   -1.062066    1.301207
      2          1           0       -4.125801   -1.753052   -0.235655
      3          1           0       -2.370277   -1.740663    0.116884
      4          6           0       -3.315020   -1.223191    0.248334
      5          8           0       -3.253428    0.071501   -0.431100
      6          6           0       -2.324473    0.858126   -0.039997
      7          7           0       -1.490168    1.587508    0.286408
      8         15           0        2.291506    0.391406   -0.160756
      9          9           0        1.248384   -0.837207   -0.104327
     10          9           0        3.624158   -0.453122    0.130442
     11          1           0        2.096084    0.803465    1.187798
 ---------------------------------------------------------------------

 SCF Done:  E(RHF) =  -747.223323760     A.U. after    2 cycles

 The electronic state is 1-A.
 Alpha  occ. eigenvalues --  -81.39339 -26.13505 -26.13401 -20.67691 -15.63743
 Alpha  occ. eigenvalues --  -11.35465 -11.34468  -7.88072  -5.02176  -5.01904
 Alpha  occ. eigenvalues --   -5.01419  -1.67015  -1.65493  -1.45153  -1.19300
 Alpha  occ. eigenvalues --   -1.01911  -0.89591  -0.81247  -0.78976  -0.77404
 Alpha  occ. eigenvalues --   -0.76585  -0.73382  -0.72620  -0.71236  -0.70656
 Alpha  occ. eigenvalues --   -0.61528  -0.60110  -0.58686  -0.55542  -0.46283
 Alpha  occ. eigenvalues --   -0.44576  -0.40429
 Alpha virt. eigenvalues --    0.02586   0.04667   0.05200   0.05922   0.06667
 Alpha virt. eigenvalues --    0.08301   0.08865   0.09660   0.11065   0.11741
 Alpha virt. eigenvalues --    0.13268   0.14287   0.14595   0.15207   0.15619

 Mulliken charges:
               1
     1  H   -0.066170
     2  H   -0.162921
     3  H   -0.058104
     4  C    0.839891
     5  O   -0.380941
     6  C   -0.089167
     7  N   -0.085920
     8  P    1.245174
     9  F   -0.634979
    10  F   -0.619906
    11  H    0.013043
 Sum of Mulliken charges =  -0.00000

 Dipole moment (field-independent basis, Debye):
    X=             -2.9312    Y=             -2.1042    Z=              0.6912  Tot=              3.6739

 Test job not archived.
 1\1\GINC-SE045\SP\RHF\Aug-CC-pVDZ\C2H4F2N1O1P1\OHZDE\09-Apr-2025\0\\#t
  hf aug-cc-pvdz iop(5/13=1,5/36=2,99/5=2) pseudo=read geom=check guess
 =(read,tcheck) scf=(maxcycle=1)\\title\\0,1\H,0,-2.89287834,1.38344137
 ,-2.41875402\H,0,-2.88368966,0.15494314,-3.71690786\H,0,-2.33807438,-0
 .28314113,-2.0686702\C,0,-2.39546429,0.50243917,-2.8151059\O,0,-1.0419
 8507,0.86597867,-3.23651367\C,0,-0.26338211,1.27221362,-2.30729377\N,0
 ,0.4658792,1.6354549,-1.48824768\P,0,1.32139154,-0.89240002,1.47986996
 \F,0,-0.0662107,-1.24464167,0.73740054\F,0,1.07413141,-1.76028358,2.80

 Normal termination of Gaussian 16 at Wed Apr  9 17:59:36 2025.
