 Gaussian 16, Revision C.01,

 ----------------------------------------------------------------------
 #t hf aug-cc-pvdz symm=none int=(grid=ultrafine) guess=(read,tcheck) s
 table=(opt,rrhf)
 ----------------------------------------------------------------------
 -----
 title
 -----
 Symbolic Z-matrix:
 Charge =  0 Multiplicity = 1

 SCF Done:  E(RHF) =  -897.820686029     A.U. after   12 cycles
 Normal termination of Gaussian 16 at Wed Apr  9 04:10:05 2025.
 Gaussian 16:  ES64L-G16RevC.01  3-Jul-2019

 ----------------------------------------------------------------------
 #t hf aug-cc-pvdz iop(5/13=1,5/36=2,99/5=2) pseudo=read geom=check gue
 ss=(read,tcheck) scf=(maxcycle=1)
 ----------------------------------------------------------------------
 -----
 title
 -----
 Structure from the checkpoint file:  "HB300SPXx10_1333_4.38_0.90_hydrogenchloride_methanethiol_dimer_mol1.chk"
 Charge =  0 Multiplicity = 1

                         Standard orientation:
 ---------------------------------------------------------------------
 Center     Atomic      Atomic             Coordinates (Angstroms)
 Number     Number       Type             X           Y           Z
 ---------------------------------------------------------------------
      1          1           0       -0.768937   -0.402390   -0.090640
      2         17           0       -1.990708    0.059239    0.004338
      3          1           0        0.646040    1.587021    0.556252
      4          1           0        1.470938    1.489384   -1.005033
      5          1           0        2.418853    1.372138    0.484886
      6          1           0        1.267175   -0.933698    1.232097
      7          6           0        1.469729    1.126955    0.019123
      8         16           0        1.249350   -0.680078   -0.085378
 ---------------------------------------------------------------------

 SCF Done:  E(RHF) =  -897.874843715     A.U. after    2 cycles

 The electronic state is 1-A.
 Alpha  occ. eigenvalues -- -103.64022 -93.56257 -11.28644 -10.67379  -8.86084
 Alpha  occ. eigenvalues --   -8.33117  -8.32841  -8.32838  -6.20236  -6.20015
 Alpha  occ. eigenvalues --   -6.19805  -1.13036  -1.05186  -0.88689  -0.63816
 Alpha  occ. eigenvalues --   -0.62826  -0.59635  -0.55217  -0.48195  -0.46083
 Alpha  occ. eigenvalues --   -0.46046  -0.38321
 Alpha virt. eigenvalues --    0.03090   0.04642   0.05448   0.06230   0.08047
 Alpha virt. eigenvalues --    0.10039   0.11074   0.12682   0.14157   0.14335
 Alpha virt. eigenvalues --    0.16035   0.16503   0.17204   0.18130   0.19597

 Mulliken charges:
               1
     1  H    0.295402
     2  Cl  -0.214063
     3  H   -0.138010
     4  H   -0.056470
     5  H   -0.106196
     6  H    0.135130
     7  C    0.179744
     8  S   -0.095537
 Sum of Mulliken charges =  -0.00000

 Dipole moment (field-independent basis, Debye):
    X=              2.8634    Y=              0.8611    Z=              0.7504  Tot=              3.0828

 Test job not archived.
 1\1\GINC-SE009\SP\RHF\Aug-CC-pVDZ\C1H5Cl1S1\OHZDE\09-Apr-2025\0\\#t hf
  aug-cc-pvdz iop(5/13=1,5/36=2,99/5=2) pseudo=read geom=check guess=(r
 ead,tcheck) scf=(maxcycle=1)\\title\\0,1\H,0,-0.71323053,0.36081391,-0
 .38963987\Cl,0,-0.97574618,1.50432633,-0.9712843\H,0,1.63589532,0.6867
 3575,0.47855695\H,0,2.1610007,-0.71909448,-0.45712847\H,0,2.39325025,-
 0.70974569,1.29732939\H,0,-0.24038845,-0.6907244,1.81225903\C,0,1.7401
 4352,-0.39383358,0.49015012\S,0,0.11143945,-1.20286144,0.62300917\\Ver
 sion=ES64L-G16RevC.01\State=1-A\HF=-897.8748437\RMSD=5.743e-03\Dipole=

 Normal termination of Gaussian 16 at Wed Apr  9 04:10:07 2025.
