 Gaussian 16, Revision C.01,

 ----------------------------------------------------------------------
 #t hf aug-cc-pvdz symm=none int=(grid=ultrafine) guess=(read,tcheck) s
 table=(opt,rrhf)
 ----------------------------------------------------------------------
 -----
 title
 -----
 Symbolic Z-matrix:
 Charge =  0 Multiplicity = 1

 SCF Done:  E(RHF) =  -742.466180337     A.U. after   14 cycles
 Normal termination of Gaussian 16 at Wed Apr  9 17:40:59 2025.
 Gaussian 16:  ES64L-G16RevC.01  3-Jul-2019

 ----------------------------------------------------------------------
 #t hf aug-cc-pvdz iop(5/13=1,5/36=2,99/5=2) pseudo=read geom=check gue
 ss=(read,tcheck) scf=(maxcycle=1)
 ----------------------------------------------------------------------
 -----
 title
 -----
 Structure from the checkpoint file:  "HB300SPXx10_1131_4.17_0.80_aceticacid_thioacetone_dimer_mol1.chk"
 Charge =  0 Multiplicity = 1

                         Standard orientation:
 ---------------------------------------------------------------------
 Center     Atomic      Atomic             Coordinates (Angstroms)
 Number     Number       Type             X           Y           Z
 ---------------------------------------------------------------------
      1          6           0       -1.913320    1.126757    0.000000
      2          8           0       -1.998171   -0.078482    0.000000
      3          8           0       -0.748308    1.785936    0.000000
      4          1           0        0.000000    1.146584    0.000000
      5          6           0       -3.087717    2.066619    0.000000
      6          1           0       -4.012347    1.500298    0.000000
      7          1           0       -3.043501    2.711074    0.876954
      8          1           0       -3.043501    2.711074   -0.876954
      9          1           0        3.653160   -1.589241    0.000000
     10          1           0        2.708501   -2.815909    0.874412
     11          1           0        2.708501   -2.815909   -0.874412
     12          1           0       -0.641519   -1.318395    0.000000
     13          1           0        0.154379   -2.648321   -0.872921
     14          6           0        2.731403   -2.160821    0.000000
     15          6           0        1.520937   -1.278876    0.000000
     16         16           0        1.660941    0.346003    0.000000
     17          6           0        0.208483   -1.991780    0.000000
     18          1           0        0.154379   -2.648321    0.872921
 ---------------------------------------------------------------------

 SCF Done:  E(RHF) =  -742.597585298     A.U. after    2 cycles

 The electronic state is 1-A'.
 Alpha  occ. eigenvalues --  -93.51715 -20.58229 -20.54803 -11.38672 -11.34610
 Alpha  occ. eigenvalues --  -11.25908 -11.24097 -11.23481  -8.81961  -6.16143
 Alpha  occ. eigenvalues --   -6.15735  -6.15645  -1.40324  -1.30786  -1.12034
 Alpha  occ. eigenvalues --   -1.00961  -0.96765  -0.95384  -0.82386  -0.72590
 Alpha  occ. eigenvalues --   -0.71736  -0.67684  -0.64305  -0.62133  -0.62064
 Alpha  occ. eigenvalues --   -0.60887  -0.57812  -0.56484  -0.55925  -0.54954
 Alpha  occ. eigenvalues --   -0.53223  -0.50510  -0.48387  -0.44856  -0.39572
 Alpha  occ. eigenvalues --   -0.35463
 Alpha virt. eigenvalues --    0.03151   0.04056   0.04246   0.05192   0.06242
 Alpha virt. eigenvalues --    0.06303   0.06431   0.06460   0.07897   0.07950
 Alpha virt. eigenvalues --    0.09055   0.09798   0.12522   0.13116   0.13275

 Mulliken charges:
               1
     1  C    0.220686
     2  O   -0.483844
     3  O   -0.495887
     4  H    0.276563
     5  C    0.448581
     6  H   -0.065806
     7  H    0.039208
     8  H    0.039208
     9  H   -0.081415
    10  H    0.047342
    11  H    0.047342
    12  H   -0.498889
    13  H    0.161811
    14  C    0.422184
    15  C   -0.923201
    16  S    0.035883
    17  C    0.648424
    18  H    0.161811
 Sum of Mulliken charges =   0.00000

 Dipole moment (field-independent basis, Debye):
    X=              0.6626    Y=             -1.8580    Z=             -0.0000  Tot=              1.9726

 Test job not archived.
 1\1\GINC-SE041\SP\RHF\Aug-CC-pVDZ\C5H10O2S1\OHZDE\09-Apr-2025\0\\#t hf
  aug-cc-pvdz iop(5/13=1,5/36=2,99/5=2) pseudo=read geom=check guess=(r
 ead,tcheck) scf=(maxcycle=1)\\title\\0,1\C,0,0.15920132,2.45664609,0.\
 O,0,1.21885316,1.87618237,0.\O,0,-1.02533188,1.83322707,0.\H,0,-0.8922
 641,0.85801947,0.\C,0,0.00380934,3.95277518,0.\H,0,0.98023034,4.424223
 4,0.\H,0,-0.56217465,4.2641268,-0.87695442\H,0,-0.56217465,4.2641268,0
 .87695442\H,0,-0.56683422,-3.69438738,0.\H,0,0.9758559,-3.56323056,-0.
 87441231\H,0,0.9758559,-3.56323056,0.87441231\H,0,1.52805716,0.0644759

 Normal termination of Gaussian 16 at Wed Apr  9 17:41:06 2025.
