 Gaussian 16, Revision C.01,

 ----------------------------------------------------------------------
 #t hf aug-cc-pvdz symm=none int=(grid=ultrafine) guess=(read,tcheck) s
 table=(opt,rrhf)
 ----------------------------------------------------------------------
 -----
 title
 -----
 Symbolic Z-matrix:
 Charge =  0 Multiplicity = 1

 SCF Done:  E(RHF) =  -398.677760169     A.U. after   11 cycles
 Normal termination of Gaussian 16 at Wed Apr  9 17:34:04 2025.
 Gaussian 16:  ES64L-G16RevC.01  3-Jul-2019

 ----------------------------------------------------------------------
 #t hf aug-cc-pvdz iop(5/13=1,5/36=2,99/5=2) pseudo=read geom=check gue
 ss=(read,tcheck) scf=(maxcycle=1)
 ----------------------------------------------------------------------
 -----
 title
 -----
 Structure from the checkpoint file:  "HB300SPXx10_10_1.01_2.00_phosphine_ammonia_dimer_mol1.chk"
 Charge =  0 Multiplicity = 1

                         Standard orientation:
 ---------------------------------------------------------------------
 Center     Atomic      Atomic             Coordinates (Angstroms)
 Number     Number       Type             X           Y           Z
 ---------------------------------------------------------------------
      1         15           0        2.478244   -0.000015   -0.116804
      2          1           0        1.069003    0.001677    0.035958
      3          1           0        2.681335   -1.032531    0.833675
      4          1           0        2.683601    1.032546    0.833118
      5          7           0       -4.249140    0.000890   -0.000184
      6          1           0       -4.652204   -0.522400   -0.767134
      7          1           0       -4.578551   -0.421924    0.858404
      8          1           0       -4.632870    0.936624   -0.040669
 ---------------------------------------------------------------------

 SCF Done:  E(RHF) =  -398.720512861     A.U. after    2 cycles

 The electronic state is 1-A.
 Alpha  occ. eigenvalues --  -81.25494 -15.60896  -7.75936  -4.89832  -4.89831
 Alpha  occ. eigenvalues --   -4.89542  -1.10956  -0.80034  -0.62827  -0.62818
 Alpha  occ. eigenvalues --   -0.51308  -0.51230  -0.42232  -0.36804
 Alpha virt. eigenvalues --    0.03378   0.04379   0.05490   0.05547   0.07644
 Alpha virt. eigenvalues --    0.09004   0.10381   0.10427   0.11104   0.17051
 Alpha virt. eigenvalues --    0.18711   0.19720   0.19742   0.20639   0.21208

 Mulliken charges:
               1
     1  P   -0.234666
     2  H    0.085547
     3  H    0.075612
     4  H    0.075607
     5  N   -0.095993
     6  H    0.031561
     7  H    0.031059
     8  H    0.031272
 Sum of Mulliken charges =  -0.00000

 Dipole moment (field-independent basis, Debye):
    X=             -1.9294    Y=             -0.0143    Z=              0.5935  Tot=              2.0186

 Test job not archived.
 1\1\GINC-SE226\SP\RHF\Aug-CC-pVDZ\H6N1P1\OHZDE\09-Apr-2025\0\\#t hf au
 g-cc-pvdz iop(5/13=1,5/36=2,99/5=2) pseudo=read geom=check guess=(read
 ,tcheck) scf=(maxcycle=1)\\title\\0,1\P,0,1.20126953,-0.204174,-0.6935
 9914\H,0,0.00711135,-0.04100571,0.05249812\H,0,1.148472,-1.62079109,-0
 .65962828\H,0,2.04295792,-0.12244727,0.44463924\N,0,-4.64187771,0.9753
 0349,2.42693842\H,0,-5.39430556,1.17882709,1.78123309\H,0,-4.916684,0.
 16136348,2.96213911\H,0,-4.58144649,1.75272222,3.07227113\\Version=ES6
 4L-G16RevC.01\State=1-A\HF=-398.7205129\RMSD=9.997e-03\Dipole=-0.61163

 Normal termination of Gaussian 16 at Wed Apr  9 17:34:05 2025.
