 Gaussian 16, Revision C.01,

 ----------------------------------------------------------------------
 #t hf aug-cc-pvdz symm=none int=(grid=ultrafine) guess=(read,tcheck) s
 table=(opt,rrhf)
 ----------------------------------------------------------------------
 -----
 title
 -----
 Symbolic Z-matrix:
 Charge =  0 Multiplicity = 1

 SCF Done:  E(RHF) =  -1312.01331312     A.U. after   13 cycles

 1\1\GINC-SE041\Stability\RHF\Aug-CC-pVDZ\C3H10S3\OHZDE\09-Apr-2025\0\\
 #t hf aug-cc-pvdz symm=none int=(grid=ultrafine) guess=(read,tcheck) s
 table=(opt,rrhf)\\title\\0,1\H,0,1.01554051,-2.06430295,-0.26345232\H,
 0,1.41221348,-3.50790796,0.68330627\H,0,2.28776701,-1.9997821,0.978385
 09\H,0,0.09227498,-0.7095981,1.83267489\C,0,1.324424,-2.42503809,0.712
 77693\S,0,0.06941485,-2.04508424,1.97921636\H,0,-2.69963741,0.19572079
 ,0.85975429\H,0,-1.64904896,-1.13147427,0.32383707\H,0,-2.27553103,0.0
 6093374,-0.85678799\H,0,0.54081048,2.41400368,-2.11227706\H,0,-0.47391

 Normal termination of Gaussian 16 at Wed Apr  9 17:45:01 2025.
 Gaussian 16:  ES64L-G16RevC.01  3-Jul-2019

 ----------------------------------------------------------------------
 #t hf aug-cc-pvdz iop(5/13=1,5/36=2,99/5=2) pseudo=read geom=check gue
 ss=(read,tcheck) scf=(maxcycle=1)
 ----------------------------------------------------------------------
 -----
 title
 -----
 Structure from the checkpoint file:  "HB300SPXx10_1171_4.22_0.80_methanethiol_dimethyldisulfide_dimer_mol1.chk"
 Charge =  0 Multiplicity = 1

                         Standard orientation:
 ---------------------------------------------------------------------
 Center     Atomic      Atomic             Coordinates (Angstroms)
 Number     Number       Type             X           Y           Z
 ---------------------------------------------------------------------
      1          1           0        1.033180   -1.556164    0.837602
      2          1           0        2.747171   -1.999556    0.895351
      3          1           0        1.860042   -2.130603   -0.629096
      4          1           0        1.426985    0.515644   -0.785333
      5          6           0        1.967203   -1.552970    0.284292
      6         16           0        2.508923    0.149647   -0.077536
      7          1           0        0.025885    2.819362    0.728190
      8          1           0        0.669925    1.266809    1.300186
      9          1           0       -1.023470    1.730591    1.654464
     10          1           0       -3.527590   -0.395652   -0.407924
     11          1           0       -2.976014   -0.210579    1.278517
     12          1           0       -3.188920   -1.829372    0.586608
     13          6           0       -0.215089    1.776354    0.930341
     14         16           0       -0.732856    1.064028   -0.662737
     15         16           0       -1.164128   -0.884247   -0.195934
     16          6           0       -2.891818   -0.803604    0.372157
 ---------------------------------------------------------------------

 SCF Done:  E(RHF) =  -1312.11776236     A.U. after    2 cycles

 The electronic state is 1-A.
 Alpha  occ. eigenvalues --  -93.56100 -93.55923 -93.51204 -11.27540 -11.26691
 Alpha  occ. eigenvalues --  -11.25188  -8.85752  -8.85614  -8.81074  -6.19906
 Alpha  occ. eigenvalues --   -6.19730  -6.19610  -6.19499  -6.19398  -6.19170
 Alpha  occ. eigenvalues --   -6.15251  -6.15042  -6.14758  -1.08040  -1.01475
 Alpha  occ. eigenvalues --   -1.00561  -0.90621  -0.84966  -0.78418  -0.62349
 Alpha  occ. eigenvalues --   -0.61554  -0.60625  -0.59236  -0.58718  -0.57928
 Alpha  occ. eigenvalues --   -0.53657  -0.51759  -0.49147  -0.44917  -0.44138
 Alpha  occ. eigenvalues --   -0.36273  -0.35044  -0.33874
 Alpha virt. eigenvalues --    0.03235   0.04339   0.04689   0.05310   0.06079
 Alpha virt. eigenvalues --    0.06639   0.07195   0.07730   0.08067   0.09206
 Alpha virt. eigenvalues --    0.09968   0.11593   0.12582   0.13135   0.13762

 Mulliken charges:
               1
     1  H   -0.156103
     2  H   -0.142061
     3  H   -0.127570
     4  H    0.231997
     5  C    0.262455
     6  S    0.048692
     7  H   -0.064766
     8  H   -0.138916
     9  H   -0.115805
    10  H   -0.040040
    11  H   -0.082610
    12  H   -0.074482
    13  C    0.312724
    14  S   -0.118650
    15  S    0.195901
    16  C    0.009234
 Sum of Mulliken charges =  -0.00000

 Dipole moment (field-independent basis, Debye):
    X=             -2.7557    Y=             -0.4002    Z=              1.8023  Tot=              3.3170

 Test job not archived.
 1\1\GINC-SE041\SP\RHF\Aug-CC-pVDZ\C3H10S3\OHZDE\09-Apr-2025\0\\#t hf a
 ug-cc-pvdz iop(5/13=1,5/36=2,99/5=2) pseudo=read geom=check guess=(rea
 d,tcheck) scf=(maxcycle=1)\\title\\0,1\H,0,1.01554051,-2.06430295,-0.2
 6345232\H,0,1.41221348,-3.50790796,0.68330627\H,0,2.28776701,-1.999782
 1,0.97838509\H,0,0.09227498,-0.7095981,1.83267489\C,0,1.324424,-2.4250
 3809,0.71277693\S,0,0.06941485,-2.04508424,1.97921636\H,0,-2.69963741,
 0.19572079,0.85975429\H,0,-1.64904896,-1.13147427,0.32383707\H,0,-2.27
 553103,0.06093374,-0.85678799\H,0,0.54081048,2.41400368,-2.11227706\H,

 Normal termination of Gaussian 16 at Wed Apr  9 17:45:07 2025.
