 Gaussian 16, Revision C.01,

 ----------------------------------------------------------------------
 #t hf aug-cc-pvdz symm=none int=(grid=ultrafine) guess=(read,tcheck) s
 table=(opt,rrhf)
 ----------------------------------------------------------------------
 -----
 title
 -----
 Symbolic Z-matrix:
 Charge =  0 Multiplicity = 1

 SCF Done:  E(RHF) =  -609.889708465     A.U. after   13 cycles
 Normal termination of Gaussian 16 at Wed Apr  9 17:28:14 2025.
 Gaussian 16:  ES64L-G16RevC.01  3-Jul-2019

 ----------------------------------------------------------------------
 #t hf aug-cc-pvdz iop(5/13=1,5/36=2,99/5=2) pseudo=read geom=check gue
 ss=(read,tcheck) scf=(maxcycle=1)
 ----------------------------------------------------------------------
 -----
 title
 -----
 Structure from the checkpoint file:  "HB300SPXx10_1056_4.09_1.05_ammonia_tetrahydrothiophene_dimer_mol1.chk"
 Charge =  0 Multiplicity = 1

                         Standard orientation:
 ---------------------------------------------------------------------
 Center     Atomic      Atomic             Coordinates (Angstroms)
 Number     Number       Type             X           Y           Z
 ---------------------------------------------------------------------
      1          7           0       -2.932083    0.434568   -0.188921
      2          1           0       -2.280287   -0.338470   -0.084487
      3          1           0       -3.600781    0.368191    0.568189
      4          1           0       -3.445862    0.281740   -1.047660
      5          1           0        1.448122   -0.187132    1.924969
      6          1           0       -0.302765   -0.005075    2.084068
      7          1           0        1.107958    2.088683    1.170511
      8          1           0       -0.255104    0.012995   -1.806834
      9          1           0       -0.408217    1.659843    0.369518
     10          1           0        1.314704   -0.786101   -1.979127
     11          1           0        1.287717    1.832935   -1.414191
     12          1           0        2.386694    0.795279   -0.507148
     13         16           0        0.280300   -1.328874    0.139198
     14          6           0        0.526158    0.008846    1.381202
     15          6           0        0.601045    1.315464    0.592589
     16          6           0        1.334508    1.001564   -0.710469
     17          6           0        0.669557   -0.243020   -1.293744
 ---------------------------------------------------------------------

 SCF Done:  E(RHF) =  -609.977766683     A.U. after    2 cycles

 The electronic state is 1-A.
 Alpha  occ. eigenvalues --  -93.51577 -15.59997 -11.26032 -11.25988 -11.23787
 Alpha  occ. eigenvalues --  -11.23339  -8.81350  -6.15481  -6.15323  -6.15020
 Alpha  occ. eigenvalues --   -1.11270  -1.10105  -0.97809  -0.95416  -0.79105
 Alpha  occ. eigenvalues --   -0.77659  -0.65816  -0.63704  -0.62082  -0.61860
 Alpha  occ. eigenvalues --   -0.59958  -0.54649  -0.50510  -0.49099  -0.47975
 Alpha  occ. eigenvalues --   -0.47408  -0.41920  -0.41437  -0.33088
 Alpha virt. eigenvalues --    0.03490   0.04312   0.04344   0.05222   0.06187
 Alpha virt. eigenvalues --    0.06230   0.06947   0.07544   0.08408   0.09090
 Alpha virt. eigenvalues --    0.09420   0.11604   0.13308   0.14707   0.14751

 Mulliken charges:
               1
     1  N   -0.180752
     2  H    0.071057
     3  H    0.054030
     4  H    0.050831
     5  H   -0.130850
     6  H   -0.140979
     7  H   -0.060017
     8  H   -0.166432
     9  H   -0.207106
    10  H   -0.079809
    11  H   -0.080592
    12  H   -0.164585
    13  S    0.373454
    14  C    0.030907
    15  C    0.339503
    16  C    0.211552
    17  C    0.079787
 Sum of Mulliken charges =  -0.00000

 Dipole moment (field-independent basis, Debye):
    X=             -0.1018    Y=              0.9139    Z=             -0.1725  Tot=              0.9356

 Test job not archived.
 1\1\GINC-SE162\SP\RHF\Aug-CC-pVDZ\C4H11N1S1\OHZDE\09-Apr-2025\0\\#t hf
  aug-cc-pvdz iop(5/13=1,5/36=2,99/5=2) pseudo=read geom=check guess=(r
 ead,tcheck) scf=(maxcycle=1)\\title\\0,1\N,0,-1.82627315,2.2398073,0.1
 9813908\H,0,-1.3275361,1.71497926,-0.51540753\H,0,-2.80551666,2.240204
 76,-0.05849198\H,0,-1.50884454,3.19950412,0.14356214\H,0,-0.37040001,-
 2.41027766,-0.34810083\H,0,-1.67205102,-1.21465506,-0.36398629\H,0,-0.
 47471936,-1.7486462,1.97904571\H,0,1.19352568,1.3292423,0.31334308\H,0
 ,-0.8061856,-0.0668127,1.54794676\H,0,2.50257614,0.302894,-0.29124997\

 Normal termination of Gaussian 16 at Wed Apr  9 17:28:20 2025.
