 Gaussian 16, Revision C.01,

 ----------------------------------------------------------------------
 #t hf aug-cc-pvdz symm=none int=(grid=ultrafine) guess=(read,tcheck) s
 table=(opt,rrhf)
 ----------------------------------------------------------------------
 -----
 title
 -----
 Symbolic Z-matrix:
 Charge =  0 Multiplicity = 1

 SCF Done:  E(RHF) =  -991.411436485     A.U. after   12 cycles

 1\1\GINC-SE029\Stability\RHF\Aug-CC-pVDZ\C5H12S2\OHZDE\09-Apr-2025\0\\
 #t hf aug-cc-pvdz symm=none int=(grid=ultrafine) guess=(read,tcheck) s
 table=(opt,rrhf)\\title\\0,1\H,0,2.75511322,-2.75302781,-0.03281769\H,
 0,2.23328443,-3.6609344,1.39160682\H,0,2.88304587,-2.02859561,1.588775
 53\H,0,0.87227038,-0.86572365,0.25189781\C,0,2.28978938,-2.67174858,0.
 94522466\S,0,0.57786237,-2.06107277,0.80693494\H,0,-0.67044039,-0.3947
 9112,-1.7123463\H,0,-0.76535363,1.07573054,-2.69170139\H,0,-2.90794694
 ,0.40977582,-1.23108222\H,0,-0.62146827,2.77857433,0.9017218\H,0,-2.36

 Normal termination of Gaussian 16 at Wed Apr  9 17:49:02 2025.
 Gaussian 16:  ES64L-G16RevC.01  3-Jul-2019

 ----------------------------------------------------------------------
 #t hf aug-cc-pvdz iop(5/13=1,5/36=2,99/5=2) pseudo=read geom=check gue
 ss=(read,tcheck) scf=(maxcycle=1)
 ----------------------------------------------------------------------
 -----
 title
 -----
 Structure from the checkpoint file:  "HB300SPXx10_1205_4.25_1.00_methanethiol_tetrahydrothiophene_dimer_mol1.chk"
 Charge =  0 Multiplicity = 1

                         Standard orientation:
 ---------------------------------------------------------------------
 Center     Atomic      Atomic             Coordinates (Angstroms)
 Number     Number       Type             X           Y           Z
 ---------------------------------------------------------------------
      1          1           0        3.644128    1.140977   -0.814620
      2          1           0        4.506985   -0.199256   -0.049872
      3          1           0        3.630433    0.960027    0.956764
      4          1           0        1.230799    0.280821   -0.024648
      5          6           0        3.624115    0.431744    0.007747
      6         16           0        2.180736   -0.674538   -0.116911
      7          1           0       -0.560955   -0.075107   -1.791827
      8          1           0       -2.064684    0.830704   -2.012926
      9          1           0       -2.253309   -1.761121   -1.369131
     10          1           0       -2.246921    0.355649    1.933488
     11          1           0       -3.271608   -0.613366   -0.501814
     12          1           0       -0.511634    0.039574    2.069149
     13          1           0       -2.119972   -1.949036    1.226894
     14          1           0       -0.573065   -1.695139    0.430600
     15         16           0       -1.025030    1.360223    0.103370
     16          6           0       -1.472383    0.262314   -1.301066
     17          6           0       -2.238241   -0.908267   -0.690298
     18          6           0       -1.544546   -1.241895    0.629483
     19          6           0       -1.352527    0.075157    1.381566
 ---------------------------------------------------------------------

 SCF Done:  E(RHF) =  -991.513693705     A.U. after    2 cycles

 The electronic state is 1-A.
 Alpha  occ. eigenvalues --  -93.52174 -93.52056 -11.26408 -11.26377 -11.26178
 Alpha  occ. eigenvalues --  -11.24251 -11.24137  -8.81959  -8.81831  -6.16140
 Alpha  occ. eigenvalues --   -6.15961  -6.15921  -6.15803  -6.15584  -6.15532
 Alpha  occ. eigenvalues --   -1.11736  -1.01821  -0.98304  -0.96029  -0.85295
 Alpha  occ. eigenvalues --   -0.79635  -0.78111  -0.66236  -0.64208  -0.60516
 Alpha  occ. eigenvalues --   -0.60184  -0.58772  -0.55465  -0.52019  -0.50980
 Alpha  occ. eigenvalues --   -0.49669  -0.48387  -0.47884  -0.44861  -0.42266
 Alpha  occ. eigenvalues --   -0.34686  -0.33317
 Alpha virt. eigenvalues --    0.03397   0.03941   0.04597   0.04993   0.05837
 Alpha virt. eigenvalues --    0.06221   0.06474   0.06879   0.08130   0.08398
 Alpha virt. eigenvalues --    0.08718   0.09664   0.11954   0.12811   0.13530

 Mulliken charges:
               1
     1  H   -0.108766
     2  H   -0.101183
     3  H   -0.113696
     4  H    0.128578
     5  C   -0.002511
     6  S    0.190560
     7  H   -0.184984
     8  H   -0.083082
     9  H   -0.081179
    10  H   -0.139319
    11  H   -0.154261
    12  H   -0.136890
    13  H   -0.060709
    14  H   -0.216020
    15  S    0.317499
    16  C    0.149687
    17  C    0.174540
    18  C    0.287232
    19  C    0.134505
 Sum of Mulliken charges =  -0.00000

 Dipole moment (field-independent basis, Debye):
    X=             -0.4674    Y=             -0.4827    Z=              0.0694  Tot=              0.6755

 Test job not archived.
 1\1\GINC-SE029\SP\RHF\Aug-CC-pVDZ\C5H12S2\OHZDE\09-Apr-2025\0\\#t hf a
 ug-cc-pvdz iop(5/13=1,5/36=2,99/5=2) pseudo=read geom=check guess=(rea
 d,tcheck) scf=(maxcycle=1)\\title\\0,1\H,0,2.75511322,-2.75302781,-0.0
 3281769\H,0,2.23328443,-3.6609344,1.39160682\H,0,2.88304587,-2.0285956
 1,1.58877553\H,0,0.87227038,-0.86572365,0.25189781\C,0,2.28978938,-2.6
 7174858,0.94522466\S,0,0.57786237,-2.06107277,0.80693494\H,0,-0.670440
 39,-0.39479112,-1.7123463\H,0,-0.76535363,1.07573054,-2.69170139\H,0,-
 2.90794694,0.40977582,-1.23108222\H,0,-0.62146827,2.77857433,0.9017218

 Normal termination of Gaussian 16 at Wed Apr  9 17:49:10 2025.
