 Gaussian 16, Revision C.01,

 ----------------------------------------------------------------------
 #t hf aug-cc-pvdz symm=none int=(grid=ultrafine) guess=(read,tcheck) s
 table=(opt,rrhf)
 ----------------------------------------------------------------------
 -----
 title
 -----
 Symbolic Z-matrix:
 Charge =  0 Multiplicity = 1

 SCF Done:  E(RHF) =  -1102.15661849     A.U. after   13 cycles
 Normal termination of Gaussian 16 at Wed Apr  9 17:37:58 2025.
 Gaussian 16:  ES64L-G16RevC.01  3-Jul-2019

 ----------------------------------------------------------------------
 #t hf aug-cc-pvdz iop(5/13=1,5/36=2,99/5=2) pseudo=read geom=check gue
 ss=(read,tcheck) scf=(maxcycle=1)
 ----------------------------------------------------------------------
 -----
 title
 -----
 Structure from the checkpoint file:  "HB300SPXx10_1115_4.15_1.00_aceticacid_dimethyldisulfide_dimer_mol1.chk"
 Charge =  0 Multiplicity = 1

                         Standard orientation:
 ---------------------------------------------------------------------
 Center     Atomic      Atomic             Coordinates (Angstroms)
 Number     Number       Type             X           Y           Z
 ---------------------------------------------------------------------
      1          6           0        2.856748   -0.069209   -0.037588
      2          8           0        2.508501    1.077227   -0.186132
      3          8           0        2.001896   -1.104073   -0.042403
      4          1           0        1.095835   -0.760952   -0.196480
      5          6           0        4.276235   -0.517474    0.172460
      6          1           0        4.934638    0.343758    0.191008
      7          1           0        4.354835   -1.070705    1.107255
      8          1           0        4.569392   -1.194240   -0.629141
      9          1           0       -4.699384   -0.694598    0.255191
     10          1           0       -3.975575   -0.094454   -1.252367
     11          1           0       -3.986749    0.928491    0.209903
     12          1           0       -0.454170    1.304758    1.563782
     13          1           0       -1.491055    2.352921    0.555646
     14          1           0        0.250763    2.179930    0.192388
     15          6           0       -3.901941   -0.086044   -0.168979
     16         16           0       -2.342171   -0.855289    0.368033
     17         16           0       -0.921864    0.285911   -0.576312
     18          6           0       -0.640566    1.677711    0.561367
 ---------------------------------------------------------------------

 SCF Done:  E(RHF) =  -1102.30179261     A.U. after    2 cycles

 The electronic state is 1-A.
 Alpha  occ. eigenvalues --  -93.56257 -93.55886 -20.60784 -20.55598 -11.39420
 Alpha  occ. eigenvalues --  -11.27406 -11.26573 -11.24814  -8.85892  -8.85529
 Alpha  occ. eigenvalues --   -6.20045  -6.19769  -6.19648  -6.19534  -6.19387
 Alpha  occ. eigenvalues --   -6.19065  -1.41446  -1.31677  -1.07729  -1.01613
 Alpha  occ. eigenvalues --   -1.00539  -0.90334  -0.82743  -0.78223  -0.71179
 Alpha  occ. eigenvalues --   -0.68543  -0.65329  -0.61655  -0.60601  -0.60079
 Alpha  occ. eigenvalues --   -0.58929  -0.58115  -0.57052  -0.55916  -0.53420
 Alpha  occ. eigenvalues --   -0.49373  -0.49118  -0.46531  -0.44286  -0.36770
 Alpha  occ. eigenvalues --   -0.35589
 Alpha virt. eigenvalues --    0.03464   0.03983   0.04892   0.05327   0.06010
 Alpha virt. eigenvalues --    0.06173   0.06441   0.07327   0.08102   0.08482
 Alpha virt. eigenvalues --    0.10041   0.10915   0.11790   0.12086   0.13718

 Mulliken charges:
               1
     1  C    0.270288
     2  O   -0.466154
     3  O   -0.442532
     4  H    0.251918
     5  C    0.404363
     6  H   -0.031447
     7  H    0.029998
     8  H    0.038595
     9  H   -0.077143
    10  H   -0.036209
    11  H   -0.074222
    12  H   -0.061899
    13  H   -0.121378
    14  H   -0.056326
    15  C    0.068147
    16  S    0.153517
    17  S   -0.076754
    18  C    0.227236
 Sum of Mulliken charges =  -0.00000

 Dipole moment (field-independent basis, Debye):
    X=             -1.1506    Y=              0.2173    Z=              0.7503  Tot=              1.3907

 Test job not archived.
 1\1\GINC-SE029\SP\RHF\Aug-CC-pVDZ\C4H10O2S2\OHZDE\09-Apr-2025\0\\#t hf
  aug-cc-pvdz iop(5/13=1,5/36=2,99/5=2) pseudo=read geom=check guess=(r
 ead,tcheck) scf=(maxcycle=1)\\title\\0,1\C,0,2.51189353,-1.3688008,0.0
 1480743\O,0,1.76216303,-1.97148126,0.7444221\O,0,2.20838592,-0.1819016
 3,-0.53372859\H,0,1.31541707,0.08523139,-0.22768185\C,0,3.88111819,-1.
 83853704,-0.39087365\H,0,4.08390343,-2.80677129,0.05292751\H,0,3.94369
 33,-1.90220497,-1.47628393\H,0,4.62800978,-1.11523999,-0.06604891\H,0,
 -3.86402426,2.69605347,-0.61494427\H,0,-3.10226217,2.59267462,0.986878

 Normal termination of Gaussian 16 at Wed Apr  9 17:38:06 2025.
