 Gaussian 16, Revision C.01,

 ----------------------------------------------------------------------
 #t hf aug-cc-pvdz symm=none int=(grid=ultrafine) guess=(read,tcheck) s
 table=(opt,rrhf)
 ----------------------------------------------------------------------
 -----
 title
 -----
 Symbolic Z-matrix:
 Charge =  0 Multiplicity = 1

 SCF Done:  E(RHF) =  -552.786626634     A.U. after   12 cycles
 Normal termination of Gaussian 16 at Wed Apr  9 17:42:27 2025.
 Gaussian 16:  ES64L-G16RevC.01  3-Jul-2019

 ----------------------------------------------------------------------
 #t hf aug-cc-pvdz iop(5/13=1,5/36=2,99/5=2) pseudo=read geom=check gue
 ss=(read,tcheck) scf=(maxcycle=1)
 ----------------------------------------------------------------------
 -----
 title
 -----
 Structure from the checkpoint file:  "HB300SPXx10_1152_4.20_0.85_methanol_methanethiol_dimer_mol1.chk"
 Charge =  0 Multiplicity = 1

                         Standard orientation:
 ---------------------------------------------------------------------
 Center     Atomic      Atomic             Coordinates (Angstroms)
 Number     Number       Type             X           Y           Z
 ---------------------------------------------------------------------
      1          8           0       -1.492184   -0.291476    0.704519
      2          1           0       -0.656061   -0.662093    0.392060
      3          6           0       -2.232170    0.142867   -0.423077
      4          1           0       -3.153225    0.589077   -0.054130
      5          1           0       -1.693180    0.899066   -1.003379
      6          1           0       -2.492246   -0.685025   -1.089046
      7          1           0        0.391543    1.385609    0.841341
      8          1           0        0.907775    1.656332   -0.829662
      9          1           0        2.124262    1.602576    0.451535
     10          1           0        1.688930   -0.970419    1.014440
     11          6           0        1.176307    1.193688    0.116255
     12         16           0        1.322178   -0.593915   -0.219899
 ---------------------------------------------------------------------

 SCF Done:  E(RHF) =  -552.861383785     A.U. after    2 cycles

 The electronic state is 1-A.
 Alpha  occ. eigenvalues --  -93.54906 -20.54652 -11.27510 -11.27275  -8.84741
 Alpha  occ. eigenvalues --   -6.18911  -6.18675  -6.18457  -1.30085  -1.04112
 Alpha  occ. eigenvalues --   -0.91510  -0.87463  -0.69557  -0.62441  -0.61990
 Alpha  occ. eigenvalues --   -0.59393  -0.58898  -0.54191  -0.50247  -0.47046
 Alpha  occ. eigenvalues --   -0.44733  -0.37404
 Alpha virt. eigenvalues --    0.03385   0.04593   0.04900   0.05744   0.06630
 Alpha virt. eigenvalues --    0.07662   0.07979   0.10154   0.10286   0.11480
 Alpha virt. eigenvalues --    0.13558   0.14877   0.15042   0.15988   0.16660

 Mulliken charges:
               1
     1  O   -0.533592
     2  H    0.263341
     3  C    0.867832
     4  H   -0.197938
     5  H   -0.179790
     6  H   -0.133099
     7  H   -0.145158
     8  H   -0.049414
     9  H   -0.175929
    10  H    0.117614
    11  C    0.238340
    12  S   -0.072207
 Sum of Mulliken charges =  -0.00000

 Dipole moment (field-independent basis, Debye):
    X=              1.2312    Y=              1.2721    Z=             -0.7396  Tot=              1.9186

 Test job not archived.
 1\1\GINC-SE113\SP\RHF\Aug-CC-pVDZ\C2H8O1S1\OHZDE\09-Apr-2025\0\\#t hf
 aug-cc-pvdz iop(5/13=1,5/36=2,99/5=2) pseudo=read geom=check guess=(re
 ad,tcheck) scf=(maxcycle=1)\\title\\0,1\O,0,-1.11765515,0.11430785,-1.
 55067005\H,0,-0.42321658,-0.33845143,-1.05382579\C,0,-0.58571066,1.330
 64039,-2.0459227\H,0,-1.38742324,1.84483596,-2.57168664\H,0,-0.2297527
 6,1.98264255,-1.24138273\H,0,0.23685112,1.16511886,-2.74774471\H,0,-1.
 30861719,0.53493335,0.9325474\H,0,0.16620315,1.40427764,1.38107912\H,0
 ,-0.49683561,0.1992888,2.4912941\H,0,-0.04987668,-1.84627403,0.8352202

 Normal termination of Gaussian 16 at Wed Apr  9 17:42:30 2025.
