 Gaussian 16, Revision C.01,

 ----------------------------------------------------------------------
 #t hf aug-cc-pvdz symm=none int=(grid=ultrafine) guess=(read,tcheck) s
 table=(opt,rrhf)
 ----------------------------------------------------------------------
 -----
 title
 -----
 Symbolic Z-matrix:
 Charge =  0 Multiplicity = 1

 SCF Done:  E(RHF) =  -800.723267536     A.U. after   14 cycles
 Normal termination of Gaussian 16 at Wed Apr  9 17:38:35 2025.
 Gaussian 16:  ES64L-G16RevC.01  3-Jul-2019

 ----------------------------------------------------------------------
 #t hf aug-cc-pvdz iop(5/13=1,5/36=2,99/5=2) pseudo=read geom=check gue
 ss=(read,tcheck) scf=(maxcycle=1)
 ----------------------------------------------------------------------
 -----
 title
 -----
 Structure from the checkpoint file:  "HB300SPXx10_1104_4.14_0.95_Nmethylacetamide_tetrahydrothiophene_dimer_mol1.chk"
 Charge =  0 Multiplicity = 1

                         Standard orientation:
 ---------------------------------------------------------------------
 Center     Atomic      Atomic             Coordinates (Angstroms)
 Number     Number       Type             X           Y           Z
 ---------------------------------------------------------------------
      1          6           0       -2.292380   -1.674353   -0.149661
      2          1           0       -2.209730   -2.163583    0.819559
      3          1           0       -1.446260   -1.955445   -0.773320
      4          1           0       -3.210673   -2.028236   -0.614362
      5          6           0       -2.408101   -0.178673    0.067261
      6          8           0       -3.315872    0.306239    0.722894
      7          7           0       -1.444931    0.570462   -0.527110
      8          1           0       -0.662380    0.101995   -0.962096
      9          6           0       -1.403684    2.010493   -0.388921
     10          1           0       -2.417682    2.383784   -0.278862
     11          1           0       -0.833328    2.324678    0.489287
     12          1           0       -0.951949    2.449700   -1.275973
     13          1           0        1.429309    1.645714   -0.839227
     14          1           0        3.063525    1.111134   -1.238271
     15          1           0        2.535136    1.843920    1.295521
     16          1           0        2.155398   -2.004789    0.908981
     17          1           0        3.498713    0.398099    1.010821
     18          1           0        0.403416   -1.816162    0.784172
     19          1           0        1.696471   -0.278465    2.552268
     20          1           0        0.487960    0.473849    1.516463
     21         16           0        1.541893   -0.765684   -1.077028
     22          6           0        2.190831    0.898615   -0.627215
     23          6           0        2.513249    0.842696    0.865513
     24          6           0        1.449834   -0.039030    1.518035
     25          6           0        1.355798   -1.306146    0.672340
 ---------------------------------------------------------------------

 SCF Done:  E(RHF) =  -800.869986029     A.U. after    2 cycles

 The electronic state is 1-A.
 Alpha  occ. eigenvalues --  -93.53430 -20.51915 -15.63490 -11.35107 -11.27761
 Alpha  occ. eigenvalues --  -11.27610 -11.26503 -11.25371 -11.25120 -11.23872
 Alpha  occ. eigenvalues --   -8.83219  -6.17362  -6.17198  -6.16949  -1.33326
 Alpha  occ. eigenvalues --   -1.18721  -1.12981  -1.00736  -0.99500  -0.97272
 Alpha  occ. eigenvalues --   -0.92207  -0.80863  -0.79665  -0.77752  -0.68922
 Alpha  occ. eigenvalues --   -0.67507  -0.65527  -0.64932  -0.63058  -0.61614
 Alpha  occ. eigenvalues --   -0.58614  -0.58337  -0.56133  -0.55138  -0.54548
 Alpha  occ. eigenvalues --   -0.52204  -0.50892  -0.50499  -0.49483  -0.49165
 Alpha  occ. eigenvalues --   -0.43648  -0.42790  -0.38495  -0.35004
 Alpha virt. eigenvalues --    0.02714   0.03496   0.04170   0.04373   0.05431
 Alpha virt. eigenvalues --    0.05758   0.05955   0.06525   0.07191   0.07861
 Alpha virt. eigenvalues --    0.08543   0.08680   0.09929   0.10336   0.10839

 Mulliken charges:
               1
     1  C    0.571702
     2  H    0.037021
     3  H   -0.222938
     4  H   -0.080653
     5  C    0.193298
     6  O   -0.585026
     7  N   -0.211208
     8  H    0.017873
     9  C    0.920701
    10  H   -0.256258
    11  H   -0.159002
    12  H   -0.184559
    13  H   -0.313220
    14  H   -0.071567
    15  H   -0.085853
    16  H   -0.156245
    17  H   -0.178050
    18  H   -0.298156
    19  H   -0.066460
    20  H   -0.327322
    21  S    0.243004
    22  C    0.236648
    23  C    0.255695
    24  C    0.393861
    25  C    0.326714
 Sum of Mulliken charges =  -0.00000

 Dipole moment (field-independent basis, Debye):
    X=              4.6234    Y=             -0.0359    Z=             -0.3076  Tot=              4.6338

 Test job not archived.
 1\1\GINC-SE173\SP\RHF\Aug-CC-pVDZ\C7H15N1O1S1\OHZDE\09-Apr-2025\0\\#t
 hf aug-cc-pvdz iop(5/13=1,5/36=2,99/5=2) pseudo=read geom=check guess=
 (read,tcheck) scf=(maxcycle=1)\\title\\0,1\C,0,-2.35790997,-0.53076315
 ,1.51380969\H,0,-2.45888814,0.43106478,2.01406411\H,0,-1.4356415,-1.01
 232631,1.83224394\H,0,-3.20368729,-1.14467685,1.81747472\C,0,-2.435185
 38,-0.3119418,0.01592702\O,0,-3.41358688,0.19433185,-0.50891479\N,0,-1
 .3525984,-0.72916607,-0.68842032\H,0,-0.53292762,-1.03795931,-0.184588
 74\C,0,-1.26500492,-0.56327277,-2.12344447\H,0,-2.26409386,-0.61429593

 Normal termination of Gaussian 16 at Wed Apr  9 17:38:53 2025.
