 Gaussian 16, Revision C.01,

 ----------------------------------------------------------------------
 #t hf aug-cc-pvdz symm=none int=(grid=ultrafine) guess=(read,tcheck) s
 table=(opt,rrhf)
 ----------------------------------------------------------------------
 -----
 title
 -----
 Symbolic Z-matrix:
 Charge =  0 Multiplicity = 1

 SCF Done:  E(RHF) =  -991.413441571     A.U. after   12 cycles

 1\1\GINC-SE226\Stability\RHF\Aug-CC-pVDZ\C5H12S2\OHZDE\09-Apr-2025\0\\
 #t hf aug-cc-pvdz symm=none int=(grid=ultrafine) guess=(read,tcheck) s
 table=(opt,rrhf)\\title\\0,1\H,0,2.75511322,-2.75302781,-0.03281769\H,
 0,2.23328443,-3.6609344,1.39160682\H,0,2.88304587,-2.02859561,1.588775
 53\H,0,0.87227038,-0.86572365,0.25189781\C,0,2.28978938,-2.67174858,0.
 94522466\S,0,0.57786237,-2.06107277,0.80693494\H,0,-0.70040657,-0.1655
 5322,-1.80854742\H,0,-0.7953198,1.30496844,-2.78790251\H,0,-2.93791312
 ,0.63901373,-1.32728334\H,0,-0.65143445,3.00781223,0.80552069\H,0,-2.3

 Normal termination of Gaussian 16 at Wed Apr  9 17:49:01 2025.
 Gaussian 16:  ES64L-G16RevC.01  3-Jul-2019

 ----------------------------------------------------------------------
 #t hf aug-cc-pvdz iop(5/13=1,5/36=2,99/5=2) pseudo=read geom=check gue
 ss=(read,tcheck) scf=(maxcycle=1)
 ----------------------------------------------------------------------
 -----
 title
 -----
 Structure from the checkpoint file:  "HB300SPXx10_1207_4.25_1.10_methanethiol_tetrahydrothiophene_dimer_mol1.chk"
 Charge =  0 Multiplicity = 1

                         Standard orientation:
 ---------------------------------------------------------------------
 Center     Atomic      Atomic             Coordinates (Angstroms)
 Number     Number       Type             X           Y           Z
 ---------------------------------------------------------------------
      1          1           0        3.757028    1.183867   -0.821515
      2          1           0        4.659836   -0.117483   -0.036016
      3          1           0        3.741403    1.025280    0.951996
      4          1           0        1.369629    0.255345   -0.030155
      5          6           0        3.756565    0.484956    0.009883
      6         16           0        2.350687   -0.669501   -0.106224
      7          1           0       -0.630727   -0.081025   -1.789251
      8          1           0       -2.162267    0.772154   -2.028095
      9          1           0       -2.268919   -1.815995   -1.351545
     10          1           0       -2.346371    0.341996    1.923378
     11          1           0       -3.328028   -0.691177   -0.503259
     12          1           0       -0.602298    0.084676    2.070083
     13          1           0       -2.141020   -1.966161    1.247210
     14          1           0       -0.599725   -1.671973    0.453906
     15         16           0       -1.149870    1.362507    0.085319
     16          6           0       -1.554864    0.232632   -1.306562
     17          6           0       -2.284747   -0.954475   -0.683760
     18          6           0       -1.586375   -1.248271    0.643003
     19          6           0       -1.440847    0.083891    1.378728
 ---------------------------------------------------------------------

 SCF Done:  E(RHF) =  -991.516028672     A.U. after    2 cycles

 The electronic state is 1-A.
 Alpha  occ. eigenvalues --  -93.52601 -93.51902 -11.26372 -11.26339 -11.26320
 Alpha  occ. eigenvalues --  -11.24222 -11.24140  -8.82360  -8.81671  -6.16535
 Alpha  occ. eigenvalues --   -6.16315  -6.15975  -6.15801  -6.15643  -6.15347
 Alpha  occ. eigenvalues --   -1.11653  -1.02046  -0.98241  -0.95907  -0.85466
 Alpha  occ. eigenvalues --   -0.79600  -0.77998  -0.66147  -0.64141  -0.60443
 Alpha  occ. eigenvalues --   -0.60351  -0.58961  -0.55291  -0.52264  -0.50934
 Alpha  occ. eigenvalues --   -0.49635  -0.48377  -0.47786  -0.45063  -0.42143
 Alpha  occ. eigenvalues --   -0.34933  -0.33277
 Alpha virt. eigenvalues --    0.03410   0.03906   0.04612   0.05015   0.05781
 Alpha virt. eigenvalues --    0.06197   0.06451   0.06886   0.08155   0.08324
 Alpha virt. eigenvalues --    0.08639   0.09561   0.11722   0.12930   0.13434

 Mulliken charges:
               1
     1  H   -0.101190
     2  H   -0.098408
     3  H   -0.105994
     4  H    0.087648
     5  C    0.005011
     6  S    0.200682
     7  H   -0.175477
     8  H   -0.079191
     9  H   -0.075033
    10  H   -0.125708
    11  H   -0.156683
    12  H   -0.132962
    13  H   -0.059108
    14  H   -0.219988
    15  S    0.371249
    16  C    0.098019
    17  C    0.209951
    18  C    0.255000
    19  C    0.102183
 Sum of Mulliken charges =  -0.00000

 Dipole moment (field-independent basis, Debye):
    X=             -0.3100    Y=             -0.5434    Z=              0.0669  Tot=              0.6291

 Test job not archived.
 1\1\GINC-SE226\SP\RHF\Aug-CC-pVDZ\C5H12S2\OHZDE\09-Apr-2025\0\\#t hf a
 ug-cc-pvdz iop(5/13=1,5/36=2,99/5=2) pseudo=read geom=check guess=(rea
 d,tcheck) scf=(maxcycle=1)\\title\\0,1\H,0,2.75511322,-2.75302781,-0.0
 3281769\H,0,2.23328443,-3.6609344,1.39160682\H,0,2.88304587,-2.0285956
 1,1.58877553\H,0,0.87227038,-0.86572365,0.25189781\C,0,2.28978938,-2.6
 7174858,0.94522466\S,0,0.57786237,-2.06107277,0.80693494\H,0,-0.700406
 57,-0.16555322,-1.80854742\H,0,-0.7953198,1.30496844,-2.78790251\H,0,-
 2.93791312,0.63901373,-1.32728334\H,0,-0.65143445,3.00781223,0.8055206

 Normal termination of Gaussian 16 at Wed Apr  9 17:49:09 2025.
