 Gaussian 16, Revision C.01,

 ----------------------------------------------------------------------
 #t hf aug-cc-pvdz symm=none int=(grid=ultrafine) guess=(read,tcheck) s
 table=(opt,rrhf)
 ----------------------------------------------------------------------
 -----
 title
 -----
 Symbolic Z-matrix:
 Charge =  0 Multiplicity = 1

 SCF Done:  E(RHF) =  -797.397111344     A.U. after   10 cycles
 Normal termination of Gaussian 16 at Wed Apr  9 17:49:28 2025.
 Gaussian 16:  ES64L-G16RevC.01  3-Jul-2019

 ----------------------------------------------------------------------
 #t hf aug-cc-pvdz iop(5/13=1,5/36=2,99/5=2) pseudo=read geom=check gue
 ss=(read,tcheck) scf=(maxcycle=1)
 ----------------------------------------------------------------------
 -----
 title
 -----
 Structure from the checkpoint file:  "HB300SPXx10_1227_4.27_1.10_sulfane_sulfane_dimer_mol1.chk"
 Charge =  0 Multiplicity = 1

                         Standard orientation:
 ---------------------------------------------------------------------
 Center     Atomic      Atomic             Coordinates (Angstroms)
 Number     Number       Type             X           Y           Z
 ---------------------------------------------------------------------
      1          1           0       -0.873707   -0.079030   -0.113117
      2          1           0       -2.266050    1.263009    0.083750
      3         16           0       -2.214722   -0.074229   -0.002365
      4          1           0        2.093826    0.374334    1.218914
      5          1           0        2.287903    1.133937   -0.555476
      6         16           0        2.137099   -0.094037   -0.037264
 ---------------------------------------------------------------------

 SCF Done:  E(RHF) =  -797.440328282     A.U. after    2 cycles

 The electronic state is 1-A.
 Alpha  occ. eigenvalues --  -93.55875 -93.54118  -8.85630  -8.83889  -6.19803
 Alpha  occ. eigenvalues --   -6.19600  -6.19256  -6.18068  -6.17859  -6.17482
 Alpha  occ. eigenvalues --   -0.97848  -0.96083  -0.59816  -0.58182  -0.50648
 Alpha  occ. eigenvalues --   -0.49048  -0.39219  -0.37569
 Alpha virt. eigenvalues --    0.02933   0.05274   0.06031   0.07289   0.11037
 Alpha virt. eigenvalues --    0.11697   0.12209   0.13690   0.13967   0.15114
 Alpha virt. eigenvalues --    0.17545   0.20064   0.20246   0.20984   0.25353

 Mulliken charges:
               1
     1  H   -0.012969
     2  H    0.015353
     3  S    0.007721
     4  H    0.031777
     5  H    0.028711
     6  S   -0.070593
 Sum of Mulliken charges =   0.00000

 Dipole moment (field-independent basis, Debye):
    X=              1.1549    Y=              1.7119    Z=              0.4035  Tot=              2.1040

 Test job not archived.
 1\1\GINC-SE362\SP\RHF\Aug-CC-pVDZ\H4S2\OHZDE\09-Apr-2025\0\\#t hf aug-
 cc-pvdz iop(5/13=1,5/36=2,99/5=2) pseudo=read geom=check guess=(read,t
 check) scf=(maxcycle=1)\\title\\0,1\H,0,0.53139832,0.64498716,-0.29055
 053\H,0,2.23879772,0.67266195,0.63813986\S,0,1.60273769,1.45777787,-0.
 24349168\H,0,-2.13452619,-0.63565157,1.13735285\H,0,-1.36655547,-2.151
 21066,0.20117815\S,0,-1.98102004,-1.00926223,-0.14173969\\Version=ES64
 L-G16RevC.01\State=1-A\HF=-797.4403283\RMSD=8.946e-03\Dipole=-0.112714
 1,-0.6073707,0.5510358\Quadrupole=-1.0947634,0.2707,0.8240634,-1.90853

 Normal termination of Gaussian 16 at Wed Apr  9 17:49:30 2025.
