 Gaussian 16, Revision C.01,

 ----------------------------------------------------------------------
 #t hf aug-cc-pvdz symm=none int=(grid=ultrafine) guess=(read,tcheck) s
 table=(opt,rrhf)
 ----------------------------------------------------------------------
 -----
 title
 -----
 Symbolic Z-matrix:
 Charge =  0 Multiplicity = 1

 SCF Done:  E(RHF) =  -914.496422859     A.U. after   12 cycles

 1\1\GINC-SE131\Stability\RHF\Aug-CC-pVDZ\C3H10S2\OHZDE\09-Apr-2025\0\\
 #t hf aug-cc-pvdz symm=none int=(grid=ultrafine) guess=(read,tcheck) s
 table=(opt,rrhf)\\title\\0,1\H,0,2.306559,-2.0578968,-0.64952301\H,0,3
 .32031438,-1.47471252,0.67641305\H,0,2.52307119,-0.31083024,-0.3888258
 5\H,0,0.07002633,-1.01993654,0.36023035\C,0,2.42249764,-1.27751778,0.0
 9684023\S,0,1.02865784,-1.2837739,1.27093846\H,0,0.35011654,1.92712418
 ,-0.34623105\H,0,-0.56269221,3.20576527,-1.18955194\H,0,0.45217285,2.0
 8613338,-2.11188976\H,0,-3.35558849,0.68532461,0.04600916\H,0,-2.83165

 Normal termination of Gaussian 16 at Wed Apr  9 17:46:27 2025.
 Gaussian 16:  ES64L-G16RevC.01  3-Jul-2019

 ----------------------------------------------------------------------
 #t hf aug-cc-pvdz iop(5/13=1,5/36=2,99/5=2) pseudo=read geom=check gue
 ss=(read,tcheck) scf=(maxcycle=1)
 ----------------------------------------------------------------------
 -----
 title
 -----
 Structure from the checkpoint file:  "HB300SPXx10_1188_4.23_1.25_methanethiol_dimethylsulfide_dimer_mol1.chk"
 Charge =  0 Multiplicity = 1

                         Standard orientation:
 ---------------------------------------------------------------------
 Center     Atomic      Atomic             Coordinates (Angstroms)
 Number     Number       Type             X           Y           Z
 ---------------------------------------------------------------------
      1          1           0        2.974203    1.102176   -1.284393
      2          1           0        3.844359    1.067716    0.254292
      3          1           0        2.183452    1.670965    0.204994
      4          1           0        1.151422   -0.677314   -0.503417
      5          6           0        2.872162    0.943078   -0.214923
      6         16           0        2.331338   -0.759899    0.143848
      7          1           0       -0.675033    1.001320    1.259807
      8          1           0       -2.402586    1.419044    1.402633
      9          1           0       -1.363477    2.315922    0.284556
     10          1           0       -2.411102   -2.105478   -0.402131
     11          1           0       -3.035028   -1.205163    0.989863
     12          1           0       -1.296234   -1.570744    0.869562
     13          6           0       -1.558381    1.339178    0.720582
     14         16           0       -1.937220    0.207597   -0.641519
     15          6           0       -2.193091   -1.312525    0.308838
 ---------------------------------------------------------------------

 SCF Done:  E(RHF) =  -914.581164024     A.U. after    2 cycles

 The electronic state is 1-A.
 Alpha  occ. eigenvalues --  -93.53105 -93.52815 -11.26689 -11.26366 -11.26299
 Alpha  occ. eigenvalues --   -8.82846  -8.82567  -6.17003  -6.16793  -6.16708
 Alpha  occ. eigenvalues --   -6.16499  -6.16451  -6.16184  -1.05378  -1.02436
 Alpha  occ. eigenvalues --   -0.95199  -0.85781  -0.80403  -0.61301  -0.60940
 Alpha  occ. eigenvalues --   -0.60469  -0.59278  -0.58307  -0.57140  -0.52503
 Alpha  occ. eigenvalues --   -0.49811  -0.45505  -0.43570  -0.35285  -0.33862
 Alpha virt. eigenvalues --    0.03437   0.04148   0.04797   0.05364   0.06250
 Alpha virt. eigenvalues --    0.06673   0.07000   0.07713   0.08870   0.09850
 Alpha virt. eigenvalues --    0.10237   0.12874   0.13063   0.14066   0.14431

 Mulliken charges:
               1
     1  H   -0.106603
     2  H   -0.099296
     3  H   -0.115538
     4  H    0.083061
     5  C    0.088163
     6  S    0.158358
     7  H   -0.096012
     8  H   -0.099026
     9  H   -0.123929
    10  H   -0.101696
    11  H   -0.082215
    12  H   -0.122339
    13  C    0.167269
    14  S    0.296765
    15  C    0.153039
 Sum of Mulliken charges =  -0.00000

 Dipole moment (field-independent basis, Debye):
    X=             -0.2954    Y=              1.1986    Z=              1.0458  Tot=              1.6180

 Test job not archived.
 1\1\GINC-SE131\SP\RHF\Aug-CC-pVDZ\C3H10S2\OHZDE\09-Apr-2025\0\\#t hf a
 ug-cc-pvdz iop(5/13=1,5/36=2,99/5=2) pseudo=read geom=check guess=(rea
 d,tcheck) scf=(maxcycle=1)\\title\\0,1\H,0,2.306559,-2.0578968,-0.6495
 2301\H,0,3.32031438,-1.47471252,0.67641305\H,0,2.52307119,-0.31083024,
 -0.38882585\H,0,0.07002633,-1.01993654,0.36023035\C,0,2.42249764,-1.27
 751778,0.09684023\S,0,1.02865784,-1.2837739,1.27093846\H,0,0.35011654,
 1.92712418,-0.34623105\H,0,-0.56269221,3.20576527,-1.18955194\H,0,0.45
 217285,2.08613338,-2.11188976\H,0,-3.35558849,0.68532461,0.04600916\H,

 Normal termination of Gaussian 16 at Wed Apr  9 17:46:32 2025.
