 Gaussian 16, Revision C.01,

 ----------------------------------------------------------------------
 #t hf aug-cc-pvdz symm=none int=(grid=ultrafine) guess=(read,tcheck) s
 table=(opt,rrhf)
 ----------------------------------------------------------------------
 -----
 title
 -----
 Symbolic Z-matrix:
 Charge =  0 Multiplicity = 1

 SCF Done:  E(RHF) =  -1166.70580851     A.U. after   13 cycles
 Normal termination of Gaussian 16 at Wed Apr  9 17:55:10 2025.
 Gaussian 16:  ES64L-G16RevC.01  3-Jul-2019

 ----------------------------------------------------------------------
 #t hf aug-cc-pvdz iop(5/13=1,5/36=2,99/5=2) pseudo=read geom=check gue
 ss=(read,tcheck) scf=(maxcycle=1)
 ----------------------------------------------------------------------
 -----
 title
 -----
 Structure from the checkpoint file:  "HB300SPXx10_1395_5.02_1.00_dimethylsulfone_phosphineF2_dimer_mol1.chk"
 Charge =  0 Multiplicity = 1

                         Standard orientation:
 ---------------------------------------------------------------------
 Center     Atomic      Atomic             Coordinates (Angstroms)
 Number     Number       Type             X           Y           Z
 ---------------------------------------------------------------------
      1          1           0        2.230702    0.506378    2.088517
      2          1           0        1.410112   -1.075311    2.026276
      3          1           0        0.452595    0.419921    1.844255
      4          1           0        0.612526    1.919855   -0.435507
      5          1           0        1.732428    1.466423   -1.750042
      6          1           0        2.390578    2.074551   -0.209675
      7          8           0        2.988342   -0.687230   -0.345347
      8         16           0        1.662110   -0.180876   -0.108349
      9          8           0        0.528245   -0.884871   -0.670430
     10          6           0        1.409818   -0.054748    1.651772
     11          6           0        1.588379    1.507711   -0.673194
     12         15           0       -2.154025   -0.458196   -0.033290
     13          9           0       -3.700149   -0.030611   -0.087030
     14          9           0       -1.555294    0.992347    0.348934
     15          1           0       -1.935224   -0.341449   -1.433283
 ---------------------------------------------------------------------

 SCF Done:  E(RHF) =  -1166.96470269     A.U. after    2 cycles

 The electronic state is 1-A.
 Alpha  occ. eigenvalues --  -93.78841 -81.38912 -26.14084 -26.12971 -20.56610
 Alpha  occ. eigenvalues --  -20.56116 -11.29177 -11.29096  -9.05691  -7.87631
 Alpha  occ. eigenvalues --   -6.40359  -6.40123  -6.40029  -5.01744  -5.01485
 Alpha  occ. eigenvalues --   -5.00968  -1.67331  -1.65561  -1.43344  -1.31642
 Alpha  occ. eigenvalues --   -1.07288  -1.01296  -0.89750  -0.82490  -0.79267
 Alpha  occ. eigenvalues --   -0.77719  -0.76986  -0.73588  -0.71218  -0.70486
 Alpha  occ. eigenvalues --   -0.69873  -0.68421  -0.63189  -0.62640  -0.62089
 Alpha  occ. eigenvalues --   -0.60131  -0.59100  -0.52795  -0.52510  -0.50099
 Alpha  occ. eigenvalues --   -0.46533  -0.39937
 Alpha virt. eigenvalues --    0.02787   0.04290   0.04716   0.05554   0.06213
 Alpha virt. eigenvalues --    0.06636   0.07243   0.08601   0.09272   0.10491
 Alpha virt. eigenvalues --    0.12109   0.13569   0.13849   0.14381   0.15160

 Mulliken charges:
               1
     1  H   -0.009238
     2  H    0.036476
     3  H   -0.033763
     4  H   -0.017993
     5  H    0.024027
     6  H   -0.009960
     7  O   -1.069328
     8  S    2.033449
     9  O   -1.117060
    10  C    0.090161
    11  C    0.110867
    12  P    1.276799
    13  F   -0.652410
    14  F   -0.689358
    15  H    0.027332
 Sum of Mulliken charges =  -0.00000

 Dipole moment (field-independent basis, Debye):
    X=              0.8543    Y=              2.8533    Z=              1.8121  Tot=              3.4864

 Test job not archived.
 1\1\GINC-SE454\SP\RHF\Aug-CC-pVDZ\C2H7F2O2P1S1\OHZDE\09-Apr-2025\0\\#t
  hf aug-cc-pvdz iop(5/13=1,5/36=2,99/5=2) pseudo=read geom=check guess
 =(read,tcheck) scf=(maxcycle=1)\\title\\0,1\H,0,1.82037896,-1.1252997,
 2.45423408\H,0,2.45327614,-0.04590354,1.18406648\H,0,1.26048817,-1.302
 78481,0.75605091\H,0,-1.35656486,-1.06874241,1.510339\H,0,-1.8999986,0
 .31018714,2.5058364\H,0,-0.84910966,-0.93302114,3.2309401\O,0,0.704774
 22,1.412934,2.93921594\S,0,0.30796869,0.58975017,1.82729483\O,0,-0.016
 49706,1.22000253,0.56448154\C,0,1.58998555,-0.61149627,1.52558836\C,0,

 Normal termination of Gaussian 16 at Wed Apr  9 17:55:16 2025.
