 Gaussian 16, Revision C.01,

 ----------------------------------------------------------------------
 #t hf aug-cc-pvdz symm=none int=(grid=ultrafine) guess=(read,tcheck) s
 table=(opt,rrhf)
 ----------------------------------------------------------------------
 -----
 title
 -----
 Symbolic Z-matrix:
 Charge =  0 Multiplicity = 1

 SCF Done:  E(RHF) =  -571.982894375     A.U. after   12 cycles
 Normal termination of Gaussian 16 at Wed Apr  9 17:53:54 2025.
 Gaussian 16:  ES64L-G16RevC.01  3-Jul-2019

 ----------------------------------------------------------------------
 #t hf aug-cc-pvdz iop(5/13=1,5/36=2,99/5=2) pseudo=read geom=check gue
 ss=(read,tcheck) scf=(maxcycle=1)
 ----------------------------------------------------------------------
 -----
 title
 -----
 Structure from the checkpoint file:  "HB300SPXx10_132_1.14_0.85_sulfane_trimethylamine_dimer_mol1.chk"
 Charge =  0 Multiplicity = 1

                         Standard orientation:
 ---------------------------------------------------------------------
 Center     Atomic      Atomic             Coordinates (Angstroms)
 Number     Number       Type             X           Y           Z
 ---------------------------------------------------------------------
      1          1           0       -0.876284    0.029902    0.000000
      2          1           0       -2.501555   -1.079564    0.000000
      3         16           0       -2.231879    0.233641    0.000000
      4          1           0        2.303987   -0.823800    1.303193
      5          1           0        0.809107   -0.263750    2.080506
      6          1           0        0.820557   -1.791622    1.197590
      7          1           0        0.820557   -1.791622   -1.197590
      8          1           0        2.303987   -0.823800   -1.303193
      9          1           0        0.809107   -0.263750   -2.080506
     10          1           0        2.303775    1.421250    0.000000
     11          1           0        0.814983    1.813459   -0.882789
     12          6           0        1.208796   -0.774285    1.205875
     13          7           0        0.789791   -0.079806    0.000000
     14          6           0        1.208796   -0.774285   -1.205875
     15          6           0        1.208796    1.311941    0.000000
     16          1           0        0.814983    1.813459    0.882789
 ---------------------------------------------------------------------

 SCF Done:  E(RHF) =  -572.061500861     A.U. after    2 cycles

 The electronic state is 1-A'.
 Alpha  occ. eigenvalues --  -93.49570 -15.63697 -11.26824 -11.26821 -11.26805
 Alpha  occ. eigenvalues --   -8.79529  -6.13742  -6.13534  -6.13190  -1.22086
 Alpha  occ. eigenvalues --   -0.96898  -0.96877  -0.92771  -0.82026  -0.67921
 Alpha  occ. eigenvalues --   -0.65210  -0.65182  -0.56660  -0.56585  -0.54607
 Alpha  occ. eigenvalues --   -0.53745  -0.52431  -0.52413  -0.46695  -0.35396
 Alpha  occ. eigenvalues --   -0.34321
 Alpha virt. eigenvalues --    0.02992   0.04247   0.04466   0.04926   0.07000
 Alpha virt. eigenvalues --    0.07203   0.07248   0.07595   0.07803   0.09329
 Alpha virt. eigenvalues --    0.10233   0.12748   0.13355   0.14375   0.14484

 Mulliken charges:
               1
     1  H    0.165889
     2  H   -0.037022
     3  S    0.005760
     4  H   -0.086187
     5  H   -0.177668
     6  H   -0.183669
     7  H   -0.183669
     8  H   -0.086187
     9  H   -0.177668
    10  H   -0.115647
    11  H   -0.171328
    12  C    0.822610
    13  N   -1.199615
    14  C    0.822610
    15  C    0.773119
    16  H   -0.171328
 Sum of Mulliken charges =  -0.00000

 Dipole moment (field-independent basis, Debye):
    X=              3.5355    Y=             -0.9530    Z=              0.0000  Tot=              3.6617

 Test job not archived.
 1\1\GINC-SE113\SP\RHF\Aug-CC-pVDZ\C3H11N1S1\OHZDE\09-Apr-2025\0\\#t hf
  aug-cc-pvdz iop(5/13=1,5/36=2,99/5=2) pseudo=read geom=check guess=(r
 ead,tcheck) scf=(maxcycle=1)\\title\\0,1\H,0,0.06719299,0.97177334,0.\
 H,0,1.32304535,2.48678341,0.\S,0,-0.00955285,2.34044335,0.\H,0,0.62133
 443,-2.2741258,-1.30319342\H,0,0.20278049,-0.73362686,-2.08050641\H,0,
 1.72296174,-0.88716378,-1.19759028\H,0,1.72296174,-0.88716378,1.197590
 28\H,0,0.62133443,-2.2741258,1.30319342\H,0,0.20278049,-0.73362686,2.0
 8050641\H,0,-1.61395905,-2.06505937,0.\H,0,-1.86596709,-0.546237,0.882

 Normal termination of Gaussian 16 at Wed Apr  9 17:53:58 2025.
