 Gaussian 16, Revision C.01,

 ----------------------------------------------------------------------
 #t hf aug-cc-pvdz symm=none int=(grid=ultrafine) guess=(read,tcheck) s
 table=(opt,rrhf)
 ----------------------------------------------------------------------
 -----
 title
 -----
 Symbolic Z-matrix:
 Charge =  0 Multiplicity = 1

 SCF Done:  E(RHF) =  -576.788815455     A.U. after   12 cycles
 Normal termination of Gaussian 16 at Wed Apr  9 17:57:39 2025.
 Gaussian 16:  ES64L-G16RevC.01  3-Jul-2019

 ----------------------------------------------------------------------
 #t hf aug-cc-pvdz iop(5/13=1,5/36=2,99/5=2) pseudo=read geom=check gue
 ss=(read,tcheck) scf=(maxcycle=1)
 ----------------------------------------------------------------------
 -----
 title
 -----
 Structure from the checkpoint file:  "HB300SPXx10_1435_5.06_1.00_methanethiol_methylfluoride_dimer_mol1.chk"
 Charge =  0 Multiplicity = 1

                         Standard orientation:
 ---------------------------------------------------------------------
 Center     Atomic      Atomic             Coordinates (Angstroms)
 Number     Number       Type             X           Y           Z
 ---------------------------------------------------------------------
      1          1           0        1.881705    1.688935   -0.545204
      2          1           0        1.876282    1.320844    1.184601
      3          1           0        0.339451    1.431348    0.306543
      4          1           0        0.748502   -0.703572   -1.159044
      5          6           0        1.379176    1.128312    0.237495
      6         16           0        1.509871   -0.666505   -0.055642
      7          1           0       -1.336010   -0.847353    0.853670
      8          1           0       -2.762915    0.171927    1.219796
      9          1           0       -2.894716   -1.155334    0.032226
     10          6           0       -2.239418   -0.393881    0.451204
     11          9           0       -1.872086    0.483410   -0.570502
 ---------------------------------------------------------------------

 SCF Done:  E(RHF) =  -576.874989530     A.U. after    2 cycles

 The electronic state is 1-A.
 Alpha  occ. eigenvalues --  -93.53043 -26.10566 -11.31820 -11.26291  -8.82803
 Alpha  occ. eigenvalues --   -6.16965  -6.16747  -6.16431  -1.63541  -1.02300
 Alpha  occ. eigenvalues --   -0.97083  -0.85706  -0.74282  -0.74156  -0.71444
 Alpha  occ. eigenvalues --   -0.60465  -0.58905  -0.55428  -0.55396  -0.52509
 Alpha  occ. eigenvalues --   -0.45310  -0.35286
 Alpha virt. eigenvalues --    0.03487   0.04459   0.05084   0.05915   0.06755
 Alpha virt. eigenvalues --    0.07803   0.08371   0.11079   0.11822   0.13108
 Alpha virt. eigenvalues --    0.14462   0.14940   0.15597   0.16418   0.17658

 Mulliken charges:
               1
     1  H   -0.108828
     2  H   -0.073942
     3  H   -0.124704
     4  H    0.104796
     5  C    0.110362
     6  S    0.093583
     7  H   -0.140197
     8  H   -0.092206
     9  H   -0.136268
    10  C    0.843206
    11  F   -0.475802
 Sum of Mulliken charges =  -0.00000

 Dipole moment (field-independent basis, Debye):
    X=             -1.2292    Y=              0.1281    Z=              1.2519  Tot=              1.7591

 Test job not archived.
 1\1\GINC-SE232\SP\RHF\Aug-CC-pVDZ\C2H7F1S1\OHZDE\09-Apr-2025\0\\#t hf
 aug-cc-pvdz iop(5/13=1,5/36=2,99/5=2) pseudo=read geom=check guess=(re
 ad,tcheck) scf=(maxcycle=1)\\title\\0,1\H,0,2.08229041,-1.4254109,-0.5
 8197167\H,0,2.56243491,-0.07269824,0.45116733\H,0,1.30281242,0.1638302
 2,-0.77457926\H,0,-0.45614858,-1.39442223,0.38777169\C,0,1.72720839,-0
 .53887394,-0.06484534\S,0,0.50833702,-0.97408013,1.21941614\H,0,-1.014
 42148,1.45231931,0.3520166\H,0,-1.08707871,2.67386163,-0.95626195\H,0,
 -2.53869458,1.71825516,-0.5452337\C,0,-1.45222864,1.70843128,-0.610528

 Normal termination of Gaussian 16 at Wed Apr  9 17:57:42 2025.
