 Gaussian 16, Revision C.01,

 ----------------------------------------------------------------------
 #t hf aug-cc-pvdz symm=none int=(grid=ultrafine) guess=(read,tcheck) s
 table=(opt,rrhf)
 ----------------------------------------------------------------------
 -----
 title
 -----
 Symbolic Z-matrix:
 Charge =  0 Multiplicity = 1

 SCF Done:  E(RHF) =  -969.529365757     A.U. after   13 cycles
 Normal termination of Gaussian 16 at Wed Apr  9 17:28:38 2025.
 Gaussian 16:  ES64L-G16RevC.01  3-Jul-2019

 ----------------------------------------------------------------------
 #t hf aug-cc-pvdz iop(5/13=1,5/36=2,99/5=2) pseudo=read geom=check gue
 ss=(read,tcheck) scf=(maxcycle=1)
 ----------------------------------------------------------------------
 -----
 title
 -----
 Structure from the checkpoint file:  "HB300SPXx10_1063_4.10_0.90_methylamine_dimethyldisulfide_dimer_mol1.chk"
 Charge =  0 Multiplicity = 1

                         Standard orientation:
 ---------------------------------------------------------------------
 Center     Atomic      Atomic             Coordinates (Angstroms)
 Number     Number       Type             X           Y           Z
 ---------------------------------------------------------------------
      1          7           0        2.025137    0.946596   -0.010946
      2          1           0        2.165492    1.901381   -0.313405
      3          1           0        1.334401    0.538221   -0.629339
      4          6           0        3.279156    0.195782   -0.069606
      5          1           0        3.102484   -0.824026    0.270661
      6          1           0        3.738302    0.141899   -1.063149
      7          1           0        4.002054    0.643038    0.611623
      8          1           0       -1.892452    2.513883    0.639905
      9          1           0       -0.876020    2.182414   -0.777616
     10          1           0       -0.298231    1.755652    0.854746
     11          1           0       -0.392382   -2.012736    1.569962
     12          1           0        0.827949   -0.727267    1.315304
     13          1           0        1.029857   -2.318453    0.550421
     14          6           0       -1.166772    1.826436    0.207030
     15         16           0       -2.017351    0.221042    0.078125
     16         16           0       -0.571939   -1.042561   -0.639524
     17          6           0        0.306152   -1.568197    0.867558
 ---------------------------------------------------------------------

 SCF Done:  E(RHF) =  -969.631344794     A.U. after    2 cycles

 The electronic state is 1-A.
 Alpha  occ. eigenvalues --  -93.55249 -93.55079 -15.60290 -11.26330 -11.26133
 Alpha  occ. eigenvalues --  -11.25572  -8.84873  -8.84706  -6.19038  -6.18830
 Alpha  occ. eigenvalues --   -6.18735  -6.18573  -6.18498  -6.18247  -1.14149
 Alpha  occ. eigenvalues --   -1.06888  -0.99800  -0.89697  -0.89457  -0.77414
 Alpha  occ. eigenvalues --   -0.67172  -0.61018  -0.60817  -0.59674  -0.59310
 Alpha  occ. eigenvalues --   -0.57806  -0.55678  -0.53094  -0.51858  -0.48521
 Alpha  occ. eigenvalues --   -0.43442  -0.38817  -0.35573  -0.34586
 Alpha virt. eigenvalues --    0.03293   0.04074   0.04501   0.05004   0.06117
 Alpha virt. eigenvalues --    0.06756   0.07292   0.07943   0.08515   0.09502
 Alpha virt. eigenvalues --    0.09924   0.10428   0.11692   0.13253   0.14320

 Mulliken charges:
               1
     1  N   -0.394711
     2  H   -0.044373
     3  H    0.127971
     4  C    0.842743
     5  H   -0.258443
     6  H   -0.131909
     7  H   -0.173137
     8  H   -0.139763
     9  H   -0.086067
    10  H   -0.051452
    11  H   -0.155155
    12  H   -0.138713
    13  H   -0.047269
    14  C    0.248023
    15  S    0.101636
    16  S   -0.038237
    17  C    0.338855
 Sum of Mulliken charges =  -0.00000

 Dipole moment (field-independent basis, Debye):
    X=              1.9654    Y=              1.0858    Z=              0.3438  Tot=              2.2715

 Test job not archived.
 1\1\GINC-SE051\SP\RHF\Aug-CC-pVDZ\C3H11N1S2\OHZDE\09-Apr-2025\0\\#t hf
  aug-cc-pvdz iop(5/13=1,5/36=2,99/5=2) pseudo=read geom=check guess=(r
 ead,tcheck) scf=(maxcycle=1)\\title\\0,1\N,0,-0.790217,0.77789413,2.28
 472778\H,0,-1.73224372,0.61681804,2.6155392\H,0,-0.85550262,0.99181266
 ,1.29666237\C,0,-0.16836631,1.8838218,3.01270443\H,0,0.84688345,2.0289
 6517,2.64500493\H,0,-0.69345824,2.84224623,2.93178871\H,0,-0.0959132,1
 .62767695,4.06903376\H,0,-1.8295884,-2.62975869,-0.06795445\H,0,-2.358
 77013,-0.93723669,0.01984177\H,0,-1.02598698,-1.51088806,1.05675314\H,

 Normal termination of Gaussian 16 at Wed Apr  9 17:28:44 2025.
