 Gaussian 16, Revision C.01,

 ----------------------------------------------------------------------
 #t hf aug-cc-pvdz symm=none int=(grid=ultrafine) guess=(read,tcheck) s
 table=(opt,rrhf)
 ----------------------------------------------------------------------
 -----
 title
 -----
 Symbolic Z-matrix:
 Charge =  0 Multiplicity = 1

 SCF Done:  E(RHF) =  -1312.02982586     A.U. after   13 cycles

 1\1\GINC-SE112\Stability\RHF\Aug-CC-pVDZ\C3H10S3\OHZDE\09-Apr-2025\0\\
 #t hf aug-cc-pvdz symm=none int=(grid=ultrafine) guess=(read,tcheck) s
 table=(opt,rrhf)\\title\\0,1\H,0,1.01554051,-2.06430295,-0.26345232\H,
 0,1.41221348,-3.50790796,0.68330627\H,0,2.28776701,-1.9997821,0.978385
 09\H,0,0.09227498,-0.7095981,1.83267489\C,0,1.324424,-2.42503809,0.712
 77693\S,0,0.06941485,-2.04508424,1.97921636\H,0,-2.81063119,0.51457503
 ,0.61254203\H,0,-1.76004275,-0.81262002,0.07662481\H,0,-2.38652482,0.3
 7978799,-1.10400025\H,0,0.4298167,2.73285792,-2.35948932\H,0,-0.584905

 Normal termination of Gaussian 16 at Wed Apr  9 17:44:59 2025.
 Gaussian 16:  ES64L-G16RevC.01  3-Jul-2019

 ----------------------------------------------------------------------
 #t hf aug-cc-pvdz iop(5/13=1,5/36=2,99/5=2) pseudo=read geom=check gue
 ss=(read,tcheck) scf=(maxcycle=1)
 ----------------------------------------------------------------------
 -----
 title
 -----
 Structure from the checkpoint file:  "HB300SPXx10_1174_4.22_0.95_methanethiol_dimethyldisulfide_dimer_mol1.chk"
 Charge =  0 Multiplicity = 1

                         Standard orientation:
 ---------------------------------------------------------------------
 Center     Atomic      Atomic             Coordinates (Angstroms)
 Number     Number       Type             X           Y           Z
 ---------------------------------------------------------------------
      1          1           0        1.386386   -1.545267    0.832044
      2          1           0        3.122578   -1.890188    0.898110
      3          1           0        2.250965   -2.075044   -0.629709
      4          1           0        1.668608    0.541878   -0.794477
      5          6           0        2.321101   -1.490151    0.282651
      6         16           0        2.766553    0.239719   -0.081219
      7          1           0       -0.278209    2.845170    0.728329
      8          1           0        0.450708    1.333133    1.306960
      9          1           0       -1.267868    1.700530    1.652951
     10          1           0       -3.637890   -0.569605   -0.414525
     11          1           0       -3.105061   -0.349550    1.273741
     12          1           0       -3.222442   -1.979424    0.585054
     13          6           0       -0.460274    1.790597    0.932112
     14         16           0       -0.929729    1.046285   -0.661311
     15         16           0       -1.251381   -0.922313   -0.191379
     16          6           0       -2.983306   -0.938895    0.369250
 ---------------------------------------------------------------------

 SCF Done:  E(RHF) =  -1312.13467373     A.U. after    2 cycles

 The electronic state is 1-A.
 Alpha  occ. eigenvalues --  -93.55897 -93.55846 -93.52183 -11.27434 -11.26872
 Alpha  occ. eigenvalues --  -11.25758  -8.85521  -8.85497  -8.81962  -6.19696
 Alpha  occ. eigenvalues --   -6.19590  -6.19392  -6.19359  -6.19120  -6.19052
 Alpha  occ. eigenvalues --   -6.16133  -6.15920  -6.15607  -1.07682  -1.01701
 Alpha  occ. eigenvalues --   -1.00574  -0.90433  -0.85154  -0.78165  -0.61809
 Alpha  occ. eigenvalues --   -0.61121  -0.60505  -0.59559  -0.58679  -0.58344
 Alpha  occ. eigenvalues --   -0.53516  -0.51931  -0.49223  -0.44916  -0.44088
 Alpha  occ. eigenvalues --   -0.36262  -0.35326  -0.34551
 Alpha virt. eigenvalues --    0.03286   0.04353   0.04608   0.05343   0.06075
 Alpha virt. eigenvalues --    0.06534   0.07168   0.07684   0.08096   0.09251
 Alpha virt. eigenvalues --    0.09877   0.11524   0.12566   0.12996   0.13804

 Mulliken charges:
               1
     1  H   -0.143570
     2  H   -0.108923
     3  H   -0.125306
     4  H    0.132160
     5  C    0.182794
     6  S    0.113583
     7  H   -0.059769
     8  H   -0.137528
     9  H   -0.109451
    10  H   -0.037138
    11  H   -0.082930
    12  H   -0.072730
    13  C    0.250151
    14  S   -0.007653
    15  S    0.187524
    16  C    0.018785
 Sum of Mulliken charges =   0.00000

 Dipole moment (field-independent basis, Debye):
    X=             -2.5031    Y=             -0.5953    Z=              1.8006  Tot=              3.1404

 Test job not archived.
 1\1\GINC-SE112\SP\RHF\Aug-CC-pVDZ\C3H10S3\OHZDE\09-Apr-2025\0\\#t hf a
 ug-cc-pvdz iop(5/13=1,5/36=2,99/5=2) pseudo=read geom=check guess=(rea
 d,tcheck) scf=(maxcycle=1)\\title\\0,1\H,0,1.01554051,-2.06430295,-0.2
 6345232\H,0,1.41221348,-3.50790796,0.68330627\H,0,2.28776701,-1.999782
 1,0.97838509\H,0,0.09227498,-0.7095981,1.83267489\C,0,1.324424,-2.4250
 3809,0.71277693\S,0,0.06941485,-2.04508424,1.97921636\H,0,-2.81063119,
 0.51457503,0.61254203\H,0,-1.76004275,-0.81262002,0.07662481\H,0,-2.38
 652482,0.37978799,-1.10400025\H,0,0.4298167,2.73285792,-2.35948932\H,0

 Normal termination of Gaussian 16 at Wed Apr  9 17:45:05 2025.
