 Gaussian 16, Revision C.01,

 ----------------------------------------------------------------------
 #t hf aug-cc-pvdz symm=none int=(grid=ultrafine) guess=(read,tcheck) s
 table=(opt,rrhf)
 ----------------------------------------------------------------------
 -----
 title
 -----
 Symbolic Z-matrix:
 Charge =  0 Multiplicity = 1

 SCF Done:  E(RHF) =  -571.986092327     A.U. after   12 cycles
 Normal termination of Gaussian 16 at Wed Apr  9 04:10:30 2025.
 Gaussian 16:  ES64L-G16RevC.01  3-Jul-2019

 ----------------------------------------------------------------------
 #t hf aug-cc-pvdz iop(5/13=1,5/36=2,99/5=2) pseudo=read geom=check gue
 ss=(read,tcheck) scf=(maxcycle=1)
 ----------------------------------------------------------------------
 -----
 title
 -----
 Structure from the checkpoint file:  "HB300SPXx10_133_1.14_0.90_sulfane_trimethylamine_dimer_mol1.chk"
 Charge =  0 Multiplicity = 1

                         Standard orientation:
 ---------------------------------------------------------------------
 Center     Atomic      Atomic             Coordinates (Angstroms)
 Number     Number       Type             X           Y           Z
 ---------------------------------------------------------------------
      1          1           0       -0.940364    0.034121    0.000000
      2          1           0       -2.565635   -1.075345    0.000000
      3         16           0       -2.295959    0.237861    0.000000
      4          1           0        2.337912   -0.826033    1.303193
      5          1           0        0.843031   -0.265983    2.080506
      6          1           0        0.854481   -1.793856    1.197590
      7          1           0        0.854481   -1.793856   -1.197590
      8          1           0        2.337912   -0.826033   -1.303193
      9          1           0        0.843031   -0.265983   -2.080506
     10          1           0        2.337700    1.419016    0.000000
     11          1           0        0.848908    1.811226   -0.882789
     12          6           0        1.242721   -0.776519    1.205875
     13          7           0        0.823716   -0.082040    0.000000
     14          6           0        1.242721   -0.776519   -1.205875
     15          6           0        1.242721    1.309707    0.000000
     16          1           0        0.848908    1.811226    0.882789
 ---------------------------------------------------------------------

 SCF Done:  E(RHF) =  -572.064757144     A.U. after    2 cycles

 The electronic state is 1-A'.
 Alpha  occ. eigenvalues --  -93.50341 -15.63321 -11.26600 -11.26598 -11.26583
 Alpha  occ. eigenvalues --   -8.80240  -6.14451  -6.14241  -6.13894  -1.21624
 Alpha  occ. eigenvalues --   -0.96623  -0.96609  -0.93121  -0.81709  -0.67361
 Alpha  occ. eigenvalues --   -0.64921  -0.64895  -0.56414  -0.56338  -0.54895
 Alpha  occ. eigenvalues --   -0.53534  -0.52164  -0.52153  -0.46837  -0.35669
 Alpha  occ. eigenvalues --   -0.34785
 Alpha virt. eigenvalues --    0.03061   0.04274   0.04506   0.04905   0.07003
 Alpha virt. eigenvalues --    0.07220   0.07220   0.07635   0.07799   0.09340
 Alpha virt. eigenvalues --    0.10151   0.12715   0.13288   0.14388   0.14485

 Mulliken charges:
               1
     1  H    0.118496
     2  H   -0.032164
     3  S    0.019371
     4  H   -0.081994
     5  H   -0.180635
     6  H   -0.184895
     7  H   -0.184895
     8  H   -0.081994
     9  H   -0.180635
    10  H   -0.109992
    11  H   -0.174321
    12  C    0.815801
    13  N   -1.165729
    14  C    0.815801
    15  C    0.782105
    16  H   -0.174321
 Sum of Mulliken charges =  -0.00000

 Dipole moment (field-independent basis, Debye):
    X=              3.2119    Y=             -0.9385    Z=             -0.0000  Tot=              3.3462

 Test job not archived.
 1\1\GINC-SE141\SP\RHF\Aug-CC-pVDZ\C3H11N1S1\OHZDE\09-Apr-2025\0\\#t hf
  aug-cc-pvdz iop(5/13=1,5/36=2,99/5=2) pseudo=read geom=check guess=(r
 ead,tcheck) scf=(maxcycle=1)\\title\\0,1\H,0,0.06719299,0.97177334,0.\
 H,0,1.32304535,2.48678341,0.\S,0,-0.00955285,2.34044335,0.\H,0,0.61864
 261,-2.37230558,-1.30319342\H,0,0.20008867,-0.83180664,-2.08050641\H,0
 ,1.72026992,-0.98534356,-1.19759028\H,0,1.72026992,-0.98534356,1.19759
 028\H,0,0.61864261,-2.37230558,1.30319342\H,0,0.20008867,-0.83180664,2
 .08050641\H,0,-1.61665087,-2.16323915,0.\H,0,-1.86865891,-0.64441678,0

 Normal termination of Gaussian 16 at Wed Apr  9 04:10:34 2025.
