 Gaussian 16, Revision C.01,

 ----------------------------------------------------------------------
 #t hf aug-cc-pvdz symm=none int=(grid=ultrafine) guess=(read,tcheck) s
 table=(opt,rrhf)
 ----------------------------------------------------------------------
 -----
 title
 -----
 Symbolic Z-matrix:
 Charge =  0 Multiplicity = 1

 SCF Done:  E(RHF) =  -3015.76520325     A.U. after   14 cycles
 Normal termination of Gaussian 16 at Wed Apr  9 04:10:43 2025.
 Gaussian 16:  ES64L-G16RevC.01  3-Jul-2019

 ----------------------------------------------------------------------
 #t hf aug-cc-pvdz iop(5/13=1,5/36=2,99/5=2) pseudo=read geom=check gue
 ss=(read,tcheck) scf=(maxcycle=1)
 ----------------------------------------------------------------------
 -----
 title
 -----
 Structure from the checkpoint file:  "HB300SPXx10_1346_4.39_1.05_hydrogenchloride_P4S3_dimer_mol1.chk"
 Charge =  0 Multiplicity = 1

                         Standard orientation:
 ---------------------------------------------------------------------
 Center     Atomic      Atomic             Coordinates (Angstroms)
 Number     Number       Type             X           Y           Z
 ---------------------------------------------------------------------
      1          1           0       -2.719936   -0.477463   -0.490821
      2         17           0       -3.804237    0.005640    0.016022
      3         16           0       -0.362897   -0.720031   -1.572802
      4         15           0       -0.115207    1.322796   -1.084439
      5         16           0       -0.212750   -0.735940    1.657794
      6         16           0        2.506623   -0.654952   -0.100647
      7         15           0        1.884984    1.360667   -0.051640
      8         15           0       -0.011466    1.304268    1.163891
      9         15           0        0.674779   -1.710641    0.003449
 ---------------------------------------------------------------------

 SCF Done:  E(RHF) =  -3015.90877543     A.U. after    2 cycles

 The electronic state is 1-A.
 Alpha  occ. eigenvalues -- -103.66681 -93.58292 -93.57852 -93.57847 -81.36422
 Alpha  occ. eigenvalues --  -81.32567 -81.32504 -81.32477 -10.69930  -8.88168
 Alpha  occ. eigenvalues --   -8.87784  -8.87781  -8.35690  -8.35380  -8.35376
 Alpha  occ. eigenvalues --   -7.86181  -7.82743  -7.82678  -7.82651  -6.22233
 Alpha  occ. eigenvalues --   -6.22008  -6.21855  -6.21835  -6.21770  -6.21633
 Alpha  occ. eigenvalues --   -6.21592  -6.21322  -6.21301  -4.99869  -4.99862
 Alpha  occ. eigenvalues --   -4.99657  -4.96545  -4.96437  -4.96399  -4.96229
 Alpha  occ. eigenvalues --   -4.96199  -4.96160  -4.96140  -4.96110  -4.96099
 Alpha  occ. eigenvalues --   -1.15097  -1.07043  -0.97885  -0.97794  -0.89688
 Alpha  occ. eigenvalues --   -0.72520  -0.68768  -0.68752  -0.63052  -0.55196
 Alpha  occ. eigenvalues --   -0.54754  -0.54616  -0.48195  -0.48108  -0.45799
 Alpha  occ. eigenvalues --   -0.43911  -0.43884  -0.42660  -0.42408  -0.39101
 Alpha  occ. eigenvalues --   -0.37976  -0.34708  -0.34630
 Alpha virt. eigenvalues --    0.02784   0.05200   0.05378   0.05585   0.05790
 Alpha virt. eigenvalues --    0.06158   0.06261   0.07394   0.07487   0.08507
 Alpha virt. eigenvalues --    0.09841   0.09948   0.10485   0.10689   0.10779

 Mulliken charges:
               1
     1  H    0.169187
     2  Cl  -0.116631
     3  S   -0.360404
     4  P    0.218193
     5  S   -0.265327
     6  S   -0.253947
     7  P    0.191560
     8  P    0.226149
     9  P    0.191221
 Sum of Mulliken charges =  -0.00000

 Dipole moment (field-independent basis, Debye):
    X=              1.6714    Y=              0.2522    Z=             -0.2315  Tot=              1.7061

 Test job not archived.
 1\1\GINC-SE009\SP\RHF\Aug-CC-pVDZ\Cl1H1P4S3\OHZDE\09-Apr-2025\0\\#t hf
  aug-cc-pvdz iop(5/13=1,5/36=2,99/5=2) pseudo=read geom=check guess=(r
 ead,tcheck) scf=(maxcycle=1)\\title\\0,1\H,0,-0.57388532,0.23171594,-0
 .00983813\Cl,0,-1.31085335,0.72448843,-0.94794305\S,0,0.97706615,-0.03
 407642,2.06598903\P,0,0.47004427,1.97492997,2.49002963\S,0,-2.150935,-
 0.2054706,2.86959269\S,0,0.12316104,-0.12803876,5.17527142\P,0,-0.1313
 6445,1.90164447,4.6583952\P,0,-1.706747,1.84822863,3.04825862\P,0,-0.3
 1279454,-1.12931569,3.36188966\\Version=ES64L-G16RevC.01\State=1-A\HF=

 Normal termination of Gaussian 16 at Wed Apr  9 04:10:50 2025.
