 Gaussian 16, Revision C.01,

 ----------------------------------------------------------------------
 #t hf aug-cc-pvdz symm=none int=(grid=ultrafine) guess=(read,tcheck) s
 table=(opt,rrhf)
 ----------------------------------------------------------------------
 -----
 title
 -----
 Symbolic Z-matrix:
 Charge =  0 Multiplicity = 1

 SCF Done:  E(RHF) =  -493.929805821     A.U. after   11 cycles
 Normal termination of Gaussian 16 at Wed Apr  9 17:18:04 2025.
 Gaussian 16:  ES64L-G16RevC.01  3-Jul-2019

 ----------------------------------------------------------------------
 #t hf aug-cc-pvdz iop(5/13=1,5/36=2,99/5=2) pseudo=read geom=check gue
 ss=(read,tcheck) scf=(maxcycle=1)
 ----------------------------------------------------------------------
 -----
 title
 -----
 Structure from the checkpoint file:  "HB300SPXx10_100_1.10_2.00_sulfane_methylamine_dimer_mol1.chk"
 Charge =  0 Multiplicity = 1

                         Standard orientation:
 ---------------------------------------------------------------------
 Center     Atomic      Atomic             Coordinates (Angstroms)
 Number     Number       Type             X           Y           Z
 ---------------------------------------------------------------------
      1          1           0        0.000000    1.600530    0.000000
      2          1           0        0.417703    3.517568    0.000000
      3         16           0       -0.695246    2.770220    0.000000
      4          7           0        1.249423   -2.364320    0.000000
      5          1           0        1.789216   -2.624382    0.814449
      6          1           0        1.789216   -2.624382   -0.814449
      7          6           0       -0.059886   -3.021169    0.000000
      8          1           0       -0.619222   -2.700466   -0.877538
      9          1           0       -0.020404   -4.114672    0.000000
     10          1           0       -0.619222   -2.700466    0.877538
 ---------------------------------------------------------------------

 SCF Done:  E(RHF) =  -493.983955892     A.U. after    2 cycles

 The electronic state is 1-A'.
 Alpha  occ. eigenvalues --  -93.54350 -15.60779 -11.25575  -8.84076  -6.18249
 Alpha  occ. eigenvalues --   -6.18034  -6.17662  -1.14055  -0.95946  -0.89455
 Alpha  occ. eigenvalues --   -0.66621  -0.60567  -0.58065  -0.56124  -0.52229
 Alpha  occ. eigenvalues --   -0.48903  -0.38701  -0.37604
 Alpha virt. eigenvalues --    0.03318   0.04297   0.04698   0.04895   0.06470
 Alpha virt. eigenvalues --    0.08468   0.09698   0.11867   0.12007   0.12554
 Alpha virt. eigenvalues --    0.13177   0.15850   0.16078   0.17474   0.18775

 Mulliken charges:
               1
     1  H    0.035106
     2  H    0.013042
     3  S   -0.045229
     4  N   -0.348766
     5  H   -0.005021
     6  H   -0.005021
     7  C    0.795109
     8  H   -0.153535
     9  H   -0.132149
    10  H   -0.153535
 Sum of Mulliken charges =   0.00000

 Dipole moment (field-independent basis, Debye):
    X=              1.3321    Y=             -1.7118    Z=              0.0000  Tot=              2.1690

 Test job not archived.
 1\1\GINC-SE114\SP\RHF\Aug-CC-pVDZ\C1H7N1S1\OHZDE\09-Apr-2025\0\\#t hf
 aug-cc-pvdz iop(5/13=1,5/36=2,99/5=2) pseudo=read geom=check guess=(re
 ad,tcheck) scf=(maxcycle=1)\\title\\0,1\H,0,0.41509073,0.4488286,0.\H,
 0,1.12809873,2.27670481,0.\S,0,-0.08823071,1.71303185,0.\N,0,1.0276404
 8,-3.66284745,0.\H,0,1.520001,-4.00429889,0.81444891\H,0,1.520001,-4.0
 0429889,-0.81444891\C,0,-0.36843744,-4.10636341,0.\H,0,-0.87059522,-3.
 70195667,-0.87753792\H,0,-0.50083318,-5.19253925,0.\H,0,-0.87059522,-3
 .70195667,0.87753792\\Version=ES64L-G16RevC.01\State=1-A'\HF=-493.9839

 Normal termination of Gaussian 16 at Wed Apr  9 17:18:06 2025.
