 Gaussian 16, Revision C.01,

 ----------------------------------------------------------------------
 #t hf aug-cc-pvdz symm=none int=(grid=ultrafine) guess=(read,tcheck) s
 table=(opt,rrhf)
 ----------------------------------------------------------------------
 -----
 title
 -----
 Symbolic Z-matrix:
 Charge =  0 Multiplicity = 1

 SCF Done:  E(RHF) =  -2555.67227055     A.U. after   14 cycles
 Normal termination of Gaussian 16 at Wed Apr  9 17:51:42 2025.
 Gaussian 16:  ES64L-G16RevC.01  3-Jul-2019

 ----------------------------------------------------------------------
 #t hf aug-cc-pvdz iop(5/13=1,5/36=2,99/5=2) pseudo=read geom=check gue
 ss=(read,tcheck) scf=(maxcycle=1)
 ----------------------------------------------------------------------
 -----
 title
 -----
 Structure from the checkpoint file:  "HB300SPXx10_1271_4.32_0.80_hydrogenfluoride_P4S3_dimer_mol3.chk"
 Charge =  0 Multiplicity = 1

                         Standard orientation:
 ---------------------------------------------------------------------
 Center     Atomic      Atomic             Coordinates (Angstroms)
 Number     Number       Type             X           Y           Z
 ---------------------------------------------------------------------
      1         16           0        0.657052   -0.648011    1.767550
      2         15           0       -1.369311   -0.439191    1.187071
      3         16           0        0.719996    1.839864   -0.299695
      4         16           0        0.744890   -1.209969   -1.401764
      5         15           0       -1.297454   -0.831925   -1.028956
      6         15           0       -1.313753    1.284804   -0.260036
      7         15           0        1.717117    0.005635    0.031424
 ---------------------------------------------------------------------

 SCF Done:  E(RHF) =  -2555.79835145     A.U. after    2 cycles

 The electronic state is 1-A.
 Alpha  occ. eigenvalues --  -93.57282 -93.57225 -93.57095 -81.35745 -81.31937
 Alpha  occ. eigenvalues --  -81.31924 -81.31892  -8.87232  -8.87170  -8.86990
 Alpha  occ. eigenvalues --   -7.85505  -7.82139  -7.82102  -7.82078  -6.21297
 Alpha  occ. eigenvalues --   -6.21232  -6.21072  -6.21046  -6.20997  -6.20818
 Alpha  occ. eigenvalues --   -6.20756  -6.20691  -6.20509  -4.99191  -4.99177
 Alpha  occ. eigenvalues --   -4.98979  -4.95939  -4.95844  -4.95824  -4.95625
 Alpha  occ. eigenvalues --   -4.95588  -4.95576  -4.95571  -4.95530  -4.95522
 Alpha  occ. eigenvalues --   -1.06274  -0.97236  -0.96802  -0.89072  -0.71774
 Alpha  occ. eigenvalues --   -0.68225  -0.67977  -0.54493  -0.53963  -0.53940
 Alpha  occ. eigenvalues --   -0.45253  -0.43319  -0.43139  -0.41989  -0.41653
 Alpha  occ. eigenvalues --   -0.38182  -0.37428  -0.34108  -0.33993
 Alpha virt. eigenvalues --    0.03292   0.05594   0.05630   0.06090   0.06520
 Alpha virt. eigenvalues --    0.06618   0.06642   0.07868   0.08022   0.10365
 Alpha virt. eigenvalues --    0.10398   0.10596   0.10625   0.11395   0.11514

 Mulliken charges:
               1
     1  S   -0.249789
     2  P    0.198776
     3  S   -0.248397
     4  S   -0.247731
     5  P    0.199467
     6  P    0.198085
     7  P    0.149589
 Sum of Mulliken charges =  -0.00000

 Dipole moment (field-independent basis, Debye):
    X=             -0.5377    Y=              0.0455    Z=             -0.0645  Tot=              0.5434

 Test job not archived.
 1\1\GINC-SE220\SP\RHF\Aug-CC-pVDZ\P4S3\OHZDE\09-Apr-2025\0\\#t hf aug-
 cc-pvdz iop(5/13=1,5/36=2,99/5=2) pseudo=read geom=check guess=(read,t
 check) scf=(maxcycle=1)\\title\\0,1\S,0,0.50054833,0.14050822,1.471853
 43\P,0,0.05515558,2.11691482,2.09003828\S,0,-2.56468744,-0.06224484,2.
 48684532\S,0,-0.11990107,-0.20040246,4.61301422\P,0,-0.37864246,1.8681
 4028,4.28551321\P,0,-2.07396232,1.96336821,2.80603144\P,0,-0.71514226,
 -1.04653296,2.76728951\\Version=ES64L-G16RevC.01\State=1-A\HF=-2555.79
 83514\RMSD=9.085e-03\Dipole=-0.030131,0.2090426,0.0332142\Quadrupole=-

 Normal termination of Gaussian 16 at Wed Apr  9 17:51:46 2025.
