 Gaussian 16, Revision C.01,

 ----------------------------------------------------------------------
 #t hf aug-cc-pvdz symm=none int=(grid=ultrafine) guess=(read,tcheck) s
 table=(opt,rrhf)
 ----------------------------------------------------------------------
 -----
 title
 -----
 Symbolic Z-matrix:
 Charge =  0 Multiplicity = 1

 SCF Done:  E(RHF) =  -914.484514442     A.U. after   12 cycles

 1\1\GINC-SE229\Stability\RHF\Aug-CC-pVDZ\C3H10S2\OHZDE\09-Apr-2025\0\\
 #t hf aug-cc-pvdz symm=none int=(grid=ultrafine) guess=(read,tcheck) s
 table=(opt,rrhf)\\title\\0,1\H,0,2.306559,-2.0578968,-0.64952301\H,0,3
 .32031438,-1.47471252,0.67641305\H,0,2.52307119,-0.31083024,-0.3888258
 5\H,0,0.07002633,-1.01993654,0.36023035\C,0,2.42249764,-1.27751778,0.0
 9684023\S,0,1.02865784,-1.2837739,1.27093846\H,0,0.87794009,1.27149409
 ,0.24584747\H,0,-0.03486865,2.55013518,-0.59747342\H,0,0.97999641,1.43
 050329,-1.51981124\H,0,-2.82776494,0.02969453,0.63808768\H,0,-2.303831

 Normal termination of Gaussian 16 at Wed Apr  9 17:45:28 2025.
 Gaussian 16:  ES64L-G16RevC.01  3-Jul-2019

 ----------------------------------------------------------------------
 #t hf aug-cc-pvdz iop(5/13=1,5/36=2,99/5=2) pseudo=read geom=check gue
 ss=(read,tcheck) scf=(maxcycle=1)
 ----------------------------------------------------------------------
 -----
 title
 -----
 Structure from the checkpoint file:  "HB300SPXx10_1182_4.23_0.85_methanethiol_dimethylsulfide_dimer_mol1.chk"
 Charge =  0 Multiplicity = 1

                         Standard orientation:
 ---------------------------------------------------------------------
 Center     Atomic      Atomic             Coordinates (Angstroms)
 Number     Number       Type             X           Y           Z
 ---------------------------------------------------------------------
      1          1           0        2.580316    0.912339   -1.283163
      2          1           0        3.419576    0.763758    0.265861
      3          1           0        1.858584    1.590381    0.195500
      4          1           0        0.520348   -0.595508   -0.520293
      5          6           0        2.444956    0.772818   -0.214658
      6         16           0        1.670009   -0.837827    0.141171
      7          1           0       -0.137754    0.908998    1.274095
      8          1           0       -1.792587    1.561790    1.395434
      9          1           0       -0.626745    2.302447    0.287972
     10          1           0       -2.267006   -1.934456   -0.401978
     11          1           0       -2.776610   -0.951462    0.980601
     12          1           0       -1.103703   -1.554079    0.881811
     13          6           0       -0.959698    1.363594    0.723670
     14         16           0       -1.475467    0.290124   -0.640500
     15          6           0       -1.949775   -1.176573    0.309893
 ---------------------------------------------------------------------

 SCF Done:  E(RHF) =  -914.568099711     A.U. after    2 cycles

 The electronic state is 1-A.
 Alpha  occ. eigenvalues --  -93.53495 -93.51455 -11.26650 -11.26484 -11.26122
 Alpha  occ. eigenvalues --   -8.83275  -8.81314  -6.17423  -6.17206  -6.16989
 Alpha  occ. eigenvalues --   -6.15481  -6.15287  -6.14977  -1.06203  -1.01667
 Alpha  occ. eigenvalues --   -0.95594  -0.85295  -0.81027  -0.62947  -0.61356
 Alpha  occ. eigenvalues --   -0.59502  -0.59012  -0.58656  -0.56944  -0.51794
 Alpha  occ. eigenvalues --   -0.50277  -0.45197  -0.44039  -0.34370  -0.33850
 Alpha virt. eigenvalues --    0.03509   0.04190   0.04880   0.05372   0.06400
 Alpha virt. eigenvalues --    0.06919   0.06996   0.07943   0.08999   0.10125
 Alpha virt. eigenvalues --    0.10551   0.13104   0.13509   0.14500   0.14788

 Mulliken charges:
               1
     1  H   -0.124643
     2  H   -0.093466
     3  H   -0.196664
     4  H    0.260864
     5  C    0.150638
     6  S    0.073766
     7  H   -0.150150
     8  H   -0.166393
     9  H   -0.075411
    10  H   -0.096999
    11  H   -0.083176
    12  H   -0.216176
    13  C    0.332412
    14  S    0.109141
    15  C    0.276256
 Sum of Mulliken charges =  -0.00000

 Dipole moment (field-independent basis, Debye):
    X=             -0.7131    Y=              1.2851    Z=              0.9629  Tot=              1.7570

 Test job not archived.
 1\1\GINC-SE229\SP\RHF\Aug-CC-pVDZ\C3H10S2\OHZDE\09-Apr-2025\0\\#t hf a
 ug-cc-pvdz iop(5/13=1,5/36=2,99/5=2) pseudo=read geom=check guess=(rea
 d,tcheck) scf=(maxcycle=1)\\title\\0,1\H,0,2.306559,-2.0578968,-0.6495
 2301\H,0,3.32031438,-1.47471252,0.67641305\H,0,2.52307119,-0.31083024,
 -0.38882585\H,0,0.07002633,-1.01993654,0.36023035\C,0,2.42249764,-1.27
 751778,0.09684023\S,0,1.02865784,-1.2837739,1.27093846\H,0,0.87794009,
 1.27149409,0.24584747\H,0,-0.03486865,2.55013518,-0.59747342\H,0,0.979
 99641,1.43050329,-1.51981124\H,0,-2.82776494,0.02969453,0.63808768\H,0

 Normal termination of Gaussian 16 at Wed Apr  9 17:45:32 2025.
