 Gaussian 16, Revision C.01,

 ----------------------------------------------------------------------
 #t hf aug-cc-pvdz symm=none int=(grid=ultrafine) guess=(read,tcheck) s
 table=(opt,rrhf)
 ----------------------------------------------------------------------
 -----
 title
 -----
 Symbolic Z-matrix:
 Charge =  0 Multiplicity = 1

 SCF Done:  E(RHF) =  -974.715597848     A.U. after   13 cycles
 Normal termination of Gaussian 16 at Wed Apr  9 17:54:41 2025.
 Gaussian 16:  ES64L-G16RevC.01  3-Jul-2019

 ----------------------------------------------------------------------
 #t hf aug-cc-pvdz iop(5/13=1,5/36=2,99/5=2) pseudo=read geom=check gue
 ss=(read,tcheck) scf=(maxcycle=1)
 ----------------------------------------------------------------------
 -----
 title
 -----
 Structure from the checkpoint file:  "HB300SPXx10_1372_4.42_0.85_hydrogenchloride_thioacetone_dimer_mol1.chk"
 Charge =  0 Multiplicity = 1

                         Standard orientation:
 ---------------------------------------------------------------------
 Center     Atomic      Atomic             Coordinates (Angstroms)
 Number     Number       Type             X           Y           Z
 ---------------------------------------------------------------------
      1          1           0        1.481127    0.034882    0.000000
      2         17           0        2.454061   -0.854094    0.000000
      3          1           0       -0.113823   -1.624971    0.000000
      4          1           0       -1.657180   -1.703405    0.874054
      5          1           0       -1.657180   -1.703405   -0.874054
      6          1           0       -2.717696    1.797178    0.000000
      7          1           0       -3.214467    0.331387   -0.874659
      8          6           0       -1.145368   -1.292848    0.000000
      9          6           0       -1.276761    0.196996    0.000000
     10         16           0        0.000000    1.209514    0.000000
     11          6           0       -2.682098    0.713239    0.000000
     12          1           0       -3.214467    0.331387    0.874659
 ---------------------------------------------------------------------

 SCF Done:  E(RHF) =  -974.790699073     A.U. after    2 cycles

 The electronic state is 1-A'.
 Alpha  occ. eigenvalues -- -103.61956 -93.53430 -11.36003 -11.27100 -11.26542
 Alpha  occ. eigenvalues --  -10.65402  -8.83582  -8.31130  -8.30878  -8.30864
 Alpha  occ. eigenvalues --   -6.17745  -6.17348  -6.17254  -1.13747  -1.11238
 Alpha  occ. eigenvalues --   -0.98429  -0.96928  -0.74593  -0.64859  -0.63710
 Alpha  occ. eigenvalues --   -0.63272  -0.59591  -0.57806  -0.55379  -0.51251
 Alpha  occ. eigenvalues --   -0.44652  -0.44468  -0.40841  -0.35921
 Alpha virt. eigenvalues --    0.02533   0.03186   0.04509   0.05544   0.05875
 Alpha virt. eigenvalues --    0.07247   0.07286   0.08118   0.09530   0.11045
 Alpha virt. eigenvalues --    0.13484   0.13571   0.14124   0.15543   0.15790

 Mulliken charges:
               1
     1  H    0.299305
     2  Cl  -0.290652
     3  H   -0.193950
     4  H    0.091291
     5  H    0.091291
     6  H   -0.068107
     7  H    0.055503
     8  C    0.396615
     9  C   -0.740858
    10  S   -0.006765
    11  C    0.310825
    12  H    0.055503
 Sum of Mulliken charges =   0.00000

 Dipole moment (field-independent basis, Debye):
    X=             -5.4874    Y=             -0.3005    Z=             -0.0000  Tot=              5.4956

 Test job not archived.
 1\1\GINC-SE103\SP\RHF\Aug-CC-pVDZ\C3H7Cl1S1\OHZDE\09-Apr-2025\0\\#t hf
  aug-cc-pvdz iop(5/13=1,5/36=2,99/5=2) pseudo=read geom=check guess=(r
 ead,tcheck) scf=(maxcycle=1)\\title\\0,1\H,0,-0.37830043,1.49279945,0.
 \Cl,0,0.15229845,2.69917624,0.\H,0,1.70489561,0.51337587,0.\H,0,2.2734
 2947,-0.92359042,0.87405369\H,0,2.27342947,-0.92359042,-0.87405369\H,0
 ,-0.70320157,-3.04925319,0.\H,0,0.84448193,-3.050473,-0.87465894\C,0,1
 .72059457,-0.57020333,0.\C,0,0.35128302,-1.17177077,0.\S,0,-1.01677378
 ,-0.28648424,0.\C,0,0.31225787,-2.66841892,0.\H,0,0.84448193,-3.050473

 Normal termination of Gaussian 16 at Wed Apr  9 17:54:45 2025.
