 Gaussian 16, Revision C.01,

 ----------------------------------------------------------------------
 #t hf aug-cc-pvdz symm=none int=(grid=ultrafine) guess=(read,tcheck) s
 table=(opt,rrhf)
 ----------------------------------------------------------------------
 -----
 title
 -----
 Symbolic Z-matrix:
 Charge =  0 Multiplicity = 1

 SCF Done:  E(RHF) =  -704.621686228     A.U. after   13 cycles
 Normal termination of Gaussian 16 at Wed Apr  9 17:39:44 2025.
 Gaussian 16:  ES64L-G16RevC.01  3-Jul-2019

 ----------------------------------------------------------------------
 #t hf aug-cc-pvdz iop(5/13=1,5/36=2,99/5=2) pseudo=read geom=check gue
 ss=(read,tcheck) scf=(maxcycle=1)
 ----------------------------------------------------------------------
 -----
 title
 -----
 Structure from the checkpoint file:  "HB300SPXx10_1126_4.16_1.05_aceticacid_dimethylsulfide_dimer_mol1.chk"
 Charge =  0 Multiplicity = 1

                         Standard orientation:
 ---------------------------------------------------------------------
 Center     Atomic      Atomic             Coordinates (Angstroms)
 Number     Number       Type             X           Y           Z
 ---------------------------------------------------------------------
      1          6           0        0.264643    1.899832    0.000000
      2          8           0       -0.865590    1.469123    0.000000
      3          8           0        1.351063    1.119220    0.000000
      4          1           0        1.073504    0.169390    0.000000
      5          6           0        0.621185    3.360899    0.000000
      6          1           0       -0.282112    3.960661    0.000000
      7          1           0        1.224409    3.592638    0.876781
      8          1           0        1.224409    3.592638   -0.876781
      9          1           0       -1.645005   -2.512486    1.379195
     10          1           0       -1.300931   -0.759823    1.315483
     11          1           0       -0.287953   -1.841852    2.299403
     12          1           0       -0.287953   -1.841852   -2.299403
     13          1           0       -1.300931   -0.759823   -1.315483
     14          1           0       -1.645005   -2.512486   -1.379195
     15          6           0       -0.865590   -1.753699    1.382643
     16         16           0        0.275993   -2.019609   -0.000000
     17          6           0       -0.865590   -1.753699   -1.382643
 ---------------------------------------------------------------------

 SCF Done:  E(RHF) =  -704.745475456     A.U. after    2 cycles

 The electronic state is 1-A'.
 Alpha  occ. eigenvalues --  -93.53454 -20.60964 -20.55687 -11.39570 -11.26060
 Alpha  occ. eigenvalues --  -11.26044 -11.24948  -8.83205  -6.17350  -6.17152
 Alpha  occ. eigenvalues --   -6.16928  -1.41514  -1.31698  -1.05606  -1.01647
 Alpha  occ. eigenvalues --   -0.95036  -0.82964  -0.80427  -0.71215  -0.68689
 Alpha  occ. eigenvalues --   -0.65513  -0.61193  -0.60809  -0.58363  -0.58122
 Alpha  occ. eigenvalues --   -0.57077  -0.57054  -0.55989  -0.49856  -0.49271
 Alpha  occ. eigenvalues --   -0.46614  -0.43797  -0.34893
 Alpha virt. eigenvalues --    0.03477   0.04370   0.04552   0.05407   0.06085
 Alpha virt. eigenvalues --    0.06321   0.07272   0.07510   0.08102   0.08939
 Alpha virt. eigenvalues --    0.10896   0.11443   0.13476   0.14487   0.14810

 Mulliken charges:
               1
     1  C    0.271761
     2  O   -0.491399
     3  O   -0.450844
     4  H    0.257034
     5  C    0.406132
     6  H   -0.031659
     7  H    0.041703
     8  H    0.041703
     9  H   -0.095005
    10  H   -0.127481
    11  H   -0.097097
    12  H   -0.097097
    13  H   -0.127481
    14  H   -0.095005
    15  C    0.244161
    16  S    0.106413
    17  C    0.244161
 Sum of Mulliken charges =  -0.00000

 Dipole moment (field-independent basis, Debye):
    X=             -0.1273    Y=              0.5840    Z=             -0.0000  Tot=              0.5977

 Test job not archived.
 1\1\GINC-SE029\SP\RHF\Aug-CC-pVDZ\C4H10O2S1\OHZDE\09-Apr-2025\0\\#t hf
  aug-cc-pvdz iop(5/13=1,5/36=2,99/5=2) pseudo=read geom=check guess=(r
 ead,tcheck) scf=(maxcycle=1)\\title\\0,1\C,0,0.08152563,1.86646531,0.\
 O,0,1.12794826,1.25988757,0.\O,0,-1.11612638,1.27040068,0.\H,0,-0.9946
 6015,0.28833063,0.\C,0,-0.03582077,3.36582142,0.\H,0,0.95204799,3.8127
 8193,0.\H,0,-0.5940149,3.69140047,-0.87678098\H,0,-0.5940149,3.6914004
 7,0.87678098\H,0,1.25801788,-2.795205,-1.37919498\H,0,1.19979132,-1.01
 0037,-1.31548339\H,0,0.02623738,-1.91540035,-2.29940307\H,0,0.02623738

 Normal termination of Gaussian 16 at Wed Apr  9 17:39:49 2025.
