 Gaussian 16, Revision C.01,

 ----------------------------------------------------------------------
 #t hf aug-cc-pvdz symm=none int=(grid=ultrafine) guess=(read,tcheck) s
 table=(opt,rrhf)
 ----------------------------------------------------------------------
 -----
 title
 -----
 Symbolic Z-matrix:
 Charge =  0 Multiplicity = 1

 SCF Done:  E(RHF) =  -571.990916357     A.U. after   12 cycles
 Normal termination of Gaussian 16 at Wed Apr  9 04:10:44 2025.
 Gaussian 16:  ES64L-G16RevC.01  3-Jul-2019

 ----------------------------------------------------------------------
 #t hf aug-cc-pvdz iop(5/13=1,5/36=2,99/5=2) pseudo=read geom=check gue
 ss=(read,tcheck) scf=(maxcycle=1)
 ----------------------------------------------------------------------
 -----
 title
 -----
 Structure from the checkpoint file:  "HB300SPXx10_136_1.14_1.05_sulfane_trimethylamine_dimer_mol1.chk"
 Charge =  0 Multiplicity = 1

                         Standard orientation:
 ---------------------------------------------------------------------
 Center     Atomic      Atomic             Coordinates (Angstroms)
 Number     Number       Type             X           Y           Z
 ---------------------------------------------------------------------
      1          1           0       -1.132604    0.046780    0.000000
      2          1           0       -2.757874   -1.062686    0.000000
      3         16           0       -2.488199    0.250519    0.000000
      4          1           0        2.439686   -0.832735    1.303193
      5          1           0        0.944805   -0.272685    2.080506
      6          1           0        0.956255   -1.800557    1.197590
      7          1           0        0.956255   -1.800557   -1.197590
      8          1           0        2.439686   -0.832735   -1.303193
      9          1           0        0.944805   -0.272685   -2.080506
     10          1           0        2.439473    1.412314    0.000000
     11          1           0        0.950682    1.804524   -0.882789
     12          6           0        1.344494   -0.783221    1.205875
     13          7           0        0.925489   -0.088742    0.000000
     14          6           0        1.344494   -0.783221   -1.205875
     15          6           0        1.344494    1.303006    0.000000
     16          1           0        0.950682    1.804524    0.882789
 ---------------------------------------------------------------------

 SCF Done:  E(RHF) =  -572.069786029     A.U. after    2 cycles

 The electronic state is 1-A'.
 Alpha  occ. eigenvalues --  -93.51991 -15.62523 -11.26123 -11.26121 -11.26105
 Alpha  occ. eigenvalues --   -8.81777  -6.15980  -6.15764  -6.15410  -1.20715
 Alpha  occ. eigenvalues --   -0.96045  -0.96041  -0.94013  -0.81057  -0.66182
 Alpha  occ. eigenvalues --   -0.64316  -0.64294  -0.56052  -0.55810  -0.55608
 Alpha  occ. eigenvalues --   -0.53078  -0.51604  -0.51602  -0.47328  -0.35878
 Alpha  occ. eigenvalues --   -0.35822
 Alpha virt. eigenvalues --    0.03197   0.04316   0.04581   0.04833   0.06934
 Alpha virt. eigenvalues --    0.07196   0.07257   0.07719   0.07800   0.09364
 Alpha virt. eigenvalues --    0.09955   0.12477   0.13313   0.14400   0.14407

 Mulliken charges:
               1
     1  H    0.036133
     2  H   -0.024740
     3  S    0.033649
     4  H   -0.061140
     5  H   -0.184047
     6  H   -0.185636
     7  H   -0.185636
     8  H   -0.061140
     9  H   -0.184047
    10  H   -0.083395
    11  H   -0.178254
    12  C    0.791618
    13  N   -1.123314
    14  C    0.791618
    15  C    0.796585
    16  H   -0.178254
 Sum of Mulliken charges =   0.00000

 Dipole moment (field-independent basis, Debye):
    X=              2.5184    Y=             -0.9092    Z=              0.0000  Tot=              2.6775

 Test job not archived.
 1\1\GINC-SE125\SP\RHF\Aug-CC-pVDZ\C3H11N1S1\OHZDE\09-Apr-2025\0\\#t hf
  aug-cc-pvdz iop(5/13=1,5/36=2,99/5=2) pseudo=read geom=check guess=(r
 ead,tcheck) scf=(maxcycle=1)\\title\\0,1\H,0,0.06719299,0.97177334,0.\
 H,0,1.32304535,2.48678341,0.\S,0,-0.00955285,2.34044335,0.\H,0,0.61056
 714,-2.66684492,-1.30319342\H,0,0.1920132,-1.12634599,-2.08050641\H,0,
 1.71219445,-1.27988291,-1.19759028\H,0,1.71219445,-1.27988291,1.197590
 28\H,0,0.61056714,-2.66684492,1.30319342\H,0,0.1920132,-1.12634599,2.0
 8050641\H,0,-1.62472634,-2.45777849,0.\H,0,-1.87673437,-0.93895613,0.8

 Normal termination of Gaussian 16 at Wed Apr  9 04:10:49 2025.
