 Gaussian 16, Revision C.01,

 ----------------------------------------------------------------------
 #t hf aug-cc-pvdz symm=none int=(grid=ultrafine) guess=(read,tcheck) s
 table=(opt,rrhf)
 ----------------------------------------------------------------------
 -----
 title
 -----
 Symbolic Z-matrix:
 Charge =  0 Multiplicity = 1

 SCF Done:  E(RHF) =  -3015.75999763     A.U. after   14 cycles
 Normal termination of Gaussian 16 at Wed Apr  9 04:10:29 2025.
 Gaussian 16:  ES64L-G16RevC.01  3-Jul-2019

 ----------------------------------------------------------------------
 #t hf aug-cc-pvdz iop(5/13=1,5/36=2,99/5=2) pseudo=read geom=check gue
 ss=(read,tcheck) scf=(maxcycle=1)
 ----------------------------------------------------------------------
 -----
 title
 -----
 Structure from the checkpoint file:  "HB300SPXx10_1343_4.39_0.90_hydrogenchloride_P4S3_dimer_mol1.chk"
 Charge =  0 Multiplicity = 1

                         Standard orientation:
 ---------------------------------------------------------------------
 Center     Atomic      Atomic             Coordinates (Angstroms)
 Number     Number       Type             X           Y           Z
 ---------------------------------------------------------------------
      1          1           0       -2.457656   -0.486634   -0.529296
      2         17           0       -3.517583    0.007549    0.016896
      3         16           0       -0.475899   -0.715185   -1.532000
      4         15           0       -0.191551    1.326521   -1.059167
      5         16           0       -0.203522   -0.724402    1.690619
      6         16           0        2.447842   -0.672478   -0.169821
      7         15           0        1.846620    1.348815   -0.103010
      8         15           0       -0.002811    1.312658    1.183661
      9         15           0        0.611863   -1.711238    0.006603
 ---------------------------------------------------------------------

 SCF Done:  E(RHF) =  -3015.90362961     A.U. after    2 cycles

 The electronic state is 1-A.
 Alpha  occ. eigenvalues -- -103.65767 -93.58546 -93.57953 -93.57883 -81.36572
 Alpha  occ. eigenvalues --  -81.32677 -81.32600 -81.32562 -10.69085  -8.88451
 Alpha  occ. eigenvalues --   -8.87888  -8.87812  -8.34840  -8.34541  -8.34536
 Alpha  occ. eigenvalues --   -7.86326  -7.82848  -7.82766  -7.82736  -6.22518
 Alpha  occ. eigenvalues --   -6.22291  -6.22085  -6.21951  -6.21874  -6.21725
 Alpha  occ. eigenvalues --   -6.21638  -6.21412  -6.21347  -5.00015  -5.00009
 Alpha  occ. eigenvalues --   -4.99802  -4.96654  -4.96532  -4.96484  -4.96331
 Alpha  occ. eigenvalues --   -4.96306  -4.96248  -4.96227  -4.96197  -4.96186
 Alpha  occ. eigenvalues --   -1.14657  -1.07199  -0.98225  -0.97870  -0.89793
 Alpha  occ. eigenvalues --   -0.72743  -0.68930  -0.68842  -0.63351  -0.55351
 Alpha  occ. eigenvalues --   -0.54962  -0.54422  -0.47834  -0.47618  -0.45801
 Alpha  occ. eigenvalues --   -0.44064  -0.43949  -0.42703  -0.42360  -0.39247
 Alpha  occ. eigenvalues --   -0.38071  -0.34841  -0.34706
 Alpha virt. eigenvalues --    0.02707   0.05177   0.05340   0.05551   0.05836
 Alpha virt. eigenvalues --    0.06117   0.06214   0.07305   0.07481   0.08680
 Alpha virt. eigenvalues --    0.09750   0.09878   0.10481   0.10631   0.10805

 Mulliken charges:
               1
     1  H    0.259128
     2  Cl  -0.134464
     3  S   -0.466274
     4  P    0.225414
     5  S   -0.271028
     6  S   -0.257455
     7  P    0.188105
     8  P    0.231248
     9  P    0.225325
 Sum of Mulliken charges =  -0.00000

 Dipole moment (field-independent basis, Debye):
    X=              1.9045    Y=              0.2494    Z=             -0.2753  Tot=              1.9404

 Test job not archived.
 1\1\GINC-SE179\SP\RHF\Aug-CC-pVDZ\Cl1H1P4S3\OHZDE\09-Apr-2025\0\\#t hf
  aug-cc-pvdz iop(5/13=1,5/36=2,99/5=2) pseudo=read geom=check guess=(r
 ead,tcheck) scf=(maxcycle=1)\\title\\0,1\H,0,-0.57388532,0.23171594,-0
 .00983813\Cl,0,-1.31085335,0.72448843,-0.94794305\S,0,0.75550166,0.003
 89392,1.76944229\P,0,0.24847977,2.0129003,2.19348289\S,0,-2.3724995,-0
 .16750026,2.57304595\S,0,-0.09840346,-0.09006843,4.87872468\P,0,-0.352
 92895,1.93961481,4.36184846\P,0,-1.9283115,1.88619896,2.75171189\P,0,-
 0.53435904,-1.09134535,3.06534293\\Version=ES64L-G16RevC.01\State=1-A\

 Normal termination of Gaussian 16 at Wed Apr  9 04:10:36 2025.
