 Gaussian 16, Revision C.01,

 ----------------------------------------------------------------------
 #t hf aug-cc-pvdz symm=none int=(grid=ultrafine) guess=(read,tcheck) s
 table=(opt,rrhf)
 ----------------------------------------------------------------------
 -----
 title
 -----
 Symbolic Z-matrix:
 Charge =  0 Multiplicity = 1

 SCF Done:  E(RHF) =  -974.724429250     A.U. after   13 cycles
 Normal termination of Gaussian 16 at Wed Apr  9 04:10:28 2025.
 Gaussian 16:  ES64L-G16RevC.01  3-Jul-2019

 ----------------------------------------------------------------------
 #t hf aug-cc-pvdz iop(5/13=1,5/36=2,99/5=2) pseudo=read geom=check gue
 ss=(read,tcheck) scf=(maxcycle=1)
 ----------------------------------------------------------------------
 -----
 title
 -----
 Structure from the checkpoint file:  "HB300SPXx10_1375_4.42_1.00_hydrogenchloride_thioacetone_dimer_mol1.chk"
 Charge =  0 Multiplicity = 1

                         Standard orientation:
 ---------------------------------------------------------------------
 Center     Atomic      Atomic             Coordinates (Angstroms)
 Number     Number       Type             X           Y           Z
 ---------------------------------------------------------------------
      1          1           0        1.651160   -0.213438    0.000000
      2         17           0        2.565633   -1.162447    0.000000
      3          1           0       -0.293724   -1.545097    0.000000
      4          1           0       -1.838946   -1.525292    0.874054
      5          1           0       -1.838946   -1.525292   -0.874054
      6          1           0       -2.674857    2.035610    0.000000
      7          1           0       -3.263774    0.604352   -0.874659
      8          6           0       -1.302077   -1.148091    0.000000
      9          6           0       -1.338525    0.347091    0.000000
     10         16           0        0.000000    1.276425    0.000000
     11          6           0       -2.708215    0.951599    0.000000
     12          1           0       -3.263774    0.604352    0.874659
 ---------------------------------------------------------------------

 SCF Done:  E(RHF) =  -974.798613263     A.U. after    2 cycles

 The electronic state is 1-A'.
 Alpha  occ. eigenvalues -- -103.64100 -93.52927 -11.35310 -11.26649 -11.26413
 Alpha  occ. eigenvalues --  -10.67386  -8.82927  -8.33126  -8.32855  -8.32846
 Alpha  occ. eigenvalues --   -6.17100  -6.16711  -6.16567  -1.13131  -1.12402
 Alpha  occ. eigenvalues --   -0.98082  -0.96115  -0.73821  -0.63607  -0.63365
 Alpha  occ. eigenvalues --   -0.62825  -0.60084  -0.57517  -0.54986  -0.51124
 Alpha  occ. eigenvalues --   -0.45891  -0.45870  -0.40201  -0.35619
 Alpha virt. eigenvalues --    0.02646   0.03503   0.04597   0.05847   0.05918
 Alpha virt. eigenvalues --    0.07229   0.07314   0.08205   0.09578   0.10881
 Alpha virt. eigenvalues --    0.13458   0.13638   0.14182   0.15603   0.15629

 Mulliken charges:
               1
     1  H    0.234000
     2  Cl  -0.227444
     3  H   -0.188866
     4  H    0.086929
     5  H    0.086929
     6  H   -0.066805
     7  H    0.052720
     8  C    0.354594
     9  C   -0.727615
    10  S    0.031703
    11  C    0.311136
    12  H    0.052720
 Sum of Mulliken charges =  -0.00000

 Dipole moment (field-independent basis, Debye):
    X=             -4.9119    Y=             -0.2784    Z=             -0.0000  Tot=              4.9198

 Test job not archived.
 1\1\GINC-SE261\SP\RHF\Aug-CC-pVDZ\C3H7Cl1S1\OHZDE\09-Apr-2025\0\\#t hf
  aug-cc-pvdz iop(5/13=1,5/36=2,99/5=2) pseudo=read geom=check guess=(r
 ead,tcheck) scf=(maxcycle=1)\\title\\0,1\H,0,-0.37830043,1.49279945,0.
 \Cl,0,0.15229845,2.69917624,0.\H,0,1.59222385,0.19938463,0.\H,0,2.1607
 5771,-1.23758166,0.87405369\H,0,2.16075771,-1.23758166,-0.87405369\H,0
 ,-0.81587334,-3.36324443,0.\H,0,0.73181017,-3.36446424,-0.87465894\C,0
 ,1.6079228,-0.88419457,0.\C,0,0.23861125,-1.48576201,0.\S,0,-1.1294455
 5,-0.60047548,0.\C,0,0.19958611,-2.98241016,0.\H,0,0.73181017,-3.36446

 Normal termination of Gaussian 16 at Wed Apr  9 04:10:32 2025.
