 Gaussian 16, Revision C.01,

 ----------------------------------------------------------------------
 #t hf aug-cc-pvdz symm=none int=(grid=ultrafine) guess=(read,tcheck) s
 table=(opt,rrhf)
 ----------------------------------------------------------------------
 -----
 title
 -----
 Symbolic Z-matrix:
 Charge =  0 Multiplicity = 1

 SCF Done:  E(RHF) =  -991.395657461     A.U. after   13 cycles

 1\1\GINC-SE229\Stability\RHF\Aug-CC-pVDZ\C5H12S2\OHZDE\09-Apr-2025\0\\
 #t hf aug-cc-pvdz symm=none int=(grid=ultrafine) guess=(read,tcheck) s
 table=(opt,rrhf)\\title\\0,1\H,0,2.75511322,-2.75302781,-0.03281769\H,
 0,2.23328443,-3.6609344,1.39160682\H,0,2.88304587,-2.02859561,1.588775
 53\H,0,0.87227038,-0.86572365,0.25189781\C,0,2.28978938,-2.67174858,0.
 94522466\S,0,0.57786237,-2.06107277,0.80693494\H,0,-0.61050803,-0.8532
 6693,-1.51994408\H,0,-0.70542126,0.61725474,-2.49929917\H,0,-2.8480145
 8,-0.04869998,-1.03868\H,0,-0.56153591,2.32009852,1.09412403\H,0,-2.30

 Normal termination of Gaussian 16 at Wed Apr  9 17:48:05 2025.
 Gaussian 16:  ES64L-G16RevC.01  3-Jul-2019

 ----------------------------------------------------------------------
 #t hf aug-cc-pvdz iop(5/13=1,5/36=2,99/5=2) pseudo=read geom=check gue
 ss=(read,tcheck) scf=(maxcycle=1)
 ----------------------------------------------------------------------
 -----
 title
 -----
 Structure from the checkpoint file:  "HB300SPXx10_1201_4.25_0.80_methanethiol_tetrahydrothiophene_dimer_mol1.chk"
 Charge =  0 Multiplicity = 1

                         Standard orientation:
 ---------------------------------------------------------------------
 Center     Atomic      Atomic             Coordinates (Angstroms)
 Number     Number       Type             X           Y           Z
 ---------------------------------------------------------------------
      1          1           0        3.435900    1.037380   -0.792874
      2          1           0        4.194819   -0.399366   -0.096175
      3          1           0        3.426922    0.783856    0.969619
      4          1           0        0.969229    0.343345   -0.004253
      5          6           0        3.367088    0.298176   -0.000068
      6         16           0        1.836941   -0.681183   -0.149230
      7          1           0       -0.433156   -0.042009   -1.799533
      8          1           0       -1.860263    0.991260   -1.961700
      9          1           0       -2.252747   -1.601488   -1.422047
     10          1           0       -2.037348    0.367125    1.964133
     11          1           0       -3.164379   -0.412393   -0.493878
     12          1           0       -0.332268   -0.094062    2.061793
     13          1           0       -2.106711   -1.908527    1.161910
     14          1           0       -0.553074   -1.747682    0.354563
     15         16           0       -0.757692    1.345313    0.159376
     16          6           0       -1.308558    0.347295   -1.282316
     17          6           0       -2.160663   -0.781948   -0.709111
     18          6           0       -1.482075   -1.225904    0.585787
     19          6           0       -1.174945    0.038463    1.388391
 ---------------------------------------------------------------------

 SCF Done:  E(RHF) =  -991.497900275     A.U. after    2 cycles

 The electronic state is 1-A.
 Alpha  occ. eigenvalues --  -93.52566 -93.50379 -11.26714 -11.26618 -11.25459
 Alpha  occ. eigenvalues --  -11.24415 -11.24167  -8.82433  -8.80323  -6.16553
 Alpha  occ. eigenvalues --   -6.16399  -6.16192  -6.14525  -6.14300  -6.13973
 Alpha  occ. eigenvalues --   -1.12173  -1.01075  -0.98595  -0.96627  -0.84857
 Alpha  occ. eigenvalues --   -0.79787  -0.78616  -0.66596  -0.64535  -0.60871
 Alpha  occ. eigenvalues --   -0.59794  -0.58093  -0.56056  -0.51426  -0.51081
 Alpha  occ. eigenvalues --   -0.49863  -0.48634  -0.48288  -0.44300  -0.42702
 Alpha  occ. eigenvalues --   -0.33724  -0.32876
 Alpha virt. eigenvalues --    0.03330   0.04053   0.04520   0.04923   0.05940
 Alpha virt. eigenvalues --    0.06258   0.06537   0.06845   0.08026   0.08537
 Alpha virt. eigenvalues --    0.08860   0.09842   0.12476   0.12500   0.13672

 Mulliken charges:
               1
     1  H   -0.126089
     2  H   -0.114468
     3  H   -0.132591
     4  H    0.248903
     5  C    0.002830
     6  S    0.130250
     7  H   -0.192382
     8  H   -0.085456
     9  H   -0.099800
    10  H   -0.155527
    11  H   -0.149720
    12  H   -0.135276
    13  H   -0.072107
    14  H   -0.190589
    15  S    0.152865
    16  C    0.263642
    17  C    0.100446
    18  C    0.344390
    19  C    0.210679
 Sum of Mulliken charges =  -0.00000

 Dipole moment (field-independent basis, Debye):
    X=             -1.0350    Y=             -0.2215    Z=              0.1009  Tot=              1.0632

 Test job not archived.
 1\1\GINC-SE229\SP\RHF\Aug-CC-pVDZ\C5H12S2\OHZDE\09-Apr-2025\0\\#t hf a
 ug-cc-pvdz iop(5/13=1,5/36=2,99/5=2) pseudo=read geom=check guess=(rea
 d,tcheck) scf=(maxcycle=1)\\title\\0,1\H,0,2.75511322,-2.75302781,-0.0
 3281769\H,0,2.23328443,-3.6609344,1.39160682\H,0,2.88304587,-2.0285956
 1,1.58877553\H,0,0.87227038,-0.86572365,0.25189781\C,0,2.28978938,-2.6
 7174858,0.94522466\S,0,0.57786237,-2.06107277,0.80693494\H,0,-0.610508
 03,-0.85326693,-1.51994408\H,0,-0.70542126,0.61725474,-2.49929917\H,0,
 -2.84801458,-0.04869998,-1.03868\H,0,-0.56153591,2.32009852,1.09412403

 Normal termination of Gaussian 16 at Wed Apr  9 17:48:13 2025.
