 Gaussian 16, Revision C.01,

 ----------------------------------------------------------------------
 #t hf aug-cc-pvdz symm=none int=(grid=ultrafine) guess=(read,tcheck) s
 table=(opt,rrhf)
 ----------------------------------------------------------------------
 -----
 title
 -----
 Symbolic Z-matrix:
 Charge =  0 Multiplicity = 1

 SCF Done:  E(RHF) =  -437.701223860     A.U. after   11 cycles
 Normal termination of Gaussian 16 at Wed Apr  9 18:02:40 2025.
 Gaussian 16:  ES64L-G16RevC.01  3-Jul-2019

 ----------------------------------------------------------------------
 #t hf aug-cc-pvdz iop(5/13=1,5/36=2,99/5=2) pseudo=read geom=check gue
 ss=(read,tcheck) scf=(maxcycle=1)
 ----------------------------------------------------------------------
 -----
 title
 -----
 Structure from the checkpoint file:  "HB300SPXx10_14_1.02_0.95_phosphine_methylamine_dimer_mol1.chk"
 Charge =  0 Multiplicity = 1

                         Standard orientation:
 ---------------------------------------------------------------------
 Center     Atomic      Atomic             Coordinates (Angstroms)
 Number     Number       Type             X           Y           Z
 ---------------------------------------------------------------------
      1         15           0        1.835443    0.034336   -0.109952
      2          1           0        0.707787   -0.786124    0.138198
      3          1           0        2.767835   -0.900730    0.405439
      4          1           0        1.720566    0.731406    1.119194
      5          7           0       -1.810887   -0.732931    0.033487
      6          1           0       -2.386021   -1.034958    0.808113
      7          1           0       -2.228512   -1.105817   -0.808363
      8          6           0       -1.731428    0.726448   -0.023375
      9          1           0       -1.093109    1.018981   -0.856296
     10          1           0       -2.693289    1.238425   -0.139047
     11          1           0       -1.262121    1.095602    0.887889
 ---------------------------------------------------------------------

 SCF Done:  E(RHF) =  -437.754886981     A.U. after    2 cycles

 The electronic state is 1-A.
 Alpha  occ. eigenvalues --  -81.24288 -15.60920 -11.25697  -7.74761  -4.88711
 Alpha  occ. eigenvalues --   -4.88674  -4.88389  -1.14377  -0.89671  -0.79074
 Alpha  occ. eigenvalues --   -0.66826  -0.61021  -0.56462  -0.52388  -0.50374
 Alpha  occ. eigenvalues --   -0.49908  -0.39043  -0.35717
 Alpha virt. eigenvalues --    0.03353   0.04635   0.04866   0.05141   0.07193
 Alpha virt. eigenvalues --    0.08471   0.08900   0.10144   0.11056   0.11368
 Alpha virt. eigenvalues --    0.12507   0.14741   0.16936   0.17050   0.17963

 Mulliken charges:
               1
     1  P   -0.268028
     2  H    0.144035
     3  H    0.059162
     4  H    0.072161
     5  N   -0.412937
     6  H    0.026734
     7  H    0.026489
     8  C    0.866449
     9  H   -0.164840
    10  H   -0.162342
    11  H   -0.186882
 Sum of Mulliken charges =  -0.00000

 Dipole moment (field-independent basis, Debye):
    X=             -1.8557    Y=             -0.0398    Z=              0.3614  Tot=              1.8910

 Test job not archived.
 1\1\GINC-SE135\SP\RHF\Aug-CC-pVDZ\C1H8N1P1\OHZDE\09-Apr-2025\0\\#t hf
 aug-cc-pvdz iop(5/13=1,5/36=2,99/5=2) pseudo=read geom=check guess=(re
 ad,tcheck) scf=(maxcycle=1)\\title\\0,1\P,0,1.60554835,-0.39061782,-0.
 727406\H,0,0.88263451,-0.28817357,0.48636549\H,0,2.87161411,-0.472756,
 -0.09521777\H,0,1.68852005,1.01288402,-0.9096172\N,0,-1.45650172,0.102
 17504,1.34285926\H,0,-1.65700017,0.7829638,2.06283974\H,0,-1.99385231,
 -0.72606558,1.56066039\C,0,-1.80477835,0.61952162,0.01983614\H,0,-1.56
 218035,-0.12903331,-0.73355267\H,0,-2.85724725,0.89704206,-0.10653593\

 Normal termination of Gaussian 16 at Wed Apr  9 18:02:43 2025.
