 Gaussian 16, Revision C.01,

 ----------------------------------------------------------------------
 #t hf aug-cc-pvdz symm=none int=(grid=ultrafine) guess=(read,tcheck) s
 table=(opt,rrhf)
 ----------------------------------------------------------------------
 -----
 title
 -----
 Symbolic Z-matrix:
 Charge =  0 Multiplicity = 1

 SCF Done:  E(RHF) =  -1091.85399278     A.U. after   14 cycles
 Normal termination of Gaussian 16 at Wed Apr  9 17:56:43 2025.
 Gaussian 16:  ES64L-G16RevC.01  3-Jul-2019

 ----------------------------------------------------------------------
 #t hf aug-cc-pvdz iop(5/13=1,5/36=2,99/5=2) pseudo=read geom=check gue
 ss=(read,tcheck) scf=(maxcycle=1)
 ----------------------------------------------------------------------
 -----
 title
 -----
 Structure from the checkpoint file:  "HB300SPXx10_1406_5.03_1.05_dimethylsulfoxide_phosphineF2_dimer_mol1.chk"
 Charge =  0 Multiplicity = 1

                         Standard orientation:
 ---------------------------------------------------------------------
 Center     Atomic      Atomic             Coordinates (Angstroms)
 Number     Number       Type             X           Y           Z
 ---------------------------------------------------------------------
      1          1           0        2.172244    1.672890   -1.450251
      2          1           0        2.959343    1.744183    0.144785
      3          1           0        1.168783    1.836302    0.016512
      4          1           0        1.582833   -1.584934    1.683947
      5          1           0        0.895734    0.059552    1.776538
      6          6           0        2.077834    1.411162   -0.399809
      7         16           0        1.981653   -0.395918   -0.321174
      8          8           0        0.685649   -0.787246   -0.958985
      9          6           0        1.753442   -0.533207    1.470856
     10          1           0        2.661912   -0.197052    1.966853
     11         15           0       -1.884434   -0.382383   -0.098567
     12          9           0       -3.413618    0.116964    0.046957
     13          9           0       -1.207729    0.945788    0.529013
     14          1           0       -1.761506    0.004950   -1.459220
 ---------------------------------------------------------------------

 SCF Done:  E(RHF) =  -1092.05502567     A.U. after    2 cycles

 The electronic state is 1-A.
 Alpha  occ. eigenvalues --  -93.66766 -81.37348 -26.12223 -26.11120 -20.53190
 Alpha  occ. eigenvalues --  -11.28026 -11.27969  -8.95221  -7.86022  -6.29523
 Alpha  occ. eigenvalues --   -6.29313  -6.29009  -5.00112  -4.99874  -4.99358
 Alpha  occ. eigenvalues --   -1.65395  -1.63544  -1.31919  -1.06444  -0.98221
 Alpha  occ. eigenvalues --   -0.87897  -0.82560  -0.77248  -0.75786  -0.75077
 Alpha  occ. eigenvalues --   -0.71654  -0.69165  -0.65228  -0.64519  -0.63797
 Alpha  occ. eigenvalues --   -0.60926  -0.59852  -0.57411  -0.56080  -0.54073
 Alpha  occ. eigenvalues --   -0.45266  -0.39562  -0.37897
 Alpha virt. eigenvalues --    0.02848   0.04235   0.05003   0.05649   0.06683
 Alpha virt. eigenvalues --    0.06845   0.07718   0.08638   0.09252   0.10433
 Alpha virt. eigenvalues --    0.12155   0.12903   0.13096   0.14532   0.15216

 Mulliken charges:
               1
     1  H   -0.045944
     2  H   -0.050148
     3  H   -0.060984
     4  H   -0.045565
     5  H   -0.075185
     6  C    0.208389
     7  S    1.027020
     8  O   -1.053977
     9  C    0.181976
    10  H   -0.047313
    11  P    1.272383
    12  F   -0.658544
    13  F   -0.675054
    14  H    0.022947
 Sum of Mulliken charges =  -0.00000

 Dipole moment (field-independent basis, Debye):
    X=              4.6601    Y=              0.9997    Z=              1.4761  Tot=              4.9894

 Test job not archived.
 1\1\GINC-SE103\SP\RHF\Aug-CC-pVDZ\C2H7F2O1P1S1\OHZDE\09-Apr-2025\0\\#t
  hf aug-cc-pvdz iop(5/13=1,5/36=2,99/5=2) pseudo=read geom=check guess
 =(read,tcheck) scf=(maxcycle=1)\\title\\0,1\H,0,1.67395499,0.82417178,
 -3.38423362\H,0,0.49124302,-0.02078366,-4.41184902\H,0,0.89589517,-0.6
 6534236,-2.78340018\H,0,-2.718683,0.46280377,-2.2188292\H,0,-1.5421980
 9,-0.87905323,-2.20106353\C,0,0.76564588,0.22768029,-3.38836814\S,0,-0
 .5351395,1.25679703,-2.66046249\O,0,-0.17783951,1.44910918,-1.22000404
 \C,0,-1.85989706,0.022286,-2.71790313\H,0,-2.10168806,-0.18449539,-3.7

 Normal termination of Gaussian 16 at Wed Apr  9 17:56:49 2025.
