 Gaussian 16, Revision C.01,

 ----------------------------------------------------------------------
 #t hf aug-cc-pvdz symm=none int=(grid=ultrafine) guess=(read,tcheck) s
 table=(opt,rrhf)
 ----------------------------------------------------------------------
 -----
 title
 -----
 Symbolic Z-matrix:
 Charge =  0 Multiplicity = 1

 SCF Done:  E(RHF) =  -591.457006671     A.U. after   14 cycles
 Normal termination of Gaussian 16 at Wed Apr  9 17:19:22 2025.
 Gaussian 16:  ES64L-G16RevC.01  3-Jul-2019

 ----------------------------------------------------------------------
 #t hf aug-cc-pvdz iop(5/13=1,5/36=2,99/5=2) pseudo=read geom=check gue
 ss=(read,tcheck) scf=(maxcycle=1)
 ----------------------------------------------------------------------
 -----
 title
 -----
 Structure from the checkpoint file:  "HB300SPXx10_1013_4.05_0.90_ethyne_thioacetone_dimer_mol1.chk"
 Charge =  0 Multiplicity = 1

                         Standard orientation:
 ---------------------------------------------------------------------
 Center     Atomic      Atomic             Coordinates (Angstroms)
 Number     Number       Type             X           Y           Z
 ---------------------------------------------------------------------
      1          6           0        0.221433   -2.772801    0.000000
      2          1           0       -0.450154   -1.943488    0.000000
      3          6           0        0.991666   -3.688682    0.000000
      4          1           0        1.669124   -4.505441    0.000000
      5          1           0       -1.070487    3.136922    0.000000
      6          1           0        0.476998    3.155922    0.874719
      7          1           0        0.476998    3.155922   -0.874719
      8          1           0        1.371157   -0.398846    0.000000
      9          1           0        1.929921    1.041497   -0.874314
     10          6           0       -0.050885    2.767393    0.000000
     11          6           0        0.000000    1.269607    0.000000
     12         16           0       -1.348860    0.359552    0.000000
     13          6           0        1.379168    0.685014    0.000000
     14          1           0        1.929921    1.041497    0.874314
 ---------------------------------------------------------------------

 SCF Done:  E(RHF) =  -591.539685154     A.U. after    2 cycles

 The electronic state is 1-A'.
 Alpha  occ. eigenvalues --  -93.51419 -11.34040 -11.25733 -11.25453 -11.23933
 Alpha  occ. eigenvalues --  -11.23453  -8.81415  -6.15595  -6.15218  -6.15043
 Alpha  occ. eigenvalues --   -1.11800  -1.01563  -0.97074  -0.94882  -0.75502
 Alpha  occ. eigenvalues --   -0.72479  -0.67019  -0.62400  -0.61863  -0.61706
 Alpha  occ. eigenvalues --   -0.56619  -0.53874  -0.50191  -0.40324  -0.40309
 Alpha  occ. eigenvalues --   -0.38946  -0.34243
 Alpha virt. eigenvalues --    0.02956   0.03926   0.04119   0.05243   0.06136
 Alpha virt. eigenvalues --    0.06542   0.06996   0.07576   0.08932   0.09887
 Alpha virt. eigenvalues --    0.10581   0.11967   0.13178   0.13359   0.14060

 Mulliken charges:
               1
     1  C    0.480819
     2  H   -0.335614
     3  C    0.162978
     4  H   -0.324365
     5  H   -0.062745
     6  H    0.046943
     7  H    0.046943
     8  H   -0.285976
     9  H    0.111326
    10  C    0.332045
    11  C   -0.814606
    12  S    0.048824
    13  C    0.482101
    14  H    0.111326
 Sum of Mulliken charges =  -0.00000

 Dipole moment (field-independent basis, Debye):
    X=              2.6168    Y=              2.3818    Z=              0.0000  Tot=              3.5384

 Test job not archived.
 1\1\GINC-SE226\SP\RHF\Aug-CC-pVDZ\C5H8S1\OHZDE\09-Apr-2025\0\\#t hf au
 g-cc-pvdz iop(5/13=1,5/36=2,99/5=2) pseudo=read geom=check guess=(read
 ,tcheck) scf=(maxcycle=1)\\title\\0,1\C,0,-0.20751211,-2.93011645,0.\H
 ,0,-0.70775465,-1.98748922,0.\C,0,0.37296237,-3.97660953,0.\H,0,0.8813
 7254,-4.90804053,0.\H,0,-0.34315673,3.11765044,0.\H,0,1.17929636,2.839
 7913,0.87471889\H,0,1.17929636,2.8397913,-0.87471889\H,0,1.37577424,-0
 .8204399,0.\H,0,2.20016325,0.48615374,-0.87431367\C,0,0.58674956,2.559
 60608,0.\C,0,0.34970744,1.07982166,0.\S,0,-1.14853329,0.44507754,0.\C,

 Normal termination of Gaussian 16 at Wed Apr  9 17:19:25 2025.
