 Gaussian 16, Revision C.01,

 ----------------------------------------------------------------------
 #t hf aug-cc-pvdz symm=none int=(grid=ultrafine) guess=(read,tcheck) s
 table=(opt,rrhf)
 ----------------------------------------------------------------------
 -----
 title
 -----
 Symbolic Z-matrix:
 Charge =  0 Multiplicity = 1

 SCF Done:  E(RHF) =  -1102.14734408     A.U. after   13 cycles
 Normal termination of Gaussian 16 at Wed Apr  9 17:37:00 2025.
 Gaussian 16:  ES64L-G16RevC.01  3-Jul-2019

 ----------------------------------------------------------------------
 #t hf aug-cc-pvdz iop(5/13=1,5/36=2,99/5=2) pseudo=read geom=check gue
 ss=(read,tcheck) scf=(maxcycle=1)
 ----------------------------------------------------------------------
 -----
 title
 -----
 Structure from the checkpoint file:  "HB300SPXx10_1112_4.15_0.85_aceticacid_dimethyldisulfide_dimer_mol1.chk"
 Charge =  0 Multiplicity = 1

                         Standard orientation:
 ---------------------------------------------------------------------
 Center     Atomic      Atomic             Coordinates (Angstroms)
 Number     Number       Type             X           Y           Z
 ---------------------------------------------------------------------
      1          6           0        2.672016   -0.069791   -0.045404
      2          8           0        2.366693    1.087537   -0.203605
      3          8           0        1.780610   -1.073320   -0.053334
      4          1           0        0.889042   -0.698789   -0.218414
      5          6           0        4.072318   -0.567502    0.181406
      6          1           0        4.761035    0.269638    0.202007
      7          1           0        4.121697   -1.117845    1.119898
      8          1           0        4.348904   -1.258923   -0.613549
      9          1           0       -4.608012   -0.589380    0.235060
     10          1           0       -3.848167   -0.024225   -1.268283
     11          1           0       -3.837083    1.006804    0.188299
     12          1           0       -0.306878    1.263782    1.575850
     13          1           0       -1.295358    2.342703    0.551666
     14          1           0        0.442637    2.105239    0.206997
     15          6           0       -3.785039   -0.012270   -0.184266
     16         16           0       -2.259335   -0.833915    0.372627
     17         16           0       -0.789620    0.250161   -0.563384
     18          6           0       -0.469787    1.637449    0.569615
 ---------------------------------------------------------------------

 SCF Done:  E(RHF) =  -1102.29271131     A.U. after    2 cycles

 The electronic state is 1-A.
 Alpha  occ. eigenvalues --  -93.56398 -93.56117 -20.59472 -20.55282 -11.39097
 Alpha  occ. eigenvalues --  -11.27616 -11.26375 -11.24510  -8.86150  -8.85763
 Alpha  occ. eigenvalues --   -6.20305  -6.20032  -6.19885  -6.19822  -6.19622
 Alpha  occ. eigenvalues --   -6.19298  -1.40963  -1.31290  -1.08088  -1.01517
 Alpha  occ. eigenvalues --   -1.00541  -0.90566  -0.82688  -0.78413  -0.71152
 Alpha  occ. eigenvalues --   -0.68299  -0.64896  -0.61895  -0.60781  -0.60120
 Alpha  occ. eigenvalues --   -0.59009  -0.57554  -0.56802  -0.55461  -0.53576
 Alpha  occ. eigenvalues --   -0.49596  -0.48744  -0.46218  -0.44479  -0.37187
 Alpha  occ. eigenvalues --   -0.35837
 Alpha virt. eigenvalues --    0.03419   0.04046   0.04883   0.05301   0.06048
 Alpha virt. eigenvalues --    0.06223   0.06488   0.07348   0.08212   0.08504
 Alpha virt. eigenvalues --    0.10067   0.11061   0.11980   0.12098   0.13599

 Mulliken charges:
               1
     1  C    0.245422
     2  O   -0.477265
     3  O   -0.477721
     4  H    0.365042
     5  C    0.432216
     6  H   -0.038432
     7  H    0.029080
     8  H    0.039400
     9  H   -0.077756
    10  H   -0.037277
    11  H   -0.075819
    12  H   -0.071281
    13  H   -0.141912
    14  H   -0.057990
    15  C    0.073416
    16  S    0.190310
    17  S   -0.223380
    18  C    0.303948
 Sum of Mulliken charges =   0.00000

 Dipole moment (field-independent basis, Debye):
    X=             -1.4181    Y=              0.3263    Z=              0.7154  Tot=              1.6215

 Test job not archived.
 1\1\GINC-SE232\SP\RHF\Aug-CC-pVDZ\C4H10O2S2\OHZDE\09-Apr-2025\0\\#t hf
  aug-cc-pvdz iop(5/13=1,5/36=2,99/5=2) pseudo=read geom=check guess=(r
 ead,tcheck) scf=(maxcycle=1)\\title\\0,1\C,0,2.51189353,-1.3688008,0.0
 1480743\O,0,1.76216303,-1.97148126,0.7444221\O,0,2.20838592,-0.1819016
 3,-0.53372859\H,0,1.31541707,0.08523139,-0.22768185\C,0,3.88111819,-1.
 83853704,-0.39087365\H,0,4.08390343,-2.80677129,0.05292751\H,0,3.94369
 33,-1.90220497,-1.47628393\H,0,4.62800978,-1.11523999,-0.06604891\H,0,
 -3.54920257,2.6354911,-0.74426505\H,0,-2.78744048,2.53211225,0.8575573

 Normal termination of Gaussian 16 at Wed Apr  9 17:37:08 2025.
