 Gaussian 16, Revision C.01,

 ----------------------------------------------------------------------
 #t hf aug-cc-pvdz symm=none int=(grid=ultrafine) guess=(read,tcheck) s
 table=(opt,rrhf)
 ----------------------------------------------------------------------
 -----
 title
 -----
 Symbolic Z-matrix:
 Charge =  0 Multiplicity = 1

 SCF Done:  E(RHF) =  -576.789436588     A.U. after   12 cycles
 Normal termination of Gaussian 16 at Wed Apr  9 17:57:39 2025.
 Gaussian 16:  ES64L-G16RevC.01  3-Jul-2019

 ----------------------------------------------------------------------
 #t hf aug-cc-pvdz iop(5/13=1,5/36=2,99/5=2) pseudo=read geom=check gue
 ss=(read,tcheck) scf=(maxcycle=1)
 ----------------------------------------------------------------------
 -----
 title
 -----
 Structure from the checkpoint file:  "HB300SPXx10_1437_5.06_1.10_methanethiol_methylfluoride_dimer_mol1.chk"
 Charge =  0 Multiplicity = 1

                         Standard orientation:
 ---------------------------------------------------------------------
 Center     Atomic      Atomic             Coordinates (Angstroms)
 Number     Number       Type             X           Y           Z
 ---------------------------------------------------------------------
      1          1           0        2.009352    1.668311   -0.559580
      2          1           0        2.036134    1.300508    1.170088
      3          1           0        0.481846    1.456685    0.330537
      4          1           0        0.790565   -0.689425   -1.143253
      5          6           0        1.510057    1.122865    0.235808
      6         16           0        1.579982   -0.675039   -0.059202
      7          1           0       -1.472445   -0.859367    0.838813
      8          1           0       -2.858840    0.201888    1.239664
      9          1           0       -3.059621   -1.120842    0.056706
     10          6           0       -2.371729   -0.379222    0.458668
     11          9           0       -2.004075    0.486779   -0.572511
 ---------------------------------------------------------------------

 SCF Done:  E(RHF) =  -576.875801243     A.U. after    2 cycles

 The electronic state is 1-A.
 Alpha  occ. eigenvalues --  -93.53110 -26.10497 -11.31894 -11.26426  -8.82868
 Alpha  occ. eigenvalues --   -6.17028  -6.16810  -6.16484  -1.63443  -1.02370
 Alpha  occ. eigenvalues --   -0.97076  -0.85771  -0.74130  -0.74079  -0.71385
 Alpha  occ. eigenvalues --   -0.60593  -0.59052  -0.55428  -0.55383  -0.52584
 Alpha  occ. eigenvalues --   -0.45373  -0.35330
 Alpha virt. eigenvalues --    0.03473   0.04415   0.05086   0.05921   0.06700
 Alpha virt. eigenvalues --    0.07765   0.08305   0.11096   0.11854   0.12883
 Alpha virt. eigenvalues --    0.14296   0.14855   0.15594   0.16392   0.17610

 Mulliken charges:
               1
     1  H   -0.101774
     2  H   -0.079802
     3  H   -0.126246
     4  H    0.094169
     5  C    0.099406
     6  S    0.115025
     7  H   -0.136741
     8  H   -0.097611
     9  H   -0.133537
    10  C    0.829191
    11  F   -0.462079
 Sum of Mulliken charges =  -0.00000

 Dipole moment (field-independent basis, Debye):
    X=             -1.1701    Y=              0.1614    Z=              1.2950  Tot=              1.7528

 Test job not archived.
 1\1\GINC-SE174\SP\RHF\Aug-CC-pVDZ\C2H7F1S1\OHZDE\09-Apr-2025\0\\#t hf
 aug-cc-pvdz iop(5/13=1,5/36=2,99/5=2) pseudo=read geom=check guess=(re
 ad,tcheck) scf=(maxcycle=1)\\title\\0,1\H,0,2.08229041,-1.4254109,-0.5
 8197167\H,0,2.56243491,-0.07269824,0.45116733\H,0,1.30281242,0.1638302
 2,-0.77457926\H,0,-0.45614858,-1.39442223,0.38777169\C,0,1.72720839,-0
 .53887394,-0.06484534\S,0,0.50833702,-0.97408013,1.21941614\H,0,-1.252
 13386,1.50946118,0.27576354\H,0,-1.32479108,2.7310035,-1.032515\H,0,-2
 .77640696,1.77539703,-0.62148675\C,0,-1.68994101,1.76557315,-0.6867820

 Normal termination of Gaussian 16 at Wed Apr  9 17:57:42 2025.
