 Gaussian 16, Revision C.01,

 ----------------------------------------------------------------------
 #t hf aug-cc-pvdz symm=none int=(grid=ultrafine) guess=(read,tcheck) s
 table=(opt,rrhf)
 ----------------------------------------------------------------------
 -----
 title
 -----
 Symbolic Z-matrix:
 Charge =  0 Multiplicity = 1

 SCF Done:  E(RHF) =  -977.994185261     A.U. after   12 cycles
 Normal termination of Gaussian 16 at Wed Apr  9 17:58:41 2025.
 Gaussian 16:  ES64L-G16RevC.01  3-Jul-2019

 ----------------------------------------------------------------------
 #t hf aug-cc-pvdz iop(5/13=1,5/36=2,99/5=2) pseudo=read geom=check gue
 ss=(read,tcheck) scf=(maxcycle=1)
 ----------------------------------------------------------------------
 -----
 title
 -----
 Structure from the checkpoint file:  "HB300SPXx10_1449_5.07_1.50_methanethiol_phosphineF2_dimer_mol1.chk"
 Charge =  0 Multiplicity = 1

                         Standard orientation:
 ---------------------------------------------------------------------
 Center     Atomic      Atomic             Coordinates (Angstroms)
 Number     Number       Type             X           Y           Z
 ---------------------------------------------------------------------
      1          1           0        2.332689    1.708956   -0.157601
      2          1           0        3.019966    0.886273   -1.564796
      3          1           0        4.048299    1.212898   -0.161259
      4          1           0        2.563752   -0.386324    1.446175
      5          6           0        3.043399    0.954987   -0.480711
      6         16           0        2.565508   -0.689888    0.139479
      7         15           0       -1.754532   -0.286288   -0.243299
      8          9           0       -1.448737    0.905414    0.786605
      9          9           0       -3.343988   -0.071865   -0.341660
     10          1           0       -1.820728   -1.321152    0.735068
 ---------------------------------------------------------------------

 SCF Done:  E(RHF) =  -978.139755146     A.U. after    2 cycles

 The electronic state is 1-A.
 Alpha  occ. eigenvalues --  -93.54014 -81.39801 -26.13995 -26.13777 -11.27308
 Alpha  occ. eigenvalues --   -8.83771  -7.88542  -6.17930  -6.17709  -6.17367
 Alpha  occ. eigenvalues --   -5.02651  -5.02376  -5.01890  -1.67502  -1.65971
 Alpha  occ. eigenvalues --   -1.03264  -0.90061  -0.86628  -0.79426  -0.77894
 Alpha  occ. eigenvalues --   -0.77057  -0.73814  -0.71072  -0.62063  -0.61488
 Alpha  occ. eigenvalues --   -0.60062  -0.53491  -0.46207  -0.40889  -0.36145
 Alpha virt. eigenvalues --    0.03446   0.04542   0.05065   0.05955   0.06429
 Alpha virt. eigenvalues --    0.07886   0.08594   0.10125   0.11627   0.11778
 Alpha virt. eigenvalues --    0.14409   0.14856   0.15457   0.15873   0.16891

 Mulliken charges:
               1
     1  H   -0.097788
     2  H   -0.086494
     3  H   -0.100649
     4  H    0.072101
     5  C    0.067259
     6  S    0.147699
     7  P    1.240921
     8  F   -0.612427
     9  F   -0.625724
    10  H   -0.004898
 Sum of Mulliken charges =  -0.00000

 Dipole moment (field-independent basis, Debye):
    X=              1.7780    Y=             -0.1150    Z=             -0.1058  Tot=              1.7849

 Test job not archived.
 1\1\GINC-SE103\SP\RHF\Aug-CC-pVDZ\C1H5F2P1S1\OHZDE\09-Apr-2025\0\\#t h
 f aug-cc-pvdz iop(5/13=1,5/36=2,99/5=2) pseudo=read geom=check guess=(
 read,tcheck) scf=(maxcycle=1)\\title\\0,1\H,0,-1.72434823,-0.02735536,
 -1.47402619\H,0,-1.29643549,-1.41515971,-2.4840979\H,0,-1.57230153,0.1
 6002765,-3.24353895\H,0,0.52779021,1.28305094,-1.94983564\C,0,-1.18500
 823,-0.34129171,-2.36202164\S,0,0.60124692,-0.03772908,-2.17289215\P,0
 ,0.97017419,-1.01166545,2.05646908\F,0,-0.06743035,0.20954727,2.136359
 8\F,0,1.04929523,-1.31920147,3.6316463\H,0,2.14821992,-0.20959915,2.01

 Normal termination of Gaussian 16 at Wed Apr  9 17:58:45 2025.
