 Gaussian 16, Revision C.01,

 ----------------------------------------------------------------------
 #t hf aug-cc-pvdz symm=none int=(grid=ultrafine) guess=(read,tcheck) s
 table=(opt,rrhf)
 ----------------------------------------------------------------------
 -----
 title
 -----
 Symbolic Z-matrix:
 Charge =  0 Multiplicity = 1

 SCF Done:  E(RHF) =  -601.596174445     A.U. after   14 cycles
 Normal termination of Gaussian 16 at Wed Apr  9 17:26:06 2025.
 Gaussian 16:  ES64L-G16RevC.01  3-Jul-2019

 ----------------------------------------------------------------------
 #t hf aug-cc-pvdz iop(5/13=1,5/36=2,99/5=2) pseudo=read geom=check gue
 ss=(read,tcheck) scf=(maxcycle=1)
 ----------------------------------------------------------------------
 -----
 title
 -----
 Structure from the checkpoint file:  "HB300SPXx10_104_1.11_0.95_sulfane_methylazide_dimer_mol1.chk"
 Charge =  0 Multiplicity = 1

                         Standard orientation:
 ---------------------------------------------------------------------
 Center     Atomic      Atomic             Coordinates (Angstroms)
 Number     Number       Type             X           Y           Z
 ---------------------------------------------------------------------
      1          1           0       -1.275924   -0.528457   -0.012338
      2          1           0       -2.762055   -0.433859    1.239178
      3         16           0       -2.599099   -0.294216   -0.084488
      4          1           0        1.213550    1.947762   -0.909302
      5          1           0        1.260206    1.984227    0.870434
      6          1           0       -0.290900    1.842533    0.022592
      7          6           0        0.755727    1.559575    0.001481
      8          7           0        0.789769    0.087848    0.031057
      9          7           0        1.900688   -0.429024    0.004135
     10          7           0        2.867592   -1.010567   -0.016283
 ---------------------------------------------------------------------

 SCF Done:  E(RHF) =  -601.680002943     A.U. after    2 cycles

 The electronic state is 1-A.
 Alpha  occ. eigenvalues --  -93.53254 -15.86097 -15.74408 -15.68240 -11.29425
 Alpha  occ. eigenvalues --   -8.83064  -6.17259  -6.17046  -6.16693  -1.46544
 Alpha  occ. eigenvalues --   -1.27485  -0.99970  -0.95526  -0.73720  -0.71556
 Alpha  occ. eigenvalues --   -0.71247  -0.66457  -0.60089  -0.58353  -0.57315
 Alpha  occ. eigenvalues --   -0.48850  -0.43938  -0.38245  -0.37027
 Alpha virt. eigenvalues --    0.03163   0.04465   0.04914   0.06282   0.07513
 Alpha virt. eigenvalues --    0.09735   0.10866   0.11012   0.11955   0.12499
 Alpha virt. eigenvalues --    0.13861   0.14453   0.15851   0.16056   0.17935

 Mulliken charges:
               1
     1  H    0.023103
     2  H    0.018786
     3  S   -0.041669
     4  H   -0.052032
     5  H   -0.053756
     6  H   -0.219422
     7  C    0.818235
     8  N   -0.690884
     9  N    0.480440
    10  N   -0.282801
 Sum of Mulliken charges =  -0.00000

 Dipole moment (field-independent basis, Debye):
    X=              1.1841    Y=              1.8308    Z=              0.7497  Tot=              2.3057

 Test job not archived.
 1\1\GINC-SE041\SP\RHF\Aug-CC-pVDZ\C1H5N3S1\OHZDE\09-Apr-2025\0\\#t hf
 aug-cc-pvdz iop(5/13=1,5/36=2,99/5=2) pseudo=read geom=check guess=(re
 ad,tcheck) scf=(maxcycle=1)\\title\\0,1\H,0,1.21774303,0.78814331,-0.0
 7896573\H,0,1.90622629,2.11329938,-1.32547278\S,0,1.84165876,1.9773473
 1,0.00700442\H,0,-2.14389955,0.23474188,1.15666698\H,0,-2.39474106,0.3
 4085538,-0.60310165\H,0,-1.25193521,1.43250477,0.20134869\C,0,-1.65990
 952,0.42777198,0.19838295\N,0,-0.52314198,-0.48249011,-0.01886109\N,0,
 -0.78492983,-1.67948324,-0.04523899\N,0,-0.9092704,-2.80029622,-0.0880

 Normal termination of Gaussian 16 at Wed Apr  9 17:26:09 2025.
