 Gaussian 16, Revision C.01,

 ----------------------------------------------------------------------
 #t hf aug-cc-pvdz symm=none int=(grid=ultrafine) guess=(read,tcheck) s
 table=(opt,rrhf)
 ----------------------------------------------------------------------
 -----
 title
 -----
 Symbolic Z-matrix:
 Charge =  0 Multiplicity = 1

 SCF Done:  E(RHF) =  -398.697659072     A.U. after   10 cycles
 Normal termination of Gaussian 16 at Wed Apr  9 17:53:07 2025.
 Gaussian 16:  ES64L-G16RevC.01  3-Jul-2019

 ----------------------------------------------------------------------
 #t hf aug-cc-pvdz iop(5/13=1,5/36=2,99/5=2) pseudo=read geom=check gue
 ss=(read,tcheck) scf=(maxcycle=1)
 ----------------------------------------------------------------------
 -----
 title
 -----
 Structure from the checkpoint file:  "HB300SPXx10_131_1.14_0.80_sulfane_trimethylamine_dimer_mol2.chk"
 Charge =  0 Multiplicity = 1

                         Standard orientation:
 ---------------------------------------------------------------------
 Center     Atomic      Atomic             Coordinates (Angstroms)
 Number     Number       Type             X           Y           Z
 ---------------------------------------------------------------------
      1          1           0        0.983678   -0.851095    0.000000
      2          1           0       -0.983678   -0.807187   -0.000000
      3         16           0        0.000000    0.103643   -0.000000
 ---------------------------------------------------------------------

 SCF Done:  E(RHF) =  -398.719146203     A.U. after    2 cycles

 The electronic state is 1-A'.
 Alpha  occ. eigenvalues --  -93.55157  -8.84857  -6.19019  -6.18805  -6.18435
 Alpha  occ. eigenvalues --   -0.96543  -0.58664  -0.49583  -0.38292
 Alpha virt. eigenvalues --    0.03465   0.06247   0.11332   0.11800   0.12562
 Alpha virt. eigenvalues --    0.17830   0.20520   0.23464   0.27276   0.30821
 Alpha virt. eigenvalues --    0.31492   0.41386   0.46141   0.47745   0.53216

 Mulliken charges:
               1
     1  H    0.053657
     2  H    0.015274
     3  S   -0.068931
 Sum of Mulliken charges =   0.00000

 Dipole moment (field-independent basis, Debye):
    X=             -0.0155    Y=             -1.0752    Z=              0.0000  Tot=              1.0753

 Test job not archived.
 1\1\GINC-SE162\SP\RHF\Aug-CC-pVDZ\H2S1\OHZDE\09-Apr-2025\0\\#t hf aug-
 cc-pvdz iop(5/13=1,5/36=2,99/5=2) pseudo=read geom=check guess=(read,t
 check) scf=(maxcycle=1)\\title\\0,1\H,0,0.06719299,0.97177334,0.\H,0,1
 .32304535,2.48678341,0.\S,0,-0.00955285,2.34044335,0.\\Version=ES64L-G
 16RevC.01\State=1-A'\HF=-398.7191462\RMSD=1.087e-02\Dipole=0.3235577,-
 0.2725766,0.\Quadrupole=0.8823523,1.1040189,-1.9863711,0.5215899,0.,0.
 \PG=CS [SG(H2S1)]\\@

 Normal termination of Gaussian 16 at Wed Apr  9 17:53:08 2025.
