 Gaussian 16, Revision C.01,

 ----------------------------------------------------------------------
 #t hf aug-cc-pvdz symm=none int=(grid=ultrafine) guess=(read,tcheck) s
 table=(opt,rrhf)
 ----------------------------------------------------------------------
 -----
 title
 -----
 Symbolic Z-matrix:
 Charge =  0 Multiplicity = 1

 SCF Done:  E(RHF) =  -897.823377252     A.U. after   11 cycles
 Normal termination of Gaussian 16 at Wed Apr  9 04:10:06 2025.
 Gaussian 16:  ES64L-G16RevC.01  3-Jul-2019

 ----------------------------------------------------------------------
 #t hf aug-cc-pvdz iop(5/13=1,5/36=2,99/5=2) pseudo=read geom=check gue
 ss=(read,tcheck) scf=(maxcycle=1)
 ----------------------------------------------------------------------
 -----
 title
 -----
 Structure from the checkpoint file:  "HB300SPXx10_1334_4.38_0.95_hydrogenchloride_methanethiol_dimer_mol1.chk"
 Charge =  0 Multiplicity = 1

                         Standard orientation:
 ---------------------------------------------------------------------
 Center     Atomic      Atomic             Coordinates (Angstroms)
 Number     Number       Type             X           Y           Z
 ---------------------------------------------------------------------
      1          1           0       -0.832775   -0.398388   -0.090735
      2         17           0       -2.057345    0.055733    0.004378
      3          1           0        0.682256    1.584914    0.556335
      4          1           0        1.507578    1.492372   -1.005037
      5          1           0        2.456347    1.380913    0.484783
      6          1           0        1.318913   -0.931961    1.232062
      7          6           0        1.508697    1.129921    0.019112
      8         16           0        1.299398   -0.678428   -0.085406
 ---------------------------------------------------------------------

 SCF Done:  E(RHF) =  -897.877310889     A.U. after    2 cycles

 The electronic state is 1-A.
 Alpha  occ. eigenvalues -- -103.64630 -93.56043 -11.28516 -10.67941  -8.85833
 Alpha  occ. eigenvalues --   -8.33683  -8.33401  -8.33399  -6.19988  -6.19766
 Alpha  occ. eigenvalues --   -6.19543  -1.13324  -1.04958  -0.88411  -0.63421
 Alpha  occ. eigenvalues --   -0.62660  -0.59810  -0.55022  -0.47967  -0.46472
 Alpha  occ. eigenvalues --   -0.46436  -0.38210
 Alpha virt. eigenvalues --    0.03123   0.04669   0.05456   0.06221   0.07996
 Alpha virt. eigenvalues --    0.10081   0.11115   0.12776   0.14272   0.14309
 Alpha virt. eigenvalues --    0.15985   0.16408   0.17109   0.18081   0.19410

 Mulliken charges:
               1
     1  H    0.261585
     2  Cl  -0.196811
     3  H   -0.138559
     4  H   -0.053805
     5  H   -0.108501
     6  H    0.123705
     7  C    0.167828
     8  S   -0.055442
 Sum of Mulliken charges =  -0.00000

 Dipole moment (field-independent basis, Debye):
    X=              2.6716    Y=              0.9051    Z=              0.7507  Tot=              2.9190

 Test job not archived.
 1\1\GINC-SE041\SP\RHF\Aug-CC-pVDZ\C1H5Cl1S1\OHZDE\09-Apr-2025\0\\#t hf
  aug-cc-pvdz iop(5/13=1,5/36=2,99/5=2) pseudo=read geom=check guess=(r
 ead,tcheck) scf=(maxcycle=1)\\title\\0,1\H,0,-0.71323053,0.36081391,-0
 .38963987\Cl,0,-0.97574618,1.50432633,-0.9712843\H,0,1.68171032,0.5998
 649,0.53481523\H,0,2.2068157,-0.80596533,-0.40087019\H,0,2.43906525,-0
 .79661654,1.35358767\H,0,-0.19457345,-0.77759525,1.86851731\C,0,1.7859
 5852,-0.48070443,0.5464084\S,0,0.15725445,-1.2897323,0.67926745\\Versi
 on=ES64L-G16RevC.01\State=1-A\HF=-897.8773109\RMSD=5.416e-03\Dipole=0.

 Normal termination of Gaussian 16 at Wed Apr  9 04:10:09 2025.
