 Gaussian 16, Revision C.01,

 ----------------------------------------------------------------------
 #t hf aug-cc-pvdz symm=none int=(grid=ultrafine) guess=(read,tcheck) s
 table=(opt,rrhf)
 ----------------------------------------------------------------------
 -----
 title
 -----
 Symbolic Z-matrix:
 Charge =  0 Multiplicity = 1

 SCF Done:  E(RHF) =  -630.510521418     A.U. after   14 cycles

 1\1\GINC-SE226\Stability\RHF\Aug-CC-pVDZ\C6H10S1\OHZDE\09-Apr-2025\0\\
 #t hf aug-cc-pvdz symm=none int=(grid=ultrafine) guess=(read,tcheck) s
 table=(opt,rrhf)\\title\\0,1\C,0,2.59090187,-0.04968862,0.43961338\H,0
 ,1.93323189,0.27193926,-0.33858357\C,0,3.30609004,-0.41751171,1.325807
 27\H,0,3.94715573,-0.74121457,2.10714096\H,0,0.28752034,-1.677676,-0.5
 2770315\H,0,-1.1871398,-1.724509,-1.50318415\H,0,-1.43499141,-1.984053
 15,1.14946921\H,0,-1.75019318,1.8118317,0.22668582\H,0,-2.53202859,-0.
 88359649,0.31739442\H,0,-0.03834066,2.0024711,0.62093584\H,0,-1.543310

 Normal termination of Gaussian 16 at Wed Apr  9 17:18:44 2025.
 Gaussian 16:  ES64L-G16RevC.01  3-Jul-2019

 ----------------------------------------------------------------------
 #t hf aug-cc-pvdz iop(5/13=1,5/36=2,99/5=2) pseudo=read geom=check gue
 ss=(read,tcheck) scf=(maxcycle=1)
 ----------------------------------------------------------------------
 -----
 title
 -----
 Structure from the checkpoint file:  "HB300SPXx10_1004_4.04_0.95_ethyne_tetrahydrothiophene_dimer_mol1.chk"
 Charge =  0 Multiplicity = 1

                         Standard orientation:
 ---------------------------------------------------------------------
 Center     Atomic      Atomic             Coordinates (Angstroms)
 Number     Number       Type             X           Y           Z
 ---------------------------------------------------------------------
      1          6           0       -2.515498   -0.405522   -0.055330
      2          1           0       -1.644398   -1.022618   -0.011252
      3          6           0       -3.475323    0.307523   -0.104628
      4          1           0       -4.331578    0.932945   -0.148270
      5          1           0       -0.113514    0.036778   -1.766020
      6          1           0        1.577345   -0.376194   -2.080390
      7          1           0        1.027593    2.120694   -1.287492
      8          1           0        1.785387   -0.061468    1.878506
      9          1           0        2.372591    1.282390   -0.516085
     10          1           0        0.044582   -0.281725    2.086590
     11          1           0        0.948569    2.133565    1.316643
     12          1           0       -0.484927    1.464810    0.541942
     13         16           0        0.831923   -1.293512    0.027537
     14          6           0        0.876295   -0.043826   -1.319637
     15          6           0        1.291190    1.268839   -0.660273
     16          6           0        0.584193    1.316825    0.693382
     17          6           0        0.823739   -0.032672    1.370692
 ---------------------------------------------------------------------

 SCF Done:  E(RHF) =  -630.604883657     A.U. after    2 cycles

 The electronic state is 1-A.
 Alpha  occ. eigenvalues --  -93.52143 -11.26528 -11.26492 -11.24581 -11.24291
 Alpha  occ. eigenvalues --  -11.24136 -11.24050  -8.81925  -6.16061  -6.15901
 Alpha  occ. eigenvalues --   -6.15639  -1.11817  -1.02178  -0.98367  -0.96091
 Alpha  occ. eigenvalues --   -0.79720  -0.78300  -0.75853  -0.67995  -0.65795
 Alpha  occ. eigenvalues --   -0.64210  -0.60558  -0.55201  -0.51059  -0.49692
 Alpha  occ. eigenvalues --   -0.48579  -0.47984  -0.42416  -0.40919  -0.40837
 Alpha  occ. eigenvalues --   -0.33792
 Alpha virt. eigenvalues --    0.03179   0.03947   0.04502   0.05092   0.05649
 Alpha virt. eigenvalues --    0.06637   0.06897   0.07196   0.08173   0.08838
 Alpha virt. eigenvalues --    0.10333   0.11428   0.12597   0.13352   0.14189

 Mulliken charges:
               1
     1  C    0.596701
     2  H   -0.345155
     3  C    0.109772
     4  H   -0.327867
     5  H   -0.170167
     6  H   -0.083942
     7  H   -0.079558
     8  H   -0.140066
     9  H   -0.160318
    10  H   -0.136717
    11  H   -0.064154
    12  H   -0.223596
    13  S    0.313840
    14  C    0.118023
    15  C    0.228635
    16  C    0.196586
    17  C    0.167980
 Sum of Mulliken charges =  -0.00000

 Dipole moment (field-independent basis, Debye):
    X=              0.4315    Y=              2.3002    Z=             -0.0015  Tot=              2.3404

 Test job not archived.
 1\1\GINC-SE226\SP\RHF\Aug-CC-pVDZ\C6H10S1\OHZDE\09-Apr-2025\0\\#t hf a
 ug-cc-pvdz iop(5/13=1,5/36=2,99/5=2) pseudo=read geom=check guess=(rea
 d,tcheck) scf=(maxcycle=1)\\title\\0,1\C,0,2.59090187,-0.04968862,0.43
 961338\H,0,1.93323189,0.27193926,-0.33858357\C,0,3.30609004,-0.4175117
 1,1.32580727\H,0,3.94715573,-0.74121457,2.10714096\H,0,0.28752034,-1.6
 77676,-0.52770315\H,0,-1.1871398,-1.724509,-1.50318415\H,0,-1.43499141
 ,-1.98405315,1.14946921\H,0,-1.75019318,1.8118317,0.22668582\H,0,-2.53
 202859,-0.88359649,0.31739442\H,0,-0.03834066,2.0024711,0.62093584\H,0

 Normal termination of Gaussian 16 at Wed Apr  9 17:18:50 2025.
