 Gaussian 16, Revision C.01,

 ----------------------------------------------------------------------
 #t hf aug-cc-pvdz symm=none int=(grid=ultrafine) guess=(read,tcheck) s
 table=(opt,rrhf)
 ----------------------------------------------------------------------
 -----
 title
 -----
 Symbolic Z-matrix:
 Charge =  0 Multiplicity = 1

 SCF Done:  E(RHF) =  -1102.15738041     A.U. after   13 cycles
 Normal termination of Gaussian 16 at Wed Apr  9 17:37:49 2025.
 Gaussian 16:  ES64L-G16RevC.01  3-Jul-2019

 ----------------------------------------------------------------------
 #t hf aug-cc-pvdz iop(5/13=1,5/36=2,99/5=2) pseudo=read geom=check gue
 ss=(read,tcheck) scf=(maxcycle=1)
 ----------------------------------------------------------------------
 -----
 title
 -----
 Structure from the checkpoint file:  "HB300SPXx10_1116_4.15_1.05_aceticacid_dimethyldisulfide_dimer_mol1.chk"
 Charge =  0 Multiplicity = 1

                         Standard orientation:
 ---------------------------------------------------------------------
 Center     Atomic      Atomic             Coordinates (Angstroms)
 Number     Number       Type             X           Y           Z
 ---------------------------------------------------------------------
      1          6           0        2.919111   -0.068605   -0.035318
      2          8           0        2.557672    1.074151   -0.180670
      3          8           0        2.075809   -1.112906   -0.039358
      4          1           0        1.165508   -0.779609   -0.189971
      5          6           0        4.344149   -0.501427    0.169467
      6          1           0        4.992990    0.367042    0.187535
      7          1           0        4.431837   -1.055430    1.102996
      8          1           0        4.642289   -1.173446   -0.634286
      9          1           0       -4.730161   -0.727296    0.261360
     10          1           0       -4.017818   -0.116426   -1.247351
     11          1           0       -4.035765    0.903700    0.216820
     12          1           0       -0.503344    1.316810    1.560334
     13          1           0       -1.554989    2.355184    0.557369
     14          1           0        0.187494    2.202236    0.188349
     15          6           0       -3.940873   -0.109145   -0.164185
     16         16           0       -2.370964   -0.861954    0.366535
     17         16           0       -0.966413    0.296674   -0.580152
     18          6           0       -0.697030    1.689468    0.559192
 ---------------------------------------------------------------------

 SCF Done:  E(RHF) =  -1102.30263045     A.U. after    2 cycles

 The electronic state is 1-A.
 Alpha  occ. eigenvalues --  -93.56177 -93.55825 -20.61085 -20.55678 -11.39504
 Alpha  occ. eigenvalues --  -11.27348 -11.26609 -11.24890  -8.85797  -8.85467
 Alpha  occ. eigenvalues --   -6.19949  -6.19673  -6.19583  -6.19428  -6.19324
 Alpha  occ. eigenvalues --   -6.19002  -1.41583  -1.31784  -1.07645  -1.01674
 Alpha  occ. eigenvalues --   -1.00510  -0.90280  -0.82828  -0.78150  -0.71214
 Alpha  occ. eigenvalues --   -0.68620  -0.65448  -0.61596  -0.60550  -0.60061
 Alpha  occ. eigenvalues --   -0.58918  -0.58244  -0.57126  -0.56030  -0.53371
 Alpha  occ. eigenvalues --   -0.49372  -0.49149  -0.46594  -0.44213  -0.36635
 Alpha  occ. eigenvalues --   -0.35517
 Alpha virt. eigenvalues --    0.03475   0.03965   0.04894   0.05333   0.05998
 Alpha virt. eigenvalues --    0.06157   0.06425   0.07320   0.08061   0.08469
 Alpha virt. eigenvalues --    0.10027   0.10861   0.11724   0.12082   0.13747

 Mulliken charges:
               1
     1  C    0.275693
     2  O   -0.462350
     3  O   -0.436368
     4  H    0.228156
     5  C    0.397086
     6  H   -0.029669
     7  H    0.030169
     8  H    0.037957
     9  H   -0.077090
    10  H   -0.036008
    11  H   -0.073402
    12  H   -0.058338
    13  H   -0.115367
    14  H   -0.057952
    15  C    0.068268
    16  S    0.143387
    17  S   -0.038402
    18  C    0.204229
 Sum of Mulliken charges =  -0.00000

 Dipole moment (field-independent basis, Debye):
    X=             -1.0758    Y=              0.1836    Z=              0.7583  Tot=              1.3290

 Test job not archived.
 1\1\GINC-SE362\SP\RHF\Aug-CC-pVDZ\C4H10O2S2\OHZDE\09-Apr-2025\0\\#t hf
  aug-cc-pvdz iop(5/13=1,5/36=2,99/5=2) pseudo=read geom=check guess=(r
 ead,tcheck) scf=(maxcycle=1)\\title\\0,1\C,0,2.51189353,-1.3688008,0.0
 1480743\O,0,1.76216303,-1.97148126,0.7444221\O,0,2.20838592,-0.1819016
 3,-0.53372859\H,0,1.31541707,0.08523139,-0.22768185\C,0,3.88111819,-1.
 83853704,-0.39087365\H,0,4.08390343,-2.80677129,0.05292751\H,0,3.94369
 33,-1.90220497,-1.47628393\H,0,4.62800978,-1.11523999,-0.06604891\H,0,
 -3.96896483,2.71624093,-0.57183735\H,0,-3.20720274,2.61286208,1.029985

 Normal termination of Gaussian 16 at Wed Apr  9 17:37:55 2025.
