 Gaussian 16, Revision C.01,

 ----------------------------------------------------------------------
 #t hf aug-cc-pvdz symm=none int=(grid=ultrafine) guess=(read,tcheck) s
 table=(opt,rrhf)
 ----------------------------------------------------------------------
 -----
 title
 -----
 Symbolic Z-matrix:
 Charge =  0 Multiplicity = 1

 SCF Done:  E(RHF) =  -1102.15502679     A.U. after   13 cycles
 Normal termination of Gaussian 16 at Wed Apr  9 17:37:13 2025.
 Gaussian 16:  ES64L-G16RevC.01  3-Jul-2019

 ----------------------------------------------------------------------
 #t hf aug-cc-pvdz iop(5/13=1,5/36=2,99/5=2) pseudo=read geom=check gue
 ss=(read,tcheck) scf=(maxcycle=1)
 ----------------------------------------------------------------------
 -----
 title
 -----
 Structure from the checkpoint file:  "HB300SPXx10_1114_4.15_0.95_aceticacid_dimethyldisulfide_dimer_mol1.chk"
 Charge =  0 Multiplicity = 1

                         Standard orientation:
 ---------------------------------------------------------------------
 Center     Atomic      Atomic             Coordinates (Angstroms)
 Number     Number       Type             X           Y           Z
 ---------------------------------------------------------------------
      1          6           0        2.794760   -0.069627   -0.040017
      2          8           0        2.460250    1.080473   -0.191775
      3          8           0        1.928041   -1.094568   -0.045729
      4          1           0        1.026503   -0.741303   -0.203372
      5          6           0        4.208293   -0.533846    0.175457
      6          1           0        4.876530    0.319766    0.194579
      7          1           0        4.277484   -1.086212    1.111506
      8          1           0        4.496206   -1.215435   -0.623955
      9          1           0       -4.668780   -0.660732    0.248757
     10          1           0       -3.933229   -0.071775   -1.257529
     11          1           0       -3.937317    0.953942    0.202835
     12          1           0       -0.405019    1.291943    1.567501
     13          1           0       -1.426478    2.350126    0.554097
     14          1           0        0.314392    2.156379    0.196816
     15          6           0       -3.863001   -0.062205   -0.173925
     16         16           0       -2.313956   -0.848394    0.369550
     17         16           0       -0.877530    0.274592   -0.572247
     18          6           0       -0.583861    1.665161    0.563809
 ---------------------------------------------------------------------

 SCF Done:  E(RHF) =  -1102.30017188     A.U. after    2 cycles

 The electronic state is 1-A.
 Alpha  occ. eigenvalues --  -93.56324 -93.55955 -20.60422 -20.55506 -11.39324
 Alpha  occ. eigenvalues --  -11.27469 -11.26524 -11.24725  -8.85983  -8.85599
 Alpha  occ. eigenvalues --   -6.20138  -6.19863  -6.19719  -6.19637  -6.19457
 Alpha  occ. eigenvalues --   -6.19134  -1.41294  -1.31558  -1.07828  -1.01558
 Alpha  occ. eigenvalues --   -1.00561  -0.90397  -0.82676  -0.78296  -0.71152
 Alpha  occ. eigenvalues --   -0.68462  -0.65195  -0.61725  -0.60656  -0.60096
 Alpha  occ. eigenvalues --   -0.58949  -0.57957  -0.56971  -0.55784  -0.53470
 Alpha  occ. eigenvalues --   -0.49425  -0.49028  -0.46451  -0.44358  -0.36912
 Alpha  occ. eigenvalues --   -0.35666
 Alpha virt. eigenvalues --    0.03451   0.04002   0.04889   0.05319   0.06022
 Alpha virt. eigenvalues --    0.06189   0.06457   0.07333   0.08141   0.08493
 Alpha virt. eigenvalues --    0.10053   0.10967   0.11856   0.12089   0.13684

 Mulliken charges:
               1
     1  C    0.263919
     2  O   -0.470181
     3  O   -0.451886
     4  H    0.283289
     5  C    0.412647
     6  H   -0.033520
     7  H    0.029754
     8  H    0.039084
     9  H   -0.077298
    10  H   -0.036410
    11  H   -0.074936
    12  H   -0.065240
    13  H   -0.127914
    14  H   -0.055372
    15  C    0.068584
    16  S    0.164786
    17  S   -0.121377
    18  C    0.252071
 Sum of Mulliken charges =   0.00000

 Dipole moment (field-independent basis, Debye):
    X=             -1.2329    Y=              0.2525    Z=              0.7407  Tot=              1.4603

 Test job not archived.
 1\1\GINC-SE220\SP\RHF\Aug-CC-pVDZ\C4H10O2S2\OHZDE\09-Apr-2025\0\\#t hf
  aug-cc-pvdz iop(5/13=1,5/36=2,99/5=2) pseudo=read geom=check guess=(r
 ead,tcheck) scf=(maxcycle=1)\\title\\0,1\C,0,2.51189353,-1.3688008,0.0
 1480743\O,0,1.76216303,-1.97148126,0.7444221\O,0,2.20838592,-0.1819016
 3,-0.53372859\H,0,1.31541707,0.08523139,-0.22768185\C,0,3.88111819,-1.
 83853704,-0.39087365\H,0,4.08390343,-2.80677129,0.05292751\H,0,3.94369
 33,-1.90220497,-1.47628393\H,0,4.62800978,-1.11523999,-0.06604891\H,0,
 -3.7590837,2.67586602,-0.65805119\H,0,-2.99732161,2.57248716,0.9437711

 Normal termination of Gaussian 16 at Wed Apr  9 17:37:21 2025.
