 Gaussian 16, Revision C.01,

 ----------------------------------------------------------------------
 #t hf aug-cc-pvdz symm=none int=(grid=ultrafine) guess=(read,tcheck) s
 table=(opt,rrhf)
 ----------------------------------------------------------------------
 -----
 title
 -----
 Symbolic Z-matrix:
 Charge =  0 Multiplicity = 1

 SCF Done:  E(RHF) =  -874.302062466     A.U. after   13 cycles
 Normal termination of Gaussian 16 at Wed Apr  9 17:27:45 2025.
 Gaussian 16:  ES64L-G16RevC.01  3-Jul-2019

 ----------------------------------------------------------------------
 #t hf aug-cc-pvdz iop(5/13=1,5/36=2,99/5=2) pseudo=read geom=check gue
 ss=(read,tcheck) scf=(maxcycle=1)
 ----------------------------------------------------------------------
 -----
 title
 -----
 Structure from the checkpoint file:  "HB300SPXx10_1061_4.10_0.80_methylamine_dimethyldisulfide_dimer_mol3.chk"
 Charge =  0 Multiplicity = 1

                         Standard orientation:
 ---------------------------------------------------------------------
 Center     Atomic      Atomic             Coordinates (Angstroms)
 Number     Number       Type             X           Y           Z
 ---------------------------------------------------------------------
      1          1           0       -2.800005    0.869750    0.148035
      2          1           0       -2.025222    0.518080   -1.410301
      3          1           0       -1.332320    1.754246   -0.327549
      4          1           0        1.877401    0.611261    1.436656
      5          1           0        1.386644    1.782482    0.174162
      6          1           0        2.844144    0.789393   -0.042996
      7          6           0       -1.847577    0.799742   -0.375945
      8         16           0       -0.900819   -0.497306    0.483536
      9         16           0        0.908092   -0.502968   -0.480175
     10          6           0        1.836408    0.813453    0.370647
 ---------------------------------------------------------------------

 SCF Done:  E(RHF) =  -874.373162890     A.U. after    2 cycles

 The electronic state is 1-A.
 Alpha  occ. eigenvalues --  -93.55253 -93.55249 -11.26931 -11.26929  -8.84896
 Alpha  occ. eigenvalues --   -8.84878  -6.19065  -6.18961  -6.18752  -6.18723
 Alpha  occ. eigenvalues --   -6.18426  -6.18417  -1.07072  -1.00196  -0.90003
 Alpha  occ. eigenvalues --   -0.77594  -0.61417  -0.60204  -0.59952  -0.58474
 Alpha  occ. eigenvalues --   -0.53015  -0.48689  -0.43565  -0.35740  -0.34700
 Alpha virt. eigenvalues --    0.03511   0.04430   0.05641   0.05816   0.06722
 Alpha virt. eigenvalues --    0.07908   0.08851   0.09783   0.12450   0.13925
 Alpha virt. eigenvalues --    0.14318   0.14676   0.15598   0.15767   0.16598

 Mulliken charges:
               1
     1  H   -0.067458
     2  H   -0.028762
     3  H   -0.089280
     4  H   -0.030609
     5  H   -0.075491
     6  H   -0.073355
     7  C    0.093029
     8  S    0.088869
     9  S    0.085199
    10  C    0.097858
 Sum of Mulliken charges =   0.00000

 Dipole moment (field-independent basis, Debye):
    X=             -0.0076    Y=              2.2978    Z=             -0.0086  Tot=              2.2978

 Test job not archived.
 1\1\GINC-SE113\SP\RHF\Aug-CC-pVDZ\C2H6S2\OHZDE\09-Apr-2025\0\\#t hf au
 g-cc-pvdz iop(5/13=1,5/36=2,99/5=2) pseudo=read geom=check guess=(read
 ,tcheck) scf=(maxcycle=1)\\title\\0,1\H,0,-1.96162847,-2.59154916,0.17
 042091\H,0,-2.4908102,-0.89902716,0.25821713\H,0,-1.15802705,-1.472678
 53,1.2951285\H,0,2.29605323,-0.25115967,0.15566981\H,0,1.16059015,0.01
 776267,1.51393899\H,0,1.99822138,1.39219704,0.76095019\C,0,-1.6339163,
 -1.56405105,0.32348484\S,0,-0.4522968,-1.21348985,-1.01751225\S,0,0.20
 081792,0.68613645,-0.61034048\C,0,1.55156924,0.41469975,0.58147549\\Ve

 Normal termination of Gaussian 16 at Wed Apr  9 17:27:48 2025.
