 Gaussian 16, Revision C.01,

 ----------------------------------------------------------------------
 #t hf aug-cc-pvdz symm=none int=(grid=ultrafine) guess=(read,tcheck) s
 table=(opt,rrhf)
 ----------------------------------------------------------------------
 -----
 title
 -----
 Symbolic Z-matrix:
 Charge =  0 Multiplicity = 1

 SCF Done:  E(RHF) =  -858.792381685     A.U. after   10 cycles

 1\1\GINC-SE109\Stability\RHF\Aug-CC-pVDZ\Cl1H3S1\OHZDE\09-Apr-2025\0\\
 #t hf aug-cc-pvdz symm=none int=(grid=ultrafine) guess=(read,tcheck) s
 table=(opt,rrhf)\\title\\0,1\H,0,-0.07574771,0.51696812,0.\Cl,0,0.0020
 5903,1.81286821,0.\H,0,0.88100444,-3.12803411,0.97032462\H,0,0.8810044
 4,-3.12803411,-0.97032462\S,0,-0.04424267,-3.07451868,0.\\Version=ES64
 L-G16RevC.01\HF=-858.7923817\RMSD=6.733e-09\Dipole=0.4184107,-0.633920
 2,0.\Quadrupole=0.3707287,-1.6747657,1.304037,-2.7504641,0.,0.\PG=Unkn
 own\\@

 Normal termination of Gaussian 16 at Wed Apr  9 04:10:24 2025.
 Gaussian 16:  ES64L-G16RevC.01  3-Jul-2019

 ----------------------------------------------------------------------
 #t hf aug-cc-pvdz iop(5/13=1,5/36=2,99/5=2) pseudo=read geom=check gue
 ss=(read,tcheck) scf=(maxcycle=1)
 ----------------------------------------------------------------------
 -----
 title
 -----
 Structure from the checkpoint file:  "HB300SPXx10_1359_4.40_1.50_hydrogenchloride_sulfane_dimer_mol1.chk"
 Charge =  0 Multiplicity = 1

                         Standard orientation:
 ---------------------------------------------------------------------
 Center     Atomic      Atomic             Coordinates (Angstroms)
 Number     Number       Type             X           Y           Z
 ---------------------------------------------------------------------
      1          1           0       -0.115135    1.185726   -0.000000
      2         17           0       -0.049608    2.482305   -0.000000
      3          1           0        0.876104   -2.450049    0.970325
      4          1           0        0.876104   -2.450049   -0.970325
      5         16           0       -0.049608   -2.405301    0.000000
 ---------------------------------------------------------------------

 SCF Done:  E(RHF) =  -858.833351067     A.U. after    2 cycles

 The electronic state is 1-A'.
 Alpha  occ. eigenvalues -- -103.67257 -93.56083 -10.70460  -8.85841  -8.36216
 Alpha  occ. eigenvalues --   -8.35898  -8.35898  -6.20013  -6.19803  -6.19439
 Alpha  occ. eigenvalues --   -1.15315  -0.97999  -0.62823  -0.59991  -0.50818
 Alpha  occ. eigenvalues --   -0.48394  -0.48392  -0.39494
 Alpha virt. eigenvalues --    0.02922   0.05886   0.06062   0.10386   0.10937
 Alpha virt. eigenvalues --    0.12871   0.14754   0.14833   0.15225   0.15738
 Alpha virt. eigenvalues --    0.18524   0.19985   0.25019   0.26239   0.28188

 Mulliken charges:
               1
     1  H    0.124949
     2  Cl  -0.128013
     3  H    0.033350
     4  H    0.033350
     5  S   -0.063635
 Sum of Mulliken charges =  -0.00000

 Dipole moment (field-independent basis, Debye):
    X=              1.0158    Y=             -1.6016    Z=              0.0000  Tot=              1.8966

 Test job not archived.
 1\1\GINC-SE109\SP\RHF\Aug-CC-pVDZ\Cl1H3S1\OHZDE\09-Apr-2025\0\\#t hf a
 ug-cc-pvdz iop(5/13=1,5/36=2,99/5=2) pseudo=read geom=check guess=(rea
 d,tcheck) scf=(maxcycle=1)\\title\\0,1\H,0,-0.07574771,0.51696812,0.\C
 l,0,0.00205903,1.81286821,0.\H,0,0.88100444,-3.12803411,0.97032462\H,0
 ,0.88100444,-3.12803411,-0.97032462\S,0,-0.04424267,-3.07451868,0.\\Ve
 rsion=ES64L-G16RevC.01\State=1-A'\HF=-858.8333511\RMSD=6.575e-03\Dipol
 e=0.3936441,-0.6338769,0.\Quadrupole=0.8663866,-2.7150801,1.8486935,-2
 .0705483,0.,0.\PG=CS [SG(Cl1H1S1),X(H2)]\\@

 Normal termination of Gaussian 16 at Wed Apr  9 04:10:27 2025.
