 Gaussian 16, Revision C.01,

 ----------------------------------------------------------------------
 #t hf aug-cc-pvdz symm=none int=(grid=ultrafine) guess=(read,tcheck) s
 table=(opt,rrhf)
 ----------------------------------------------------------------------
 -----
 title
 -----
 Symbolic Z-matrix:
 Charge =  0 Multiplicity = 1

 SCF Done:  E(RHF) =  -398.672248317     A.U. after   11 cycles
 Normal termination of Gaussian 16 at Wed Apr  9 18:02:38 2025.
 Gaussian 16:  ES64L-G16RevC.01  3-Jul-2019

 ----------------------------------------------------------------------
 #t hf aug-cc-pvdz iop(5/13=1,5/36=2,99/5=2) pseudo=read geom=check gue
 ss=(read,tcheck) scf=(maxcycle=1)
 ----------------------------------------------------------------------
 -----
 title
 -----
 Structure from the checkpoint file:  "HB300SPXx10_1_1.01_0.80_phosphine_ammonia_dimer_mol1.chk"
 Charge =  0 Multiplicity = 1

                         Standard orientation:
 ---------------------------------------------------------------------
 Center     Atomic      Atomic             Coordinates (Angstroms)
 Number     Number       Type             X           Y           Z
 ---------------------------------------------------------------------
      1         15           0        1.339150    0.000073   -0.118965
      2          1           0       -0.070716    0.001495    0.027919
      3          1           0        1.538471   -1.032418    0.832338
      4          1           0        1.540346    1.032659    0.831820
      5          7           0       -2.197894    0.000775    0.004590
      6          1           0       -2.597656   -0.522580   -0.764042
      7          1           0       -2.530803   -0.422115    0.861791
      8          1           0       -2.581630    0.936436   -0.037482
 ---------------------------------------------------------------------

 SCF Done:  E(RHF) =  -398.713955699     A.U. after    2 cycles

 The electronic state is 1-A.
 Alpha  occ. eigenvalues --  -81.22950 -15.61704  -7.73486  -4.87424  -4.87406
 Alpha  occ. eigenvalues --   -4.87137  -1.12128  -0.78109  -0.63901  -0.63897
 Alpha  occ. eigenvalues --   -0.51172  -0.49469  -0.41693  -0.34603
 Alpha virt. eigenvalues --    0.03055   0.05098   0.05235   0.05497   0.08458
 Alpha virt. eigenvalues --    0.09147   0.11106   0.11515   0.13959   0.17270
 Alpha virt. eigenvalues --    0.18244   0.18893   0.19618   0.22488   0.24345

 Mulliken charges:
               1
     1  P   -0.233273
     2  H    0.150175
     3  H    0.077769
     4  H    0.075005
     5  N   -0.156333
     6  H    0.034550
     7  H    0.021415
     8  H    0.030693
 Sum of Mulliken charges =   0.00000

 Dipole moment (field-independent basis, Debye):
    X=             -2.7949    Y=             -0.0118    Z=              0.5599  Tot=              2.8505

 Test job not archived.
 1\1\GINC-SE113\SP\RHF\Aug-CC-pVDZ\H6N1P1\OHZDE\09-Apr-2025\0\\#t hf au
 g-cc-pvdz iop(5/13=1,5/36=2,99/5=2) pseudo=read geom=check guess=(read
 ,tcheck) scf=(maxcycle=1)\\title\\0,1\P,0,1.20126953,-0.204174,-0.6935
 9914\H,0,0.00711135,-0.04100571,0.05249812\H,0,1.148472,-1.62079109,-0
 .65962828\H,0,2.04295792,-0.12244727,0.44463924\N,0,-1.85248427,0.3655
 1797,1.00227424\H,0,-2.60491212,0.56904157,0.35656891\H,0,-2.12729056,
 -0.44842203,1.53747494\H,0,-1.79205306,1.14293671,1.64760695\\Version=
 ES64L-G16RevC.01\State=1-A\HF=-398.7139557\RMSD=1.022e-02\Dipole=-0.90

 Normal termination of Gaussian 16 at Wed Apr  9 18:02:39 2025.
