 Gaussian 16, Revision C.01,

 ----------------------------------------------------------------------
 #t hf aug-cc-pvdz symm=none int=(grid=ultrafine) guess=(read,tcheck) s
 table=(opt,rrhf)
 ----------------------------------------------------------------------
 -----
 title
 -----
 Symbolic Z-matrix:
 Charge =  0 Multiplicity = 1

 SCF Done:  E(RHF) =  -437.699607450     A.U. after   11 cycles
 Normal termination of Gaussian 16 at Wed Apr  9 17:55:11 2025.
 Gaussian 16:  ES64L-G16RevC.01  3-Jul-2019

 ----------------------------------------------------------------------
 #t hf aug-cc-pvdz iop(5/13=1,5/36=2,99/5=2) pseudo=read geom=check gue
 ss=(read,tcheck) scf=(maxcycle=1)
 ----------------------------------------------------------------------
 -----
 title
 -----
 Structure from the checkpoint file:  "HB300SPXx10_13_1.02_0.90_phosphine_methylamine_dimer_mol1.chk"
 Charge =  0 Multiplicity = 1

                         Standard orientation:
 ---------------------------------------------------------------------
 Center     Atomic      Atomic             Coordinates (Angstroms)
 Number     Number       Type             X           Y           Z
 ---------------------------------------------------------------------
      1         15           0        1.769390    0.033109   -0.109900
      2          1           0        0.640136   -0.785632    0.136655
      3          1           0        2.699585   -0.903198    0.407203
      4          1           0        1.653581    0.730649    1.118892
      5          7           0       -1.745739   -0.731758    0.033643
      6          1           0       -2.322548   -1.032749    0.807426
      7          1           0       -2.162571   -1.104237   -0.808779
      8          6           0       -1.664045    0.727489   -0.023447
      9          1           0       -1.023972    1.018878   -0.855422
     10          1           0       -2.624968    1.240850   -0.140775
     11          1           0       -1.195647    1.096177    0.888473
 ---------------------------------------------------------------------

 SCF Done:  E(RHF) =  -437.753168176     A.U. after    2 cycles

 The electronic state is 1-A.
 Alpha  occ. eigenvalues --  -81.24041 -15.60999 -11.25756  -7.74528  -4.88489
 Alpha  occ. eigenvalues --   -4.88444  -4.88160  -1.14500  -0.89780  -0.78932
 Alpha  occ. eigenvalues --   -0.66934  -0.61211  -0.56602  -0.52496  -0.50234
 Alpha  occ. eigenvalues --   -0.49663  -0.39129  -0.35490
 Alpha virt. eigenvalues --    0.03333   0.04667   0.04860   0.05141   0.07225
 Alpha virt. eigenvalues --    0.08473   0.08913   0.10178   0.11074   0.11375
 Alpha virt. eigenvalues --    0.12582   0.14869   0.17025   0.17075   0.18105

 Mulliken charges:
               1
     1  P   -0.290473
     2  H    0.163065
     3  H    0.062441
     4  H    0.074702
     5  N   -0.419691
     6  H    0.028975
     7  H    0.028717
     8  C    0.875203
     9  H   -0.162186
    10  H   -0.168580
    11  H   -0.192173
 Sum of Mulliken charges =  -0.00000

 Dipole moment (field-independent basis, Debye):
    X=             -1.9461    Y=             -0.0646    Z=              0.3579  Tot=              1.9798

 Test job not archived.
 1\1\GINC-SE131\SP\RHF\Aug-CC-pVDZ\C1H8N1P1\OHZDE\09-Apr-2025\0\\#t hf
 aug-cc-pvdz iop(5/13=1,5/36=2,99/5=2) pseudo=read geom=check guess=(re
 ad,tcheck) scf=(maxcycle=1)\\title\\0,1\P,0,1.60554835,-0.39061782,-0.
 727406\H,0,0.88263451,-0.28817357,0.48636549\H,0,2.87161411,-0.472756,
 -0.09521777\H,0,1.68852005,1.01288402,-0.9096172\N,0,-1.33338929,0.081
 63038,1.29778064\H,0,-1.53388773,0.76241913,2.01776112\H,0,-1.87073988
 ,-0.74661024,1.51558177\C,0,-1.68166591,0.59897696,-0.02524248\H,0,-1.
 43906792,-0.14957798,-0.77863129\H,0,-2.73413482,0.87649739,-0.1516145

 Normal termination of Gaussian 16 at Wed Apr  9 17:55:14 2025.
