 Gaussian 16, Revision C.01,

 ----------------------------------------------------------------------
 #t hf aug-cc-pvdz symm=none int=(grid=ultrafine) guess=(read,tcheck) s
 table=(opt,rrhf)
 ----------------------------------------------------------------------
 -----
 title
 -----
 Symbolic Z-matrix:
 Charge =  0 Multiplicity = 1

 SCF Done:  E(RHF) =  -1037.70215304     A.U. after   14 cycles
 Normal termination of Gaussian 16 at Wed Apr  9 18:02:42 2025.
 Gaussian 16:  ES64L-G16RevC.01  3-Jul-2019

 ----------------------------------------------------------------------
 #t hf aug-cc-pvdz iop(5/13=1,5/36=2,99/5=2) pseudo=read geom=check gue
 ss=(read,tcheck) scf=(maxcycle=1)
 ----------------------------------------------------------------------
 -----
 title
 -----
 Structure from the checkpoint file:  "HB300SPXx10_1478_5.10_1.25_phosphaalkene_phosphineF2_dimer_mol1.chk"
 Charge =  0 Multiplicity = 1

                         Standard orientation:
 ---------------------------------------------------------------------
 Center     Atomic      Atomic             Coordinates (Angstroms)
 Number     Number       Type             X           Y           Z
 ---------------------------------------------------------------------
      1          1           0       -2.192983   -2.869705   -0.575710
      2          1           0       -1.118517   -2.215770    0.661866
      3          1           0       -2.868086   -1.953130    0.770675
      4          1           0       -1.508100    2.167604   -1.515734
      5          1           0       -0.625558    1.139520    1.984796
      6          1           0       -2.251379    2.797617   -0.040948
      7          1           0       -0.509062    2.585232   -0.116248
      8          1           0       -1.598674   -0.332194    2.005115
      9          1           0       -2.371074    1.255829    2.056963
     10         15           0       -1.859689   -0.498173   -0.959758
     11          6           0       -1.608624    0.759993    0.127397
     12          6           0       -1.460839    2.149694   -0.428390
     13          6           0       -1.548711    0.681286    1.621542
     14          6           0       -2.022951   -2.023247    0.087164
     15         15           0        2.116295    0.250722   -0.217867
     16          9           0        3.703063    0.022660   -0.265750
     17          9           0        1.765179   -0.881144    0.860630
     18          1           0        1.826902   -0.543237   -1.366595
 ---------------------------------------------------------------------

 SCF Done:  E(RHF) =  -1037.88234750     A.U. after    2 cycles

 The electronic state is 1-A.
 Alpha  occ. eigenvalues --  -81.39842 -81.23854 -26.14214 -26.13959 -11.27506
 Alpha  occ. eigenvalues --  -11.24354 -11.24088 -11.23276  -7.88585  -7.74416
 Alpha  occ. eigenvalues --   -5.02724  -5.02449  -5.01964  -4.88475  -4.88106
 Alpha  occ. eigenvalues --   -4.88028  -1.67746  -1.66239  -1.07240  -0.96202
 Alpha  occ. eigenvalues --   -0.94796  -0.90248  -0.82482  -0.79725  -0.78096
 Alpha  occ. eigenvalues --   -0.77301  -0.74058  -0.71355  -0.67108  -0.62177
 Alpha  occ. eigenvalues --   -0.60620  -0.60480  -0.59224  -0.57056  -0.55127
 Alpha  occ. eigenvalues --   -0.55080  -0.51808  -0.47016  -0.40974  -0.35765
 Alpha  occ. eigenvalues --   -0.32020
 Alpha virt. eigenvalues --    0.03383   0.04219   0.04452   0.04964   0.06202
 Alpha virt. eigenvalues --    0.06587   0.06830   0.07037   0.07673   0.07931
 Alpha virt. eigenvalues --    0.09222   0.09445   0.10161   0.10937   0.11693

 Mulliken charges:
               1
     1  H   -0.335645
     2  H   -0.170209
     3  H   -0.149433
     4  H   -0.174465
     5  H   -0.017099
     6  H    0.030937
     7  H   -0.001898
     8  H   -0.185268
     9  H    0.019519
    10  P    0.239571
    11  C   -0.583906
    12  C    0.569606
    13  C    0.536654
    14  C    0.245764
    15  P    1.268810
    16  F   -0.639568
    17  F   -0.648952
    18  H   -0.004418
 Sum of Mulliken charges =  -0.00000

 Dipole moment (field-independent basis, Debye):
    X=             -1.4903    Y=              0.8894    Z=              0.2926  Tot=              1.7600

 Test job not archived.
 1\1\GINC-SE029\SP\RHF\Aug-CC-pVDZ\C4H10F2P2\OHZDE\09-Apr-2025\0\\#t hf
  aug-cc-pvdz iop(5/13=1,5/36=2,99/5=2) pseudo=read geom=check guess=(r
 ead,tcheck) scf=(maxcycle=1)\\title\\0,1\H,0,-0.66372889,3.26375392,-1
 .41484082\H,0,0.57607353,2.07688321,-1.82463407\H,0,-0.55842324,2.6448
 712,-3.06242126\H,0,-2.87100416,-1.40911587,-1.55416728\H,0,0.42715494
 ,-1.23076192,-3.33739031\H,0,-2.60862974,-1.75549695,-3.26751243\H,0,-
 1.47646146,-2.36750684,-2.07165071\H,0,0.4157342,0.51539066,-3.5906339
 2\H,0,-0.67072928,-0.53226666,-4.50884988\P,0,-1.6570918,1.05342876,-1

 Normal termination of Gaussian 16 at Wed Apr  9 18:02:50 2025.
