 Gaussian 16, Revision C.01,

 ----------------------------------------------------------------------
 #t hf aug-cc-pvdz symm=none int=(grid=ultrafine) guess=(read,tcheck) s
 table=(opt,rrhf)
 ----------------------------------------------------------------------
 -----
 title
 -----
 Symbolic Z-matrix:
 Charge =  0 Multiplicity = 1

 SCF Done:  E(RHF) =  -742.474910658     A.U. after   14 cycles
 Normal termination of Gaussian 16 at Wed Apr  9 17:40:58 2025.
 Gaussian 16:  ES64L-G16RevC.01  3-Jul-2019

 ----------------------------------------------------------------------
 #t hf aug-cc-pvdz iop(5/13=1,5/36=2,99/5=2) pseudo=read geom=check gue
 ss=(read,tcheck) scf=(maxcycle=1)
 ----------------------------------------------------------------------
 -----
 title
 -----
 Structure from the checkpoint file:  "HB300SPXx10_1132_4.17_0.85_aceticacid_thioacetone_dimer_mol1.chk"
 Charge =  0 Multiplicity = 1

                         Standard orientation:
 ---------------------------------------------------------------------
 Center     Atomic      Atomic             Coordinates (Angstroms)
 Number     Number       Type             X           Y           Z
 ---------------------------------------------------------------------
      1          6           0       -1.911990    1.249840    0.000000
      2          8           0       -2.055854    0.050214    0.000000
      3          8           0       -0.716048    1.851084    0.000000
      4          1           0        0.000000    1.175797    0.000000
      5          6           0       -3.038874    2.246174    0.000000
      6          1           0       -3.990169    1.725887    0.000000
      7          1           0       -2.963101    2.887685    0.876954
      8          1           0       -2.963101    2.887685   -0.876954
      9          1           0        3.615803   -1.790986    0.000000
     10          1           0        2.612114   -2.969843    0.874412
     11          1           0        2.612114   -2.969843   -0.874412
     12          1           0       -0.660422   -1.309817    0.000000
     13          1           0        0.069287   -2.677180   -0.872921
     14          6           0        2.667121   -2.316667    0.000000
     15          6           0        1.501370   -1.376412    0.000000
     16         16           0        1.720904    0.239644    0.000000
     17          6           0        0.155529   -2.024083    0.000000
     18          1           0        0.069287   -2.677180    0.872921
 ---------------------------------------------------------------------

 SCF Done:  E(RHF) =  -742.605936114     A.U. after    2 cycles

 The electronic state is 1-A'.
 Alpha  occ. eigenvalues --  -93.51786 -20.58848 -20.54907 -11.38763 -11.34521
 Alpha  occ. eigenvalues --  -11.25889 -11.24207 -11.23863  -8.81943  -6.16127
 Alpha  occ. eigenvalues --   -6.15725  -6.15617  -1.40471  -1.30887  -1.11986
 Alpha  occ. eigenvalues --   -1.01005  -0.96788  -0.95245  -0.82315  -0.72552
 Alpha  occ. eigenvalues --   -0.71380  -0.67792  -0.64464  -0.62117  -0.62115
 Alpha  occ. eigenvalues --   -0.61049  -0.57857  -0.56527  -0.56038  -0.55118
 Alpha  occ. eigenvalues --   -0.53367  -0.50499  -0.48488  -0.45221  -0.39458
 Alpha  occ. eigenvalues --   -0.35358
 Alpha virt. eigenvalues --    0.03145   0.04072   0.04226   0.05196   0.06243
 Alpha virt. eigenvalues --    0.06282   0.06462   0.06476   0.07879   0.07939
 Alpha virt. eigenvalues --    0.09074   0.09787   0.12462   0.13086   0.13255

 Mulliken charges:
               1
     1  C    0.249345
     2  O   -0.477792
     3  O   -0.484327
     4  H    0.257509
     5  C    0.428626
     6  H   -0.060492
     7  H    0.039621
     8  H    0.039621
     9  H   -0.080117
    10  H    0.047213
    11  H    0.047213
    12  H   -0.500094
    13  H    0.158776
    14  C    0.411406
    15  C   -0.906309
    16  S    0.036083
    17  C    0.634942
    18  H    0.158776
 Sum of Mulliken charges =  -0.00000

 Dipole moment (field-independent basis, Debye):
    X=              0.5387    Y=             -1.8686    Z=              0.0000  Tot=              1.9447

 Test job not archived.
 1\1\GINC-SE229\SP\RHF\Aug-CC-pVDZ\C5H10O2S1\OHZDE\09-Apr-2025\0\\#t hf
  aug-cc-pvdz iop(5/13=1,5/36=2,99/5=2) pseudo=read geom=check guess=(r
 ead,tcheck) scf=(maxcycle=1)\\title\\0,1\C,0,0.15920132,2.45664609,0.\
 O,0,1.21885316,1.87618237,0.\O,0,-1.02533188,1.83322707,0.\H,0,-0.8922
 641,0.85801947,0.\C,0,0.00380934,3.95277518,0.\H,0,0.98023034,4.424223
 4,0.\H,0,-0.56217465,4.2641268,-0.87695442\H,0,-0.56217465,4.2641268,0
 .87695442\H,0,-0.58089055,-3.80876538,0.\H,0,0.96179958,-3.67760855,-0
 .87441231\H,0,0.96179958,-3.67760855,0.87441231\H,0,1.51400083,-0.0499

 Normal termination of Gaussian 16 at Wed Apr  9 17:41:04 2025.
