 Gaussian 16, Revision C.01,

 ----------------------------------------------------------------------
 #t hf aug-cc-pvdz symm=none int=(grid=ultrafine) guess=(read,tcheck) s
 table=(opt,rrhf)
 ----------------------------------------------------------------------
 -----
 title
 -----
 Symbolic Z-matrix:
 Charge =  0 Multiplicity = 1

 SCF Done:  E(RHF) =  -875.455016467     A.U. after   12 cycles
 Normal termination of Gaussian 16 at Wed Apr  9 17:46:37 2025.
 Gaussian 16:  ES64L-G16RevC.01  3-Jul-2019

 ----------------------------------------------------------------------
 #t hf aug-cc-pvdz iop(5/13=1,5/36=2,99/5=2) pseudo=read geom=check gue
 ss=(read,tcheck) scf=(maxcycle=1)
 ----------------------------------------------------------------------
 -----
 title
 -----
 Structure from the checkpoint file:  "HB300SPXx10_1193_4.24_0.90_methanethiol_methanethiol_dimer_mol1.chk"
 Charge =  0 Multiplicity = 1

                         Standard orientation:
 ---------------------------------------------------------------------
 Center     Atomic      Atomic             Coordinates (Angstroms)
 Number     Number       Type             X           Y           Z
 ---------------------------------------------------------------------
      1          1           0       -0.917059    0.922338    1.360913
      2          1           0       -2.676599    0.917233    1.206940
      3          1           0       -1.705220    1.833322    0.049061
      4          1           0       -0.549083   -0.323057   -0.982590
      5          6           0       -1.741819    0.931273    0.652886
      6         16           0       -1.734397   -0.559915   -0.392907
      7          1           0        2.111218   -0.464430    1.754504
      8          1           0        2.120257   -1.705927    0.497303
      9          1           0        0.575254   -1.047978    1.045187
     10          1           0        1.183488    1.440132    0.146818
     11          6           0        1.617441   -0.809891    0.851393
     12         16           0        1.772148    0.416170   -0.488581
 ---------------------------------------------------------------------

 SCF Done:  E(RHF) =  -875.524685616     A.U. after    2 cycles

 The electronic state is 1-A.
 Alpha  occ. eigenvalues --  -93.54274 -93.52540 -11.27105 -11.26875  -8.84032
 Alpha  occ. eigenvalues --   -8.82341  -6.18195  -6.17974  -6.17698  -6.16502
 Alpha  occ. eigenvalues --   -6.16304  -6.15985  -1.03773  -1.02234  -0.86865
 Alpha  occ. eigenvalues --   -0.85895  -0.62445  -0.61150  -0.60172  -0.58477
 Alpha  occ. eigenvalues --   -0.53694  -0.52553  -0.46470  -0.45538  -0.36141
 Alpha  occ. eigenvalues --   -0.35065
 Alpha virt. eigenvalues --    0.03295   0.04427   0.05112   0.05298   0.07183
 Alpha virt. eigenvalues --    0.07400   0.07629   0.08976   0.10557   0.12663
 Alpha virt. eigenvalues --    0.13001   0.13321   0.14824   0.14855   0.15336

 Mulliken charges:
               1
     1  H   -0.153492
     2  H   -0.131735
     3  H   -0.107237
     4  H    0.154971
     5  C    0.143540
     6  S    0.121321
     7  H   -0.096710
     8  H   -0.094737
     9  H   -0.172902
    10  H    0.080480
    11  C    0.179803
    12  S    0.076699
 Sum of Mulliken charges =   0.00000

 Dipole moment (field-independent basis, Debye):
    X=              0.5162    Y=              0.8387    Z=              1.9362  Tot=              2.1723

 Test job not archived.
 1\1\GINC-SE045\SP\RHF\Aug-CC-pVDZ\C2H8S2\OHZDE\09-Apr-2025\0\\#t hf au
 g-cc-pvdz iop(5/13=1,5/36=2,99/5=2) pseudo=read geom=check guess=(read
 ,tcheck) scf=(maxcycle=1)\\title\\0,1\H,0,1.48841111,-0.83932977,-0.94
 699875\H,0,2.60301323,-1.84400864,-0.01533608\H,0,2.55978836,-0.100175
 65,0.26866848\H,0,0.07877426,-0.11956038,1.21477831\C,0,1.95766928,-0.
 9705586,0.02469451\S,0,0.71991769,-1.29709475,1.32035013\H,0,-1.476181
 68,-0.00003296,-2.27186654\H,0,-2.54608093,-0.06769531,-0.86734282\H,0
 ,-0.99842221,-0.91723392,-0.81127384\H,0,0.41016747,1.39377509,-1.0182

 Normal termination of Gaussian 16 at Wed Apr  9 17:46:43 2025.
