 Gaussian 16, Revision C.01,

 ----------------------------------------------------------------------
 #t hf aug-cc-pvdz symm=none int=(grid=ultrafine) guess=(read,tcheck) s
 table=(opt,rrhf)
 ----------------------------------------------------------------------
 -----
 title
 -----
 Symbolic Z-matrix:
 Charge =  0 Multiplicity = 1

 SCF Done:  E(RHF) =  -991.409487443     A.U. after   12 cycles

 1\1\GINC-SE340\Stability\RHF\Aug-CC-pVDZ\C5H12S2\OHZDE\09-Apr-2025\0\\
 #t hf aug-cc-pvdz symm=none int=(grid=ultrafine) guess=(read,tcheck) s
 table=(opt,rrhf)\\title\\0,1\H,0,2.75511322,-2.75302781,-0.03281769\H,
 0,2.23328443,-3.6609344,1.39160682\H,0,2.88304587,-2.02859561,1.588775
 53\H,0,0.87227038,-0.86572365,0.25189781\C,0,2.28978938,-2.67174858,0.
 94522466\S,0,0.57786237,-2.06107277,0.80693494\H,0,-0.6554573,-0.50941
 007,-1.66424575\H,0,-0.75037053,0.96111159,-2.64360084\H,0,-2.89296385
 ,0.29515687,-1.18298167\H,0,-0.60648518,2.66395538,0.94982236\H,0,-2.3

 Normal termination of Gaussian 16 at Wed Apr  9 17:48:11 2025.
 Gaussian 16:  ES64L-G16RevC.01  3-Jul-2019

 ----------------------------------------------------------------------
 #t hf aug-cc-pvdz iop(5/13=1,5/36=2,99/5=2) pseudo=read geom=check gue
 ss=(read,tcheck) scf=(maxcycle=1)
 ----------------------------------------------------------------------
 -----
 title
 -----
 Structure from the checkpoint file:  "HB300SPXx10_1204_4.25_0.95_methanethiol_tetrahydrothiophene_dimer_mol1.chk"
 Charge =  0 Multiplicity = 1

                         Standard orientation:
 ---------------------------------------------------------------------
 Center     Atomic      Atomic             Coordinates (Angstroms)
 Number     Number       Type             X           Y           Z
 ---------------------------------------------------------------------
      1          1           0        3.589777    1.117284   -0.810412
      2          1           0        4.429971   -0.244486   -0.058586
      3          1           0        3.577153    0.922467    0.959509
      4          1           0        1.163142    0.294876   -0.021006
      5          6           0        3.558881    0.401985    0.006346
      6         16           0        2.095297   -0.676833   -0.123331
      7          1           0       -0.527369   -0.070237   -1.793401
      8          1           0       -2.014897    0.864509   -2.003376
      9          1           0       -2.249093   -1.728518   -1.379698
     10          1           0       -2.196033    0.361333    1.939602
     11          1           0       -3.244187   -0.569398   -0.500639
     12          1           0       -0.466459    0.012679    2.068223
     13          1           0       -2.112806   -1.939560    1.214395
     14          1           0       -0.563499   -1.707484    0.416112
     15         16           0       -0.960565    1.358109    0.114341
     16          6           0       -1.431291    0.279773   -1.297600
     17          6           0       -2.216828   -0.881529   -0.694154
     18          6           0       -1.526074   -1.238251    0.621121
     19          6           0       -1.308255    0.069040    1.383139
 ---------------------------------------------------------------------

 SCF Done:  E(RHF) =  -991.511613018     A.U. after    2 cycles

 The electronic state is 1-A.
 Alpha  occ. eigenvalues --  -93.52154 -93.51870 -11.26458 -11.26417 -11.26047
 Alpha  occ. eigenvalues --  -11.24275 -11.24139  -8.81937  -8.81678  -6.16066
 Alpha  occ. eigenvalues --   -6.15909  -6.15864  -6.15655  -6.15641  -6.15308
 Alpha  occ. eigenvalues --   -1.11800  -1.01674  -0.98351  -0.96121  -0.85193
 Alpha  occ. eigenvalues --   -0.79660  -0.78193  -0.66301  -0.64259  -0.60573
 Alpha  occ. eigenvalues --   -0.60085  -0.58647  -0.55585  -0.51867  -0.51012
 Alpha  occ. eigenvalues --   -0.49696  -0.48408  -0.47954  -0.44737  -0.42349
 Alpha  occ. eigenvalues --   -0.34517  -0.33304
 Alpha virt. eigenvalues --    0.03386   0.03962   0.04585   0.04980   0.05864
 Alpha virt. eigenvalues --    0.06232   0.06487   0.06873   0.08109   0.08435
 Alpha virt. eigenvalues --    0.08757   0.09713   0.12079   0.12742   0.13574

 Mulliken charges:
               1
     1  H   -0.113026
     2  H   -0.103238
     3  H   -0.118040
     4  H    0.153834
     5  C   -0.003956
     6  S    0.180901
     7  H   -0.188263
     8  H   -0.084694
     9  H   -0.085154
    10  H   -0.145403
    11  H   -0.152778
    12  H   -0.137377
    13  H   -0.062359
    14  H   -0.211865
    15  S    0.282700
    16  C    0.178207
    17  C    0.155241
    18  C    0.302467
    19  C    0.152804
 Sum of Mulliken charges =  -0.00000

 Dipole moment (field-independent basis, Debye):
    X=             -0.5717    Y=             -0.4390    Z=              0.0727  Tot=              0.7245

 Test job not archived.
 1\1\GINC-SE340\SP\RHF\Aug-CC-pVDZ\C5H12S2\OHZDE\09-Apr-2025\0\\#t hf a
 ug-cc-pvdz iop(5/13=1,5/36=2,99/5=2) pseudo=read geom=check guess=(rea
 d,tcheck) scf=(maxcycle=1)\\title\\0,1\H,0,2.75511322,-2.75302781,-0.0
 3281769\H,0,2.23328443,-3.6609344,1.39160682\H,0,2.88304587,-2.0285956
 1,1.58877553\H,0,0.87227038,-0.86572365,0.25189781\C,0,2.28978938,-2.6
 7174858,0.94522466\S,0,0.57786237,-2.06107277,0.80693494\H,0,-0.655457
 3,-0.50941007,-1.66424575\H,0,-0.75037053,0.96111159,-2.64360084\H,0,-
 2.89296385,0.29515687,-1.18298167\H,0,-0.60648518,2.66395538,0.9498223

 Normal termination of Gaussian 16 at Wed Apr  9 17:48:18 2025.
