 Gaussian 16, Revision C.01,

 ----------------------------------------------------------------------
 #t hf aug-cc-pvdz symm=none int=(grid=ultrafine) guess=(read,tcheck) s
 table=(opt,rrhf)
 ----------------------------------------------------------------------
 -----
 title
 -----
 Symbolic Z-matrix:
 Charge =  0 Multiplicity = 1

 SCF Done:  E(RHF) =  -513.774889405     A.U. after   12 cycles
 Normal termination of Gaussian 16 at Wed Apr  9 17:44:07 2025.
 Gaussian 16:  ES64L-G16RevC.01  3-Jul-2019

 ----------------------------------------------------------------------
 #t hf aug-cc-pvdz iop(5/13=1,5/36=2,99/5=2) pseudo=read geom=check gue
 ss=(read,tcheck) scf=(maxcycle=1)
 ----------------------------------------------------------------------
 -----
 title
 -----
 Structure from the checkpoint file:  "HB300SPXx10_1165_4.21_1.00_water_methanethiol_dimer_mol1.chk"
 Charge =  0 Multiplicity = 1

                         Standard orientation:
 ---------------------------------------------------------------------
 Center     Atomic      Atomic             Coordinates (Angstroms)
 Number     Number       Type             X           Y           Z
 ---------------------------------------------------------------------
      1          8           0       -2.340920    0.106326    0.054208
      2          1           0       -1.521048   -0.387903   -0.089305
      3          1           0       -3.038242   -0.447106   -0.303557
      4          1           0        0.001044    1.525179    0.494078
      5          1           0        0.908046    1.508590   -1.022204
      6          1           0        1.790045    1.518005    0.511649
      7          1           0        0.886550   -0.899453    1.239262
      8          6           0        0.898792    1.159116    0.006502
      9         16           0        0.894263   -0.663913   -0.081412
 ---------------------------------------------------------------------

 SCF Done:  E(RHF) =  -513.836071968     A.U. after    2 cycles

 The electronic state is 1-A.
 Alpha  occ. eigenvalues --  -93.54554 -20.56367 -11.27223  -8.84305  -6.18468
 Alpha  occ. eigenvalues --   -6.18242  -6.17994  -1.29730  -1.03489  -0.86921
 Alpha  occ. eigenvalues --   -0.72103  -0.61516  -0.59908  -0.58599  -0.53641
 Alpha  occ. eigenvalues --   -0.51384  -0.46556  -0.36994
 Alpha virt. eigenvalues --    0.03500   0.04693   0.05108   0.06234   0.07319
 Alpha virt. eigenvalues --    0.09857   0.11211   0.11717   0.14226   0.15110
 Alpha virt. eigenvalues --    0.15662   0.16985   0.17999   0.21039   0.21416

 Mulliken charges:
               1
     1  O   -0.316434
     2  H    0.186541
     3  H    0.184841
     4  H   -0.137559
     5  H   -0.053270
     6  H   -0.111640
     7  H    0.088519
     8  C    0.141927
     9  S    0.017075
 Sum of Mulliken charges =  -0.00000

 Dipole moment (field-independent basis, Debye):
    X=              0.6402    Y=             -0.2354    Z=             -0.0010  Tot=              0.6821

 Test job not archived.
 1\1\GINC-SE131\SP\RHF\Aug-CC-pVDZ\C1H6O1S1\OHZDE\09-Apr-2025\0\\#t hf
 aug-cc-pvdz iop(5/13=1,5/36=2,99/5=2) pseudo=read geom=check guess=(re
 ad,tcheck) scf=(maxcycle=1)\\title\\0,1\O,0,-0.58582535,-1.65985485,-1
 .57348405\H,0,-0.07487288,-1.34797585,-0.81275631\H,0,-0.15829821,-2.4
 72369,-1.85201796\H,0,-1.15967226,0.91754265,-0.72545905\H,0,0.3400549
 ,1.84493032,-0.83862962\H,0,-0.82218807,2.23474631,0.43728128\H,0,-0.5
 2250234,-0.13010197,1.66508867\C,0,-0.39382431,1.43067433,-0.15287009\
 S,0,0.51646192,0.26042045,0.91158677\\Version=ES64L-G16RevC.01\State=1

 Normal termination of Gaussian 16 at Wed Apr  9 17:44:09 2025.
