 Gaussian 16, Revision C.01,

 ----------------------------------------------------------------------
 #t hf aug-cc-pvdz symm=none int=(grid=ultrafine) guess=(read,tcheck) s
 table=(opt,rrhf)
 ----------------------------------------------------------------------
 -----
 title
 -----
 Symbolic Z-matrix:
 Charge =  0 Multiplicity = 1

 SCF Done:  E(RHF) =  -797.393607874     A.U. after   10 cycles
 Normal termination of Gaussian 16 at Wed Apr  9 17:49:31 2025.
 Gaussian 16:  ES64L-G16RevC.01  3-Jul-2019

 ----------------------------------------------------------------------
 #t hf aug-cc-pvdz iop(5/13=1,5/36=2,99/5=2) pseudo=read geom=check gue
 ss=(read,tcheck) scf=(maxcycle=1)
 ----------------------------------------------------------------------
 -----
 title
 -----
 Structure from the checkpoint file:  "HB300SPXx10_1223_4.27_0.90_sulfane_sulfane_dimer_mol1.chk"
 Charge =  0 Multiplicity = 1

                         Standard orientation:
 ---------------------------------------------------------------------
 Center     Atomic      Atomic             Coordinates (Angstroms)
 Number     Number       Type             X           Y           Z
 ---------------------------------------------------------------------
      1          1           0       -0.599627   -0.079972   -0.108603
      2          1           0       -1.991774    1.263093    0.082572
      3         16           0       -1.941069   -0.074191   -0.003196
      4          1           0        1.815544    0.374517    1.219221
      5          1           0        2.017238    1.133785   -0.554463
      6         16           0        1.863483   -0.094023   -0.036725
 ---------------------------------------------------------------------

 SCF Done:  E(RHF) =  -797.436441420     A.U. after    2 cycles

 The electronic state is 1-A.
 Alpha  occ. eigenvalues --  -93.56228 -93.53359  -8.86004  -8.83173  -6.20175
 Alpha  occ. eigenvalues --   -6.19981  -6.19666  -6.17357  -6.17149  -6.16778
 Alpha  occ. eigenvalues --   -0.98435  -0.95539  -0.60224  -0.58083  -0.51055
 Alpha  occ. eigenvalues --   -0.48859  -0.39197  -0.37069
 Alpha virt. eigenvalues --    0.02915   0.05522   0.06011   0.07054   0.10918
 Alpha virt. eigenvalues --    0.11753   0.12071   0.13945   0.14516   0.15334
 Alpha virt. eigenvalues --    0.17653   0.19892   0.20478   0.22516   0.24652

 Mulliken charges:
               1
     1  H    0.020277
     2  H    0.009847
     3  S    0.012615
     4  H    0.042463
     5  H    0.036998
     6  S   -0.122199
 Sum of Mulliken charges =  -0.00000

 Dipole moment (field-independent basis, Debye):
    X=              1.4259    Y=              1.6921    Z=              0.3989  Tot=              2.2485

 Test job not archived.
 1\1\GINC-SE045\SP\RHF\Aug-CC-pVDZ\H4S2\OHZDE\09-Apr-2025\0\\#t hf aug-
 cc-pvdz iop(5/13=1,5/36=2,99/5=2) pseudo=read geom=check guess=(read,t
 check) scf=(maxcycle=1)\\title\\0,1\H,0,0.53139832,0.64498716,-0.29055
 053\H,0,2.23879772,0.67266195,0.63813986\S,0,1.60273769,1.45777787,-0.
 24349168\H,0,-1.67772285,-0.33487896,1.11029634\H,0,-0.90975213,-1.850
 43805,0.17412163\S,0,-1.5242167,-0.70848961,-0.16879621\\Version=ES64L
 -G16RevC.01\State=1-A\HF=-797.4364414\RMSD=9.515e-03\Dipole=-0.2028538
 ,-0.665093,0.5468745\Quadrupole=-1.1165479,0.2971196,0.8194283,-1.8911

 Normal termination of Gaussian 16 at Wed Apr  9 17:49:34 2025.
