 Gaussian 16, Revision C.01,

 ----------------------------------------------------------------------
 #t hf aug-cc-pvdz symm=none int=(grid=ultrafine) guess=(read,tcheck) s
 table=(opt,rrhf)
 ----------------------------------------------------------------------
 -----
 title
 -----
 Symbolic Z-matrix:
 Charge =  0 Multiplicity = 1

 SCF Done:  E(RHF) =  -783.965300516     A.U. after   15 cycles
 Normal termination of Gaussian 16 at Wed Apr  9 17:59:21 2025.
 Gaussian 16:  ES64L-G16RevC.01  3-Jul-2019

 ----------------------------------------------------------------------
 #t hf aug-cc-pvdz iop(5/13=1,5/36=2,99/5=2) pseudo=read geom=check gue
 ss=(read,tcheck) scf=(maxcycle=1)
 ----------------------------------------------------------------------
 -----
 title
 -----
 Structure from the checkpoint file:  "HB300SPXx10_1462_5.09_0.85_nitromethane_phosphineF2_dimer_mol1.chk"
 Charge =  0 Multiplicity = 1

                         Standard orientation:
 ---------------------------------------------------------------------
 Center     Atomic      Atomic             Coordinates (Angstroms)
 Number     Number       Type             X           Y           Z
 ---------------------------------------------------------------------
      1          1           0       -1.393046    1.735172    0.079236
      2          1           0       -2.613569    1.197617   -1.099575
      3          1           0       -2.983544    1.164698    0.668065
      4          6           0       -2.225722    1.059602   -0.097436
      5          7           0       -1.659660   -0.319737   -0.010353
      6          8           0       -1.790360   -0.922450    1.036037
      7          8           0       -1.065384   -0.735905   -0.994046
      8         15           0        1.472036   -0.188474   -0.394215
      9          9           0        2.839873   -0.059107    0.425073
     10          9           0        0.697812    1.063795    0.255206
     11          1           0        0.888359   -1.165188    0.464152
 ---------------------------------------------------------------------

 SCF Done:  E(RHF) =  -784.151000088     A.U. after    2 cycles

 The electronic state is 1-A.
 Alpha  occ. eigenvalues --  -81.38762 -26.14299 -26.13049 -20.64499 -20.63445
 Alpha  occ. eigenvalues --  -15.93406 -11.32429  -7.87530  -5.01673  -5.01383
 Alpha  occ. eigenvalues --   -5.00854  -1.67755  -1.65831  -1.57484  -1.39079
 Alpha  occ. eigenvalues --   -1.10308  -0.90068  -0.88018  -0.79962  -0.79441
 Alpha  occ. eigenvalues --   -0.77812  -0.77246  -0.76661  -0.74989  -0.73622
 Alpha  occ. eigenvalues --   -0.70991  -0.63973  -0.61723  -0.60486  -0.53425
 Alpha  occ. eigenvalues --   -0.52684  -0.49926  -0.39756
 Alpha virt. eigenvalues --    0.02806   0.04815   0.05173   0.05378   0.06997
 Alpha virt. eigenvalues --    0.08164   0.09785   0.09998   0.10814   0.13285
 Alpha virt. eigenvalues --    0.14578   0.15422   0.15810   0.16137   0.17657

 Mulliken charges:
               1
     1  H   -0.015808
     2  H   -0.074939
     3  H   -0.107294
     4  C    0.883652
     5  N    0.528047
     6  O   -0.576768
     7  O   -0.616011
     8  P    1.241070
     9  F   -0.638040
    10  F   -0.662544
    11  H    0.038636
 Sum of Mulliken charges =  -0.00000

 Dipole moment (field-independent basis, Debye):
    X=             -3.0476    Y=              2.0725    Z=             -0.9123  Tot=              3.7968

 Test job not archived.
 1\1\GINC-SE229\SP\RHF\Aug-CC-pVDZ\C1H4F2N1O2P1\OHZDE\09-Apr-2025\0\\#t
  hf aug-cc-pvdz iop(5/13=1,5/36=2,99/5=2) pseudo=read geom=check guess
 =(read,tcheck) scf=(maxcycle=1)\\title\\0,1\H,0,0.49481138,0.55069733,
 -2.50359179\H,0,-1.08891031,0.71291216,-3.29967626\H,0,-0.00441746,2.1
 4812453,-3.13671373\C,0,-0.34098337,1.21704881,-2.69950341\N,0,-0.9468
 7558,1.51662809,-1.36768821\O,0,-0.63929751,2.55888018,-0.82511637\O,0
 ,-1.68734525,0.66720154,-0.89420145\P,0,-0.04361695,-0.68472329,0.7084
 3138\F,0,1.08485584,-1.00736976,1.7953522\F,0,0.92439662,-0.30600885,-

 Normal termination of Gaussian 16 at Wed Apr  9 17:59:25 2025.
