 Gaussian 16, Revision C.01,

 ----------------------------------------------------------------------
 #t hf aug-cc-pvdz symm=none int=(grid=ultrafine) guess=(read,tcheck) s
 table=(opt,rrhf)
 ----------------------------------------------------------------------
 -----
 title
 -----
 Symbolic Z-matrix:
 Charge =  0 Multiplicity = 1

 SCF Done:  E(RHF) =  -576.786907929     A.U. after   12 cycles
 Normal termination of Gaussian 16 at Wed Apr  9 17:57:13 2025.
 Gaussian 16:  ES64L-G16RevC.01  3-Jul-2019

 ----------------------------------------------------------------------
 #t hf aug-cc-pvdz iop(5/13=1,5/36=2,99/5=2) pseudo=read geom=check gue
 ss=(read,tcheck) scf=(maxcycle=1)
 ----------------------------------------------------------------------
 -----
 title
 -----
 Structure from the checkpoint file:  "HB300SPXx10_1433_5.06_0.90_methanethiol_methylfluoride_dimer_mol1.chk"
 Charge =  0 Multiplicity = 1

                         Standard orientation:
 ---------------------------------------------------------------------
 Center     Atomic      Atomic             Coordinates (Angstroms)
 Number     Number       Type             X           Y           Z
 ---------------------------------------------------------------------
      1          1           0        1.747380    1.714011   -0.527269
      2          1           0        1.705483    1.341956    1.201189
      3          1           0        0.191483    1.399896    0.279506
      4          1           0        0.717958   -0.715768   -1.176497
      5          6           0        1.242871    1.134102    0.239950
      6         16           0        1.445602   -0.654265   -0.051639
      7          1           0       -1.201897   -0.835700    0.869485
      8          1           0       -2.674022    0.131460    1.195808
      9          1           0       -2.724500   -1.196889    0.003223
     10          6           0       -2.108946   -0.413637    0.441832
     11          9           0       -1.743896    0.478499   -0.567767
 ---------------------------------------------------------------------

 SCF Done:  E(RHF) =  -576.872898716     A.U. after    2 cycles

 The electronic state is 1-A.
 Alpha  occ. eigenvalues --  -93.52945 -26.10662 -11.31738 -11.26076  -8.82711
 Alpha  occ. eigenvalues --   -6.16874  -6.16656  -6.16352  -1.63699  -1.02210
 Alpha  occ. eigenvalues --   -0.97117  -0.85621  -0.74572  -0.74277  -0.71544
 Alpha  occ. eigenvalues --   -0.60290  -0.58641  -0.55452  -0.55433  -0.52404
 Alpha  occ. eigenvalues --   -0.45221  -0.35207
 Alpha virt. eigenvalues --    0.03497   0.04505   0.05080   0.05906   0.06810
 Alpha virt. eigenvalues --    0.07829   0.08422   0.11043   0.11775   0.13328
 Alpha virt. eigenvalues --    0.14629   0.15068   0.15608   0.16437   0.17669

 Mulliken charges:
               1
     1  H   -0.117531
     2  H   -0.069003
     3  H   -0.122163
     4  H    0.113520
     5  C    0.127680
     6  S    0.070489
     7  H   -0.136236
     8  H   -0.090846
     9  H   -0.140282
    10  C    0.855970
    11  F   -0.491598
 Sum of Mulliken charges =  -0.00000

 Dipole moment (field-independent basis, Debye):
    X=             -1.3097    Y=              0.0822    Z=              1.1996  Tot=              1.7779

 Test job not archived.
 1\1\GINC-SE220\SP\RHF\Aug-CC-pVDZ\C2H7F1S1\OHZDE\09-Apr-2025\0\\#t hf
 aug-cc-pvdz iop(5/13=1,5/36=2,99/5=2) pseudo=read geom=check guess=(re
 ad,tcheck) scf=(maxcycle=1)\\title\\0,1\H,0,2.08229041,-1.4254109,-0.5
 8197167\H,0,2.56243491,-0.07269824,0.45116733\H,0,1.30281242,0.1638302
 2,-0.77457926\H,0,-0.45614858,-1.39442223,0.38777169\C,0,1.72720839,-0
 .53887394,-0.06484534\S,0,0.50833702,-0.97408013,1.21941614\H,0,-0.776
 70911,1.39517744,0.42826965\H,0,-0.84936634,2.61671976,-0.88000889\H,0
 ,-2.30098221,1.66111329,-0.46898064\C,0,-1.21451626,1.65128941,-0.5342

 Normal termination of Gaussian 16 at Wed Apr  9 17:57:16 2025.
