 Gaussian 16, Revision C.01,

 ----------------------------------------------------------------------
 #t hf aug-cc-pvdz symm=none int=(grid=ultrafine) guess=(read,tcheck) s
 table=(opt,rrhf)
 ----------------------------------------------------------------------
 -----
 title
 -----
 Symbolic Z-matrix:
 Charge =  0 Multiplicity = 1

 SCF Done:  E(RHF) =  -897.823340807     A.U. after   11 cycles
 Normal termination of Gaussian 16 at Wed Apr  9 04:10:05 2025.
 Gaussian 16:  ES64L-G16RevC.01  3-Jul-2019

 ----------------------------------------------------------------------
 #t hf aug-cc-pvdz iop(5/13=1,5/36=2,99/5=2) pseudo=read geom=check gue
 ss=(read,tcheck) scf=(maxcycle=1)
 ----------------------------------------------------------------------
 -----
 title
 -----
 Structure from the checkpoint file:  "HB300SPXx10_1340_4.38_2.00_hydrogenchloride_methanethiol_dimer_mol1.chk"
 Charge =  0 Multiplicity = 1

                         Standard orientation:
 ---------------------------------------------------------------------
 Center     Atomic      Atomic             Coordinates (Angstroms)
 Number     Number       Type             X           Y           Z
 ---------------------------------------------------------------------
      1          1           0       -2.208091   -0.351096   -0.091763
      2         17           0       -3.458020    0.027308    0.004837
      3          1           0        1.554742    1.556103    0.557241
      4          1           0        2.382400    1.514449   -1.005081
      5          1           0        3.337903    1.460938    0.483644
      6          1           0        2.344822   -0.917265    1.231648
      7          6           0        2.406838    1.152569    0.018979
      8         16           0        2.308346   -0.665174   -0.085737
 ---------------------------------------------------------------------

 SCF Done:  E(RHF) =  -897.878222469     A.U. after    2 cycles

 The electronic state is 1-A.
 Alpha  occ. eigenvalues -- -103.67636 -93.54060 -11.27482 -10.70809  -8.83815
 Alpha  occ. eigenvalues --   -8.36560  -8.36246  -8.36245  -6.17970  -6.17747
 Alpha  occ. eigenvalues --   -6.17403  -1.15433  -1.03348  -0.86731  -0.62898
 Alpha  occ. eigenvalues --   -0.61595  -0.60261  -0.53595  -0.48660  -0.48656
 Alpha  occ. eigenvalues --   -0.46213  -0.36217
 Alpha virt. eigenvalues --    0.03042   0.04586   0.04936   0.05987   0.07122
 Alpha virt. eigenvalues --    0.10387   0.11339   0.12352   0.12770   0.13571
 Alpha virt. eigenvalues --    0.14984   0.15658   0.16151   0.16472   0.17532

 Mulliken charges:
               1
     1  H    0.140304
     2  Cl  -0.140714
     3  H   -0.097072
     4  H   -0.083283
     5  H   -0.101187
     6  H    0.059082
     7  C    0.065855
     8  S    0.157015
 Sum of Mulliken charges =  -0.00000

 Dipole moment (field-independent basis, Debye):
    X=              1.4781    Y=              1.1029    Z=              0.7421  Tot=              1.9879

 Test job not archived.
 1\1\GINC-SE159\SP\RHF\Aug-CC-pVDZ\C1H5Cl1S1\OHZDE\09-Apr-2025\0\\#t hf
  aug-cc-pvdz iop(5/13=1,5/36=2,99/5=2) pseudo=read geom=check guess=(r
 ead,tcheck) scf=(maxcycle=1)\\title\\0,1\H,0,-0.71323053,0.36081391,-0
 .38963987\Cl,0,-0.97574618,1.50432633,-0.9712843\H,0,2.6438253,-1.2244
 2301,1.71623911\H,0,3.16893068,-2.63025324,0.78055369\H,0,3.40118023,-
 2.62090445,2.53501155\H,0,0.76754153,-2.60188316,3.04994119\C,0,2.7480
 7349,-2.30499235,1.72783228\S,0,1.11936943,-3.11402021,1.86069132\\Ver
 sion=ES64L-G16RevC.01\State=1-A\HF=-897.8782225\RMSD=4.188e-03\Dipole=

 Normal termination of Gaussian 16 at Wed Apr  9 04:10:07 2025.
