 Gaussian 16, Revision C.01,

 ----------------------------------------------------------------------
 #t hf aug-cc-pvdz symm=none int=(grid=ultrafine) guess=(read,tcheck) s
 table=(opt,rrhf)
 ----------------------------------------------------------------------
 -----
 title
 -----
 Symbolic Z-matrix:
 Charge =  0 Multiplicity = 1

 SCF Done:  E(RHF) =  -1334.39720024     A.U. after   13 cycles
 Normal termination of Gaussian 16 at Wed Apr  9 17:53:19 2025.
 Gaussian 16:  ES64L-G16RevC.01  3-Jul-2019

 ----------------------------------------------------------------------
 #t hf aug-cc-pvdz iop(5/13=1,5/36=2,99/5=2) pseudo=read geom=check gue
 ss=(read,tcheck) scf=(maxcycle=1)
 ----------------------------------------------------------------------
 -----
 title
 -----
 Structure from the checkpoint file:  "HB300SPXx10_1316_4.36_1.05_hydrogenchloride_dimethyldisulfide_dimer_mol1.chk"
 Charge =  0 Multiplicity = 1

                         Standard orientation:
 ---------------------------------------------------------------------
 Center     Atomic      Atomic             Coordinates (Angstroms)
 Number     Number       Type             X           Y           Z
 ---------------------------------------------------------------------
      1          1           0       -1.870776   -0.198484    0.373949
      2         17           0       -3.050738   -0.513815   -0.087644
      3          1           0        3.539291   -1.329594   -0.550532
      4          1           0        3.317769   -0.334023    0.904034
      5          1           0        3.200913    0.402437   -0.717846
      6          1           0       -0.528448    1.402217   -1.410132
      7          1           0        1.031617    2.185677   -1.028263
      8          1           0       -0.450549    2.698393   -0.196293
      9          6           0        3.000952   -0.484609   -0.123547
     10         16           0        1.238298   -0.932877   -0.188445
     11         16           0        0.333312    0.664744    0.728131
     12          6           0        0.078542    1.851004   -0.629777
 ---------------------------------------------------------------------

 SCF Done:  E(RHF) =  -1334.48609524     A.U. after    2 cycles

 The electronic state is 1-A.
 Alpha  occ. eigenvalues -- -103.65383 -93.57128 -93.56528 -11.28014 -11.27922
 Alpha  occ. eigenvalues --  -10.68631  -8.86740  -8.86166  -8.34381  -8.34087
 Alpha  occ. eigenvalues --   -8.34086  -6.20873  -6.20602  -6.20384  -6.20287
 Alpha  occ. eigenvalues --   -6.20018  -6.19695  -1.13705  -1.08492  -1.01421
 Alpha  occ. eigenvalues --   -0.91201  -0.79067  -0.63059  -0.62032  -0.61098
 Alpha  occ. eigenvalues --   -0.60298  -0.59469  -0.54239  -0.50145  -0.46892
 Alpha  occ. eigenvalues --   -0.46853  -0.44946  -0.37306  -0.36291
 Alpha virt. eigenvalues --    0.03146   0.04192   0.05243   0.05610   0.06698
 Alpha virt. eigenvalues --    0.07097   0.08057   0.09057   0.09741   0.12004
 Alpha virt. eigenvalues --    0.13350   0.13737   0.14126   0.14654   0.15247

 Mulliken charges:
               1
     1  H    0.222502
     2  Cl  -0.158633
     3  H   -0.074799
     4  H   -0.028355
     5  H   -0.075246
     6  H   -0.097020
     7  H   -0.109419
     8  H   -0.047708
     9  C    0.058619
    10  S    0.175130
    11  S   -0.072779
    12  C    0.207707
 Sum of Mulliken charges =  -0.00000

 Dipole moment (field-independent basis, Debye):
    X=              3.5030    Y=              1.9139    Z=             -0.7168  Tot=              4.0557

 Test job not archived.
 1\1\GINC-SE041\SP\RHF\Aug-CC-pVDZ\C2H7Cl1S2\OHZDE\09-Apr-2025\0\\#t hf
  aug-cc-pvdz iop(5/13=1,5/36=2,99/5=2) pseudo=read geom=check guess=(r
 ead,tcheck) scf=(maxcycle=1)\\title\\0,1\H,0,-0.26068265,0.62653872,-1
 .61580209\Cl,0,0.10581098,1.51670262,-2.49790267\H,0,1.77684502,-2.080
 47676,2.84776656\H,0,0.17850643,-2.69907263,2.3801681\H,0,0.32371985,-
 1.15241643,3.25953779\H,0,-0.61939836,1.79228333,0.84578137\H,0,-1.308
 84836,0.91729804,2.24309906\H,0,-2.32602041,1.29536858,0.83800383\C,0,
 0.77678832,-1.80339584,2.51725675\S,0,0.99842182,-0.93565186,0.9329578

 Normal termination of Gaussian 16 at Wed Apr  9 17:53:23 2025.
