 Gaussian 16, Revision C.01,

 ----------------------------------------------------------------------
 #t hf aug-cc-pvdz symm=none int=(grid=ultrafine) guess=(read,tcheck) s
 table=(opt,rrhf)
 ----------------------------------------------------------------------
 -----
 title
 -----
 Symbolic Z-matrix:
 Charge =  0 Multiplicity = 1

 SCF Done:  E(RHF) =  -855.910487924     A.U. after   14 cycles
 Normal termination of Gaussian 16 at Wed Apr  9 17:23:10 2025.
 Gaussian 16:  ES64L-G16RevC.01  3-Jul-2019

 ----------------------------------------------------------------------
 #t hf aug-cc-pvdz iop(5/13=1,5/36=2,99/5=2) pseudo=read geom=check gue
 ss=(read,tcheck) scf=(maxcycle=1)
 ----------------------------------------------------------------------
 -----
 title
 -----
 Structure from the checkpoint file:  "HB300SPXx10_1036_4.07_1.05_phosphaalkyne_methanethiol_dimer_mol1.chk"
 Charge =  0 Multiplicity = 1

                         Standard orientation:
 ---------------------------------------------------------------------
 Center     Atomic      Atomic             Coordinates (Angstroms)
 Number     Number       Type             X           Y           Z
 ---------------------------------------------------------------------
      1          1           0       -1.605620    2.130537    1.251833
      2          1           0       -1.857518    2.441583   -0.468099
      3          1           0       -0.262647    1.946531    0.111086
      4         15           0       -2.041265   -1.077334   -0.170062
      5          6           0       -1.686909    0.406256    0.044891
      6          6           0       -1.337114    1.801249    0.246388
      7          1           0        0.981544   -0.219356    1.508223
      8          1           0        2.745587   -0.283916    1.663822
      9          1           0        1.871420   -1.670842    0.998441
     10          1           0        1.014342   -0.295473   -1.139355
     11          6           0        1.897398   -0.586713    1.055547
     12         16           0        2.155726    0.149137   -0.590999
 ---------------------------------------------------------------------

 SCF Done:  E(RHF) =  -855.986488250     A.U. after    2 cycles

 The electronic state is 1-A.
 Alpha  occ. eigenvalues --  -93.53131 -81.24770 -11.29165 -11.26577 -11.26523
 Alpha  occ. eigenvalues --   -8.82889  -7.75660  -6.17050  -6.16838  -6.16516
 Alpha  occ. eigenvalues --   -4.89664  -4.89149  -4.89124  -1.04436  -1.02460
 Alpha  occ. eigenvalues --   -0.88292  -0.85877  -0.65260  -0.61211  -0.60237
 Alpha  occ. eigenvalues --   -0.60169  -0.58785  -0.52653  -0.46477  -0.45554
 Alpha  occ. eigenvalues --   -0.36327  -0.36219  -0.35341
 Alpha virt. eigenvalues --    0.03238   0.04369   0.05062   0.05575   0.06409
 Alpha virt. eigenvalues --    0.06913   0.07289   0.07867   0.08021   0.08800
 Alpha virt. eigenvalues --    0.11139   0.12445   0.12762   0.14260   0.14440

 Mulliken charges:
               1
     1  H    0.059697
     2  H    0.014045
     3  H   -0.027662
     4  P   -0.215117
     5  C   -0.405689
     6  C    0.567931
     7  H   -0.126814
     8  H   -0.090472
     9  H   -0.113959
    10  H    0.091896
    11  C    0.125690
    12  S    0.120454
 Sum of Mulliken charges =  -0.00000

 Dipole moment (field-independent basis, Debye):
    X=             -0.7255    Y=              0.2146    Z=              1.2453  Tot=              1.4571

 Test job not archived.
 1\1\GINC-SE232\SP\RHF\Aug-CC-pVDZ\C3H7P1S1\OHZDE\09-Apr-2025\0\\#t hf
 aug-cc-pvdz iop(5/13=1,5/36=2,99/5=2) pseudo=read geom=check guess=(re
 ad,tcheck) scf=(maxcycle=1)\\title\\0,1\H,0,0.38933231,2.34404549,-1.6
 8180664\H,0,-1.19987448,1.75919838,-2.18254684\H,0,0.10218747,0.605834
 91,-1.86864837\P,0,-1.17058474,1.34195856,1.32892267\C,0,-0.7484701,1.
 45533882,-0.14816129\C,0,-0.34350289,1.5476729,-1.53972175\H,0,1.86014
 182,-0.18559907,0.24660631\H,0,2.90356793,-1.6050051,0.05484057\H,0,1.
 83098502,-1.48663345,1.4569885\H,0,-0.38915797,-1.55337269,-0.04730584

 Normal termination of Gaussian 16 at Wed Apr  9 17:23:13 2025.
