 Gaussian 16, Revision C.01,

 ----------------------------------------------------------------------
 #t hf aug-cc-pvdz symm=none int=(grid=ultrafine) guess=(read,tcheck) s
 table=(opt,rrhf)
 ----------------------------------------------------------------------
 -----
 title
 -----
 Symbolic Z-matrix:
 Charge =  0 Multiplicity = 1

 SCF Done:  E(RHF) =  -952.359826322     A.U. after   15 cycles

 1\1\GINC-SE162\Stability\RHF\Aug-CC-pVDZ\C4H10S2\OHZDE\09-Apr-2025\0\\
 #t hf aug-cc-pvdz symm=none int=(grid=ultrafine) guess=(read,tcheck) s
 table=(opt,rrhf)\\title\\0,1\H,0,1.94048627,-0.28311522,0.30003006\H,0
 ,2.70886397,-1.74966836,-0.33633756\H,0,2.5169729,-1.54996222,1.410513
 58\H,0,-0.19256655,-1.5118813,1.21090974\C,0,2.06439688,-1.35234501,0.
 4434425\S,0,0.46794236,-2.21627191,0.2804649\H,0,-2.66239305,0.5885555
 3,0.34341573\H,0,-2.72035754,1.04503117,-1.37275345\H,0,-2.07848635,-0
 .52165196,-0.91928033\H,0,0.9832283,1.52070905,-1.71187127\H,0,0.20668

 Normal termination of Gaussian 16 at Wed Apr  9 17:21:35 2025.
 Gaussian 16:  ES64L-G16RevC.01  3-Jul-2019

 ----------------------------------------------------------------------
 #t hf aug-cc-pvdz iop(5/13=1,5/36=2,99/5=2) pseudo=read geom=check gue
 ss=(read,tcheck) scf=(maxcycle=1)
 ----------------------------------------------------------------------
 -----
 title
 -----
 Structure from the checkpoint file:  "HB300SPXx10_1025_4.06_1.00_methanethiol_thioacetone_dimer_mol1.chk"
 Charge =  0 Multiplicity = 1

                         Standard orientation:
 ---------------------------------------------------------------------
 Center     Atomic      Atomic             Coordinates (Angstroms)
 Number     Number       Type             X           Y           Z
 ---------------------------------------------------------------------
      1          1           0        1.268420   -1.360060    0.703387
      2          1           0        2.791466   -0.800519    1.419899
      3          1           0        2.818487   -1.691656   -0.107628
      4          1           0        1.385955    0.237800   -1.375678
      5          6           0        2.260617   -0.975093    0.487706
      6         16           0        2.159715    0.637265   -0.355928
      7          1           0       -1.784490    1.305032   -1.647191
      8          1           0       -2.488189    2.015681   -0.178603
      9          1           0       -0.761367    2.138375   -0.452759
     10          1           0       -1.079725   -0.568254    2.144613
     11          1           0       -0.192032    0.919007    1.745176
     12          6           0       -1.625697    1.484472   -0.589385
     13          6           0       -1.409467    0.209964    0.166135
     14         16           0       -1.445568   -1.250938   -0.549952
     15          6           0       -1.137941    0.383716    1.628067
     16          1           0       -1.909948    1.005014    2.087737
 ---------------------------------------------------------------------

 SCF Done:  E(RHF) =  -952.450166389     A.U. after    2 cycles

 The electronic state is 1-A.
 Alpha  occ. eigenvalues --  -93.53427 -93.50806 -11.33466 -11.26557 -11.25063
 Alpha  occ. eigenvalues --  -11.25034  -8.83186  -8.80755  -6.17359  -6.17137
 Alpha  occ. eigenvalues --   -6.16830  -6.14937  -6.14597  -6.14333  -1.11256
 Alpha  occ. eigenvalues --   -1.02652  -0.96592  -0.94219  -0.86071  -0.71947
 Alpha  occ. eigenvalues --   -0.62298  -0.61380  -0.61222  -0.60795  -0.59119
 Alpha  occ. eigenvalues --   -0.56172  -0.53329  -0.52844  -0.49602  -0.45756
 Alpha  occ. eigenvalues --   -0.38349  -0.35745  -0.33337
 Alpha virt. eigenvalues --    0.03234   0.04101   0.04557   0.05262   0.06080
 Alpha virt. eigenvalues --    0.06320   0.06869   0.07300   0.08128   0.08769
 Alpha virt. eigenvalues --    0.09385   0.10289   0.11706   0.12232   0.13191

 Mulliken charges:
               1
     1  H   -0.194632
     2  H   -0.079874
     3  H   -0.131332
     4  H    0.101025
     5  C    0.199804
     6  S    0.107735
     7  H   -0.068620
     8  H    0.049284
     9  H    0.009338
    10  H   -0.110381
    11  H    0.085882
    12  C    0.351010
    13  C   -0.769696
    14  S   -0.017398
    15  C    0.489083
    16  H   -0.021230
 Sum of Mulliken charges =  -0.00000

 Dipole moment (field-independent basis, Debye):
    X=             -0.2413    Y=              1.3825    Z=              1.6060  Tot=              2.1328

 Test job not archived.
 1\1\GINC-SE162\SP\RHF\Aug-CC-pVDZ\C4H10S2\OHZDE\09-Apr-2025\0\\#t hf a
 ug-cc-pvdz iop(5/13=1,5/36=2,99/5=2) pseudo=read geom=check guess=(rea
 d,tcheck) scf=(maxcycle=1)\\title\\0,1\H,0,1.94048627,-0.28311522,0.30
 003006\H,0,2.70886397,-1.74966836,-0.33633756\H,0,2.5169729,-1.5499622
 2,1.41051358\H,0,-0.19256655,-1.5118813,1.21090974\C,0,2.06439688,-1.3
 5234501,0.4434425\S,0,0.46794236,-2.21627191,0.2804649\H,0,-2.66239305
 ,0.58855553,0.34341573\H,0,-2.72035754,1.04503117,-1.37275345\H,0,-2.0
 7848635,-0.52165196,-0.91928033\H,0,0.9832283,1.52070905,-1.71187127\H

 Normal termination of Gaussian 16 at Wed Apr  9 17:21:41 2025.
