 Gaussian 16, Revision C.01,

 ----------------------------------------------------------------------
 #t hf aug-cc-pvdz symm=none int=(grid=ultrafine) guess=(read,tcheck) s
 table=(opt,rrhf)
 ----------------------------------------------------------------------
 -----
 title
 -----
 Symbolic Z-matrix:
 Charge =  0 Multiplicity = 1

 SCF Done:  E(RHF) =  -989.366455932     A.U. after   13 cycles
 Normal termination of Gaussian 16 at Wed Apr  9 17:42:35 2025.
 Gaussian 16:  ES64L-G16RevC.01  3-Jul-2019

 ----------------------------------------------------------------------
 #t hf aug-cc-pvdz iop(5/13=1,5/36=2,99/5=2) pseudo=read geom=check gue
 ss=(read,tcheck) scf=(maxcycle=1)
 ----------------------------------------------------------------------
 -----
 title
 -----
 Structure from the checkpoint file:  "HB300SPXx10_1146_4.19_1.05_methanol_dimethyldisulfide_dimer_mol1.chk"
 Charge =  0 Multiplicity = 1

                         Standard orientation:
 ---------------------------------------------------------------------
 Center     Atomic      Atomic             Coordinates (Angstroms)
 Number     Number       Type             X           Y           Z
 ---------------------------------------------------------------------
      1          8           0        2.890863    0.231579   -0.142064
      2          1           0        2.060754    0.390943   -0.607340
      3          6           0        2.927300   -1.133299    0.244938
      4          1           0        3.852480   -1.286808    0.796238
      5          1           0        2.088109   -1.398021    0.894583
      6          1           0        2.924127   -1.804571   -0.618600
      7          1           0       -3.155413   -1.773992    0.581036
      8          1           0       -3.311954   -0.503832   -0.652029
      9          1           0       -3.008259   -0.071063    1.052342
     10          1           0        0.642572    1.381569    1.383442
     11          1           0       -1.068643    1.907653    1.424889
     12          1           0        0.131318    2.836517    0.504786
     13          6           0       -2.806605   -0.791805    0.264921
     14         16           0       -1.017177   -0.961364   -0.021985
     15         16           0       -0.483057    0.898097   -0.704394
     16          6           0       -0.167069    1.838645    0.823346
 ---------------------------------------------------------------------

 SCF Done:  E(RHF) =  -989.476276285     A.U. after    2 cycles

 The electronic state is 1-A.
 Alpha  occ. eigenvalues --  -93.56390 -93.56120 -20.55687 -11.27616 -11.27328
 Alpha  occ. eigenvalues --  -11.27137  -8.85998  -8.85761  -6.20145  -6.19891
 Alpha  occ. eigenvalues --   -6.19847  -6.19623  -6.19615  -6.19301  -1.30420
 Alpha  occ. eigenvalues --   -1.07960  -1.00895  -0.91410  -0.90693  -0.78483
 Alpha  occ. eigenvalues --   -0.69188  -0.62041  -0.61854  -0.60793  -0.60267
 Alpha  occ. eigenvalues --   -0.59325  -0.58952  -0.53767  -0.50218  -0.49538
 Alpha  occ. eigenvalues --   -0.45137  -0.44490  -0.36760  -0.35770
 Alpha virt. eigenvalues --    0.03246   0.04359   0.04743   0.05280   0.06093
 Alpha virt. eigenvalues --    0.06467   0.07060   0.08028   0.08217   0.09179
 Alpha virt. eigenvalues --    0.09901   0.11033   0.12960   0.13617   0.14018

 Mulliken charges:
               1
     1  O   -0.491142
     2  H    0.181828
     3  C    0.902559
     4  H   -0.204065
     5  H   -0.166045
     6  H   -0.155827
     7  H   -0.073078
     8  H   -0.031651
     9  H   -0.087769
    10  H   -0.122871
    11  H   -0.111260
    12  H   -0.048871
    13  C    0.016658
    14  S    0.216023
    15  S   -0.040326
    16  C    0.215836
 Sum of Mulliken charges =  -0.00000

 Dipole moment (field-independent basis, Debye):
    X=             -3.0893    Y=             -0.2076    Z=              1.3805  Tot=              3.3901

 Test job not archived.
 1\1\GINC-SE229\SP\RHF\Aug-CC-pVDZ\C3H10O1S2\OHZDE\09-Apr-2025\0\\#t hf
  aug-cc-pvdz iop(5/13=1,5/36=2,99/5=2) pseudo=read geom=check guess=(r
 ead,tcheck) scf=(maxcycle=1)\\title\\0,1\O,0,-0.42925951,1.22968046,-2
 .50380826\H,0,-0.36156068,1.36890772,-1.5514469\C,0,-1.37991091,0.2017
 0921,-2.7351714\H,0,-1.41855104,0.0350798,-3.80950666\H,0,-1.09677682,
 -0.73598734,-2.24842974\H,0,-2.37984798,0.48334645,-2.39294418\H,0,-0.
 48702319,-2.59557321,2.64077566\H,0,-0.02159056,-1.02479272,3.32945825
 \H,0,1.14524493,-1.96319263,2.3587364\H,0,1.77299733,-0.09980445,-1.05

 Normal termination of Gaussian 16 at Wed Apr  9 17:42:41 2025.
