 Gaussian 16, Revision C.01,

 ----------------------------------------------------------------------
 #t hf aug-cc-pvdz symm=none int=(grid=ultrafine) guess=(read,tcheck) s
 table=(opt,rrhf)
 ----------------------------------------------------------------------
 -----
 title
 -----
 Symbolic Z-matrix:
 Charge =  0 Multiplicity = 1

 SCF Done:  E(RHF) =  -952.379356712     A.U. after   12 cycles

 1\1\GINC-SE340\Stability\RHF\Aug-CC-pVDZ\C4H10S2\OHZDE\09-Apr-2025\0\\
 #t hf aug-cc-pvdz symm=none int=(grid=ultrafine) guess=(read,tcheck) s
 table=(opt,rrhf)\\title\\0,1\H,0,1.25927999,1.11406487,-0.28265552\H,0
 ,2.28279017,2.73418341,-0.67577847\S,0,1.07110419,2.4516331,-0.1764195
 4\H,0,0.24231255,-0.03585532,1.78740052\H,0,0.15249379,-1.77906904,2.0
 6840922\H,0,-2.15048882,-0.42429007,1.8794016\H,0,-1.16790148,-1.74746
 115,-1.67609646\H,0,-2.0031093,-1.94251593,0.99709502\H,0,-0.4636538,-
 0.161659,-2.01962025\H,0,-2.77593527,-0.26826703,-0.64578193\H,0,-1.52

 Normal termination of Gaussian 16 at Wed Apr  9 17:50:55 2025.
 Gaussian 16:  ES64L-G16RevC.01  3-Jul-2019

 ----------------------------------------------------------------------
 #t hf aug-cc-pvdz iop(5/13=1,5/36=2,99/5=2) pseudo=read geom=check gue
 ss=(read,tcheck) scf=(maxcycle=1)
 ----------------------------------------------------------------------
 -----
 title
 -----
 Structure from the checkpoint file:  "HB300SPXx10_1235_4.28_1.00_sulfane_tetrahydrothiophene_dimer_mol1.chk"
 Charge =  0 Multiplicity = 1

                         Standard orientation:
 ---------------------------------------------------------------------
 Center     Atomic      Atomic             Coordinates (Angstroms)
 Number     Number       Type             X           Y           Z
 ---------------------------------------------------------------------
      1          1           0       -1.650490   -0.577134   -0.008172
      2          1           0       -3.599683   -0.679990    0.122096
      3         16           0       -2.694564    0.279345   -0.118348
      4          1           0        0.105786    0.017959   -1.797873
      5          1           0        1.685614   -0.749849   -1.998971
      6          1           0        1.632839    1.860892   -1.402206
      7          1           0        1.830623   -0.192696    1.929683
      8          1           0        2.753055    0.827399   -0.517784
      9          1           0        0.074896   -0.034991    2.075609
     10          1           0        1.483949    2.080760    1.190393
     11          1           0       -0.033435    1.669119    0.403476
     12         16           0        0.692019   -1.333001    0.125659
     13          6           0        1.042357   -0.224733   -1.298317
     14          6           0        1.696762    1.022130   -0.708890
     15          6           0        0.976709    1.312460    0.606993
     16          6           0        0.910434   -0.003686    1.381343
 ---------------------------------------------------------------------

 SCF Done:  E(RHF) =  -952.467764680     A.U. after    2 cycles

 The electronic state is 1-A.
 Alpha  occ. eigenvalues --  -93.53363 -93.52404 -11.26732 -11.26713 -11.24572
 Alpha  occ. eigenvalues --  -11.24489  -8.83169  -8.82185  -6.17377  -6.17151
 Alpha  occ. eigenvalues --   -6.16791  -6.16313  -6.16156  -6.15884  -1.12079
 Alpha  occ. eigenvalues --   -0.98636  -0.96495  -0.95392  -0.79995  -0.78461
 Alpha  occ. eigenvalues --   -0.66631  -0.64554  -0.60830  -0.58059  -0.55226
 Alpha  occ. eigenvalues --   -0.51321  -0.50011  -0.49042  -0.48290  -0.48179
 Alpha  occ. eigenvalues --   -0.42607  -0.37133  -0.33712
 Alpha virt. eigenvalues --    0.03365   0.04502   0.04554   0.04956   0.06153
 Alpha virt. eigenvalues --    0.06691   0.07239   0.07957   0.08327   0.09071
 Alpha virt. eigenvalues --    0.11624   0.12698   0.13025   0.14398   0.14561

 Mulliken charges:
               1
     1  H    0.055316
     2  H   -0.044591
     3  S    0.010241
     4  H   -0.194033
     5  H   -0.072673
     6  H   -0.071256
     7  H   -0.128751
     8  H   -0.151270
     9  H   -0.124471
    10  H   -0.058228
    11  H   -0.226950
    12  S    0.333189
    13  C    0.110508
    14  C    0.221264
    15  C    0.216146
    16  C    0.125560
 Sum of Mulliken charges =  -0.00000

 Dipole moment (field-independent basis, Debye):
    X=              1.2237    Y=              0.9818    Z=              0.0967  Tot=              1.5719

 Test job not archived.
 1\1\GINC-SE340\SP\RHF\Aug-CC-pVDZ\C4H10S2\OHZDE\09-Apr-2025\0\\#t hf a
 ug-cc-pvdz iop(5/13=1,5/36=2,99/5=2) pseudo=read geom=check guess=(rea
 d,tcheck) scf=(maxcycle=1)\\title\\0,1\H,0,1.25927999,1.11406487,-0.28
 265552\H,0,2.28279017,2.73418341,-0.67577847\S,0,1.07110419,2.4516331,
 -0.17641954\H,0,0.24231255,-0.03585532,1.78740052\H,0,0.15249379,-1.77
 906904,2.06840922\H,0,-2.15048882,-0.42429007,1.8794016\H,0,-1.1679014
 8,-1.74746115,-1.67609646\H,0,-2.0031093,-1.94251593,0.99709502\H,0,-0
 .4636538,-0.161659,-2.01962025\H,0,-2.77593527,-0.26826703,-0.64578193

 Normal termination of Gaussian 16 at Wed Apr  9 17:51:00 2025.
