 Gaussian 16, Revision C.01,

 ----------------------------------------------------------------------
 #t hf aug-cc-pvdz symm=none int=(grid=ultrafine) guess=(read,tcheck) s
 table=(opt,rrhf)
 ----------------------------------------------------------------------
 -----
 title
 -----
 Symbolic Z-matrix:
 Charge =  0 Multiplicity = 1

 SCF Done:  E(RHF) =  -1334.38143839     A.U. after   13 cycles
 Normal termination of Gaussian 16 at Wed Apr  9 17:52:17 2025.
 Gaussian 16:  ES64L-G16RevC.01  3-Jul-2019

 ----------------------------------------------------------------------
 #t hf aug-cc-pvdz iop(5/13=1,5/36=2,99/5=2) pseudo=read geom=check gue
 ss=(read,tcheck) scf=(maxcycle=1)
 ----------------------------------------------------------------------
 -----
 title
 -----
 Structure from the checkpoint file:  "HB300SPXx10_1311_4.36_0.80_hydrogenchloride_dimethyldisulfide_dimer_mol1.chk"
 Charge =  0 Multiplicity = 1

                         Standard orientation:
 ---------------------------------------------------------------------
 Center     Atomic      Atomic             Coordinates (Angstroms)
 Number     Number       Type             X           Y           Z
 ---------------------------------------------------------------------
      1          1           0       -1.484257   -0.185541    0.399754
      2         17           0       -2.622680   -0.588103   -0.096982
      3          1           0        3.518151   -1.072888   -0.526981
      4          1           0        3.181045   -0.138855    0.946090
      5          1           0        3.035767    0.627754   -0.659440
      6          1           0       -0.750194    1.323473   -1.414043
      7          1           0        0.728292    2.226863   -0.976546
      8          1           0       -0.809786    2.588868   -0.167140
      9          6           0        2.900228   -0.288597   -0.092029
     10         16           0        1.184408   -0.883855   -0.209223
     11         16           0        0.126189    0.605747    0.724995
     12          6           0       -0.200730    1.801566   -0.608862
 ---------------------------------------------------------------------

 SCF Done:  E(RHF) =  -1334.47145986     A.U. after    2 cycles

 The electronic state is 1-A.
 Alpha  occ. eigenvalues -- -103.62311 -93.58018 -93.57239 -11.28529 -11.28509
 Alpha  occ. eigenvalues --  -10.65790  -8.87798  -8.86876  -8.31525  -8.31253
 Alpha  occ. eigenvalues --   -8.31250  -6.21919  -6.21649  -6.21500  -6.21005
 Alpha  occ. eigenvalues --   -6.20726  -6.20397  -1.12588  -1.09107  -1.02119
 Alpha  occ. eigenvalues --   -0.92033  -0.80315  -0.64949  -0.62636  -0.61673
 Alpha  occ. eigenvalues --   -0.60071  -0.59285  -0.54899  -0.50970  -0.45448
 Alpha  occ. eigenvalues --   -0.44910  -0.44840  -0.37743  -0.36967
 Alpha virt. eigenvalues --    0.02946   0.04082   0.05078   0.05556   0.06732
 Alpha virt. eigenvalues --    0.07256   0.07979   0.08673   0.09852   0.11879
 Alpha virt. eigenvalues --    0.12817   0.14008   0.14123   0.14287   0.15129

 Mulliken charges:
               1
     1  H    0.453262
     2  Cl  -0.247638
     3  H   -0.072684
     4  H   -0.027391
     5  H   -0.075945
     6  H   -0.115743
     7  H   -0.109038
     8  H   -0.058271
     9  C    0.069117
    10  S    0.228422
    11  S   -0.321336
    12  C    0.277246
 Sum of Mulliken charges =  -0.00000

 Dipole moment (field-independent basis, Debye):
    X=              4.2940    Y=              2.4872    Z=             -0.4910  Tot=              4.9866

 Test job not archived.
 1\1\GINC-SE131\SP\RHF\Aug-CC-pVDZ\C2H7Cl1S2\OHZDE\09-Apr-2025\0\\#t hf
  aug-cc-pvdz iop(5/13=1,5/36=2,99/5=2) pseudo=read geom=check guess=(r
 ead,tcheck) scf=(maxcycle=1)\\title\\0,1\H,0,-0.26068265,0.62653872,-1
 .61580209\Cl,0,0.10581098,1.51670262,-2.49790267\H,0,1.93699099,-1.798
 77285,2.37899437\H,0,0.3386524,-2.41736872,1.91139591\H,0,0.48386582,-
 0.87071252,2.7907656\H,0,-0.45925239,2.07398723,0.37700918\H,0,-1.1487
 0239,1.19900195,1.77432687\H,0,-2.16587444,1.57707249,0.36923164\C,0,0
 .93693428,-1.52169194,2.04848456\S,0,1.15856779,-0.65394795,0.46418564

 Normal termination of Gaussian 16 at Wed Apr  9 17:52:21 2025.
