 Gaussian 16, Revision C.01,

 ----------------------------------------------------------------------
 #t hf aug-cc-pvdz symm=none int=(grid=ultrafine) guess=(read,tcheck) s
 table=(opt,rrhf)
 ----------------------------------------------------------------------
 -----
 title
 -----
 Symbolic Z-matrix:
 Charge =  0 Multiplicity = 1

 SCF Done:  E(RHF) =  -1166.70023176     A.U. after   13 cycles
 Normal termination of Gaussian 16 at Wed Apr  9 17:55:43 2025.
 Gaussian 16:  ES64L-G16RevC.01  3-Jul-2019

 ----------------------------------------------------------------------
 #t hf aug-cc-pvdz iop(5/13=1,5/36=2,99/5=2) pseudo=read geom=check gue
 ss=(read,tcheck) scf=(maxcycle=1)
 ----------------------------------------------------------------------
 -----
 title
 -----
 Structure from the checkpoint file:  "HB300SPXx10_1400_5.02_2.00_dimethylsulfone_phosphineF2_dimer_mol1.chk"
 Charge =  0 Multiplicity = 1

                         Standard orientation:
 ---------------------------------------------------------------------
 Center     Atomic      Atomic             Coordinates (Angstroms)
 Number     Number       Type             X           Y           Z
 ---------------------------------------------------------------------
      1          1           0        2.957860    0.649609    2.098503
      2          1           0        1.934911   -0.810203    2.059699
      3          1           0        1.229722    0.769676    1.621084
      4          1           0        1.882921    1.992441   -0.734944
      5          1           0        3.081396    1.264180   -1.839966
      6          1           0        3.622991    1.937771   -0.281550
      7          8           0        3.834289   -0.877309   -0.097586
      8         16           0        2.574443   -0.181489   -0.088756
      9          8           0        1.430640   -0.786805   -0.738756
     10          6           0        2.126167    0.157555    1.602895
     11          6           0        2.812159    1.434890   -0.800531
     12         15           0       -3.579938   -0.504818    0.042076
     13          9           0       -5.030838    0.111784   -0.259430
     14          9           0       -2.833217    0.887511    0.377452
     15          1           0       -3.174722   -0.562780   -1.319514
 ---------------------------------------------------------------------

 SCF Done:  E(RHF) =  -1166.96134224     A.U. after    2 cycles

 The electronic state is 1-A.
 Alpha  occ. eigenvalues --  -93.78111 -81.40249 -26.14242 -26.14153 -20.55474
 Alpha  occ. eigenvalues --  -20.55334 -11.28974 -11.28955  -9.04944  -7.88984
 Alpha  occ. eigenvalues --   -6.39603  -6.39374  -6.39289  -5.03085  -5.02816
 Alpha  occ. eigenvalues --   -5.02335  -1.67703  -1.66166  -1.42372  -1.30525
 Alpha  occ. eigenvalues --   -1.06860  -1.00998  -0.90323  -0.81660  -0.79608
 Alpha  occ. eigenvalues --   -0.78121  -0.77286  -0.74065  -0.71333  -0.69877
 Alpha  occ. eigenvalues --   -0.68850  -0.67913  -0.62543  -0.62454  -0.62388
 Alpha  occ. eigenvalues --   -0.60993  -0.58827  -0.51675  -0.51536  -0.48985
 Alpha  occ. eigenvalues --   -0.45751  -0.41401
 Alpha virt. eigenvalues --    0.02675   0.04264   0.04566   0.05298   0.05519
 Alpha virt. eigenvalues --    0.06701   0.06919   0.07438   0.07583   0.09847
 Alpha virt. eigenvalues --    0.10203   0.12493   0.13856   0.13958   0.14737

 Mulliken charges:
               1
     1  H   -0.010471
     2  H    0.039490
     3  H   -0.008370
     4  H    0.000809
     5  H    0.040973
     6  H    0.005431
     7  O   -1.068970
     8  S    2.011172
     9  O   -1.092400
    10  C    0.040589
    11  C    0.040812
    12  P    1.226110
    13  F   -0.608101
    14  F   -0.624724
    15  H    0.007651
 Sum of Mulliken charges =  -0.00000

 Dipole moment (field-independent basis, Debye):
    X=              0.4610    Y=              3.0274    Z=              1.6668  Tot=              3.4865

 Test job not archived.
 1\1\GINC-SE226\SP\RHF\Aug-CC-pVDZ\C2H7F2O2P1S1\OHZDE\09-Apr-2025\0\\#t
  hf aug-cc-pvdz iop(5/13=1,5/36=2,99/5=2) pseudo=read geom=check guess
 =(read,tcheck) scf=(maxcycle=1)\\title\\0,1\H,0,1.82037896,-1.1252997,
 2.45423408\H,0,2.45327614,-0.04590354,1.18406648\H,0,1.26048817,-1.302
 78481,0.75605091\H,0,-1.35656486,-1.06874241,1.510339\H,0,-1.8999986,0
 .31018714,2.5058364\H,0,-0.84910966,-0.93302114,3.2309401\O,0,0.704774
 22,1.412934,2.93921594\S,0,0.30796869,0.58975017,1.82729483\O,0,-0.016
 49706,1.22000253,0.56448154\C,0,1.58998555,-0.61149627,1.52558836\C,0,

 Normal termination of Gaussian 16 at Wed Apr  9 17:55:48 2025.
