 Gaussian 16, Revision C.01,

 ----------------------------------------------------------------------
 #t hf aug-cc-pvdz symm=none int=(grid=ultrafine) guess=(read,tcheck) s
 table=(opt,rrhf)
 ----------------------------------------------------------------------
 -----
 title
 -----
 Symbolic Z-matrix:
 Charge =  0 Multiplicity = 1

 SCF Done:  E(RHF) =  -858.792354138     A.U. after   11 cycles

 1\1\GINC-SE105\Stability\RHF\Aug-CC-pVDZ\Cl1H3S1\OHZDE\09-Apr-2025\0\\
 #t hf aug-cc-pvdz symm=none int=(grid=ultrafine) guess=(read,tcheck) s
 table=(opt,rrhf)\\title\\0,1\H,0,-0.07574771,0.51696812,0.\Cl,0,0.0020
 5903,1.81286821,0.\H,0,0.87050276,-1.93087184,0.97032462\H,0,0.8705027
 6,-1.93087184,-0.97032462\S,0,-0.05474435,-1.87735641,0.\\Version=ES64
 L-G16RevC.01\HF=-858.7923541\RMSD=3.194e-09\Dipole=0.4274991,-0.866825
 8,0.\Quadrupole=0.5129892,-1.9764073,1.4634181,-1.8248301,0.,0.\PG=Unk
 nown\\@

 Normal termination of Gaussian 16 at Wed Apr  9 04:10:20 2025.
 Gaussian 16:  ES64L-G16RevC.01  3-Jul-2019

 ----------------------------------------------------------------------
 #t hf aug-cc-pvdz iop(5/13=1,5/36=2,99/5=2) pseudo=read geom=check gue
 ss=(read,tcheck) scf=(maxcycle=1)
 ----------------------------------------------------------------------
 -----
 title
 -----
 Structure from the checkpoint file:  "HB300SPXx10_1355_4.40_1.00_hydrogenchloride_sulfane_dimer_mol1.chk"
 Charge =  0 Multiplicity = 1

                         Standard orientation:
 ---------------------------------------------------------------------
 Center     Atomic      Atomic             Coordinates (Angstroms)
 Number     Number       Type             X           Y           Z
 ---------------------------------------------------------------------
      1          1           0       -0.107687    0.586595    0.000000
      2         17           0       -0.049835    1.883539    0.000000
      3          1           0        0.876126   -1.846392    0.970325
      4          1           0        0.876126   -1.846392   -0.970325
      5         16           0       -0.049835   -1.807123   -0.000000
 ---------------------------------------------------------------------

 SCF Done:  E(RHF) =  -858.832702541     A.U. after    2 cycles

 The electronic state is 1-A'.
 Alpha  occ. eigenvalues -- -103.65662 -93.57272 -10.68932  -8.87040  -8.34683
 Alpha  occ. eigenvalues --   -8.34383  -8.34383  -6.21207  -6.21013  -6.20713
 Alpha  occ. eigenvalues --   -1.14136  -0.99298  -0.62210  -0.61069  -0.51931
 Alpha  occ. eigenvalues --   -0.47216  -0.47201  -0.40734
 Alpha virt. eigenvalues --    0.02958   0.05838   0.06716   0.10234   0.10531
 Alpha virt. eigenvalues --    0.12892   0.15413   0.15457   0.16213   0.16592
 Alpha virt. eigenvalues --    0.19320   0.20518   0.25057   0.26456   0.26744

 Mulliken charges:
               1
     1  H    0.184486
     2  Cl  -0.148138
     3  H    0.056294
     4  H    0.056294
     5  S   -0.148936
 Sum of Mulliken charges =  -0.00000

 Dipole moment (field-independent basis, Debye):
    X=              1.0586    Y=             -2.2123    Z=             -0.0000  Tot=              2.4526

 Test job not archived.
 1\1\GINC-SE105\SP\RHF\Aug-CC-pVDZ\Cl1H3S1\OHZDE\09-Apr-2025\0\\#t hf a
 ug-cc-pvdz iop(5/13=1,5/36=2,99/5=2) pseudo=read geom=check guess=(rea
 d,tcheck) scf=(maxcycle=1)\\title\\0,1\H,0,-0.07574771,0.51696812,0.\C
 l,0,0.00205903,1.81286821,0.\H,0,0.87050276,-1.93087184,0.97032462\H,0
 ,0.87050276,-1.93087184,-0.97032462\S,0,-0.05474435,-1.87735641,0.\\Ve
 rsion=ES64L-G16RevC.01\State=1-A'\HF=-858.8327025\RMSD=7.254e-03\Dipol
 e=0.403047,-0.8767105,0.\Quadrupole=0.5475964,-2.086566,1.5389696,-1.6
 414685,0.,0.\PG=CS [SG(Cl1H1S1),X(H2)]\\@

 Normal termination of Gaussian 16 at Wed Apr  9 04:10:21 2025.
