 Gaussian 16, Revision C.01,

 ----------------------------------------------------------------------
 #t hf aug-cc-pvdz symm=none int=(grid=ultrafine) guess=(read,tcheck) s
 table=(opt,rrhf)
 ----------------------------------------------------------------------
 -----
 title
 -----
 Symbolic Z-matrix:
 Charge =  0 Multiplicity = 1

 SCF Done:  E(RHF) =  -742.485361670     A.U. after   14 cycles
 Normal termination of Gaussian 16 at Wed Apr  9 17:41:15 2025.
 Gaussian 16:  ES64L-G16RevC.01  3-Jul-2019

 ----------------------------------------------------------------------
 #t hf aug-cc-pvdz iop(5/13=1,5/36=2,99/5=2) pseudo=read geom=check gue
 ss=(read,tcheck) scf=(maxcycle=1)
 ----------------------------------------------------------------------
 -----
 title
 -----
 Structure from the checkpoint file:  "HB300SPXx10_1135_4.17_1.00_aceticacid_thioacetone_dimer_mol1.chk"
 Charge =  0 Multiplicity = 1

                         Standard orientation:
 ---------------------------------------------------------------------
 Center     Atomic      Atomic             Coordinates (Angstroms)
 Number     Number       Type             X           Y           Z
 ---------------------------------------------------------------------
      1          6           0       -1.885506    1.604415    0.000000
      2          8           0       -2.186388    0.434257    0.000000
      3          8           0       -0.620692    2.042613    0.000000
      4          1           0        0.000000    1.278755    0.000000
      5          6           0       -2.871085    2.740717    0.000000
      6          1           0       -3.882709    2.350490    0.000000
      7          1           0       -2.711335    3.366623    0.876954
      8          1           0       -2.711335    3.366623   -0.876954
      9          1           0        3.472001   -2.342980    0.000000
     10          1           0        2.321550   -3.379107    0.874412
     11          1           0        2.321550   -3.379107   -0.874412
     12          1           0       -0.703357   -1.301822    0.000000
     13          1           0       -0.160434   -2.753507   -0.872921
     14          6           0        2.462254   -2.738899    0.000000
     15          6           0        1.430750   -1.653056    0.000000
     16         16           0        1.861584   -0.080093    0.000000
     17          6           0        0.011222   -2.117499    0.000000
     18          1           0       -0.160434   -2.753507    0.872921
 ---------------------------------------------------------------------

 SCF Done:  E(RHF) =  -742.616043555     A.U. after    2 cycles

 The electronic state is 1-A'.
 Alpha  occ. eigenvalues --  -93.51819 -20.60231 -20.55212 -11.39060 -11.34275
 Alpha  occ. eigenvalues --  -11.25801 -11.24590 -11.24508  -8.81817  -6.16001
 Alpha  occ. eigenvalues --   -6.15611  -6.15462  -1.40970  -1.31252  -1.11857
 Alpha  occ. eigenvalues --   -1.01234  -0.96851  -0.94932  -0.82489  -0.72484
 Alpha  occ. eigenvalues --   -0.70922  -0.68119  -0.64936  -0.62195  -0.62004
 Alpha  occ. eigenvalues --   -0.61311  -0.58109  -0.56724  -0.56239  -0.55564
 Alpha  occ. eigenvalues --   -0.53593  -0.50345  -0.48813  -0.45908  -0.39151
 Alpha  occ. eigenvalues --   -0.34896
 Alpha virt. eigenvalues --    0.03139   0.04127   0.04155   0.05210   0.06209
 Alpha virt. eigenvalues --    0.06222   0.06515   0.06563   0.07822   0.07909
 Alpha virt. eigenvalues --    0.09106   0.09765   0.12247   0.12914   0.13186

 Mulliken charges:
               1
     1  C    0.296314
     2  O   -0.465842
     3  O   -0.445376
     4  H    0.195117
     5  C    0.384807
     6  H   -0.045394
     7  H    0.039088
     8  H    0.039088
     9  H   -0.077414
    10  H    0.047499
    11  H    0.047499
    12  H   -0.446762
    13  H    0.137240
    14  C    0.380366
    15  C   -0.861369
    16  S    0.064346
    17  C    0.573551
    18  H    0.137240
 Sum of Mulliken charges =  -0.00000

 Dipole moment (field-independent basis, Debye):
    X=              0.1812    Y=             -1.8074    Z=             -0.0000  Tot=              1.8164

 Test job not archived.
 1\1\GINC-SE220\SP\RHF\Aug-CC-pVDZ\C5H10O2S1\OHZDE\09-Apr-2025\0\\#t hf
  aug-cc-pvdz iop(5/13=1,5/36=2,99/5=2) pseudo=read geom=check guess=(r
 ead,tcheck) scf=(maxcycle=1)\\title\\0,1\C,0,0.15920132,2.45664609,0.\
 O,0,1.21885316,1.87618237,0.\O,0,-1.02533188,1.83322707,0.\H,0,-0.8922
 641,0.85801947,0.\C,0,0.00380934,3.95277518,0.\H,0,0.98023034,4.424223
 4,0.\H,0,-0.56217465,4.2641268,-0.87695442\H,0,-0.56217465,4.2641268,0
 .87695442\H,0,-0.62305952,-4.15189936,0.\H,0,0.9196306,-4.02074254,-0.
 87441231\H,0,0.9196306,-4.02074254,0.87441231\H,0,1.47183186,-0.393036

 Normal termination of Gaussian 16 at Wed Apr  9 17:41:21 2025.
