 Gaussian 16, Revision C.01,

 ----------------------------------------------------------------------
 #t hf aug-cc-pvdz symm=none int=(grid=ultrafine) guess=(read,tcheck) s
 table=(opt,rrhf)
 ----------------------------------------------------------------------
 -----
 title
 -----
 Symbolic Z-matrix:
 Charge =  0 Multiplicity = 1

 SCF Done:  E(RHF) =  -571.978456182     A.U. after   12 cycles
 Normal termination of Gaussian 16 at Wed Apr  9 17:53:32 2025.
 Gaussian 16:  ES64L-G16RevC.01  3-Jul-2019

 ----------------------------------------------------------------------
 #t hf aug-cc-pvdz iop(5/13=1,5/36=2,99/5=2) pseudo=read geom=check gue
 ss=(read,tcheck) scf=(maxcycle=1)
 ----------------------------------------------------------------------
 -----
 title
 -----
 Structure from the checkpoint file:  "HB300SPXx10_131_1.14_0.80_sulfane_trimethylamine_dimer_mol1.chk"
 Charge =  0 Multiplicity = 1

                         Standard orientation:
 ---------------------------------------------------------------------
 Center     Atomic      Atomic             Coordinates (Angstroms)
 Number     Number       Type             X           Y           Z
 ---------------------------------------------------------------------
      1          1           0       -0.812204    0.025682    0.000000
      2          1           0       -2.437475   -1.083784    0.000000
      3         16           0       -2.167800    0.229421    0.000000
      4          1           0        2.270063   -0.821566    1.303193
      5          1           0        0.775182   -0.261516    2.080506
      6          1           0        0.786632   -1.789388    1.197590
      7          1           0        0.786632   -1.789388   -1.197590
      8          1           0        2.270063   -0.821566   -1.303193
      9          1           0        0.775182   -0.261516   -2.080506
     10          1           0        2.269850    1.423483    0.000000
     11          1           0        0.781059    1.815693   -0.882789
     12          6           0        1.174871   -0.772051    1.205875
     13          7           0        0.755866   -0.077573    0.000000
     14          6           0        1.174871   -0.772051   -1.205875
     15          6           0        1.174871    1.314175    0.000000
     16          1           0        0.781059    1.815693    0.882789
 ---------------------------------------------------------------------

 SCF Done:  E(RHF) =  -572.057008477     A.U. after    2 cycles

 The electronic state is 1-A'.
 Alpha  occ. eigenvalues --  -93.48661 -15.64151 -11.27088 -11.27086 -11.27066
 Alpha  occ. eigenvalues --   -8.78695  -6.12911  -6.12706  -6.12364  -1.22664
 Alpha  occ. eigenvalues --   -0.97225  -0.97196  -0.92419  -0.82405  -0.68579
 Alpha  occ. eigenvalues --   -0.65556  -0.65526  -0.56955  -0.56879  -0.54367
 Alpha  occ. eigenvalues --   -0.53993  -0.52749  -0.52722  -0.46561  -0.34958
 Alpha  occ. eigenvalues --   -0.33787
 Alpha virt. eigenvalues --    0.02907   0.04211   0.04416   0.04945   0.06983
 Alpha virt. eigenvalues --    0.07182   0.07282   0.07547   0.07814   0.09317
 Alpha virt. eigenvalues --    0.10325   0.12733   0.13490   0.14353   0.14465

 Mulliken charges:
               1
     1  H    0.215695
     2  H   -0.043537
     3  S   -0.017786
     4  H   -0.088904
     5  H   -0.173488
     6  H   -0.181897
     7  H   -0.181897
     8  H   -0.088904
     9  H   -0.173488
    10  H   -0.119830
    11  H   -0.167414
    12  C    0.827381
    13  N   -1.228665
    14  C    0.827381
    15  C    0.762767
    16  H   -0.167414
 Sum of Mulliken charges =  -0.00000

 Dipole moment (field-independent basis, Debye):
    X=              3.9168    Y=             -0.9706    Z=             -0.0000  Tot=              4.0352

 Test job not archived.
 1\1\GINC-SE135\SP\RHF\Aug-CC-pVDZ\C3H11N1S1\OHZDE\09-Apr-2025\0\\#t hf
  aug-cc-pvdz iop(5/13=1,5/36=2,99/5=2) pseudo=read geom=check guess=(r
 ead,tcheck) scf=(maxcycle=1)\\title\\0,1\H,0,0.06719299,0.97177334,0.\
 H,0,1.32304535,2.48678341,0.\S,0,-0.00955285,2.34044335,0.\H,0,0.62402
 625,-2.17594602,-1.30319342\H,0,0.20547231,-0.63544708,-2.08050641\H,0
 ,1.72565356,-0.788984,-1.19759028\H,0,1.72565356,-0.788984,1.19759028\
 H,0,0.62402625,-2.17594602,1.30319342\H,0,0.20547231,-0.63544708,2.080
 50641\H,0,-1.61126723,-1.96687959,0.\H,0,-1.86327527,-0.44805722,0.882

 Normal termination of Gaussian 16 at Wed Apr  9 17:53:36 2025.
