 Gaussian 16, Revision C.01,

 ----------------------------------------------------------------------
 #t hf aug-cc-pvdz symm=none int=(grid=ultrafine) guess=(read,tcheck) s
 table=(opt,rrhf)
 ----------------------------------------------------------------------
 -----
 title
 -----
 Symbolic Z-matrix:
 Charge =  0 Multiplicity = 1

 SCF Done:  E(RHF) =  -952.355361226     A.U. after   15 cycles

 1\1\GINC-SE173\Stability\RHF\Aug-CC-pVDZ\C4H10S2\OHZDE\09-Apr-2025\0\\
 #t hf aug-cc-pvdz symm=none int=(grid=ultrafine) guess=(read,tcheck) s
 table=(opt,rrhf)\\title\\0,1\H,0,1.94048627,-0.28311522,0.30003006\H,0
 ,2.70886397,-1.74966836,-0.33633756\H,0,2.5169729,-1.54996222,1.410513
 58\H,0,-0.19256655,-1.5118813,1.21090974\C,0,2.06439688,-1.35234501,0.
 4434425\S,0,0.46794236,-2.21627191,0.2804649\H,0,-2.45144605,0.3832328
 1,0.29022855\H,0,-2.50941053,0.83970845,-1.42594063\H,0,-1.86753934,-0
 .72697469,-0.97246751\H,0,1.1941753,1.31538632,-1.76505845\H,0,0.41763

 Normal termination of Gaussian 16 at Wed Apr  9 17:20:40 2025.
 Gaussian 16:  ES64L-G16RevC.01  3-Jul-2019

 ----------------------------------------------------------------------
 #t hf aug-cc-pvdz iop(5/13=1,5/36=2,99/5=2) pseudo=read geom=check gue
 ss=(read,tcheck) scf=(maxcycle=1)
 ----------------------------------------------------------------------
 -----
 title
 -----
 Structure from the checkpoint file:  "HB300SPXx10_1023_4.06_0.90_methanethiol_thioacetone_dimer_mol1.chk"
 Charge =  0 Multiplicity = 1

                         Standard orientation:
 ---------------------------------------------------------------------
 Center     Atomic      Atomic             Coordinates (Angstroms)
 Number     Number       Type             X           Y           Z
 ---------------------------------------------------------------------
      1          1           0        1.070029   -1.360592    0.669317
      2          1           0        2.561308   -0.810210    1.456282
      3          1           0        2.653773   -1.693798   -0.073069
      4          1           0        1.286196    0.247192   -1.394123
      5          6           0        2.072217   -0.978183    0.500334
      6         16           0        2.014793    0.638727   -0.338655
      7          1           0       -1.599734    1.314824   -1.664714
      8          1           0       -2.366168    2.020697   -0.225517
      9          1           0       -0.628374    2.138444   -0.421324
     10          1           0       -1.072215   -0.579943    2.145175
     11          1           0       -0.162402    0.906039    1.793617
     12          6           0       -1.487942    1.488396   -0.599941
     13          6           0       -1.310197    0.209348    0.157937
     14         16           0       -1.319145   -1.247817   -0.566568
     15          6           0       -1.103934    0.374802    1.631451
     16          1           0       -1.893651    0.996615    2.059234
 ---------------------------------------------------------------------

 SCF Done:  E(RHF) =  -952.445318401     A.U. after    2 cycles

 The electronic state is 1-A.
 Alpha  occ. eigenvalues --  -93.53301 -93.50739 -11.33484 -11.26319 -11.25041
 Alpha  occ. eigenvalues --  -11.24951  -8.83072  -8.80705  -6.17253  -6.17028
 Alpha  occ. eigenvalues --   -6.16733  -6.14890  -6.14568  -6.14291  -1.11285
 Alpha  occ. eigenvalues --   -1.02564  -0.96585  -0.94251  -0.86009  -0.71956
 Alpha  occ. eigenvalues --   -0.62553  -0.61406  -0.61239  -0.60712  -0.58850
 Alpha  occ. eigenvalues --   -0.56150  -0.53324  -0.52699  -0.49607  -0.45727
 Alpha  occ. eigenvalues --   -0.38276  -0.35711  -0.33305
 Alpha virt. eigenvalues --    0.03236   0.04136   0.04572   0.05204   0.06128
 Alpha virt. eigenvalues --    0.06345   0.06897   0.07302   0.08085   0.08845
 Alpha virt. eigenvalues --    0.09421   0.10350   0.11684   0.12232   0.13294

 Mulliken charges:
               1
     1  H   -0.191604
     2  H   -0.083981
     3  H   -0.147762
     4  H    0.123273
     5  C    0.242712
     6  S    0.079582
     7  H   -0.072942
     8  H    0.039571
     9  H    0.011968
    10  H   -0.104411
    11  H    0.087257
    12  C    0.388417
    13  C   -0.826834
    14  S   -0.022718
    15  C    0.512213
    16  H   -0.034740
 Sum of Mulliken charges =  -0.00000

 Dipole moment (field-independent basis, Debye):
    X=             -0.3231    Y=              1.3878    Z=              1.6023  Tot=              2.1443

 Test job not archived.
 1\1\GINC-SE173\SP\RHF\Aug-CC-pVDZ\C4H10S2\OHZDE\09-Apr-2025\0\\#t hf a
 ug-cc-pvdz iop(5/13=1,5/36=2,99/5=2) pseudo=read geom=check guess=(rea
 d,tcheck) scf=(maxcycle=1)\\title\\0,1\H,0,1.94048627,-0.28311522,0.30
 003006\H,0,2.70886397,-1.74966836,-0.33633756\H,0,2.5169729,-1.5499622
 2,1.41051358\H,0,-0.19256655,-1.5118813,1.21090974\C,0,2.06439688,-1.3
 5234501,0.4434425\S,0,0.46794236,-2.21627191,0.2804649\H,0,-2.45144605
 ,0.38323281,0.29022855\H,0,-2.50941053,0.83970845,-1.42594063\H,0,-1.8
 6753934,-0.72697469,-0.97246751\H,0,1.1941753,1.31538632,-1.76505845\H

 Normal termination of Gaussian 16 at Wed Apr  9 17:20:46 2025.
