 Gaussian 16, Revision C.01,

 ----------------------------------------------------------------------
 #t hf aug-cc-pvdz symm=none int=(grid=ultrafine) guess=(read,tcheck) s
 table=(opt,rrhf)
 ----------------------------------------------------------------------
 -----
 title
 -----
 Symbolic Z-matrix:
 Charge =  0 Multiplicity = 1

 SCF Done:  E(RHF) =  -609.887650416     A.U. after   13 cycles
 Normal termination of Gaussian 16 at Wed Apr  9 17:26:40 2025.
 Gaussian 16:  ES64L-G16RevC.01  3-Jul-2019

 ----------------------------------------------------------------------
 #t hf aug-cc-pvdz iop(5/13=1,5/36=2,99/5=2) pseudo=read geom=check gue
 ss=(read,tcheck) scf=(maxcycle=1)
 ----------------------------------------------------------------------
 -----
 title
 -----
 Structure from the checkpoint file:  "HB300SPXx10_1054_4.09_0.95_ammonia_tetrahydrothiophene_dimer_mol1.chk"
 Charge =  0 Multiplicity = 1

                         Standard orientation:
 ---------------------------------------------------------------------
 Center     Atomic      Atomic             Coordinates (Angstroms)
 Number     Number       Type             X           Y           Z
 ---------------------------------------------------------------------
      1          7           0       -2.695816    0.537207   -0.234012
      2          1           0       -2.100788   -0.275132   -0.094805
      3          1           0       -3.380436    0.539564    0.511688
      4          1           0       -3.204051    0.394127   -1.097715
      5          1           0        1.357653   -0.208803    1.952128
      6          1           0       -0.378986    0.097358    2.072186
      7          1           0        1.188315    2.061219    1.125948
      8          1           0       -0.263208   -0.004970   -1.815981
      9          1           0       -0.339812    1.713239    0.308625
     10          1           0        1.250476   -0.914449   -1.934915
     11          1           0        1.394481    1.716105   -1.446366
     12          1           0        2.403487    0.633436   -0.488794
     13         16           0        0.144779   -1.321165    0.177881
     14          6           0        0.460902    0.033360    1.385294
     15          6           0        0.639302    1.307465    0.560916
     16          6           0        1.371693    0.905035   -0.718192
     17          6           0        0.632621   -0.308110   -1.278021
 ---------------------------------------------------------------------

 SCF Done:  E(RHF) =  -609.975422985     A.U. after    2 cycles

 The electronic state is 1-A.
 Alpha  occ. eigenvalues --  -93.51612 -15.59587 -11.26030 -11.25986 -11.23733
 Alpha  occ. eigenvalues --  -11.23150  -8.81396  -6.15528  -6.15370  -6.15093
 Alpha  occ. eigenvalues --   -1.11298  -1.09840  -0.97781  -0.95425  -0.79044
 Alpha  occ. eigenvalues --   -0.77702  -0.65923  -0.63684  -0.61928  -0.61640
 Alpha  occ. eigenvalues --   -0.59865  -0.54534  -0.50471  -0.49031  -0.47946
 Alpha  occ. eigenvalues --   -0.47425  -0.41992  -0.41116  -0.33151
 Alpha virt. eigenvalues --    0.03495   0.04309   0.04379   0.05193   0.06247
 Alpha virt. eigenvalues --    0.06282   0.06948   0.07505   0.08388   0.09156
 Alpha virt. eigenvalues --    0.09538   0.11694   0.13235   0.14699   0.14717

 Mulliken charges:
               1
     1  N   -0.194884
     2  H    0.090469
     3  H    0.053608
     4  H    0.060849
     5  H   -0.147477
     6  H   -0.149518
     7  H   -0.065123
     8  H   -0.169616
     9  H   -0.187798
    10  H   -0.085976
    11  H   -0.090359
    12  H   -0.163403
    13  S    0.318074
    14  C    0.074077
    15  C    0.347414
    16  C    0.187269
    17  C    0.122394
 Sum of Mulliken charges =  -0.00000

 Dipole moment (field-independent basis, Debye):
    X=             -0.0088    Y=              0.9110    Z=             -0.1981  Tot=              0.9324

 Test job not archived.
 1\1\GINC-SE454\SP\RHF\Aug-CC-pVDZ\C4H11N1S1\OHZDE\09-Apr-2025\0\\#t hf
  aug-cc-pvdz iop(5/13=1,5/36=2,99/5=2) pseudo=read geom=check guess=(r
 ead,tcheck) scf=(maxcycle=1)\\title\\0,1\N,0,-1.82627315,2.2398073,0.1
 9813908\H,0,-1.3275361,1.71497926,-0.51540753\H,0,-2.80551666,2.240204
 76,-0.05849198\H,0,-1.50884454,3.19950412,0.14356214\H,0,-0.53305589,-
 2.21774338,-0.27533523\H,0,-1.83470691,-1.02212079,-0.29122069\H,0,-0.
 63737524,-1.55611192,2.05181131\H,0,1.0308698,1.52177658,0.38610868\H,
 0,-0.96884149,0.12572158,1.62071236\H,0,2.33992026,0.49542827,-0.21848

 Normal termination of Gaussian 16 at Wed Apr  9 17:26:46 2025.
