 Gaussian 16, Revision C.01,

 ----------------------------------------------------------------------
 #t hf aug-cc-pvdz symm=none int=(grid=ultrafine) guess=(read,tcheck) s
 table=(opt,rrhf)
 ----------------------------------------------------------------------
 -----
 title
 -----
 Symbolic Z-matrix:
 Charge =  0 Multiplicity = 1

 SCF Done:  E(RHF) =  -991.412681883     A.U. after   12 cycles

 1\1\GINC-SE162\Stability\RHF\Aug-CC-pVDZ\C5H12S2\OHZDE\09-Apr-2025\0\\
 #t hf aug-cc-pvdz symm=none int=(grid=ultrafine) guess=(read,tcheck) s
 table=(opt,rrhf)\\title\\0,1\H,0,2.75511322,-2.75302781,-0.03281769\H,
 0,2.23328443,-3.6609344,1.39160682\H,0,2.88304587,-2.02859561,1.588775
 53\H,0,0.87227038,-0.86572365,0.25189781\C,0,2.28978938,-2.67174858,0.
 94522466\S,0,0.57786237,-2.06107277,0.80693494\H,0,-0.68542348,-0.2801
 7217,-1.76044686\H,0,-0.78033672,1.19034949,-2.73980195\H,0,-2.9229300
 3,0.52439478,-1.27918278\H,0,-0.63645136,2.89319328,0.85362125\H,0,-2.

 Normal termination of Gaussian 16 at Wed Apr  9 17:49:01 2025.
 Gaussian 16:  ES64L-G16RevC.01  3-Jul-2019

 ----------------------------------------------------------------------
 #t hf aug-cc-pvdz iop(5/13=1,5/36=2,99/5=2) pseudo=read geom=check gue
 ss=(read,tcheck) scf=(maxcycle=1)
 ----------------------------------------------------------------------
 -----
 title
 -----
 Structure from the checkpoint file:  "HB300SPXx10_1206_4.25_1.05_methanethiol_tetrahydrothiophene_dimer_mol1.chk"
 Charge =  0 Multiplicity = 1

                         Standard orientation:
 ---------------------------------------------------------------------
 Center     Atomic      Atomic             Coordinates (Angstroms)
 Number     Number       Type             X           Y           Z
 ---------------------------------------------------------------------
      1          1           0        3.699902    1.163155   -0.818287
      2          1           0        4.583568   -0.156983   -0.042430
      3          1           0        3.685208    0.994161    0.954270
      4          1           0        1.299676    0.267670   -0.027656
      5          6           0        3.690013    0.459346    0.008910
      6         16           0        2.265859   -0.672065   -0.111253
      7          1           0       -0.595440   -0.078595   -1.790452
      8          1           0       -2.113777    0.800065   -2.021072
      9          1           0       -2.259973   -1.790104   -1.359816
     10          1           0       -2.297001    0.349089    1.928120
     11          1           0       -3.299545   -0.653842   -0.502662
     12          1           0       -0.556927    0.063403    2.069739
     13          1           0       -2.129431   -1.957910    1.237727
     14          1           0       -0.585221   -1.683307    0.443071
     15         16           0       -1.088096    1.361639    0.093779
     16          6           0       -1.513573    0.246694   -1.304017
     17          6           0       -2.260903   -0.932477   -0.686855
     18          6           0       -1.564690   -1.245237    0.636705
     19          6           0       -1.396722    0.080011    1.380097
 ---------------------------------------------------------------------

 SCF Done:  E(RHF) =  -991.515097557     A.U. after    2 cycles

 The electronic state is 1-A.
 Alpha  occ. eigenvalues --  -93.52413 -93.51972 -11.26369 -11.26345 -11.26285
 Alpha  occ. eigenvalues --  -11.24234 -11.24138  -8.82182  -8.81743  -6.16360
 Alpha  occ. eigenvalues --   -6.16141  -6.15874  -6.15802  -6.15716  -6.15432
 Alpha  occ. eigenvalues --   -1.11688  -1.01943  -0.98268  -0.95959  -0.85386
 Alpha  occ. eigenvalues --   -0.79615  -0.78047  -0.66186  -0.64170  -0.60473
 Alpha  occ. eigenvalues --   -0.60273  -0.58875  -0.55367  -0.52152  -0.50954
 Alpha  occ. eigenvalues --   -0.49649  -0.48379  -0.47829  -0.44970  -0.42198
 Alpha  occ. eigenvalues --   -0.34823  -0.33305
 Alpha virt. eigenvalues --    0.03405   0.03922   0.04606   0.05004   0.05809
 Alpha virt. eigenvalues --    0.06209   0.06462   0.06883   0.08146   0.08361
 Alpha virt. eigenvalues --    0.08679   0.09613   0.11835   0.12873   0.13484

 Mulliken charges:
               1
     1  H   -0.104796
     2  H   -0.099630
     3  H   -0.109671
     4  H    0.106616
     5  C    0.000581
     6  S    0.197062
     7  H   -0.180722
     8  H   -0.081147
     9  H   -0.077797
    10  H   -0.132553
    11  H   -0.155643
    12  H   -0.135435
    13  H   -0.059652
    14  H   -0.218772
    15  S    0.346870
    16  C    0.122739
    17  C    0.193024
    18  C    0.271446
    19  C    0.117481
 Sum of Mulliken charges =  -0.00000

 Dipole moment (field-independent basis, Debye):
    X=             -0.3813    Y=             -0.5167    Z=              0.0676  Tot=              0.6458

 Test job not archived.
 1\1\GINC-SE162\SP\RHF\Aug-CC-pVDZ\C5H12S2\OHZDE\09-Apr-2025\0\\#t hf a
 ug-cc-pvdz iop(5/13=1,5/36=2,99/5=2) pseudo=read geom=check guess=(rea
 d,tcheck) scf=(maxcycle=1)\\title\\0,1\H,0,2.75511322,-2.75302781,-0.0
 3281769\H,0,2.23328443,-3.6609344,1.39160682\H,0,2.88304587,-2.0285956
 1,1.58877553\H,0,0.87227038,-0.86572365,0.25189781\C,0,2.28978938,-2.6
 7174858,0.94522466\S,0,0.57786237,-2.06107277,0.80693494\H,0,-0.685423
 48,-0.28017217,-1.76044686\H,0,-0.78033672,1.19034949,-2.73980195\H,0,
 -2.92293003,0.52439478,-1.27918278\H,0,-0.63645136,2.89319328,0.853621

 Normal termination of Gaussian 16 at Wed Apr  9 17:49:09 2025.
