 Gaussian 16, Revision C.01,

 ----------------------------------------------------------------------
 #t hf aug-cc-pvdz symm=none int=(grid=ultrafine) guess=(read,tcheck) s
 table=(opt,rrhf)
 ----------------------------------------------------------------------
 -----
 title
 -----
 Symbolic Z-matrix:
 Charge =  0 Multiplicity = 1

 SCF Done:  E(RHF) =  -952.358091804     A.U. after   15 cycles

 1\1\GINC-SE045\Stability\RHF\Aug-CC-pVDZ\C4H10S2\OHZDE\09-Apr-2025\0\\
 #t hf aug-cc-pvdz symm=none int=(grid=ultrafine) guess=(read,tcheck) s
 table=(opt,rrhf)\\title\\0,1\H,0,1.94048627,-0.28311522,0.30003006\H,0
 ,2.70886397,-1.74966836,-0.33633756\H,0,2.5169729,-1.54996222,1.410513
 58\H,0,-0.19256655,-1.5118813,1.21090974\C,0,2.06439688,-1.35234501,0.
 4434425\S,0,0.46794236,-2.21627191,0.2804649\H,0,-2.55691955,0.4858941
 7,0.31682214\H,0,-2.61488404,0.94236981,-1.39934705\H,0,-1.97301284,-0
 .62431333,-0.94587392\H,0,1.0887018,1.41804768,-1.73846486\H,0,0.31215

 Normal termination of Gaussian 16 at Wed Apr  9 17:21:44 2025.
 Gaussian 16:  ES64L-G16RevC.01  3-Jul-2019

 ----------------------------------------------------------------------
 #t hf aug-cc-pvdz iop(5/13=1,5/36=2,99/5=2) pseudo=read geom=check gue
 ss=(read,tcheck) scf=(maxcycle=1)
 ----------------------------------------------------------------------
 -----
 title
 -----
 Structure from the checkpoint file:  "HB300SPXx10_1024_4.06_0.95_methanethiol_thioacetone_dimer_mol1.chk"
 Charge =  0 Multiplicity = 1

                         Standard orientation:
 ---------------------------------------------------------------------
 Center     Atomic      Atomic             Coordinates (Angstroms)
 Number     Number       Type             X           Y           Z
 ---------------------------------------------------------------------
      1          1           0        1.169689   -1.360347    0.686912
      2          1           0        2.678157   -0.805090    1.436820
      3          1           0        2.736007   -1.692501   -0.092019
      4          1           0        1.333662    0.242438   -1.385207
      5          6           0        2.166834   -0.976488    0.493192
      6         16           0        2.086350    0.638109   -0.348351
      7          1           0       -1.694295    1.309736   -1.655432
      8          1           0       -2.427716    2.017922   -0.200258
      9          1           0       -0.695294    2.138441   -0.437583
     10          1           0       -1.072764   -0.574055    2.145713
     11          1           0       -0.174456    0.912719    1.768828
     12          6           0       -1.557591    1.486305   -0.594064
     13          6           0       -1.359404    0.209582    0.162666
     14         16           0       -1.382708   -1.249488   -0.557674
     15          6           0       -1.118535    0.379280    1.630435
     16          1           0       -1.899084    1.000717    2.075252
 ---------------------------------------------------------------------

 SCF Done:  E(RHF) =  -952.448232936     A.U. after    2 cycles

 The electronic state is 1-A.
 Alpha  occ. eigenvalues --  -93.53370 -93.50778 -11.33476 -11.26451 -11.25035
 Alpha  occ. eigenvalues --  -11.25011  -8.83134  -8.80734  -6.17311  -6.17087
 Alpha  occ. eigenvalues --   -6.16786  -6.14917  -6.14586  -6.14316  -1.11266
 Alpha  occ. eigenvalues --   -1.02610  -0.96586  -0.94231  -0.86040  -0.71949
 Alpha  occ. eigenvalues --   -0.62408  -0.61390  -0.61227  -0.60751  -0.58996
 Alpha  occ. eigenvalues --   -0.56159  -0.53326  -0.52777  -0.49604  -0.45741
 Alpha  occ. eigenvalues --   -0.38325  -0.35729  -0.33328
 Alpha virt. eigenvalues --    0.03235   0.04119   0.04564   0.05236   0.06104
 Alpha virt. eigenvalues --    0.06332   0.06886   0.07302   0.08108   0.08806
 Alpha virt. eigenvalues --    0.09404   0.10322   0.11699   0.12232   0.13247

 Mulliken charges:
               1
     1  H   -0.192125
     2  H   -0.082453
     3  H   -0.139417
     4  H    0.111149
     5  C    0.219868
     6  S    0.094693
     7  H   -0.070196
     8  H    0.046119
     9  H    0.009676
    10  H   -0.108872
    11  H    0.086550
    12  C    0.367168
    13  C   -0.798511
    14  S   -0.019194
    15  C    0.503620
    16  H   -0.028075
 Sum of Mulliken charges =  -0.00000

 Dipole moment (field-independent basis, Debye):
    X=             -0.2805    Y=              1.3852    Z=              1.6047  Tot=              2.1383

 Test job not archived.
 1\1\GINC-SE045\SP\RHF\Aug-CC-pVDZ\C4H10S2\OHZDE\09-Apr-2025\0\\#t hf a
 ug-cc-pvdz iop(5/13=1,5/36=2,99/5=2) pseudo=read geom=check guess=(rea
 d,tcheck) scf=(maxcycle=1)\\title\\0,1\H,0,1.94048627,-0.28311522,0.30
 003006\H,0,2.70886397,-1.74966836,-0.33633756\H,0,2.5169729,-1.5499622
 2,1.41051358\H,0,-0.19256655,-1.5118813,1.21090974\C,0,2.06439688,-1.3
 5234501,0.4434425\S,0,0.46794236,-2.21627191,0.2804649\H,0,-2.55691955
 ,0.48589417,0.31682214\H,0,-2.61488404,0.94236981,-1.39934705\H,0,-1.9
 7301284,-0.62431333,-0.94587392\H,0,1.0887018,1.41804768,-1.73846486\H

 Normal termination of Gaussian 16 at Wed Apr  9 17:21:52 2025.
