 Gaussian 16, Revision C.01,

 ----------------------------------------------------------------------
 #t hf aug-cc-pvdz symm=none int=(grid=ultrafine) guess=(read,tcheck) s
 table=(opt,rrhf)
 ----------------------------------------------------------------------
 -----
 title
 -----
 Symbolic Z-matrix:
 Charge =  0 Multiplicity = 1

 SCF Done:  E(RHF) =  -532.971546328     A.U. after   13 cycles
 Normal termination of Gaussian 16 at Wed Apr  9 17:25:11 2025.
 Gaussian 16:  ES64L-G16RevC.01  3-Jul-2019

 ----------------------------------------------------------------------
 #t hf aug-cc-pvdz iop(5/13=1,5/36=2,99/5=2) pseudo=read geom=check gue
 ss=(read,tcheck) scf=(maxcycle=1)
 ----------------------------------------------------------------------
 -----
 title
 -----
 Structure from the checkpoint file:  "HB300SPXx10_1045_4.08_1.00_ammonia_dimethylsulfide_dimer_mol1.chk"
 Charge =  0 Multiplicity = 1

                         Standard orientation:
 ---------------------------------------------------------------------
 Center     Atomic      Atomic             Coordinates (Angstroms)
 Number     Number       Type             X           Y           Z
 ---------------------------------------------------------------------
      1          7           0        2.958950   -0.256353    0.140444
      2          1           0        3.594743   -0.324293    0.924907
      3          1           0        2.103468   -0.735892    0.398441
      4          1           0        3.371541   -0.775221   -0.624408
      5          1           0       -0.241075    1.602670    1.058689
      6          1           0       -0.785163    2.039803   -0.580312
      7          1           0        0.900208    1.539586   -0.291443
      8          1           0       -2.530759   -1.472795    0.213498
      9          1           0       -2.858011    0.221525   -0.181427
     10          1           0       -2.186229   -0.212062    1.408989
     11          6           0       -0.135937    1.384457   -0.002783
     12         16           0       -0.509986   -0.355670   -0.335898
     13          6           0       -2.184331   -0.450811    0.346839
 ---------------------------------------------------------------------

 SCF Done:  E(RHF) =  -533.041395036     A.U. after    2 cycles

 The electronic state is 1-A.
 Alpha  occ. eigenvalues --  -93.52230 -15.59935 -11.25978 -11.25236  -8.81997
 Alpha  occ. eigenvalues --   -6.16147  -6.15934  -6.15605  -1.10125  -1.04710
 Alpha  occ. eigenvalues --   -0.94533  -0.79793  -0.62450  -0.62002  -0.60280
 Alpha  occ. eigenvalues --   -0.59901  -0.57547  -0.56487  -0.49105  -0.43055
 Alpha  occ. eigenvalues --   -0.41481  -0.33352
 Alpha virt. eigenvalues --    0.03564   0.04511   0.04939   0.05277   0.06664
 Alpha virt. eigenvalues --    0.06869   0.07609   0.08150   0.09395   0.11413
 Alpha virt. eigenvalues --    0.13740   0.15188   0.15574   0.16444   0.17019

 Mulliken charges:
               1
     1  N   -0.143532
     2  H    0.056653
     3  H    0.048087
     4  H    0.045716
     5  H   -0.078505
     6  H   -0.089428
     7  H   -0.133362
     8  H   -0.102250
     9  H   -0.080595
    10  H   -0.079012
    11  C    0.164798
    12  S    0.300716
    13  C    0.090715
 Sum of Mulliken charges =  -0.00000

 Dipole moment (field-independent basis, Debye):
    X=             -0.6631    Y=             -0.1434    Z=              1.1296  Tot=              1.3177

 Test job not archived.
 1\1\GINC-SE173\SP\RHF\Aug-CC-pVDZ\C2H9N1S1\OHZDE\09-Apr-2025\0\\#t hf
 aug-cc-pvdz iop(5/13=1,5/36=2,99/5=2) pseudo=read geom=check guess=(re
 ad,tcheck) scf=(maxcycle=1)\\title\\0,1\N,0,-1.73355141,-2.37393966,0.
 81983189\H,0,-2.47172211,-2.47256241,1.50511242\H,0,-1.77953232,-1.428
 67287,0.45551723\H,0,-1.951459,-2.99867579,0.05388488\H,0,0.76885339,0
 .33009045,1.80242544\H,0,2.13592344,-0.17493803,0.77797203\H,0,0.79829
 756,-1.30127341,1.11894456\H,0,0.07504067,2.4536916,-1.42626355\H,0,1.
 65556218,2.14231001,-0.69225093\H,0,0.25075072,2.5160157,0.3351533\C,0

 Normal termination of Gaussian 16 at Wed Apr  9 17:25:14 2025.
