 Gaussian 16, Revision C.01,

 ----------------------------------------------------------------------
 #t hf aug-cc-pvdz symm=none int=(grid=ultrafine) guess=(read,tcheck) s
 table=(opt,rrhf)
 ----------------------------------------------------------------------
 -----
 title
 -----
 Symbolic Z-matrix:
 Charge =  0 Multiplicity = 1

 SCF Done:  E(RHF) =  -571.981439142     A.U. after   12 cycles
 Normal termination of Gaussian 16 at Wed Apr  9 17:29:33 2025.
 Gaussian 16:  ES64L-G16RevC.01  3-Jul-2019

 ----------------------------------------------------------------------
 #t hf aug-cc-pvdz iop(5/13=1,5/36=2,99/5=2) pseudo=read geom=check gue
 ss=(read,tcheck) scf=(maxcycle=1)
 ----------------------------------------------------------------------
 -----
 title
 -----
 Structure from the checkpoint file:  "HB300SPXx10_1071_4.11_0.80_methylamine_dimethylsulfide_dimer_mol1.chk"
 Charge =  0 Multiplicity = 1

                         Standard orientation:
 ---------------------------------------------------------------------
 Center     Atomic      Atomic             Coordinates (Angstroms)
 Number     Number       Type             X           Y           Z
 ---------------------------------------------------------------------
      1          7           0       -1.514162   -0.804985    0.148110
      2          1           0       -1.831775   -1.755392    0.013478
      3          1           0       -0.752932   -0.645748   -0.502711
      4          6           0       -2.600454    0.142906   -0.096344
      5          1           0       -2.232179    1.157014    0.056686
      6          1           0       -3.036841    0.095918   -1.100851
      7          1           0       -3.399537   -0.023516    0.625524
      8          1           0        1.271215    1.687920    1.294038
      9          1           0       -0.328445    0.914833    1.130351
     10          1           0        0.132593    2.259067    0.064160
     11          1           0        2.011105   -1.928394   -0.171987
     12          1           0        0.739509   -1.490928    0.988611
     13          1           0        2.383188   -0.821689    1.159116
     14          6           0        0.495324    1.382032    0.594706
     15         16           0        1.161345    0.238867   -0.643580
     16          6           0        1.615416   -1.130949    0.452322
 ---------------------------------------------------------------------

 SCF Done:  E(RHF) =  -572.062545392     A.U. after    2 cycles

 The electronic state is 1-A.
 Alpha  occ. eigenvalues --  -93.52412 -15.58710 -11.25629 -11.25321 -11.24743
 Alpha  occ. eigenvalues --   -8.82221  -6.16376  -6.16163  -6.15945  -1.13262
 Alpha  occ. eigenvalues --   -1.04988  -0.94577  -0.88627  -0.80120  -0.67099
 Alpha  occ. eigenvalues --   -0.60554  -0.59983  -0.59762  -0.57636  -0.55980
 Alpha  occ. eigenvalues --   -0.54511  -0.51491  -0.49232  -0.43244  -0.37957
 Alpha  occ. eigenvalues --   -0.33213
 Alpha virt. eigenvalues --    0.03556   0.04231   0.04535   0.05060   0.06473
 Alpha virt. eigenvalues --    0.06672   0.07326   0.08081   0.09224   0.09369
 Alpha virt. eigenvalues --    0.10351   0.11837   0.13786   0.14318   0.15231

 Mulliken charges:
               1
     1  N   -0.367003
     2  H   -0.033393
     3  H    0.182908
     4  C    0.858249
     5  H   -0.252685
     6  H   -0.144363
     7  H   -0.162065
     8  H   -0.173011
     9  H   -0.156168
    10  H   -0.074434
    11  H   -0.108328
    12  H   -0.189518
    13  H   -0.086766
    14  C    0.366468
    15  S    0.043978
    16  C    0.296131
 Sum of Mulliken charges =  -0.00000

 Dipole moment (field-independent basis, Debye):
    X=             -0.4087    Y=             -0.4189    Z=              0.6187  Tot=              0.8517

 Test job not archived.
 1\1\GINC-SE112\SP\RHF\Aug-CC-pVDZ\C3H11N1S1\OHZDE\09-Apr-2025\0\\#t hf
  aug-cc-pvdz iop(5/13=1,5/36=2,99/5=2) pseudo=read geom=check guess=(r
 ead,tcheck) scf=(maxcycle=1)\\title\\0,1\N,0,-1.19251098,0.46771599,1.
 69699571\H,0,-2.17204653,0.34511648,1.91553075\H,0,-1.12099987,0.60068
 208,0.69419832\C,0,-0.64549649,1.62445241,2.40482331\H,0,0.40921091,1.
 73255139,2.15309408\H,0,-1.13947726,2.57752576,2.18276464\H,0,-0.70604
 436,1.45678733,3.47978713\H,0,2.07019642,-0.84517625,-0.0109584\H,0,0.
 97265974,-0.18192487,1.22955814\H,0,1.91060424,0.90731138,0.18547649\H

 Normal termination of Gaussian 16 at Wed Apr  9 17:29:37 2025.
