 Gaussian 16, Revision C.01,

 ----------------------------------------------------------------------
 #t hf aug-cc-pvdz symm=none int=(grid=ultrafine) guess=(read,tcheck) s
 table=(opt,rrhf)
 ----------------------------------------------------------------------
 -----
 title
 -----
 Symbolic Z-matrix:
 Charge =  0 Multiplicity = 1

 SCF Done:  E(RHF) =  -591.459801099     A.U. after   13 cycles
 Normal termination of Gaussian 16 at Wed Apr  9 17:19:24 2025.
 Gaussian 16:  ES64L-G16RevC.01  3-Jul-2019

 ----------------------------------------------------------------------
 #t hf aug-cc-pvdz iop(5/13=1,5/36=2,99/5=2) pseudo=read geom=check gue
 ss=(read,tcheck) scf=(maxcycle=1)
 ----------------------------------------------------------------------
 -----
 title
 -----
 Structure from the checkpoint file:  "HB300SPXx10_1015_4.05_1.00_ethyne_thioacetone_dimer_mol1.chk"
 Charge =  0 Multiplicity = 1

                         Standard orientation:
 ---------------------------------------------------------------------
 Center     Atomic      Atomic             Coordinates (Angstroms)
 Number     Number       Type             X           Y           Z
 ---------------------------------------------------------------------
      1          6           0        0.237950   -2.967519    0.000000
      2          1           0       -0.417443   -2.125350    0.000000
      3          6           0        0.990294   -3.898151    0.000000
      4          1           0        1.651800   -4.727883    0.000000
      5          1           0       -1.034107    3.223906    0.000000
      6          1           0        0.513455    3.212920    0.874719
      7          1           0        0.513455    3.212920   -0.874719
      8          1           0        1.338574   -0.358505    0.000000
      9          1           0        1.925139    1.070742   -0.874314
     10          6           0       -0.021856    2.834691    0.000000
     11          6           0       -0.000000    1.336201    0.000000
     12         16           0       -1.366239    0.452450    0.000000
     13          6           0        1.367583    0.724997    0.000000
     14          1           0        1.925139    1.070742    0.874314
 ---------------------------------------------------------------------

 SCF Done:  E(RHF) =  -591.542518359     A.U. after    2 cycles

 The electronic state is 1-A'.
 Alpha  occ. eigenvalues --  -93.51415 -11.33916 -11.25678 -11.25505 -11.24310
 Alpha  occ. eigenvalues --  -11.23891  -8.81373  -6.15552  -6.15176  -6.14982
 Alpha  occ. eigenvalues --   -1.11712  -1.01822  -0.97040  -0.94751  -0.75588
 Alpha  occ. eigenvalues --   -0.72467  -0.67222  -0.62370  -0.61838  -0.61646
 Alpha  occ. eigenvalues --   -0.56602  -0.53818  -0.50126  -0.40594  -0.40571
 Alpha  occ. eigenvalues --   -0.38850  -0.34102
 Alpha virt. eigenvalues --    0.02964   0.03903   0.04153   0.05222   0.06105
 Alpha virt. eigenvalues --    0.06616   0.06987   0.07581   0.08922   0.09882
 Alpha virt. eigenvalues --    0.10479   0.11811   0.12920   0.13053   0.13994

 Mulliken charges:
               1
     1  C    0.472268
     2  H   -0.355883
     3  C    0.176962
     4  H   -0.304408
     5  H   -0.063302
     6  H    0.046528
     7  H    0.046528
     8  H   -0.268253
     9  H    0.103623
    10  C    0.333287
    11  C   -0.819457
    12  S    0.075864
    13  C    0.452620
    14  H    0.103623
 Sum of Mulliken charges =  -0.00000

 Dipole moment (field-independent basis, Debye):
    X=              2.6869    Y=              2.2391    Z=              0.0000  Tot=              3.4976

 Test job not archived.
 1\1\GINC-SE220\SP\RHF\Aug-CC-pVDZ\C5H8S1\OHZDE\09-Apr-2025\0\\#t hf au
 g-cc-pvdz iop(5/13=1,5/36=2,99/5=2) pseudo=read geom=check guess=(read
 ,tcheck) scf=(maxcycle=1)\\title\\0,1\C,0,-0.20751211,-2.93011645,0.\H
 ,0,-0.70775465,-1.98748922,0.\C,0,0.37296237,-3.97660953,0.\H,0,0.8813
 7254,-4.90804053,0.\H,0,-0.39213214,3.38793563,0.\H,0,1.13032096,3.110
 0765,0.87471889\H,0,1.13032096,3.1100765,-0.87471889\H,0,1.32679884,-0
 .55015471,0.\H,0,2.15118785,0.75643893,-0.87431367\C,0,0.53777415,2.82
 989128,0.\C,0,0.30073203,1.35010686,0.\S,0,-1.1975087,0.71536274,0.\C,

 Normal termination of Gaussian 16 at Wed Apr  9 17:19:27 2025.
