 Gaussian 16, Revision C.01,

 ----------------------------------------------------------------------
 #t hf aug-cc-pvdz symm=none int=(grid=ultrafine) guess=(read,tcheck) s
 table=(opt,rrhf)
 ----------------------------------------------------------------------
 -----
 title
 -----
 Symbolic Z-matrix:
 Charge =  0 Multiplicity = 1

 SCF Done:  E(RHF) =  -591.460336325     A.U. after   13 cycles
 Normal termination of Gaussian 16 at Wed Apr  9 17:19:21 2025.
 Gaussian 16:  ES64L-G16RevC.01  3-Jul-2019

 ----------------------------------------------------------------------
 #t hf aug-cc-pvdz iop(5/13=1,5/36=2,99/5=2) pseudo=read geom=check gue
 ss=(read,tcheck) scf=(maxcycle=1)
 ----------------------------------------------------------------------
 -----
 title
 -----
 Structure from the checkpoint file:  "HB300SPXx10_1016_4.05_1.05_ethyne_thioacetone_dimer_mol1.chk"
 Charge =  0 Multiplicity = 1

                         Standard orientation:
 ---------------------------------------------------------------------
 Center     Atomic      Atomic             Coordinates (Angstroms)
 Number     Number       Type             X           Y           Z
 ---------------------------------------------------------------------
      1          6           0        2.909914    0.994436    0.000000
      2          1           0        2.247986    0.157394    0.000000
      3          6           0        3.634682    1.946702    0.000000
      4          1           0        4.283074    2.786721    0.000000
      5          1           0       -2.914555   -1.791782    0.000000
      6          1           0       -3.272308   -0.286099    0.874719
      7          1           0       -3.272308   -0.286099   -0.874719
      8          1           0        0.000000    1.365536    0.000000
      9          1           0       -1.527796    1.594980   -0.874314
     10          6           0       -2.777514   -0.715975    0.000000
     11          6           0       -1.327310   -0.338006    0.000000
     12         16           0       -0.143712   -1.454573    0.000000
     13          6           0       -1.059256    1.135765    0.000000
     14          1           0       -1.527796    1.594980    0.874314
 ---------------------------------------------------------------------

 SCF Done:  E(RHF) =  -591.543096554     A.U. after    2 cycles

 The electronic state is 1-A'.
 Alpha  occ. eigenvalues --  -93.51395 -11.33867 -11.25654 -11.25523 -11.24458
 Alpha  occ. eigenvalues --  -11.24048  -8.81343  -6.15521  -6.15145  -6.14942
 Alpha  occ. eigenvalues --   -1.11677  -1.01926  -0.97025  -0.94702  -0.75656
 Alpha  occ. eigenvalues --   -0.72449  -0.67322  -0.62357  -0.61821  -0.61620
 Alpha  occ. eigenvalues --   -0.56594  -0.53798  -0.50091  -0.40702  -0.40674
 Alpha  occ. eigenvalues --   -0.38804  -0.34026
 Alpha virt. eigenvalues --    0.02966   0.03893   0.04166   0.05209   0.06085
 Alpha virt. eigenvalues --    0.06646   0.06980   0.07581   0.08910   0.09870
 Alpha virt. eigenvalues --    0.10438   0.11738   0.12805   0.12901   0.13955

 Mulliken charges:
               1
     1  C    0.455915
     2  H   -0.360261
     3  C    0.191100
     4  H   -0.296387
     5  H   -0.064138
     6  H    0.046313
     7  H    0.046313
     8  H   -0.258866
     9  H    0.099988
    10  C    0.335709
    11  C   -0.814762
    12  S    0.081832
    13  C    0.437256
    14  H    0.099988
 Sum of Mulliken charges =  -0.00000

 Dipole moment (field-independent basis, Debye):
    X=             -2.7799    Y=              2.0943    Z=             -0.0000  Tot=              3.4805

 Test job not archived.
 1\1\GINC-SE454\SP\RHF\Aug-CC-pVDZ\C5H8S1\OHZDE\09-Apr-2025\0\\#t hf au
 g-cc-pvdz iop(5/13=1,5/36=2,99/5=2) pseudo=read geom=check guess=(read
 ,tcheck) scf=(maxcycle=1)\\title\\0,1\C,0,-0.20751211,-2.93011645,0.\H
 ,0,-0.70775465,-1.98748922,0.\C,0,0.37296237,-3.97660953,0.\H,0,0.8813
 7254,-4.90804053,0.\H,0,-0.41661984,3.52307823,0.\H,0,1.10583326,3.245
 21909,0.87471889\H,0,1.10583326,3.24521909,-0.87471889\H,0,1.30231114,
 -0.41501211,0.\H,0,2.12670014,0.89158153,-0.87431367\C,0,0.51328645,2.
 96503387,0.\C,0,0.27624433,1.48524946,0.\S,0,-1.2219964,0.85050533,0.\

 Normal termination of Gaussian 16 at Wed Apr  9 17:19:25 2025.
