 Gaussian 16, Revision C.01,

 ----------------------------------------------------------------------
 #t hf aug-cc-pvdz symm=none int=(grid=ultrafine) guess=(read,tcheck) s
 table=(opt,rrhf)
 ----------------------------------------------------------------------
 -----
 title
 -----
 Symbolic Z-matrix:
 Charge =  0 Multiplicity = 1

 SCF Done:  E(RHF) =  -742.479750820     A.U. after   14 cycles
 Normal termination of Gaussian 16 at Wed Apr  9 17:41:47 2025.
 Gaussian 16:  ES64L-G16RevC.01  3-Jul-2019

 ----------------------------------------------------------------------
 #t hf aug-cc-pvdz iop(5/13=1,5/36=2,99/5=2) pseudo=read geom=check gue
 ss=(read,tcheck) scf=(maxcycle=1)
 ----------------------------------------------------------------------
 -----
 title
 -----
 Structure from the checkpoint file:  "HB300SPXx10_1140_4.17_2.00_aceticacid_thioacetone_dimer_mol1.chk"
 Charge =  0 Multiplicity = 1

                         Standard orientation:
 ---------------------------------------------------------------------
 Center     Atomic      Atomic             Coordinates (Angstroms)
 Number     Number       Type             X           Y           Z
 ---------------------------------------------------------------------
      1          6           0        2.760352   -2.543945    0.000000
      2          8           0        3.136584   -1.395795    0.000000
      3          8           0        1.469753   -2.899087    0.000000
      4          1           0        0.899972   -2.096536    0.000000
      5          6           0        3.670064   -3.741849    0.000000
      6          1           0        4.704893   -3.418136    0.000000
      7          1           0        3.470007   -4.356060    0.876954
      8          1           0        3.470007   -4.356060   -0.876954
      9          1           0       -4.098937    3.219876    0.000000
     10          1           0       -2.883633    4.179111    0.874412
     11          1           0       -2.883633    4.179111   -0.874412
     12          1           0        0.000000    1.909785    0.000000
     13          1           0       -0.447511    3.393662   -0.872921
     14          6           0       -3.065613    3.549391    0.000000
     15          6           0       -2.106795    2.398858    0.000000
     16         16           0       -2.638861    0.857191    0.000000
     17          6           0       -0.660104    2.770142    0.000000
     18          1           0       -0.447511    3.393662    0.872921
 ---------------------------------------------------------------------

 SCF Done:  E(RHF) =  -742.611293794     A.U. after    2 cycles

 The electronic state is 1-A'.
 Alpha  occ. eigenvalues --  -93.50937 -20.62613 -20.56034 -11.39952 -11.33484
 Alpha  occ. eigenvalues --  -11.25374 -11.25359 -11.25262  -8.80862  -6.15032
 Alpha  occ. eigenvalues --   -6.14662  -6.14424  -1.42426  -1.32375  -1.11373
 Alpha  occ. eigenvalues --   -1.02055  -0.96824  -0.94193  -0.83871  -0.72157
 Alpha  occ. eigenvalues --   -0.71510  -0.69118  -0.66197  -0.62128  -0.61516
 Alpha  occ. eigenvalues --   -0.61351  -0.59104  -0.57524  -0.56642  -0.56335
 Alpha  occ. eigenvalues --   -0.53714  -0.49757  -0.49563  -0.46854  -0.38275
 Alpha  occ. eigenvalues --   -0.33382
 Alpha virt. eigenvalues --    0.03085   0.03780   0.04340   0.05112   0.05870
 Alpha virt. eigenvalues --    0.05911   0.06399   0.06942   0.07247   0.07728
 Alpha virt. eigenvalues --    0.08895   0.09690   0.10704   0.11776   0.11801

 Mulliken charges:
               1
     1  C    0.359327
     2  O   -0.464558
     3  O   -0.458871
     4  H    0.194048
     5  C    0.334830
     6  H   -0.020127
     7  H    0.027983
     8  H    0.027983
     9  H   -0.074561
    10  H    0.046696
    11  H    0.046696
    12  H   -0.110501
    13  H    0.059598
    14  C    0.313540
    15  C   -0.710133
    16  S    0.060624
    17  C    0.307828
    18  H    0.059598
 Sum of Mulliken charges =  -0.00000

 Dipole moment (field-independent basis, Debye):
    X=              0.2463    Y=              1.2485    Z=             -0.0000  Tot=              1.2726

 Test job not archived.
 1\1\GINC-SE113\SP\RHF\Aug-CC-pVDZ\C5H10O2S1\OHZDE\09-Apr-2025\0\\#t hf
  aug-cc-pvdz iop(5/13=1,5/36=2,99/5=2) pseudo=read geom=check guess=(r
 ead,tcheck) scf=(maxcycle=1)\\title\\0,1\C,0,0.15920132,2.45664609,0.\
 O,0,1.21885316,1.87618237,0.\O,0,-1.02533188,1.83322707,0.\H,0,-0.8922
 641,0.85801947,0.\C,0,0.00380934,3.95277518,0.\H,0,0.98023034,4.424223
 4,0.\H,0,-0.56217465,4.2641268,-0.87695442\H,0,-0.56217465,4.2641268,0
 .87695442\H,0,-0.90418599,-6.43945926,0.\H,0,0.63850413,-6.30830244,-0
 .87441231\H,0,0.63850413,-6.30830244,0.87441231\H,0,1.19070539,-2.6805

 Normal termination of Gaussian 16 at Wed Apr  9 17:41:52 2025.
