 Gaussian 16, Revision C.01,

 ----------------------------------------------------------------------
 #t hf aug-cc-pvdz symm=none int=(grid=ultrafine) guess=(read,tcheck) s
 table=(opt,rrhf)
 ----------------------------------------------------------------------
 -----
 title
 -----
 Symbolic Z-matrix:
 Charge =  0 Multiplicity = 1

 SCF Done:  E(RHF) =  -977.985190666     A.U. after   13 cycles
 Normal termination of Gaussian 16 at Wed Apr  9 17:57:40 2025.
 Gaussian 16:  ES64L-G16RevC.01  3-Jul-2019

 ----------------------------------------------------------------------
 #t hf aug-cc-pvdz iop(5/13=1,5/36=2,99/5=2) pseudo=read geom=check gue
 ss=(read,tcheck) scf=(maxcycle=1)
 ----------------------------------------------------------------------
 -----
 title
 -----
 Structure from the checkpoint file:  "HB300SPXx10_1442_5.07_0.85_methanethiol_phosphineF2_dimer_mol1.chk"
 Charge =  0 Multiplicity = 1

                         Standard orientation:
 ---------------------------------------------------------------------
 Center     Atomic      Atomic             Coordinates (Angstroms)
 Number     Number       Type             X           Y           Z
 ---------------------------------------------------------------------
      1          1           0        1.255817    1.638096   -0.041794
      2          1           0        1.827221    0.927517   -1.557687
      3          1           0        2.994843    1.311385   -0.283571
      4          1           0        1.886710   -0.470753    1.431440
      5          6           0        1.985137    0.966500   -0.483418
      6         16           0        1.746420   -0.734427    0.123616
      7         15           0       -1.073274   -0.223897   -0.289993
      8          9           0       -0.747649    0.961295    0.741343
      9          9           0       -2.674973   -0.162134   -0.177003
     10          1           0       -0.915427   -1.288420    0.645102
 ---------------------------------------------------------------------

 SCF Done:  E(RHF) =  -978.129915796     A.U. after    2 cycles

 The electronic state is 1-A.
 Alpha  occ. eigenvalues --  -93.55211 -81.38447 -26.13361 -26.12143 -11.27686
 Alpha  occ. eigenvalues --   -8.85044  -7.87160  -6.19203  -6.18975  -6.18729
 Alpha  occ. eigenvalues --   -5.01288  -5.01013  -5.00496  -1.66818  -1.64836
 Alpha  occ. eigenvalues --   -1.04466  -0.89413  -0.87561  -0.78671  -0.77080
 Alpha  occ. eigenvalues --   -0.76499  -0.72821  -0.70399  -0.62888  -0.61372
 Alpha  occ. eigenvalues --   -0.59719  -0.54414  -0.47263  -0.40513  -0.36877
 Alpha virt. eigenvalues --    0.03456   0.04597   0.05132   0.06208   0.07027
 Alpha virt. eigenvalues --    0.08371   0.09802   0.10264   0.11510   0.12819
 Alpha virt. eigenvalues --    0.13958   0.15413   0.15899   0.16326   0.16675

 Mulliken charges:
               1
     1  H   -0.113649
     2  H   -0.066965
     3  H   -0.144714
     4  H    0.120290
     5  C    0.182867
     6  S    0.009304
     7  P    1.240005
     8  F   -0.633333
     9  F   -0.643837
    10  H    0.050033
 Sum of Mulliken charges =  -0.00000

 Dipole moment (field-independent basis, Debye):
    X=              2.5179    Y=             -0.0231    Z=             -0.1113  Tot=              2.5205

 Test job not archived.
 1\1\GINC-SE362\SP\RHF\Aug-CC-pVDZ\C1H5F2P1S1\OHZDE\09-Apr-2025\0\\#t h
 f aug-cc-pvdz iop(5/13=1,5/36=2,99/5=2) pseudo=read geom=check guess=(
 read,tcheck) scf=(maxcycle=1)\\title\\0,1\H,0,-1.72434823,-0.02735536,
 -1.47402619\H,0,-1.29643549,-1.41515971,-2.4840979\H,0,-1.57230153,0.1
 6002765,-3.24353895\H,0,0.52779021,1.28305094,-1.94983564\C,0,-1.18500
 823,-0.34129171,-2.36202164\S,0,0.60124692,-0.03772908,-2.17289215\P,0
 ,0.25217644,-1.11432326,0.49196849\F,0,-0.7854281,0.10688946,0.5718592
 \F,0,0.33129749,-1.42185927,2.0671457\H,0,1.43022217,-0.31225696,0.454

 Normal termination of Gaussian 16 at Wed Apr  9 17:57:43 2025.
