 Gaussian 16, Revision C.01,

 ----------------------------------------------------------------------
 #t hf aug-cc-pvdz symm=none int=(grid=ultrafine) guess=(read,tcheck) s
 table=(opt,rrhf)
 ----------------------------------------------------------------------
 -----
 title
 -----
 Symbolic Z-matrix:
 Charge =  0 Multiplicity = 1

 SCF Done:  E(RHF) =  -1037.69459759     A.U. after   15 cycles
 Normal termination of Gaussian 16 at Wed Apr  9 18:01:48 2025.
 Gaussian 16:  ES64L-G16RevC.01  3-Jul-2019

 ----------------------------------------------------------------------
 #t hf aug-cc-pvdz iop(5/13=1,5/36=2,99/5=2) pseudo=read geom=check gue
 ss=(read,tcheck) scf=(maxcycle=1)
 ----------------------------------------------------------------------
 -----
 title
 -----
 Structure from the checkpoint file:  "HB300SPXx10_1473_5.10_0.90_phosphaalkene_phosphineF2_dimer_mol1.chk"
 Charge =  0 Multiplicity = 1

                         Standard orientation:
 ---------------------------------------------------------------------
 Center     Atomic      Atomic             Coordinates (Angstroms)
 Number     Number       Type             X           Y           Z
 ---------------------------------------------------------------------
      1          1           0        1.411421    2.962986   -0.597329
      2          1           0        0.476052    2.159155    0.664672
      3          1           0        2.247162    2.165931    0.734912
      4          1           0        1.479975   -2.124228   -1.515341
      5          1           0        0.527812   -1.225871    2.002597
      6          1           0        2.342315   -2.627093   -0.056619
      7          1           0        0.586740   -2.682282   -0.093455
      8          1           0        1.266096    0.376702    1.999368
      9          1           0        2.271875   -1.075251    2.036105
     10         15           0        1.434242    0.566583   -0.970787
     11          6           0        1.401088   -0.710038    0.123316
     12          6           0        1.454221   -2.108635   -0.427239
     13          6           0        1.362447   -0.634380    1.618320
     14          6           0        1.386514    2.103622    0.070261
     15         15           0       -1.624744   -0.282531   -0.213812
     16          9           0       -3.228401   -0.298460   -0.226714
     17          9           0       -1.426383    0.894564    0.855141
     18          1           0       -1.484488    0.540816   -1.369720
 ---------------------------------------------------------------------

 SCF Done:  E(RHF) =  -1037.87415839     A.U. after    2 cycles

 The electronic state is 1-A.
 Alpha  occ. eigenvalues --  -81.38841 -81.24217 -26.13832 -26.12832 -11.28109
 Alpha  occ. eigenvalues --  -11.24551 -11.24289 -11.23257  -7.87594  -7.74815
 Alpha  occ. eigenvalues --   -5.01733  -5.01463  -5.00981  -4.88873  -4.88501
 Alpha  occ. eigenvalues --   -4.88499  -1.67290  -1.65485  -1.07692  -0.96386
 Alpha  occ. eigenvalues --   -0.95053  -0.89736  -0.83000  -0.79195  -0.77677
 Alpha  occ. eigenvalues --   -0.76815  -0.73402  -0.70900  -0.67481  -0.62556
 Alpha  occ. eigenvalues --   -0.60725  -0.60109  -0.59504  -0.56908  -0.55288
 Alpha  occ. eigenvalues --   -0.55255  -0.52072  -0.47376  -0.40376  -0.36130
 Alpha  occ. eigenvalues --   -0.32330
 Alpha virt. eigenvalues --    0.03332   0.04180   0.04537   0.04856   0.06261
 Alpha virt. eigenvalues --    0.06525   0.06796   0.07154   0.07910   0.08149
 Alpha virt. eigenvalues --    0.09148   0.09707   0.10363   0.11127   0.11907

 Mulliken charges:
               1
     1  H   -0.349673
     2  H   -0.156012
     3  H   -0.148461
     4  H   -0.157478
     5  H   -0.032845
     6  H    0.035707
     7  H   -0.007587
     8  H   -0.188861
     9  H   -0.004183
    10  P    0.176774
    11  C   -0.660481
    12  C    0.563492
    13  C    0.632621
    14  C    0.299306
    15  P    1.298090
    16  F   -0.657563
    17  F   -0.683526
    18  H    0.040679
 Sum of Mulliken charges =  -0.00000

 Dipole moment (field-independent basis, Debye):
    X=              2.0838    Y=             -0.6992    Z=              0.3188  Tot=              2.2210

 Test job not archived.
 1\1\GINC-SE232\SP\RHF\Aug-CC-pVDZ\C4H10F2P2\OHZDE\09-Apr-2025\0\\#t hf
  aug-cc-pvdz iop(5/13=1,5/36=2,99/5=2) pseudo=read geom=check guess=(r
 ead,tcheck) scf=(maxcycle=1)\\title\\0,1\H,0,-0.66372889,3.26375392,-1
 .41484082\H,0,0.57607353,2.07688321,-1.82463407\H,0,-0.55842324,2.6448
 712,-3.06242126\H,0,-2.87100416,-1.40911587,-1.55416728\H,0,0.42715494
 ,-1.23076192,-3.33739031\H,0,-2.60862974,-1.75549695,-3.26751243\H,0,-
 1.47646146,-2.36750684,-2.07165071\H,0,0.4157342,0.51539066,-3.5906339
 2\H,0,-0.67072928,-0.53226666,-4.50884988\P,0,-1.6570918,1.05342876,-1

 Normal termination of Gaussian 16 at Wed Apr  9 18:01:56 2025.
