 Gaussian 16, Revision C.01,

 ----------------------------------------------------------------------
 #t hf aug-cc-pvdz symm=none int=(grid=ultrafine) guess=(read,tcheck) s
 table=(opt,rrhf)
 ----------------------------------------------------------------------
 -----
 title
 -----
 Symbolic Z-matrix:
 Charge =  0 Multiplicity = 1

 SCF Done:  E(RHF) =  -553.682102877     A.U. after   12 cycles
 Normal termination of Gaussian 16 at Wed Apr  9 17:17:17 2025.
 Gaussian 16:  ES64L-G16RevC.01  3-Jul-2019

 ----------------------------------------------------------------------
 #t hf aug-cc-pvdz iop(5/13=1,5/36=2,99/5=2) pseudo=read geom=check gue
 ss=(read,tcheck) scf=(maxcycle=1)
 ----------------------------------------------------------------------
 -----
 title
 -----
 Structure from the checkpoint file:  "HB300SPXx10_1001_4.04_0.80_ethyne_tetrahydrothiophene_dimer_mol3.chk"
 Charge =  0 Multiplicity = 1

                         Standard orientation:
 ---------------------------------------------------------------------
 Center     Atomic      Atomic             Coordinates (Angstroms)
 Number     Number       Type             X           Y           Z
 ---------------------------------------------------------------------
      1          1           0        0.014685   -1.657610    1.195100
      2          1           0        0.358853   -2.175427   -0.460736
      3          1           0       -2.112826   -1.306830    0.088541
      4          1           0        0.041297    1.731647   -1.130900
      5          1           0       -1.328301   -0.707821   -1.371785
      6          1           0        0.331713    2.146047    0.562069
      7          1           0       -2.119028    1.287961   -0.145882
      8          1           0       -1.394159    0.687021    1.342655
      9         16           0        1.308242    0.001102   -0.011446
     10          6           0        0.055985   -1.333909    0.156356
     11          6           0       -1.271433   -0.721097   -0.282293
     12          6           0       -1.289118    0.707977    0.258045
     13          6           0        0.050548    1.343258   -0.114761
 ---------------------------------------------------------------------

 SCF Done:  E(RHF) =  -553.750579071     A.U. after    2 cycles

 The electronic state is 1-A.
 Alpha  occ. eigenvalues --  -93.51379 -11.26144 -11.26130 -11.24211 -11.24149
 Alpha  occ. eigenvalues --   -8.81159  -6.15286  -6.15126  -6.14757  -1.11484
 Alpha  occ. eigenvalues --   -0.98068  -0.95625  -0.79521  -0.77723  -0.65978
 Alpha  occ. eigenvalues --   -0.64004  -0.60236  -0.54970  -0.50821  -0.49560
 Alpha  occ. eigenvalues --   -0.48412  -0.47511  -0.41765  -0.32782
 Alpha virt. eigenvalues --    0.03433   0.04522   0.04709   0.05235   0.06823
 Alpha virt. eigenvalues --    0.06840   0.07066   0.07780   0.09058   0.13077
 Alpha virt. eigenvalues --    0.14263   0.14516   0.14875   0.15142   0.15342

 Mulliken charges:
               1
     1  H   -0.092945
     2  H   -0.072849
     3  H   -0.056475
     4  H   -0.098605
     5  H   -0.150499
     6  H   -0.061619
     7  H   -0.061052
     8  H   -0.149518
     9  S    0.476538
    10  C   -0.046937
    11  C    0.185345
    12  C    0.169190
    13  C   -0.040574
 Sum of Mulliken charges =   0.00000

 Dipole moment (field-independent basis, Debye):
    X=             -2.2783    Y=              0.0011    Z=              0.0407  Tot=              2.2786

 Test job not archived.
 1\1\GINC-SE114\SP\RHF\Aug-CC-pVDZ\C4H8S1\OHZDE\09-Apr-2025\0\\#t hf au
 g-cc-pvdz iop(5/13=1,5/36=2,99/5=2) pseudo=read geom=check guess=(read
 ,tcheck) scf=(maxcycle=1)\\title\\0,1\H,0,0.64913987,-1.71913298,-0.37
 850813\H,0,-0.82552028,-1.76596597,-1.35398912\H,0,-1.07337188,-2.0255
 1013,1.29866424\H,0,-1.38857366,1.77037472,0.37588085\H,0,-2.17040906,
 -0.92505347,0.46658945\H,0,0.32327887,1.96101412,0.77013087\H,0,-1.181
 69111,0.36487842,2.32931443\H,0,0.43357469,-0.16180557,1.86474186\S,0,
 0.00459441,0.49304313,-1.13429039\C,0,-0.30405744,-1.22787809,-0.56708

 Normal termination of Gaussian 16 at Wed Apr  9 17:17:21 2025.
