 Gaussian 16, Revision C.01,

 ----------------------------------------------------------------------
 #t hf aug-cc-pvdz symm=none int=(grid=ultrafine) guess=(read,tcheck) s
 table=(opt,rrhf)
 ----------------------------------------------------------------------
 -----
 title
 -----
 Symbolic Z-matrix:
 Charge =  0 Multiplicity = 1

 SCF Done:  E(RHF) =  -936.860859906     A.U. after   11 cycles
 Normal termination of Gaussian 16 at Wed Apr  9 17:53:36 2025.
 Gaussian 16:  ES64L-G16RevC.01  3-Jul-2019

 ----------------------------------------------------------------------
 #t hf aug-cc-pvdz iop(5/13=1,5/36=2,99/5=2) pseudo=read geom=check gue
 ss=(read,tcheck) scf=(maxcycle=1)
 ----------------------------------------------------------------------
 -----
 title
 -----
 Structure from the checkpoint file:  "HB300SPXx10_1326_4.37_1.05_hydrogenchloride_dimethylsulfide_dimer_mol1.chk"
 Charge =  0 Multiplicity = 1

                         Standard orientation:
 ---------------------------------------------------------------------
 Center     Atomic      Atomic             Coordinates (Angstroms)
 Number     Number       Type             X           Y           Z
 ---------------------------------------------------------------------
      1          1           0       -1.111698   -0.000003   -0.436214
      2         17           0       -2.347762   -0.000002    0.038963
      3          1           0        0.453981   -1.354202    1.225819
      4          1           0        2.225776   -1.365704    1.008608
      5          1           0        1.186645   -2.299390   -0.082255
      6          1           0        1.186636    2.299393   -0.082256
      7          1           0        2.225767    1.365710    1.008611
      8          1           0        0.453971    1.354203    1.225816
      9          6           0        1.264380   -1.385386    0.500620
     10         16           0        1.132398    0.000000   -0.658621
     11          6           0        1.264372    1.385388    0.500619
 ---------------------------------------------------------------------

 SCF Done:  E(RHF) =  -936.928440250     A.U. after    2 cycles

 The electronic state is 1-A.
 Alpha  occ. eigenvalues -- -103.64970 -93.54764 -11.27508 -11.27491 -10.68214
 Alpha  occ. eigenvalues --   -8.84516  -8.33953  -8.33676  -8.33675  -6.18653
 Alpha  occ. eigenvalues --   -6.18444  -6.18232  -1.13178  -1.06918  -0.96468
 Alpha  occ. eigenvalues --   -0.81990  -0.63644  -0.62111  -0.59700  -0.59532
 Alpha  occ. eigenvalues --   -0.58475  -0.51213  -0.46595  -0.46574  -0.45072
 Alpha  occ. eigenvalues --   -0.35872
 Alpha virt. eigenvalues --    0.03301   0.04340   0.05194   0.05925   0.07073
 Alpha virt. eigenvalues --    0.07660   0.08057   0.09643   0.12562   0.12983
 Alpha virt. eigenvalues --    0.15214   0.15218   0.15502   0.16032   0.16704

 Mulliken charges:
               1
     1  H    0.279442
     2  Cl  -0.214005
     3  H   -0.146638
     4  H   -0.080633
     5  H   -0.085200
     6  H   -0.085199
     7  H   -0.080632
     8  H   -0.146638
     9  C    0.221367
    10  S    0.116771
    11  C    0.221365
 Sum of Mulliken charges =  -0.00000

 Dipole moment (field-independent basis, Debye):
    X=              2.6480    Y=              0.0000    Z=              1.2649  Tot=              2.9346

 Test job not archived.
 1\1\GINC-SE220\SP\RHF\Aug-CC-pVDZ\C2H7Cl1S1\OHZDE\09-Apr-2025\0\\#t hf
  aug-cc-pvdz iop(5/13=1,5/36=2,99/5=2) pseudo=read geom=check guess=(r
 ead,tcheck) scf=(maxcycle=1)\\title\\0,1\H,0,-0.09169332,-0.01707414,-
 1.03147385\Cl,0,0.64323048,-0.44620369,-2.04605842\H,0,1.51608184,0.81
 403496,0.91065923\H,0,0.86411847,1.2504906,2.5140997\H,0,0.62541215,2.
 33066211,1.12925528\H,0,-1.42726946,-1.77696108,1.37972501\H,0,-0.3550
 5224,-1.18920426,2.66286216\H,0,0.30717604,-1.60510663,1.05816543\C,0,
 0.69474552,1.29170678,1.44063013\S,0,-0.87892184,0.50124643,1.0171956\

 Normal termination of Gaussian 16 at Wed Apr  9 17:53:40 2025.
