 Gaussian 16, Revision C.01,

 ----------------------------------------------------------------------
 #t hf aug-cc-pvdz symm=none int=(grid=ultrafine) guess=(read,tcheck) s
 table=(opt,rrhf)
 ----------------------------------------------------------------------
 -----
 title
 -----
 Symbolic Z-matrix:
 Charge =  0 Multiplicity = 1

 SCF Done:  E(RHF) =  -783.971655224     A.U. after   15 cycles
 Normal termination of Gaussian 16 at Wed Apr  9 17:59:49 2025.
 Gaussian 16:  ES64L-G16RevC.01  3-Jul-2019

 ----------------------------------------------------------------------
 #t hf aug-cc-pvdz iop(5/13=1,5/36=2,99/5=2) pseudo=read geom=check gue
 ss=(read,tcheck) scf=(maxcycle=1)
 ----------------------------------------------------------------------
 -----
 title
 -----
 Structure from the checkpoint file:  "HB300SPXx10_1466_5.09_1.05_nitromethane_phosphineF2_dimer_mol1.chk"
 Charge =  0 Multiplicity = 1

                         Standard orientation:
 ---------------------------------------------------------------------
 Center     Atomic      Atomic             Coordinates (Angstroms)
 Number     Number       Type             X           Y           Z
 ---------------------------------------------------------------------
      1          1           0       -1.702555    1.763849    0.065264
      2          1           0       -2.919318    1.179291   -1.094917
      3          1           0       -3.267013    1.147590    0.677263
      4          6           0       -2.515392    1.060963   -0.096619
      5          7           0       -1.904801   -0.299075   -0.006845
      6          8           0       -2.003835   -0.897960    1.045204
      7          8           0       -1.309344   -0.703387   -0.994759
      8         15           0        1.713552   -0.213466   -0.392996
      9          9           0        3.086236   -0.034841    0.408741
     10          9           0        0.907715    1.018359    0.257067
     11          1           0        1.171447   -1.201881    0.479130
 ---------------------------------------------------------------------

 SCF Done:  E(RHF) =  -784.157964410     A.U. after    2 cycles

 The electronic state is 1-A.
 Alpha  occ. eigenvalues --  -81.39275 -26.14103 -26.13612 -20.63710 -20.62937
 Alpha  occ. eigenvalues --  -15.92916 -11.32551  -7.88026  -5.02155  -5.01866
 Alpha  occ. eigenvalues --   -5.01366  -1.67555  -1.66072  -1.56779  -1.38333
 Alpha  occ. eigenvalues --   -1.10025  -0.90020  -0.87462  -0.79624  -0.78234
 Alpha  occ. eigenvalues --   -0.77386  -0.77172  -0.75929  -0.75311  -0.73858
 Alpha  occ. eigenvalues --   -0.71161  -0.63866  -0.61583  -0.60997  -0.52748
 Alpha  occ. eigenvalues --   -0.52266  -0.49102  -0.40316
 Alpha virt. eigenvalues --    0.02802   0.04889   0.05128   0.05425   0.07315
 Alpha virt. eigenvalues --    0.07897   0.09410   0.09877   0.10669   0.13411
 Alpha virt. eigenvalues --    0.14333   0.15213   0.15706   0.15781   0.17330

 Mulliken charges:
               1
     1  H   -0.013352
     2  H   -0.070837
     3  H   -0.098256
     4  C    0.864341
     5  N    0.538430
     6  O   -0.584222
     7  O   -0.616021
     8  P    1.243361
     9  F   -0.632131
    10  F   -0.646998
    11  H    0.015684
 Sum of Mulliken charges =  -0.00000

 Dipole moment (field-independent basis, Debye):
    X=             -2.8755    Y=              2.0586    Z=             -0.9243  Tot=              3.6553

 Test job not archived.
 1\1\GINC-SE112\SP\RHF\Aug-CC-pVDZ\C1H4F2N1O2P1\OHZDE\09-Apr-2025\0\\#t
  hf aug-cc-pvdz iop(5/13=1,5/36=2,99/5=2) pseudo=read geom=check guess
 =(read,tcheck) scf=(maxcycle=1)\\title\\0,1\H,0,0.49481138,0.55069733,
 -2.50359179\H,0,-1.08891031,0.71291216,-3.29967626\H,0,-0.00441746,2.1
 4812453,-3.13671373\C,0,-0.34098337,1.21704881,-2.69950341\N,0,-0.9468
 7558,1.51662809,-1.36768821\O,0,-0.63929751,2.55888018,-0.82511637\O,0
 ,-1.68734525,0.66720154,-0.89420145\P,0,0.05746193,-0.88630121,1.17517
 523\F,0,1.18593472,-1.20894768,2.26209605\F,0,1.0254755,-0.50758677,-0

 Normal termination of Gaussian 16 at Wed Apr  9 17:59:53 2025.
