 Gaussian 16, Revision C.01,

 ----------------------------------------------------------------------
 #t hf aug-cc-pvdz symm=none int=(grid=ultrafine) guess=(read,tcheck) s
 table=(opt,rrhf)
 ----------------------------------------------------------------------
 -----
 title
 -----
 Symbolic Z-matrix:
 Charge =  0 Multiplicity = 1

 SCF Done:  E(RHF) =  -742.486190349     A.U. after   14 cycles
 Normal termination of Gaussian 16 at Wed Apr  9 17:41:02 2025.
 Gaussian 16:  ES64L-G16RevC.01  3-Jul-2019

 ----------------------------------------------------------------------
 #t hf aug-cc-pvdz iop(5/13=1,5/36=2,99/5=2) pseudo=read geom=check gue
 ss=(read,tcheck) scf=(maxcycle=1)
 ----------------------------------------------------------------------
 -----
 title
 -----
 Structure from the checkpoint file:  "HB300SPXx10_1136_4.17_1.05_aceticacid_thioacetone_dimer_mol1.chk"
 Charge =  0 Multiplicity = 1

                         Standard orientation:
 ---------------------------------------------------------------------
 Center     Atomic      Atomic             Coordinates (Angstroms)
 Number     Number       Type             X           Y           Z
 ---------------------------------------------------------------------
      1          6           0       -1.871271    1.716928    0.000000
      2          8           0       -2.217849    0.559481    0.000000
      3          8           0       -0.590234    2.105146    0.000000
      4          1           0        0.000000    1.317516    0.000000
      5          6           0       -2.811493    2.891038    0.000000
      6          1           0       -3.837653    2.540816    0.000000
      7          1           0       -2.627300    3.510191    0.876954
      8          1           0       -2.627300    3.510191   -0.876954
      9          1           0        3.417518   -2.509243    0.000000
     10          1           0        2.227288   -3.499418    0.874412
     11          1           0        2.227288   -3.499418   -0.874412
     12          1           0       -0.713758   -1.305010    0.000000
     13          1           0       -0.228230   -2.776886   -0.872921
     14          6           0        2.393011   -2.865226    0.000000
     15          6           0        1.404919   -1.739735    0.000000
     16         16           0        1.897157   -0.184893    0.000000
     17          6           0       -0.031744   -2.148105    0.000000
     18          1           0       -0.228230   -2.776886    0.872921
 ---------------------------------------------------------------------

 SCF Done:  E(RHF) =  -742.616890126     A.U. after    2 cycles

 The electronic state is 1-A'.
 Alpha  occ. eigenvalues --  -93.51781 -20.60565 -20.55301 -11.39152 -11.34201
 Alpha  occ. eigenvalues --  -11.25767 -11.24739 -11.24593  -8.81752  -6.15935
 Alpha  occ. eigenvalues --   -6.15548  -6.15388  -1.41125  -1.31369  -1.11817
 Alpha  occ. eigenvalues --   -1.01315  -0.96864  -0.94852  -0.82599  -0.72457
 Alpha  occ. eigenvalues --   -0.70901  -0.68219  -0.65075  -0.62205  -0.61960
 Alpha  occ. eigenvalues --   -0.61351  -0.58203  -0.56798  -0.56276  -0.55689
 Alpha  occ. eigenvalues --   -0.53630  -0.50277  -0.48912  -0.46050  -0.39063
 Alpha  occ. eigenvalues --   -0.34736
 Alpha virt. eigenvalues --    0.03138   0.04130   0.04145   0.05213   0.06184
 Alpha virt. eigenvalues --    0.06210   0.06524   0.06595   0.07800   0.07899
 Alpha virt. eigenvalues --    0.09110   0.09760   0.12168   0.12841   0.13158

 Mulliken charges:
               1
     1  C    0.301866
     2  O   -0.460980
     3  O   -0.436404
     4  H    0.182430
     5  C    0.375701
     6  H   -0.041171
     7  H    0.038528
     8  H    0.038528
     9  H   -0.076679
    10  H    0.047618
    11  H    0.047618
    12  H   -0.414762
    13  H    0.127414
    14  C    0.371308
    15  C   -0.850390
    16  S    0.074260
    17  C    0.547701
    18  H    0.127414
 Sum of Mulliken charges =  -0.00000

 Dipole moment (field-independent basis, Debye):
    X=              0.0766    Y=             -1.7676    Z=             -0.0000  Tot=              1.7693

 Test job not archived.
 1\1\GINC-SE340\SP\RHF\Aug-CC-pVDZ\C5H10O2S1\OHZDE\09-Apr-2025\0\\#t hf
  aug-cc-pvdz iop(5/13=1,5/36=2,99/5=2) pseudo=read geom=check guess=(r
 ead,tcheck) scf=(maxcycle=1)\\title\\0,1\C,0,0.15920132,2.45664609,0.\
 O,0,1.21885316,1.87618237,0.\O,0,-1.02533188,1.83322707,0.\H,0,-0.8922
 641,0.85801947,0.\C,0,0.00380934,3.95277518,0.\H,0,0.98023034,4.424223
 4,0.\H,0,-0.56217465,4.2641268,-0.87695442\H,0,-0.56217465,4.2641268,0
 .87695442\H,0,-0.63711584,-4.26627736,0.\H,0,0.90557428,-4.13512053,-0
 .87441231\H,0,0.90557428,-4.13512053,0.87441231\H,0,1.45777554,-0.5074

 Normal termination of Gaussian 16 at Wed Apr  9 17:41:07 2025.
