 Gaussian 16, Revision C.01,

 ----------------------------------------------------------------------
 #t hf aug-cc-pvdz symm=none int=(grid=ultrafine) guess=(read,tcheck) s
 table=(opt,rrhf)
 ----------------------------------------------------------------------
 -----
 title
 -----
 Symbolic Z-matrix:
 Charge =  0 Multiplicity = 1

 SCF Done:  E(RHF) =  -747.044126405     A.U. after   14 cycles
 Normal termination of Gaussian 16 at Wed Apr  9 17:58:50 2025.
 Gaussian 16:  ES64L-G16RevC.01  3-Jul-2019

 ----------------------------------------------------------------------
 #t hf aug-cc-pvdz iop(5/13=1,5/36=2,99/5=2) pseudo=read geom=check gue
 ss=(read,tcheck) scf=(maxcycle=1)
 ----------------------------------------------------------------------
 -----
 title
 -----
 Structure from the checkpoint file:  "HB300SPXx10_1453_5.08_0.90_methylcyanate_phosphineF2_dimer_mol1.chk"
 Charge =  0 Multiplicity = 1

                         Standard orientation:
 ---------------------------------------------------------------------
 Center     Atomic      Atomic             Coordinates (Angstroms)
 Number     Number       Type             X           Y           Z
 ---------------------------------------------------------------------
      1          1           0       -2.659966   -1.062384    1.322418
      2          1           0       -3.247481   -1.788423   -0.201455
      3          1           0       -1.488231   -1.655804    0.104735
      4          6           0       -2.462585   -1.205221    0.263495
      5          8           0       -2.508568    0.092599   -0.411189
      6          6           0       -1.626008    0.940385   -0.040993
      7          7           0       -0.835613    1.724713    0.266753
      8         15           0        1.590099    0.333260   -0.160710
      9          9           0        0.636093   -0.964641   -0.082618
     10          9           0        2.985117   -0.418023    0.091252
     11          1           0        1.402695    0.726917    1.194464
 ---------------------------------------------------------------------

 SCF Done:  E(RHF) =  -747.220791460     A.U. after    2 cycles

 The electronic state is 1-A.
 Alpha  occ. eigenvalues --  -81.38520 -26.13873 -26.12666 -20.68235 -15.64611
 Alpha  occ. eigenvalues --  -11.36806 -11.34167  -7.87262  -5.01378  -5.01111
 Alpha  occ. eigenvalues --   -5.00578  -1.67212  -1.65332  -1.45695  -1.20692
 Alpha  occ. eigenvalues --   -1.02029  -0.89623  -0.81619  -0.79133  -0.77606
 Alpha  occ. eigenvalues --   -0.76788  -0.73326  -0.72963  -0.71614  -0.70473
 Alpha  occ. eigenvalues --   -0.62154  -0.59988  -0.58780  -0.55983  -0.47365
 Alpha  occ. eigenvalues --   -0.46031  -0.39284
 Alpha virt. eigenvalues --    0.02669   0.04664   0.05239   0.06130   0.06950
 Alpha virt. eigenvalues --    0.09001   0.09499   0.10554   0.11354   0.11790
 Alpha virt. eigenvalues --    0.13601   0.14542   0.14819   0.15336   0.15972

 Mulliken charges:
               1
     1  H   -0.104682
     2  H   -0.160556
     3  H   -0.072244
     4  C    0.927229
     5  O   -0.388723
     6  C   -0.154579
     7  N   -0.050568
     8  P    1.259510
     9  F   -0.665529
    10  F   -0.645818
    11  H    0.055960
 Sum of Mulliken charges =  -0.00000

 Dipole moment (field-independent basis, Debye):
    X=             -3.0869    Y=             -2.0616    Z=              0.7908  Tot=              3.7953

 Test job not archived.
 1\1\GINC-SE112\SP\RHF\Aug-CC-pVDZ\C2H4F2N1O1P1\OHZDE\09-Apr-2025\0\\#t
  hf aug-cc-pvdz iop(5/13=1,5/36=2,99/5=2) pseudo=read geom=check guess
 =(read,tcheck) scf=(maxcycle=1)\\title\\0,1\H,0,-2.89287834,1.38344137
 ,-2.41875402\H,0,-2.88368966,0.15494314,-3.71690786\H,0,-2.33807438,-0
 .28314113,-2.0686702\C,0,-2.39546429,0.50243917,-2.8151059\O,0,-1.0419
 8507,0.86597867,-3.23651367\C,0,-0.26338211,1.27221362,-2.30729377\N,0
 ,0.4658792,1.6354549,-1.48824768\P,0,0.41264607,-0.5077998,0.35744166\
 F,0,-0.97495618,-0.86004145,-0.38502776\F,0,0.16538593,-1.37568336,1.6

 Normal termination of Gaussian 16 at Wed Apr  9 17:58:55 2025.
