 Gaussian 16, Revision C.01,

 ----------------------------------------------------------------------
 #t hf aug-cc-pvdz symm=none int=(grid=ultrafine) guess=(read,tcheck) s
 table=(opt,rrhf)
 ----------------------------------------------------------------------
 -----
 title
 -----
 Symbolic Z-matrix:
 Charge =  0 Multiplicity = 1

 SCF Done:  E(RHF) =  -215.884816941     A.U. after   13 cycles
 Normal termination of Gaussian 16 at Wed Apr  9 17:56:11 2025.
 Gaussian 16:  ES64L-G16RevC.01  3-Jul-2019

 ----------------------------------------------------------------------
 #t hf aug-cc-pvdz iop(5/13=1,5/36=2,99/5=2) pseudo=read geom=check gue
 ss=(read,tcheck) scf=(maxcycle=1)
 ----------------------------------------------------------------------
 -----
 title
 -----
 Structure from the checkpoint file:  "HB300SPXx10_1412_5.04_0.85_ethyne_methylfluoride_dimer_mol1.chk"
 Charge =  0 Multiplicity = 1

                         Standard orientation:
 ---------------------------------------------------------------------
 Center     Atomic      Atomic             Coordinates (Angstroms)
 Number     Number       Type             X           Y           Z
 ---------------------------------------------------------------------
      1          6           0        1.063161    1.042938    0.000000
      2          1           0        0.000000    0.996031    0.000000
      3          6           0        2.258822    1.079815    0.000000
      4          1           0        3.319300    1.119307    0.000000
      5          1           0       -1.450989   -1.925213    0.893893
      6          1           0       -1.450989   -1.925213   -0.893893
      7          1           0        0.009598   -1.411938    0.000000
      8          6           0       -1.078431   -1.429368    0.000000
      9          9           0       -1.543137   -0.112587    0.000000
 ---------------------------------------------------------------------

 SCF Done:  E(RHF) =  -215.962364090     A.U. after    2 cycles

 The electronic state is 1-A'.
 Alpha  occ. eigenvalues --  -26.11824 -11.32633 -11.24356 -11.23869  -1.64980
 Alpha  occ. eigenvalues --   -1.02020  -0.98057  -0.78459  -0.75339  -0.73795
 Alpha  occ. eigenvalues --   -0.72568  -0.66344  -0.56374  -0.56283  -0.40742
 Alpha  occ. eigenvalues --   -0.40719
 Alpha virt. eigenvalues --    0.03353   0.04184   0.05554   0.05794   0.07062
 Alpha virt. eigenvalues --    0.10771   0.11550   0.12380   0.13019   0.14413
 Alpha virt. eigenvalues --    0.14835   0.15858   0.17305   0.17529   0.18657

 Mulliken charges:
               1
     1  C    0.383370
     2  H   -0.226453
     3  C    0.172740
     4  H   -0.324340
     5  H   -0.103459
     6  H   -0.103459
     7  H   -0.157874
     8  C    0.814119
     9  F   -0.454643
 Sum of Mulliken charges =  -0.00000

 Dipole moment (field-independent basis, Debye):
    X=              0.4105    Y=             -2.3765    Z=              0.0000  Tot=              2.4117

 Test job not archived.
 1\1\GINC-SE229\SP\RHF\Aug-CC-pVDZ\C3H5F1\OHZDE\09-Apr-2025\0\\#t hf au
 g-cc-pvdz iop(5/13=1,5/36=2,99/5=2) pseudo=read geom=check guess=(read
 ,tcheck) scf=(maxcycle=1)\\title\\0,1\C,0,0.31595013,-1.6374503,0.\H,0
 ,0.81540337,-0.69773821,0.\C,0,-0.25942719,-2.68621438,0.\H,0,-0.76390
 634,-3.61984886,0.\H,0,-0.964392,2.0356413,0.8938929\H,0,-0.964392,2.0
 356413,-0.8938929\H,0,-1.26388872,0.51673735,0.\C,0,-0.72641306,1.4629
 0386,0.\F,0,0.64394189,1.19459012,0.\\Version=ES64L-G16RevC.01\State=1
 -A'\HF=-215.9623641\RMSD=6.704e-03\Dipole=-0.8874793,0.3356558,0.\Quad

 Normal termination of Gaussian 16 at Wed Apr  9 17:56:13 2025.
