 Gaussian 16, Revision C.01,

 ----------------------------------------------------------------------
 #t hf aug-cc-pvdz symm=none int=(grid=ultrafine) guess=(read,tcheck) s
 table=(opt,rrhf)
 ----------------------------------------------------------------------
 -----
 title
 -----
 Symbolic Z-matrix:
 Charge =  0 Multiplicity = 1

 SCF Done:  E(RHF) =  -742.480349102     A.U. after   14 cycles
 Normal termination of Gaussian 16 at Wed Apr  9 17:41:15 2025.
 Gaussian 16:  ES64L-G16RevC.01  3-Jul-2019

 ----------------------------------------------------------------------
 #t hf aug-cc-pvdz iop(5/13=1,5/36=2,99/5=2) pseudo=read geom=check gue
 ss=(read,tcheck) scf=(maxcycle=1)
 ----------------------------------------------------------------------
 -----
 title
 -----
 Structure from the checkpoint file:  "HB300SPXx10_1133_4.17_0.90_aceticacid_thioacetone_dimer_mol1.chk"
 Charge =  0 Multiplicity = 1

                         Standard orientation:
 ---------------------------------------------------------------------
 Center     Atomic      Atomic             Coordinates (Angstroms)
 Number     Number       Type             X           Y           Z
 ---------------------------------------------------------------------
      1          6           0       -1.906467    1.370698    0.000000
      2          8           0       -2.106038    0.179073    0.000000
      3          8           0       -0.683825    1.915598    0.000000
      4          1           0        0.000000    1.207700    0.000000
      5          6           0       -2.985733    2.418427    0.000000
      6          1           0       -3.960224    1.943002    0.000000
      7          1           0       -2.880169    3.055713    0.876954
      8          1           0       -2.880169    3.055713   -0.876954
      9          1           0        3.572282   -1.983963    0.000000
     10          1           0        2.514787   -3.114802    0.874412
     11          1           0        2.514787   -3.114802   -0.874412
     12          1           0       -0.676897   -1.304185    0.000000
     13          1           0       -0.011653   -2.704045   -0.872921
     14          6           0        2.600150   -2.464897    0.000000
     15          6           0        1.479448   -1.471376    0.000000
     16         16           0        1.773999    0.132704    0.000000
     17          6           0        0.104907   -2.055673    0.000000
     18          1           0       -0.011653   -2.704045    0.872921
 ---------------------------------------------------------------------

 SCF Done:  E(RHF) =  -742.611157062     A.U. after    2 cycles

 The electronic state is 1-A'.
 Alpha  occ. eigenvalues --  -93.51826 -20.59382 -20.55013 -11.38862 -11.34435
 Alpha  occ. eigenvalues --  -11.25864 -11.24314 -11.24164  -8.81914  -6.16098
 Alpha  occ. eigenvalues --   -6.15701  -6.15579  -1.40636  -1.31005  -1.11942
 Alpha  occ. eigenvalues --   -1.01073  -0.96813  -0.95126  -0.82328  -0.72532
 Alpha  occ. eigenvalues --   -0.71135  -0.67903  -0.64627  -0.62154  -0.62085
 Alpha  occ. eigenvalues --   -0.61168  -0.57929  -0.56584  -0.56125  -0.55277
 Alpha  occ. eigenvalues --   -0.53469  -0.50463  -0.48597  -0.45506  -0.39349
 Alpha  occ. eigenvalues --   -0.35217
 Alpha virt. eigenvalues --    0.03142   0.04089   0.04204   0.05201   0.06239
 Alpha virt. eigenvalues --    0.06259   0.06490   0.06495   0.07860   0.07929
 Alpha virt. eigenvalues --    0.09089   0.09779   0.12395   0.13040   0.13234

 Mulliken charges:
               1
     1  C    0.271545
     2  O   -0.474019
     3  O   -0.470663
     4  H    0.234535
     5  C    0.411173
     6  H   -0.055195
     7  H    0.039704
     8  H    0.039704
     9  H   -0.079077
    10  H    0.047227
    11  H    0.047227
    12  H   -0.491906
    13  H    0.153613
    14  C    0.400630
    15  C   -0.889669
    16  S    0.043020
    17  C    0.618535
    18  H    0.153613
 Sum of Mulliken charges =  -0.00000

 Dipole moment (field-independent basis, Debye):
    X=              0.4145    Y=             -1.8612    Z=              0.0000  Tot=              1.9068

 Test job not archived.
 1\1\GINC-SE226\SP\RHF\Aug-CC-pVDZ\C5H10O2S1\OHZDE\09-Apr-2025\0\\#t hf
  aug-cc-pvdz iop(5/13=1,5/36=2,99/5=2) pseudo=read geom=check guess=(r
 ead,tcheck) scf=(maxcycle=1)\\title\\0,1\C,0,0.15920132,2.45664609,0.\
 O,0,1.21885316,1.87618237,0.\O,0,-1.02533188,1.83322707,0.\H,0,-0.8922
 641,0.85801947,0.\C,0,0.00380934,3.95277518,0.\H,0,0.98023034,4.424223
 4,0.\H,0,-0.56217465,4.2641268,-0.87695442\H,0,-0.56217465,4.2641268,0
 .87695442\H,0,-0.59494687,-3.92314337,0.\H,0,0.94774325,-3.79198655,-0
 .87441231\H,0,0.94774325,-3.79198655,0.87441231\H,0,1.49994451,-0.1642

 Normal termination of Gaussian 16 at Wed Apr  9 17:41:21 2025.
