 Gaussian 16, Revision C.01,

 ----------------------------------------------------------------------
 #t hf aug-cc-pvdz symm=none int=(grid=ultrafine) guess=(read,tcheck) s
 table=(opt,rrhf)
 ----------------------------------------------------------------------
 -----
 title
 -----
 Symbolic Z-matrix:
 Charge =  0 Multiplicity = 1

 SCF Done:  E(RHF) =  -855.907877813     A.U. after   14 cycles
 Normal termination of Gaussian 16 at Wed Apr  9 17:23:12 2025.
 Gaussian 16:  ES64L-G16RevC.01  3-Jul-2019

 ----------------------------------------------------------------------
 #t hf aug-cc-pvdz iop(5/13=1,5/36=2,99/5=2) pseudo=read geom=check gue
 ss=(read,tcheck) scf=(maxcycle=1)
 ----------------------------------------------------------------------
 -----
 title
 -----
 Structure from the checkpoint file:  "HB300SPXx10_1034_4.07_0.95_phosphaalkyne_methanethiol_dimer_mol1.chk"
 Charge =  0 Multiplicity = 1

                         Standard orientation:
 ---------------------------------------------------------------------
 Center     Atomic      Atomic             Coordinates (Angstroms)
 Number     Number       Type             X           Y           Z
 ---------------------------------------------------------------------
      1          1           0       -1.318788    2.142833    1.269763
      2          1           0       -1.582514    2.488728   -0.441719
      3          1           0       -0.016674    1.872545    0.099215
      4         15           0       -2.017693   -1.010135   -0.169797
      5          6           0       -1.551131    0.441325    0.050194
      6          6           0       -1.095891    1.804899    0.256075
      7          1           0        0.878058   -0.205585    1.524320
      8          1           0        2.635440   -0.400572    1.641848
      9          1           0        1.648404   -1.713084    0.983414
     10          1           0        0.850726   -0.257306   -1.123909
     11          6           0        1.754997   -0.634388    1.049177
     12         16           0        2.032681    0.097091   -0.596166
 ---------------------------------------------------------------------

 SCF Done:  E(RHF) =  -855.983675324     A.U. after    2 cycles

 The electronic state is 1-A.
 Alpha  occ. eigenvalues --  -93.53037 -81.24815 -11.29193 -11.26561 -11.26358
 Alpha  occ. eigenvalues --   -8.82807  -7.75706  -6.16971  -6.16761  -6.16455
 Alpha  occ. eigenvalues --   -4.89712  -4.89207  -4.89175  -1.04500  -1.02412
 Alpha  occ. eigenvalues --   -0.88344  -0.85904  -0.65234  -0.61613  -0.60260
 Alpha  occ. eigenvalues --   -0.60126  -0.58397  -0.52653  -0.46520  -0.45597
 Alpha  occ. eigenvalues --   -0.36444  -0.36253  -0.35224
 Alpha virt. eigenvalues --    0.03270   0.04385   0.05104   0.05578   0.06410
 Alpha virt. eigenvalues --    0.06926   0.07257   0.07898   0.08013   0.08855
 Alpha virt. eigenvalues --    0.11167   0.12550   0.12955   0.14311   0.14514

 Mulliken charges:
               1
     1  H    0.058482
     2  H    0.003115
     3  H   -0.073629
     4  P   -0.215524
     5  C   -0.413891
     6  C    0.630389
     7  H   -0.142976
     8  H   -0.089109
     9  H   -0.107507
    10  H    0.114511
    11  C    0.144361
    12  S    0.091777
 Sum of Mulliken charges =  -0.00000

 Dipole moment (field-independent basis, Debye):
    X=             -0.6916    Y=              0.2264    Z=              1.2517  Tot=              1.4478

 Test job not archived.
 1\1\GINC-SE045\SP\RHF\Aug-CC-pVDZ\C3H7P1S1\OHZDE\09-Apr-2025\0\\#t hf
 aug-cc-pvdz iop(5/13=1,5/36=2,99/5=2) pseudo=read geom=check guess=(re
 ad,tcheck) scf=(maxcycle=1)\\title\\0,1\H,0,0.38933231,2.34404549,-1.6
 8180664\H,0,-1.19987448,1.75919838,-2.18254684\H,0,0.10218747,0.605834
 91,-1.86864837\P,0,-1.17058474,1.34195856,1.32892267\C,0,-0.7484701,1.
 45533882,-0.14816129\C,0,-0.34350289,1.5476729,-1.53972175\H,0,1.80447
 195,0.0766849,0.12441975\H,0,2.84789807,-1.34272113,-0.06734599\H,0,1.
 77531515,-1.22434948,1.33480193\H,0,-0.44482784,-1.29108872,-0.1694924

 Normal termination of Gaussian 16 at Wed Apr  9 17:23:19 2025.
