 Gaussian 16, Revision C.01,

 ----------------------------------------------------------------------
 #t hf aug-cc-pvdz symm=none int=(grid=ultrafine) guess=(read,tcheck) s
 table=(opt,rrhf)
 ----------------------------------------------------------------------
 -----
 title
 -----
 Symbolic Z-matrix:
 Charge =  0 Multiplicity = 1

 SCF Done:  E(RHF) =  -989.349980009     A.U. after   14 cycles
 Normal termination of Gaussian 16 at Wed Apr  9 17:41:54 2025.
 Gaussian 16:  ES64L-G16RevC.01  3-Jul-2019

 ----------------------------------------------------------------------
 #t hf aug-cc-pvdz iop(5/13=1,5/36=2,99/5=2) pseudo=read geom=check gue
 ss=(read,tcheck) scf=(maxcycle=1)
 ----------------------------------------------------------------------
 -----
 title
 -----
 Structure from the checkpoint file:  "HB300SPXx10_1141_4.19_0.80_methanol_dimethyldisulfide_dimer_mol1.chk"
 Charge =  0 Multiplicity = 1

                         Standard orientation:
 ---------------------------------------------------------------------
 Center     Atomic      Atomic             Coordinates (Angstroms)
 Number     Number       Type             X           Y           Z
 ---------------------------------------------------------------------
      1          8           0        2.466265    0.082416   -0.138692
      2          1           0        1.659341    0.317726   -0.612466
      3          6           0        2.367809   -1.276938    0.256851
      4          1           0        3.269193   -1.514978    0.817475
      5          1           0        1.501541   -1.455189    0.900407
      6          1           0        2.307340   -1.950715   -0.602615
      7          1           0       -3.159957   -1.505236    0.570717
      8          1           0       -3.182982   -0.234421   -0.671362
      9          1           0       -2.853504    0.178828    1.033064
     10          1           0        0.917304    1.275598    1.388652
     11          1           0       -0.735586    1.964203    1.411329
     12          1           0        0.556015    2.766915    0.496613
     13          6           0       -2.715515   -0.563377    0.251876
     14         16           0       -0.948361   -0.906337   -0.017684
     15         16           0       -0.231885    0.888348   -0.706401
     16          6           0        0.160226    1.804608    0.818454
 ---------------------------------------------------------------------

 SCF Done:  E(RHF) =  -989.459598126     A.U. after    2 cycles

 The electronic state is 1-A.
 Alpha  occ. eigenvalues --  -93.56563 -93.56330 -20.53899 -11.27774 -11.27222
 Alpha  occ. eigenvalues --  -11.26370  -8.86289  -8.85985  -6.20438  -6.20154
 Alpha  occ. eigenvalues --   -6.20100  -6.19974  -6.19859  -6.19523  -1.29559
 Alpha  occ. eigenvalues --   -1.08369  -1.01136  -0.90996  -0.90889  -0.78963
 Alpha  occ. eigenvalues --   -0.69330  -0.62175  -0.62037  -0.60932  -0.59177
 Alpha  occ. eigenvalues --   -0.59130  -0.58229  -0.53995  -0.50424  -0.49208
 Alpha  occ. eigenvalues --   -0.44863  -0.44051  -0.37021  -0.35882
 Alpha virt. eigenvalues --    0.03190   0.04349   0.04865   0.05248   0.06121
 Alpha virt. eigenvalues --    0.06591   0.07079   0.08093   0.08222   0.09118
 Alpha virt. eigenvalues --    0.10092   0.11243   0.13120   0.13501   0.13995

 Mulliken charges:
               1
     1  O   -0.547250
     2  H    0.370688
     3  C    0.976567
     4  H   -0.221356
     5  H   -0.188994
     6  H   -0.169074
     7  H   -0.075893
     8  H   -0.030422
     9  H   -0.089987
    10  H   -0.127362
    11  H   -0.117844
    12  H   -0.072150
    13  C    0.016681
    14  S    0.239339
    15  S   -0.259095
    16  C    0.296154
 Sum of Mulliken charges =  -0.00000

 Dipole moment (field-independent basis, Debye):
    X=             -3.3097    Y=              0.1792    Z=              1.3869  Tot=              3.5930

 Test job not archived.
 1\1\GINC-SE041\SP\RHF\Aug-CC-pVDZ\C3H10O1S2\OHZDE\09-Apr-2025\0\\#t hf
  aug-cc-pvdz iop(5/13=1,5/36=2,99/5=2) pseudo=read geom=check guess=(r
 ead,tcheck) scf=(maxcycle=1)\\title\\0,1\O,0,-0.42925951,1.22968046,-2
 .50380826\H,0,-0.36156068,1.36890772,-1.5514469\C,0,-1.37991091,0.2017
 0921,-2.7351714\H,0,-1.41855104,0.0350798,-3.80950666\H,0,-1.09677682,
 -0.73598734,-2.24842974\H,0,-2.37984798,0.48334645,-2.39294418\H,0,-0.
 70128705,-2.46101318,2.07691861\H,0,-0.23585442,-0.89023269,2.7656012\
 H,0,0.93098107,-1.8286326,1.79487935\H,0,1.55873347,0.03475558,-1.6230

 Normal termination of Gaussian 16 at Wed Apr  9 17:41:59 2025.
