 Gaussian 16, Revision C.01,

 ----------------------------------------------------------------------
 #t hf aug-cc-pvdz symm=none int=(grid=ultrafine) guess=(read,tcheck) s
 table=(opt,rrhf)
 ----------------------------------------------------------------------
 -----
 title
 -----
 Symbolic Z-matrix:
 Charge =  0 Multiplicity = 1

 SCF Done:  E(RHF) =  -875.464525602     A.U. after   11 cycles
 Normal termination of Gaussian 16 at Wed Apr  9 17:49:13 2025.
 Gaussian 16:  ES64L-G16RevC.01  3-Jul-2019

 ----------------------------------------------------------------------
 #t hf aug-cc-pvdz iop(5/13=1,5/36=2,99/5=2) pseudo=read geom=check gue
 ss=(read,tcheck) scf=(maxcycle=1)
 ----------------------------------------------------------------------
 -----
 title
 -----
 Structure from the checkpoint file:  "HB300SPXx10_1218_4.26_1.25_sulfane_dimethylsulfide_dimer_mol1.chk"
 Charge =  0 Multiplicity = 1

                         Standard orientation:
 ---------------------------------------------------------------------
 Center     Atomic      Atomic             Coordinates (Angstroms)
 Number     Number       Type             X           Y           Z
 ---------------------------------------------------------------------
      1          1           0        1.614990   -0.022304   -0.560246
      2          1           0        3.137275    1.177487   -0.347958
      3         16           0        2.828881   -0.069348    0.036584
      4          1           0       -2.270847   -1.399828    1.169124
      5          1           0       -0.493517   -1.348873    1.075473
      6          1           0       -1.422466   -2.297720   -0.100300
      7          1           0       -1.506073    2.297371   -0.022669
      8          1           0       -0.526655    1.344996    1.108236
      9          1           0       -2.306447    1.325506    1.222677
     10          6           0       -1.415116   -1.389539    0.497103
     11         16           0       -1.515942    0.009081   -0.648510
     12          6           0       -1.457100    1.370813    0.543976
 ---------------------------------------------------------------------

 SCF Done:  E(RHF) =  -875.535437505     A.U. after    2 cycles

 The electronic state is 1-A.
 Alpha  occ. eigenvalues --  -93.54456 -93.52976 -11.26470 -11.26445  -8.84204
 Alpha  occ. eigenvalues --   -8.82728  -6.18390  -6.18174  -6.17805  -6.16866
 Alpha  occ. eigenvalues --   -6.16658  -6.16349  -1.05510  -0.96261  -0.95337
 Alpha  occ. eigenvalues --   -0.80542  -0.61263  -0.61038  -0.58440  -0.58177
 Alpha  occ. eigenvalues --   -0.57282  -0.49951  -0.49233  -0.43697  -0.37865
 Alpha  occ. eigenvalues --   -0.34042
 Alpha virt. eigenvalues --    0.03391   0.04407   0.04799   0.05783   0.07013
 Alpha virt. eigenvalues --    0.07310   0.07859   0.08959   0.10727   0.11753
 Alpha virt. eigenvalues --    0.13310   0.13708   0.14465   0.15852   0.16171

 Mulliken charges:
               1
     1  H    0.029972
     2  H    0.003259
     3  S   -0.023322
     4  H   -0.084024
     5  H   -0.120444
     6  H   -0.102050
     7  H   -0.103540
     8  H   -0.103445
     9  H   -0.084035
    10  C    0.150199
    11  S    0.293406
    12  C    0.144023
 Sum of Mulliken charges =  -0.00000

 Dipole moment (field-independent basis, Debye):
    X=             -0.6697    Y=              0.7107    Z=              1.1954  Tot=              1.5435

 Test job not archived.
 1\1\GINC-SE030\SP\RHF\Aug-CC-pVDZ\C2H8S2\OHZDE\09-Apr-2025\0\\#t hf au
 g-cc-pvdz iop(5/13=1,5/36=2,99/5=2) pseudo=read geom=check guess=(read
 ,tcheck) scf=(maxcycle=1)\\title\\0,1\H,0,0.94021613,0.77457481,-0.419
 26695\H,0,0.91265107,2.63108631,-1.01468344\S,0,1.34625135,1.9701562,0
 .06824785\H,0,-1.24894681,-2.42044501,1.81399064\H,0,-0.23306281,-0.96
 270944,1.6988509\H,0,0.46312295,-2.56307641,1.38286314\H,0,-2.59239218
 ,-0.60270426,-1.43647131\H,0,-2.0088472,0.19513338,0.03599525\H,0,-3.0
 5716098,-1.24351616,0.14762454\C,0,-0.42741385,-1.94834432,1.27901568\

 Normal termination of Gaussian 16 at Wed Apr  9 17:49:17 2025.
