 Gaussian 16, Revision C.01,

 ----------------------------------------------------------------------
 #t hf aug-cc-pvdz symm=none int=(grid=ultrafine) guess=(read,tcheck) s
 table=(opt,rrhf)
 ----------------------------------------------------------------------
 -----
 title
 -----
 Symbolic Z-matrix:
 Charge =  0 Multiplicity = 1

 SCF Done:  E(RHF) =  -797.387209147     A.U. after   11 cycles
 Normal termination of Gaussian 16 at Wed Apr  9 17:49:07 2025.
 Gaussian 16:  ES64L-G16RevC.01  3-Jul-2019

 ----------------------------------------------------------------------
 #t hf aug-cc-pvdz iop(5/13=1,5/36=2,99/5=2) pseudo=read geom=check gue
 ss=(read,tcheck) scf=(maxcycle=1)
 ----------------------------------------------------------------------
 -----
 title
 -----
 Structure from the checkpoint file:  "HB300SPXx10_1221_4.27_0.80_sulfane_sulfane_dimer_mol1.chk"
 Charge =  0 Multiplicity = 1

                         Standard orientation:
 ---------------------------------------------------------------------
 Center     Atomic      Atomic             Coordinates (Angstroms)
 Number     Number       Type             X           Y           Z
 ---------------------------------------------------------------------
      1          1           0       -0.462561   -0.080554   -0.105762
      2          1           0       -1.854581    1.263146    0.081838
      3         16           0       -1.804260   -0.074165   -0.003713
      4          1           0        1.675825    0.374631    1.219399
      5          1           0        1.882297    1.133687   -0.553825
      6         16           0        1.726698   -0.094017   -0.036390
 ---------------------------------------------------------------------

 SCF Done:  E(RHF) =  -797.430016055     A.U. after    2 cycles

 The electronic state is 1-A.
 Alpha  occ. eigenvalues --  -93.56473 -93.52612  -8.86304  -8.82485  -6.20468
 Alpha  occ. eigenvalues --   -6.20281  -6.19986  -6.16671  -6.16466  -6.16099
 Alpha  occ. eigenvalues --   -0.99093  -0.95057  -0.60619  -0.58374  -0.51321
 Alpha  occ. eigenvalues --   -0.48877  -0.38766  -0.36633
 Alpha virt. eigenvalues --    0.02874   0.05665   0.05972   0.06911   0.10803
 Alpha virt. eigenvalues --    0.11706   0.11921   0.14113   0.14709   0.15540
 Alpha virt. eigenvalues --    0.17728   0.19663   0.20677   0.23648   0.24335

 Mulliken charges:
               1
     1  H    0.073479
     2  H    0.003610
     3  S   -0.002480
     4  H    0.057691
     5  H    0.051864
     6  S   -0.184164
 Sum of Mulliken charges =   0.00000

 Dipole moment (field-independent basis, Debye):
    X=              1.6783    Y=              1.6753    Z=              0.3929  Tot=              2.4037

 Test job not archived.
 1\1\GINC-SE173\SP\RHF\Aug-CC-pVDZ\H4S2\OHZDE\09-Apr-2025\0\\#t hf aug-
 cc-pvdz iop(5/13=1,5/36=2,99/5=2) pseudo=read geom=check guess=(read,t
 check) scf=(maxcycle=1)\\title\\0,1\H,0,0.53139832,0.64498716,-0.29055
 053\H,0,2.23879772,0.67266195,0.63813986\S,0,1.60273769,1.45777787,-0.
 24349168\H,0,-1.44932118,-0.18449265,1.09676808\H,0,-0.68135046,-1.700
 05174,0.16059337\S,0,-1.29581503,-0.55810331,-0.18232447\\Version=ES64
 L-G16RevC.01\State=1-A\HF=-797.4300161\RMSD=9.892e-03\Dipole=-0.286214
 4,-0.7195425,0.5428294\Quadrupole=-1.1828578,0.3141468,0.868711,-1.950

 Normal termination of Gaussian 16 at Wed Apr  9 17:49:08 2025.
