 Gaussian 16, Revision C.01,

 ----------------------------------------------------------------------
 #t hf aug-cc-pvdz symm=none int=(grid=ultrafine) guess=(read,tcheck) s
 table=(opt,rrhf)
 ----------------------------------------------------------------------
 -----
 title
 -----
 Symbolic Z-matrix:
 Charge =  0 Multiplicity = 1

 SCF Done:  E(RHF) =  -601.597215427     A.U. after   14 cycles
 Normal termination of Gaussian 16 at Wed Apr  9 17:27:46 2025.
 Gaussian 16:  ES64L-G16RevC.01  3-Jul-2019

 ----------------------------------------------------------------------
 #t hf aug-cc-pvdz iop(5/13=1,5/36=2,99/5=2) pseudo=read geom=check gue
 ss=(read,tcheck) scf=(maxcycle=1)
 ----------------------------------------------------------------------
 -----
 title
 -----
 Structure from the checkpoint file:  "HB300SPXx10_105_1.11_1.00_sulfane_methylazide_dimer_mol1.chk"
 Charge =  0 Multiplicity = 1

                         Standard orientation:
 ---------------------------------------------------------------------
 Center     Atomic      Atomic             Coordinates (Angstroms)
 Number     Number       Type             X           Y           Z
 ---------------------------------------------------------------------
      1          1           0       -1.350135   -0.533165   -0.012753
      2          1           0       -2.834379   -0.420773    1.239530
      3         16           0       -2.670554   -0.283679   -0.084295
      4          1           0        1.276389    1.944844   -0.910117
      5          1           0        1.324450    1.981650    0.869575
      6          1           0       -0.228660    1.857476    0.022655
      7          6           0        0.814615    1.562427    0.001111
      8          7           0        0.831658    0.090420    0.031408
      9          7           0        1.936512   -0.439273    0.004136
     10          7           0        2.896618   -1.031965   -0.016520
 ---------------------------------------------------------------------

 SCF Done:  E(RHF) =  -601.681120241     A.U. after    2 cycles

 The electronic state is 1-A.
 Alpha  occ. eigenvalues --  -93.53512 -15.85986 -15.74273 -15.68147 -11.29405
 Alpha  occ. eigenvalues --   -8.83307  -6.17500  -6.17286  -6.16929  -1.46428
 Alpha  occ. eigenvalues --   -1.27361  -0.99892  -0.95676  -0.73538  -0.71447
 Alpha  occ. eigenvalues --   -0.71113  -0.66332  -0.60037  -0.58306  -0.57463
 Alpha  occ. eigenvalues --   -0.48854  -0.44048  -0.38115  -0.37192
 Alpha virt. eigenvalues --    0.03163   0.04446   0.04907   0.06309   0.07479
 Alpha virt. eigenvalues --    0.09757   0.10818   0.11066   0.11958   0.12534
 Alpha virt. eigenvalues --    0.13833   0.14430   0.15820   0.16005   0.17815

 Mulliken charges:
               1
     1  H    0.019379
     2  H    0.017287
     3  S   -0.034669
     4  H   -0.052008
     5  H   -0.054159
     6  H   -0.218090
     7  C    0.816500
     8  N   -0.697633
     9  N    0.490535
    10  N   -0.287142
 Sum of Mulliken charges =  -0.00000

 Dipole moment (field-independent basis, Debye):
    X=              1.1011    Y=              1.8227    Z=              0.7503  Tot=              2.2578

 Test job not archived.
 1\1\GINC-SE232\SP\RHF\Aug-CC-pVDZ\C1H5N3S1\OHZDE\09-Apr-2025\0\\#t hf
 aug-cc-pvdz iop(5/13=1,5/36=2,99/5=2) pseudo=read geom=check guess=(re
 ad,tcheck) scf=(maxcycle=1)\\title\\0,1\H,0,1.21774303,0.78814331,-0.0
 7896573\H,0,1.90622629,2.11329938,-1.32547278\S,0,1.84165876,1.9773473
 1,0.00700442\H,0,-2.23552508,0.16786644,1.15983038\H,0,-2.48636659,0.2
 7397993,-0.59993825\H,0,-1.34356073,1.36562933,0.20451209\C,0,-1.75153
 504,0.36089654,0.20154635\N,0,-0.6147675,-0.54936555,-0.01569769\N,0,-
 0.87655535,-1.74635868,-0.04207559\N,0,-1.00089592,-2.86717166,-0.0848

 Normal termination of Gaussian 16 at Wed Apr  9 17:27:49 2025.
