 Gaussian 16, Revision C.01,

 ----------------------------------------------------------------------
 #t hf aug-cc-pvdz symm=none int=(grid=ultrafine) guess=(read,tcheck) s
 table=(opt,rrhf)
 ----------------------------------------------------------------------
 -----
 title
 -----
 Symbolic Z-matrix:
 Charge =  0 Multiplicity = 1

 SCF Done:  E(RHF) =  -648.904360402     A.U. after   13 cycles
 Normal termination of Gaussian 16 at Wed Apr  9 17:32:05 2025.
 Gaussian 16:  ES64L-G16RevC.01  3-Jul-2019

 ----------------------------------------------------------------------
 #t hf aug-cc-pvdz iop(5/13=1,5/36=2,99/5=2) pseudo=read geom=check gue
 ss=(read,tcheck) scf=(maxcycle=1)
 ----------------------------------------------------------------------
 -----
 title
 -----
 Structure from the checkpoint file:  "HB300SPXx10_1082_4.12_0.85_methylamine_tetrahydrothiophene_dimer_mol1.chk"
 Charge =  0 Multiplicity = 1

                         Standard orientation:
 ---------------------------------------------------------------------
 Center     Atomic      Atomic             Coordinates (Angstroms)
 Number     Number       Type             X           Y           Z
 ---------------------------------------------------------------------
      1          7           0       -1.973250   -0.286666   -0.848907
      2          1           0       -1.295471   -0.884928   -0.388209
      3          1           0       -2.498721   -0.867345   -1.488623
      4          6           0       -2.861774    0.328524    0.135626
      5          1           0       -3.596331    0.951223   -0.374137
      6          1           0       -3.403597   -0.378298    0.774984
      7          1           0       -2.281126    0.983938    0.784901
      8          1           0        1.279317    0.591180    2.060458
      9          1           0       -0.467803    0.492361    1.822621
     10          1           0        0.868545    2.450399    0.563350
     11          1           0        0.519063   -0.611225   -1.787695
     12          1           0       -0.342281    1.536528   -0.342891
     13          1           0        2.162170   -1.128576   -1.371783
     14          1           0        1.705237    1.491322   -1.707316
     15          1           0        2.656967    0.981334   -0.313621
     16         16           0        0.697099   -1.210761    0.552349
     17          6           0        0.494735    0.450719    1.319585
     18          6           0        0.610358    1.462590    0.180837
     19          6           0        1.670980    0.923055   -0.777704
     20          6           0        1.311234   -0.536400   -1.046224
 ---------------------------------------------------------------------

 SCF Done:  E(RHF) =  -649.003715935     A.U. after    2 cycles

 The electronic state is 1-A.
 Alpha  occ. eigenvalues --  -93.51643 -15.58775 -11.26139 -11.25849 -11.24772
 Alpha  occ. eigenvalues --  -11.23730 -11.23259  -8.81460  -6.15597  -6.15437
 Alpha  occ. eigenvalues --   -6.15194  -1.13153  -1.11139  -0.97861  -0.95609
 Alpha  occ. eigenvalues --   -0.88560  -0.79148  -0.77831  -0.67489  -0.64253
 Alpha  occ. eigenvalues --   -0.63528  -0.60569  -0.59293  -0.55593  -0.54091
 Alpha  occ. eigenvalues --   -0.51594  -0.50339  -0.49070  -0.47827  -0.47479
 Alpha  occ. eigenvalues --   -0.42021  -0.37552  -0.33050
 Alpha virt. eigenvalues --    0.03361   0.04196   0.04249   0.04675   0.06103
 Alpha virt. eigenvalues --    0.06215   0.06407   0.06902   0.08150   0.08915
 Alpha virt. eigenvalues --    0.09320   0.10073   0.10213   0.12009   0.13368

 Mulliken charges:
               1
     1  N   -0.427658
     2  H    0.132390
     3  H    0.016435
     4  C    0.936164
     5  H   -0.173774
     6  H   -0.127769
     7  H   -0.342353
     8  H   -0.147667
     9  H   -0.172278
    10  H   -0.081868
    11  H   -0.178298
    12  H   -0.226485
    13  H   -0.100737
    14  H   -0.103179
    15  H   -0.164590
    16  S    0.210369
    17  C    0.165588
    18  C    0.383071
    19  C    0.127077
    20  C    0.275562
 Sum of Mulliken charges =  -0.00000

 Dipole moment (field-independent basis, Debye):
    X=             -0.0715    Y=              1.0593    Z=             -0.2421  Tot=              1.0890

 Test job not archived.
 1\1\GINC-SE232\SP\RHF\Aug-CC-pVDZ\C5H13N1S1\OHZDE\09-Apr-2025\0\\#t hf
  aug-cc-pvdz iop(5/13=1,5/36=2,99/5=2) pseudo=read geom=check guess=(r
 ead,tcheck) scf=(maxcycle=1)\\title\\0,1\N,0,-0.48023551,2.04199658,1.
 33183501\H,0,-0.98136805,1.22913012,0.98881982\H,0,-1.14375731,2.80345
 765,1.38144373\C,0,0.08991425,1.76981847,2.65020044\H,0,0.60698078,2.6
 5693888,3.01468146\H,0,-0.63523497,1.46399211,3.41346792\H,0,0.8338340
 5,0.97768014,2.5643137\H,0,0.87465781,-2.06752869,0.28767257\H,0,0.584
 83575,-0.92491904,1.60266577\H,0,2.60288754,-0.41345964,-0.09184874\H,

 Normal termination of Gaussian 16 at Wed Apr  9 17:32:14 2025.
