 Gaussian 16, Revision C.01,

 ----------------------------------------------------------------------
 #t hf aug-cc-pvdz symm=none int=(grid=ultrafine) guess=(read,tcheck) s
 table=(opt,rrhf)
 ----------------------------------------------------------------------
 -----
 title
 -----
 Symbolic Z-matrix:
 Charge =  0 Multiplicity = 1

 SCF Done:  E(RHF) =  -215.886651006     A.U. after   13 cycles
 Normal termination of Gaussian 16 at Wed Apr  9 17:56:36 2025.
 Gaussian 16:  ES64L-G16RevC.01  3-Jul-2019

 ----------------------------------------------------------------------
 #t hf aug-cc-pvdz iop(5/13=1,5/36=2,99/5=2) pseudo=read geom=check gue
 ss=(read,tcheck) scf=(maxcycle=1)
 ----------------------------------------------------------------------
 -----
 title
 -----
 Structure from the checkpoint file:  "HB300SPXx10_1413_5.04_0.90_ethyne_methylfluoride_dimer_mol1.chk"
 Charge =  0 Multiplicity = 1

                         Standard orientation:
 ---------------------------------------------------------------------
 Center     Atomic      Atomic             Coordinates (Angstroms)
 Number     Number       Type             X           Y           Z
 ---------------------------------------------------------------------
      1          6           0        1.059548    1.133326    0.000000
      2          1           0        0.000000    1.033974    0.000000
      3          6           0        2.251929    1.229201    0.000000
      4          1           0        3.309163    1.321014    0.000000
      5          1           0       -1.392404   -2.024974    0.893893
      6          1           0       -1.392404   -2.024974   -0.893893
      7          1           0        0.041055   -1.440199    0.000000
      8          6           0       -1.044786   -1.511336    0.000000
      9          9           0       -1.573951   -0.219110    0.000000
 ---------------------------------------------------------------------

 SCF Done:  E(RHF) =  -215.964318463     A.U. after    2 cycles

 The electronic state is 1-A'.
 Alpha  occ. eigenvalues --  -26.11624 -11.32580 -11.24545 -11.24097  -1.64699
 Alpha  occ. eigenvalues --   -1.02142  -0.97924  -0.77794  -0.75129  -0.74014
 Alpha  occ. eigenvalues --   -0.72411  -0.66794  -0.56245  -0.56181  -0.40885
 Alpha  occ. eigenvalues --   -0.40853
 Alpha virt. eigenvalues --    0.03356   0.04169   0.05574   0.05800   0.07039
 Alpha virt. eigenvalues --    0.10720   0.11504   0.12276   0.12859   0.14454
 Alpha virt. eigenvalues --    0.14813   0.15805   0.17314   0.17451   0.18672

 Mulliken charges:
               1
     1  C    0.378604
     2  H   -0.236455
     3  C    0.185514
     4  H   -0.319019
     5  H   -0.104175
     6  H   -0.104175
     7  H   -0.157588
     8  C    0.815090
     9  F   -0.457797
 Sum of Mulliken charges =  -0.00000

 Dipole moment (field-independent basis, Debye):
    X=              0.5855    Y=             -2.3213    Z=              0.0000  Tot=              2.3940

 Test job not archived.
 1\1\GINC-SE029\SP\RHF\Aug-CC-pVDZ\C3H5F1\OHZDE\09-Apr-2025\0\\#t hf au
 g-cc-pvdz iop(5/13=1,5/36=2,99/5=2) pseudo=read geom=check guess=(read
 ,tcheck) scf=(maxcycle=1)\\title\\0,1\C,0,0.31595013,-1.6374503,0.\H,0
 ,0.81540337,-0.69773821,0.\C,0,-0.25942719,-2.68621438,0.\H,0,-0.76390
 634,-3.61984886,0.\H,0,-0.97447797,2.14695473,0.8938929\H,0,-0.9744779
 7,2.14695473,-0.8938929\H,0,-1.27397469,0.62805079,0.\C,0,-0.73649903,
 1.57421729,0.\F,0,0.63385592,1.30590355,0.\\Version=ES64L-G16RevC.01\S
 tate=1-A'\HF=-215.9643185\RMSD=6.605e-03\Dipole=-0.8895339,0.3096157,0

 Normal termination of Gaussian 16 at Wed Apr  9 17:56:38 2025.
