 Gaussian 16, Revision C.01,

 ----------------------------------------------------------------------
 #t hf aug-cc-pvdz symm=none int=(grid=ultrafine) guess=(read,tcheck) s
 table=(opt,rrhf)
 ----------------------------------------------------------------------
 -----
 title
 -----
 Symbolic Z-matrix:
 Charge =  0 Multiplicity = 1

 SCF Done:  E(RHF) =  -497.437350885     A.U. after   13 cycles
 Normal termination of Gaussian 16 at Wed Apr  9 18:00:28 2025.
 Gaussian 16:  ES64L-G16RevC.01  3-Jul-2019

 ----------------------------------------------------------------------
 #t hf aug-cc-pvdz iop(5/13=1,5/36=2,99/5=2) pseudo=read geom=check gue
 ss=(read,tcheck) scf=(maxcycle=1)
 ----------------------------------------------------------------------
 -----
 title
 -----
 Structure from the checkpoint file:  "HB300SPXx10_1471_5.10_0.80_phosphaalkene_phosphineF2_dimer_mol2.chk"
 Charge =  0 Multiplicity = 1

                         Standard orientation:
 ---------------------------------------------------------------------
 Center     Atomic      Atomic             Coordinates (Angstroms)
 Number     Number       Type             X           Y           Z
 ---------------------------------------------------------------------
      1          1           0        3.047517   -0.170923    0.016460
      2          1           0        2.089595    1.004982   -0.885390
      3          1           0        2.073907    1.013478    0.887036
      4          1           0       -1.872359   -1.758834   -0.006797
      5          1           0       -1.443819    1.878446   -0.829047
      6          1           0       -2.571462   -0.410978    0.898141
      7          1           0       -2.608320   -0.393366   -0.858213
      8          1           0        0.139411    2.062432   -0.072183
      9          1           0       -1.311855    1.870625    0.916830
     10         15           0        0.722150   -0.860175   -0.001974
     11          6           0       -0.688604    0.055010   -0.013497
     12          6           0       -2.001714   -0.678086    0.004323
     13          6           0       -0.812558    1.547232   -0.000825
     14          6           0        2.107063    0.376971    0.003793
 ---------------------------------------------------------------------

 SCF Done:  E(RHF) =  -497.508832276     A.U. after    2 cycles

 The electronic state is 1-A.
 Alpha  occ. eigenvalues --  -81.23151 -11.26762 -11.24042 -11.23615 -11.22912
 Alpha  occ. eigenvalues --   -7.73720  -4.87771  -4.87404  -4.87300  -1.06700
 Alpha  occ. eigenvalues --   -0.95778  -0.94357  -0.81875  -0.66594  -0.60265
 Alpha  occ. eigenvalues --   -0.60092  -0.58689  -0.56710  -0.54751  -0.54653
 Alpha  occ. eigenvalues --   -0.51334  -0.46476  -0.35105  -0.31199
 Alpha virt. eigenvalues --    0.03390   0.04379   0.04819   0.05171   0.06657
 Alpha virt. eigenvalues --    0.06855   0.07276   0.07937   0.08663   0.08832
 Alpha virt. eigenvalues --    0.10110   0.11571   0.13011   0.14297   0.14777

 Mulliken charges:
               1
     1  H   -0.315634
     2  H   -0.136566
     3  H   -0.141408
     4  H   -0.168912
     5  H    0.006925
     6  H    0.041174
     7  H    0.038897
     8  H   -0.191521
     9  H    0.032453
    10  P    0.344953
    11  C   -0.612904
    12  C    0.494311
    13  C    0.414171
    14  C    0.194061
 Sum of Mulliken charges =  -0.00000

 Dipole moment (field-independent basis, Debye):
    X=             -0.4127    Y=              1.6397    Z=              0.0401  Tot=              1.6914

 Test job not archived.
 1\1\GINC-SE232\SP\RHF\Aug-CC-pVDZ\C4H9P1\OHZDE\09-Apr-2025\0\\#t hf au
 g-cc-pvdz iop(5/13=1,5/36=2,99/5=2) pseudo=read geom=check guess=(read
 ,tcheck) scf=(maxcycle=1)\\title\\0,1\H,0,-0.66372889,3.26375392,-1.41
 484082\H,0,0.57607353,2.07688321,-1.82463407\H,0,-0.55842324,2.6448712
 ,-3.06242126\H,0,-2.87100416,-1.40911587,-1.55416728\H,0,0.42715494,-1
 .23076192,-3.33739031\H,0,-2.60862974,-1.75549695,-3.26751243\H,0,-1.4
 7646146,-2.36750684,-2.07165071\H,0,0.4157342,0.51539066,-3.59063392\H
 ,0,-0.67072928,-0.53226666,-4.50884988\P,0,-1.6570918,1.05342876,-1.51

 Normal termination of Gaussian 16 at Wed Apr  9 18:00:32 2025.
