 Gaussian 16, Revision C.01,

 ----------------------------------------------------------------------
 #t hf aug-cc-pvdz symm=none int=(grid=ultrafine) guess=(read,tcheck) s
 table=(opt,rrhf)
 ----------------------------------------------------------------------
 -----
 title
 -----
 Symbolic Z-matrix:
 Charge =  0 Multiplicity = 1

 SCF Done:  E(RHF) =  -977.989508416     A.U. after   13 cycles
 Normal termination of Gaussian 16 at Wed Apr  9 17:58:19 2025.
 Gaussian 16:  ES64L-G16RevC.01  3-Jul-2019

 ----------------------------------------------------------------------
 #t hf aug-cc-pvdz iop(5/13=1,5/36=2,99/5=2) pseudo=read geom=check gue
 ss=(read,tcheck) scf=(maxcycle=1)
 ----------------------------------------------------------------------
 -----
 title
 -----
 Structure from the checkpoint file:  "HB300SPXx10_1443_5.07_0.90_methanethiol_phosphineF2_dimer_mol1.chk"
 Charge =  0 Multiplicity = 1

                         Standard orientation:
 ---------------------------------------------------------------------
 Center     Atomic      Atomic             Coordinates (Angstroms)
 Number     Number       Type             X           Y           Z
 ---------------------------------------------------------------------
      1          1           0        1.340866    1.646420   -0.055105
      2          1           0        1.925772    0.924494   -1.560450
      3          1           0        3.079542    1.300603   -0.271488
      4          1           0        1.928916   -0.463689    1.433964
      5          6           0        2.069131    0.965635   -0.484222
      6         16           0        1.804058   -0.730522    0.125216
      7         15           0       -1.122960   -0.230284   -0.284862
      8          9           0       -0.799224    0.955081    0.746870
      9          9           0       -2.725335   -0.151299   -0.194434
     10          1           0       -0.989377   -1.293075    0.655966
 ---------------------------------------------------------------------

 SCF Done:  E(RHF) =  -978.134195684     A.U. after    2 cycles

 The electronic state is 1-A.
 Alpha  occ. eigenvalues --  -93.55098 -81.38613 -26.13413 -26.12387 -11.27702
 Alpha  occ. eigenvalues --   -8.84902  -7.87326  -6.19062  -6.18836  -6.18578
 Alpha  occ. eigenvalues --   -5.01449  -5.01176  -5.00665  -1.66844  -1.65000
 Alpha  occ. eigenvalues --   -1.04271  -0.89391  -0.87494  -0.78735  -0.77135
 Alpha  occ. eigenvalues --   -0.76491  -0.72949  -0.70443  -0.62601  -0.61424
 Alpha  occ. eigenvalues --   -0.59920  -0.54302  -0.47189  -0.40578  -0.36810
 Alpha virt. eigenvalues --    0.03459   0.04609   0.05134   0.06196   0.06982
 Alpha virt. eigenvalues --    0.08335   0.09785   0.10253   0.11519   0.12712
 Alpha virt. eigenvalues --    0.14143   0.15422   0.15878   0.16267   0.16651

 Mulliken charges:
               1
     1  H   -0.118070
     2  H   -0.070142
     3  H   -0.135681
     4  H    0.113609
     5  C    0.162072
     6  S    0.034234
     7  P    1.256108
     8  F   -0.630008
     9  F   -0.645046
    10  H    0.032925
 Sum of Mulliken charges =  -0.00000

 Dipole moment (field-independent basis, Debye):
    X=              2.4310    Y=             -0.0290    Z=             -0.1260  Tot=              2.4344

 Test job not archived.
 1\1\GINC-SE045\SP\RHF\Aug-CC-pVDZ\C1H5F2P1S1\OHZDE\09-Apr-2025\0\\#t h
 f aug-cc-pvdz iop(5/13=1,5/36=2,99/5=2) pseudo=read geom=check guess=(
 read,tcheck) scf=(maxcycle=1)\\title\\0,1\H,0,-1.72434823,-0.02735536,
 -1.47402619\H,0,-1.29643549,-1.41515971,-2.4840979\H,0,-1.57230153,0.1
 6002765,-3.24353895\H,0,0.52779021,1.28305094,-1.94983564\C,0,-1.18500
 823,-0.34129171,-2.36202164\S,0,0.60124692,-0.03772908,-2.17289215\P,0
 ,0.30740704,-1.1064265,0.61231469\F,0,-0.7301975,0.11478622,0.6922054\
 F,0,0.38652808,-1.41396252,2.1874919\H,0,1.48545277,-0.3043602,0.57456

 Normal termination of Gaussian 16 at Wed Apr  9 17:58:24 2025.
