 Gaussian 16, Revision C.01,

 ----------------------------------------------------------------------
 #t hf aug-cc-pvdz symm=none int=(grid=ultrafine) guess=(read,tcheck) s
 table=(opt,rrhf)
 ----------------------------------------------------------------------
 -----
 title
 -----
 Symbolic Z-matrix:
 Charge =  0 Multiplicity = 1

 SCF Done:  E(RHF) =  -1121.34491121     A.U. after   13 cycles
 Normal termination of Gaussian 16 at Wed Apr  9 17:35:02 2025.
 Gaussian 16:  ES64L-G16RevC.01  3-Jul-2019

 ----------------------------------------------------------------------
 #t hf aug-cc-pvdz iop(5/13=1,5/36=2,99/5=2) pseudo=read geom=check gue
 ss=(read,tcheck) scf=(maxcycle=1)
 ----------------------------------------------------------------------
 -----
 title
 -----
 Structure from the checkpoint file:  "HB300SPXx10_1095_4.13_1.00_Nmethylacetamide_dimethyldisulfide_dimer_mol1.chk"
 Charge =  0 Multiplicity = 1

                         Standard orientation:
 ---------------------------------------------------------------------
 Center     Atomic      Atomic             Coordinates (Angstroms)
 Number     Number       Type             X           Y           Z
 ---------------------------------------------------------------------
      1          6           0       -1.786713    1.678998   -0.758462
      2          1           0       -1.124526    1.501713   -1.605954
      3          1           0       -1.212729    2.138726    0.043784
      4          1           0       -2.571956    2.356694   -1.082035
      5          6           0       -2.413442    0.358422   -0.355950
      6          8           0       -3.331486   -0.135520   -0.988452
      7          7           0       -1.870502   -0.224173    0.744975
      8          1           0       -1.035595    0.184288    1.131588
      9          6           0       -2.242129   -1.555403    1.177237
     10          1           0       -3.249447   -1.760646    0.828609
     11          1           0       -1.570943   -2.313138    0.767331
     12          1           0       -2.216892   -1.613495    2.263745
     13          1           0        2.772330   -2.188381   -1.748117
     14          1           0        3.361607   -1.936401   -0.090605
     15          1           0        3.550247   -0.654666   -1.317923
     16          1           0        1.233018    2.322394   -0.470213
     17          1           0        2.965386    1.915456   -0.352671
     18          1           0        2.157002    2.747395    0.988461
     19          6           0        2.912760   -1.455693   -0.954589
     20         16           0        1.250685   -0.836190   -0.546468
     21         16           0        1.603724    0.444044    1.016261
     22          6           0        2.032419    2.011635    0.195117
 ---------------------------------------------------------------------

 SCF Done:  E(RHF) =  -1121.49447805     A.U. after    2 cycles

 The electronic state is 1-A.
 Alpha  occ. eigenvalues --  -93.56987 -93.56592 -20.51569 -15.63255 -11.34780
 Alpha  occ. eigenvalues --  -11.28273 -11.27936 -11.25521 -11.23638  -8.86595
 Alpha  occ. eigenvalues --   -8.86216  -6.20754  -6.20472  -6.20341  -6.20219
 Alpha  occ. eigenvalues --   -6.20083  -6.19759  -1.32957  -1.18294  -1.08561
 Alpha  occ. eigenvalues --   -1.01494  -1.00272  -0.91585  -0.91295  -0.79086
 Alpha  occ. eigenvalues --   -0.77358  -0.68388  -0.64587  -0.62687  -0.62507
 Alpha  occ. eigenvalues --   -0.61626  -0.61139  -0.59585  -0.57975  -0.57644
 Alpha  occ. eigenvalues --   -0.54835  -0.54273  -0.53585  -0.50329  -0.50165
 Alpha  occ. eigenvalues --   -0.45016  -0.42408  -0.38006  -0.37316  -0.36241
 Alpha virt. eigenvalues --    0.02784   0.03648   0.04168   0.04682   0.05581
 Alpha virt. eigenvalues --    0.05904   0.06112   0.07037   0.07459   0.08304
 Alpha virt. eigenvalues --    0.08381   0.08879   0.09181   0.10901   0.11101

 Mulliken charges:
               1
     1  C    0.420419
     2  H    0.015760
     3  H   -0.113672
     4  H   -0.030243
     5  C    0.310383
     6  O   -0.593808
     7  N   -0.186868
     8  H   -0.043537
     9  C    0.767196
    10  H   -0.177808
    11  H   -0.098126
    12  H   -0.175918
    13  H   -0.076872
    14  H   -0.048209
    15  H   -0.090952
    16  H   -0.185710
    17  H   -0.110035
    18  H   -0.038182
    19  C    0.078581
    20  S    0.224778
    21  S   -0.024792
    22  C    0.177617
 Sum of Mulliken charges =  -0.00000

 Dipole moment (field-independent basis, Debye):
    X=              5.8439    Y=              1.5529    Z=              1.2838  Tot=              6.1815

 Test job not archived.
 1\1\GINC-SE220\SP\RHF\Aug-CC-pVDZ\C5H13N1O1S2\OHZDE\09-Apr-2025\0\\#t
 hf aug-cc-pvdz iop(5/13=1,5/36=2,99/5=2) pseudo=read geom=check guess=
 (read,tcheck) scf=(maxcycle=1)\\title\\0,1\C,0,-1.31055971,-0.36190707
 ,2.17525478\H,0,-0.76310857,0.57466921,2.28149083\H,0,-0.59510431,-1.1
 7658722,2.08130356\H,0,-1.91110445,-0.50300543,3.06969011\C,0,-2.23351
 851,-0.24400233,0.97818704\O,0,-3.28055753,0.37845097,1.03390772\N,0,-
 1.80028089,-0.8717422,-0.1463058\H,0,-0.86873727,-1.25332097,-0.144399
 63\C,0,-2.47826303,-0.73306099,-1.41840567\H,0,-3.52176476,-0.50262299

 Normal termination of Gaussian 16 at Wed Apr  9 17:35:15 2025.
