 Gaussian 16, Revision C.01,

 ----------------------------------------------------------------------
 #t hf aug-cc-pvdz symm=none int=(grid=ultrafine) guess=(read,tcheck) s
 table=(opt,rrhf)
 ----------------------------------------------------------------------
 -----
 title
 -----
 Symbolic Z-matrix:
 Charge =  0 Multiplicity = 1

 SCF Done:  E(RHF) =  -609.881874414     A.U. after   13 cycles
 Normal termination of Gaussian 16 at Wed Apr  9 17:26:35 2025.
 Gaussian 16:  ES64L-G16RevC.01  3-Jul-2019

 ----------------------------------------------------------------------
 #t hf aug-cc-pvdz iop(5/13=1,5/36=2,99/5=2) pseudo=read geom=check gue
 ss=(read,tcheck) scf=(maxcycle=1)
 ----------------------------------------------------------------------
 -----
 title
 -----
 Structure from the checkpoint file:  "HB300SPXx10_1052_4.09_0.85_ammonia_tetrahydrothiophene_dimer_mol1.chk"
 Charge =  0 Multiplicity = 1

                         Standard orientation:
 ---------------------------------------------------------------------
 Center     Atomic      Atomic             Coordinates (Angstroms)
 Number     Number       Type             X           Y           Z
 ---------------------------------------------------------------------
      1          7           0        2.437422   -0.676237   -0.309595
      2          1           0        1.929611    0.181772   -0.111403
      3          1           0        3.137457   -0.784985    0.413525
      4          1           0        2.934871   -0.537824   -1.180310
      5          1           0       -1.240908    0.213870    1.994032
      6          1           0        0.459362   -0.266301    2.044812
      7          1           0       -1.318727   -2.014783    1.049948
      8          1           0        0.253975    0.053031   -1.827857
      9          1           0        0.214754   -1.774764    0.204307
     10          1           0       -1.164699    1.110958   -1.854077
     11          1           0       -1.556004   -1.515174   -1.494162
     12          1           0       -2.427707   -0.391524   -0.452648
     13         16           0        0.030021    1.295096    0.241305
     14          6           0       -0.387498   -0.084256    1.388295
     15          6           0       -0.712492   -1.289308    0.506821
     16          6           0       -1.434170   -0.749993   -0.727190
     17          6           0       -0.593220    0.413199   -1.247906
 ---------------------------------------------------------------------

 SCF Done:  E(RHF) =  -609.969388948     A.U. after    2 cycles

 The electronic state is 1-A.
 Alpha  occ. eigenvalues --  -93.51613 -15.58935 -11.26039 -11.26004 -11.23684
 Alpha  occ. eigenvalues --  -11.22936  -8.81437  -6.15569  -6.15411  -6.15163
 Alpha  occ. eigenvalues --   -1.11414  -1.09450  -0.97770  -0.95479  -0.78992
 Alpha  occ. eigenvalues --   -0.77811  -0.66151  -0.63688  -0.61791  -0.61419
 Alpha  occ. eigenvalues --   -0.59675  -0.54317  -0.50440  -0.48969  -0.47962
 Alpha  occ. eigenvalues --   -0.47469  -0.42123  -0.40617  -0.33147
 Alpha virt. eigenvalues --    0.03497   0.04302   0.04424   0.05156   0.06302
 Alpha virt. eigenvalues --    0.06346   0.06945   0.07464   0.08361   0.09226
 Alpha virt. eigenvalues --    0.09644   0.11766   0.13149   0.14654   0.14704

 Mulliken charges:
               1
     1  N   -0.206405
     2  H    0.124339
     3  H    0.051268
     4  H    0.071368
     5  H   -0.163188
     6  H   -0.149784
     7  H   -0.073880
     8  H   -0.165977
     9  H   -0.165537
    10  H   -0.093509
    11  H   -0.102413
    12  H   -0.158507
    13  S    0.231247
    14  C    0.119122
    15  C    0.356152
    16  C    0.153429
    17  C    0.172275
 Sum of Mulliken charges =  -0.00000

 Dipole moment (field-independent basis, Debye):
    X=             -0.1299    Y=             -0.8795    Z=             -0.2362  Tot=              0.9199

 Test job not archived.
 1\1\GINC-SE229\SP\RHF\Aug-CC-pVDZ\C4H11N1S1\OHZDE\09-Apr-2025\0\\#t hf
  aug-cc-pvdz iop(5/13=1,5/36=2,99/5=2) pseudo=read geom=check guess=(r
 ead,tcheck) scf=(maxcycle=1)\\title\\0,1\N,0,-1.82627315,2.2398073,0.1
 9813908\H,0,-1.3275361,1.71497926,-0.51540753\H,0,-2.80551666,2.240204
 76,-0.05849198\H,0,-1.50884454,3.19950412,0.14356214\H,0,-0.69571178,-
 2.02520911,-0.20256963\H,0,-1.99736279,-0.82958651,-0.21845509\H,0,-0.
 80003113,-1.36357764,2.12457691\H,0,0.86821391,1.71431086,0.45887428\H
 ,0,-1.13149737,0.31825586,1.69347796\H,0,2.17726437,0.68796255,-0.1457

 Normal termination of Gaussian 16 at Wed Apr  9 17:26:42 2025.
