 Gaussian 16, Revision C.01,

 ----------------------------------------------------------------------
 #t hf aug-cc-pvdz symm=none int=(grid=ultrafine) guess=(read,tcheck) s
 table=(opt,rrhf)
 ----------------------------------------------------------------------
 -----
 title
 -----
 Symbolic Z-matrix:
 Charge =  0 Multiplicity = 1

 SCF Done:  E(RHF) =  -704.614825354     A.U. after   13 cycles
 Normal termination of Gaussian 16 at Wed Apr  9 17:39:51 2025.
 Gaussian 16:  ES64L-G16RevC.01  3-Jul-2019

 ----------------------------------------------------------------------
 #t hf aug-cc-pvdz iop(5/13=1,5/36=2,99/5=2) pseudo=read geom=check gue
 ss=(read,tcheck) scf=(maxcycle=1)
 ----------------------------------------------------------------------
 -----
 title
 -----
 Structure from the checkpoint file:  "HB300SPXx10_1130_4.16_2.00_aceticacid_dimethylsulfide_dimer_mol1.chk"
 Charge =  0 Multiplicity = 1

                         Standard orientation:
 ---------------------------------------------------------------------
 Center     Atomic      Atomic             Coordinates (Angstroms)
 Number     Number       Type             X           Y           Z
 ---------------------------------------------------------------------
      1          6           0        0.229225    2.979831    0.000000
      2          8           0       -0.831134    2.397959    0.000000
      3          8           0        1.412570    2.355846   -0.000000
      4          1           0        1.268108    1.376894   -0.000000
      5          6           0        0.381699    4.476023    0.000000
      6          1           0       -0.595417    4.946026    0.000000
      7          1           0        0.947374    4.788423    0.876781
      8          1           0        0.947374    4.788423   -0.876781
      9          1           0       -1.498937   -3.713831    1.379195
     10          1           0       -1.398865   -1.930519    1.315483
     11          1           0       -0.246864   -2.863153    2.299403
     12          1           0       -0.246864   -2.863153   -2.299403
     13          1           0       -1.398865   -1.930519   -1.315483
     14          1           0       -1.498937   -3.713831   -1.379195
     15          6           0       -0.831134   -2.855178    1.382643
     16         16           0        0.336154   -2.961762   -0.000000
     17          6           0       -0.831134   -2.855178   -1.382643
 ---------------------------------------------------------------------

 SCF Done:  E(RHF) =  -704.739982527     A.U. after    2 cycles

 The electronic state is 1-A'.
 Alpha  occ. eigenvalues --  -93.52344 -20.62943 -20.56241 -11.40182 -11.25998
 Alpha  occ. eigenvalues --  -11.25982 -11.25469  -8.82105  -6.16243  -6.16035
 Alpha  occ. eigenvalues --   -6.15698  -1.42646  -1.32514  -1.04979  -1.02253
 Alpha  occ. eigenvalues --   -0.94843  -0.83951  -0.79922  -0.71734  -0.69348
 Alpha  occ. eigenvalues --   -0.66431  -0.60856  -0.60549  -0.59309  -0.57898
 Alpha  occ. eigenvalues --   -0.57735  -0.56932  -0.56862  -0.49945  -0.49431
 Alpha  occ. eigenvalues --   -0.47071  -0.43045  -0.33424
 Alpha virt. eigenvalues --    0.03321   0.04136   0.04602   0.05218   0.05782
 Alpha virt. eigenvalues --    0.06171   0.06896   0.07435   0.07588   0.08476
 Alpha virt. eigenvalues --    0.10032   0.10659   0.12291   0.12936   0.13992

 Mulliken charges:
               1
     1  C    0.349521
     2  O   -0.467200
     3  O   -0.464905
     4  H    0.195273
     5  C    0.346217
     6  H   -0.018884
     7  H    0.029412
     8  H    0.029412
     9  H   -0.085523
    10  H   -0.082813
    11  H   -0.109953
    12  H   -0.109953
    13  H   -0.082813
    14  H   -0.085523
    15  C    0.117436
    16  S    0.322858
    17  C    0.117436
 Sum of Mulliken charges =  -0.00000

 Dipole moment (field-independent basis, Debye):
    X=              0.0723    Y=              1.0753    Z=              0.0000  Tot=              1.0777

 Test job not archived.
 1\1\GINC-SE114\SP\RHF\Aug-CC-pVDZ\C4H10O2S1\OHZDE\09-Apr-2025\0\\#t hf
  aug-cc-pvdz iop(5/13=1,5/36=2,99/5=2) pseudo=read geom=check guess=(r
 ead,tcheck) scf=(maxcycle=1)\\title\\0,1\C,0,0.08152563,1.86646531,0.\
 O,0,1.12794826,1.25988757,0.\O,0,-1.11612638,1.27040068,0.\H,0,-0.9946
 6015,0.28833063,0.\C,0,-0.03582077,3.36582142,0.\H,0,0.95204799,3.8127
 8193,0.\H,0,-0.5940149,3.69140047,-0.87678098\H,0,-0.5940149,3.6914004
 7,0.87678098\H,0,1.65224785,-4.86588072,-1.37919498\H,0,1.5940213,-3.0
 8071272,-1.31548339\H,0,0.42046735,-3.98607608,-2.29940307\H,0,0.42046

 Normal termination of Gaussian 16 at Wed Apr  9 17:39:55 2025.
