 Gaussian 16, Revision C.01,

 ----------------------------------------------------------------------
 #t hf aug-cc-pvdz symm=none int=(grid=ultrafine) guess=(read,tcheck) s
 table=(opt,rrhf)
 ----------------------------------------------------------------------
 -----
 title
 -----
 Symbolic Z-matrix:
 Charge =  0 Multiplicity = 1

 SCF Done:  E(RHF) =  -974.722683777     A.U. after   13 cycles
 Normal termination of Gaussian 16 at Wed Apr  9 04:10:30 2025.
 Gaussian 16:  ES64L-G16RevC.01  3-Jul-2019

 ----------------------------------------------------------------------
 #t hf aug-cc-pvdz iop(5/13=1,5/36=2,99/5=2) pseudo=read geom=check gue
 ss=(read,tcheck) scf=(maxcycle=1)
 ----------------------------------------------------------------------
 -----
 title
 -----
 Structure from the checkpoint file:  "HB300SPXx10_1374_4.42_0.95_hydrogenchloride_thioacetone_dimer_mol1.chk"
 Charge =  0 Multiplicity = 1

                         Standard orientation:
 ---------------------------------------------------------------------
 Center     Atomic      Atomic             Coordinates (Angstroms)
 Number     Number       Type             X           Y           Z
 ---------------------------------------------------------------------
      1          1           0        1.597202   -0.129445    0.000000
      2         17           0        2.530882   -1.059565    0.000000
      3          1           0       -0.235994   -1.573368    0.000000
      4          1           0       -1.781298   -1.585150    0.874054
      5          1           0       -1.781298   -1.585150   -0.874054
      6          1           0       -2.689815    1.957924    0.000000
      7          1           0       -3.249356    0.514928   -0.874659
      8          6           0       -1.252251   -1.197054    0.000000
      9          6           0       -1.319251    0.297071    0.000000
     10         16           0       -0.000000    1.253568    0.000000
     11          6           0       -2.701010    0.873458    0.000000
     12          1           0       -3.249356    0.514928    0.874659
 ---------------------------------------------------------------------

 SCF Done:  E(RHF) =  -974.797028669     A.U. after    2 cycles

 The electronic state is 1-A'.
 Alpha  occ. eigenvalues -- -103.63499 -93.53081 -11.35509 -11.26779 -11.26451
 Alpha  occ. eigenvalues --  -10.66826  -8.83119  -8.32563  -8.32299  -8.32288
 Alpha  occ. eigenvalues --   -6.17290  -6.16898  -6.16769  -1.13284  -1.12065
 Alpha  occ. eigenvalues --   -0.98182  -0.96340  -0.74025  -0.63937  -0.63463
 Alpha  occ. eigenvalues --   -0.62954  -0.59887  -0.57601  -0.55103  -0.51185
 Alpha  occ. eigenvalues --   -0.45516  -0.45465  -0.40398  -0.35761
 Alpha virt. eigenvalues --    0.02615   0.03417   0.04573   0.05757   0.05910
 Alpha virt. eigenvalues --    0.07255   0.07295   0.08170   0.09568   0.10934
 Alpha virt. eigenvalues --    0.13466   0.13640   0.14167   0.15598   0.15683

 Mulliken charges:
               1
     1  H    0.255383
     2  Cl  -0.245472
     3  H   -0.193505
     4  H    0.088405
     5  H    0.088405
     6  H   -0.067005
     7  H    0.053575
     8  C    0.368879
     9  C   -0.730320
    10  S    0.018276
    11  C    0.309804
    12  H    0.053575
 Sum of Mulliken charges =  -0.00000

 Dipole moment (field-independent basis, Debye):
    X=             -5.0750    Y=             -0.2877    Z=              0.0000  Tot=              5.0831

 Test job not archived.
 1\1\GINC-SE249\SP\RHF\Aug-CC-pVDZ\C3H7Cl1S1\OHZDE\09-Apr-2025\0\\#t hf
  aug-cc-pvdz iop(5/13=1,5/36=2,99/5=2) pseudo=read geom=check guess=(r
 ead,tcheck) scf=(maxcycle=1)\\title\\0,1\H,0,-0.37830043,1.49279945,0.
 \Cl,0,0.15229845,2.69917624,0.\H,0,1.6297811,0.30404838,0.\H,0,2.19831
 496,-1.13291791,0.87405369\H,0,2.19831496,-1.13291791,-0.87405369\H,0,
 -0.77831608,-3.25858068,0.\H,0,0.76936742,-3.25980049,-0.87465894\C,0,
 1.64548006,-0.77953083,0.\C,0,0.27616851,-1.38109826,0.\S,0,-1.0918882
 9,-0.49581174,0.\C,0,0.23714336,-2.87774641,0.\H,0,0.76936742,-3.25980

 Normal termination of Gaussian 16 at Wed Apr  9 04:10:34 2025.
