 Gaussian 16, Revision C.01,

 ----------------------------------------------------------------------
 #t hf aug-cc-pvdz symm=none int=(grid=ultrafine) guess=(read,tcheck) s
 table=(opt,rrhf)
 ----------------------------------------------------------------------
 -----
 title
 -----
 Symbolic Z-matrix:
 Charge =  0 Multiplicity = 1

 SCF Done:  E(RHF) =  -1102.13964365     A.U. after   13 cycles
 Normal termination of Gaussian 16 at Wed Apr  9 17:37:01 2025.
 Gaussian 16:  ES64L-G16RevC.01  3-Jul-2019

 ----------------------------------------------------------------------
 #t hf aug-cc-pvdz iop(5/13=1,5/36=2,99/5=2) pseudo=read geom=check gue
 ss=(read,tcheck) scf=(maxcycle=1)
 ----------------------------------------------------------------------
 -----
 title
 -----
 Structure from the checkpoint file:  "HB300SPXx10_1111_4.15_0.80_aceticacid_dimethyldisulfide_dimer_mol1.chk"
 Charge =  0 Multiplicity = 1

                         Standard orientation:
 ---------------------------------------------------------------------
 Center     Atomic      Atomic             Coordinates (Angstroms)
 Number     Number       Type             X           Y           Z
 ---------------------------------------------------------------------
      1          6           0        2.611317   -0.069474   -0.048391
      2          8           0        2.321486    1.091391   -0.209786
      3          8           0        1.707096   -1.061460   -0.057675
      4          1           0        0.821016   -0.675794   -0.226618
      5          6           0        4.004281   -0.584742    0.184320
      6          1           0        4.703644    0.243501    0.205856
      7          1           0        4.043242   -1.133923    1.123984
      8          1           0        4.274757   -1.281148   -0.608382
      9          1           0       -4.577801   -0.551847    0.227782
     10          1           0       -3.805417    0.000675   -1.273866
     11          1           0       -3.786221    1.034192    0.180867
     12          1           0       -0.257941    1.248303    1.580538
     13          1           0       -1.228809    2.337944    0.550870
     14          1           0        0.507196    2.077487    0.212839
     15          6           0       -3.745983    0.013839   -0.189654
     16         16           0       -2.232970   -0.826333    0.374174
     17         16           0       -0.746109    0.236989   -0.558557
     18          6           0       -0.412456    1.622157    0.573049
 ---------------------------------------------------------------------

 SCF Done:  E(RHF) =  -1102.28533844     A.U. after    2 cycles

 The electronic state is 1-A.
 Alpha  occ. eigenvalues --  -93.56402 -93.56213 -20.58862 -20.55154 -11.38969
 Alpha  occ. eigenvalues --  -11.27698 -11.26262 -11.24383  -8.86227  -8.85859
 Alpha  occ. eigenvalues --   -6.20381  -6.20109  -6.19981  -6.19905  -6.19717
 Alpha  occ. eigenvalues --   -6.19393  -1.40799  -1.31153  -1.08264  -1.01571
 Alpha  occ. eigenvalues --   -1.00470  -0.90681  -0.82840  -0.78427  -0.71200
 Alpha  occ. eigenvalues --   -0.68231  -0.64742  -0.61991  -0.60850  -0.60120
 Alpha  occ. eigenvalues --   -0.59044  -0.57312  -0.56722  -0.55270  -0.53629
 Alpha  occ. eigenvalues --   -0.49704  -0.48558  -0.46047  -0.44509  -0.37294
 Alpha  occ. eigenvalues --   -0.35931
 Alpha virt. eigenvalues --    0.03400   0.04068   0.04880   0.05290   0.06061
 Alpha virt. eigenvalues --    0.06239   0.06504   0.07358   0.08244   0.08504
 Alpha virt. eigenvalues --    0.10069   0.11101   0.12032   0.12109   0.13548

 Mulliken charges:
               1
     1  C    0.231869
     2  O   -0.479633
     3  O   -0.492160
     4  H    0.409307
     5  C    0.443245
     6  H   -0.041070
     7  H    0.028761
     8  H    0.039148
     9  H   -0.077816
    10  H   -0.038377
    11  H   -0.075994
    12  H   -0.074406
    13  H   -0.149534
    14  H   -0.061185
    15  C    0.078863
    16  S    0.204560
    17  S   -0.274698
    18  C    0.329120
 Sum of Mulliken charges =   0.00000

 Dipole moment (field-independent basis, Debye):
    X=             -1.5177    Y=              0.3637    Z=              0.6995  Tot=              1.7103

 Test job not archived.
 1\1\GINC-SE112\SP\RHF\Aug-CC-pVDZ\C4H10O2S2\OHZDE\09-Apr-2025\0\\#t hf
  aug-cc-pvdz iop(5/13=1,5/36=2,99/5=2) pseudo=read geom=check guess=(r
 ead,tcheck) scf=(maxcycle=1)\\title\\0,1\C,0,2.51189353,-1.3688008,0.0
 1480743\O,0,1.76216303,-1.97148126,0.7444221\O,0,2.20838592,-0.1819016
 3,-0.53372859\H,0,1.31541707,0.08523139,-0.22768185\C,0,3.88111819,-1.
 83853704,-0.39087365\H,0,4.08390343,-2.80677129,0.05292751\H,0,3.94369
 33,-1.90220497,-1.47628393\H,0,4.62800978,-1.11523999,-0.06604891\H,0,
 -3.444262,2.61530364,-0.78737197\H,0,-2.68249992,2.51192479,0.81445039

 Normal termination of Gaussian 16 at Wed Apr  9 17:37:09 2025.
