 Gaussian 16, Revision C.01,

 ----------------------------------------------------------------------
 #t hf aug-cc-pvdz symm=none int=(grid=ultrafine) guess=(read,tcheck) s
 table=(opt,rrhf)
 ----------------------------------------------------------------------
 -----
 title
 -----
 Symbolic Z-matrix:
 Charge =  0 Multiplicity = 1

 SCF Done:  E(RHF) =  -609.888976483     A.U. after   13 cycles
 Normal termination of Gaussian 16 at Wed Apr  9 17:28:14 2025.
 Gaussian 16:  ES64L-G16RevC.01  3-Jul-2019

 ----------------------------------------------------------------------
 #t hf aug-cc-pvdz iop(5/13=1,5/36=2,99/5=2) pseudo=read geom=check gue
 ss=(read,tcheck) scf=(maxcycle=1)
 ----------------------------------------------------------------------
 -----
 title
 -----
 Structure from the checkpoint file:  "HB300SPXx10_1055_4.09_1.00_ammonia_tetrahydrothiophene_dimer_mol1.chk"
 Charge =  0 Multiplicity = 1

                         Standard orientation:
 ---------------------------------------------------------------------
 Center     Atomic      Atomic             Coordinates (Angstroms)
 Number     Number       Type             X           Y           Z
 ---------------------------------------------------------------------
      1          7           0       -2.815803    0.481705   -0.208917
      2          1           0       -2.189498   -0.309954   -0.089121
      3          1           0       -3.492284    0.446222    0.543341
      4          1           0       -3.327259    0.333849   -1.069910
      5          1           0        1.405355   -0.198501    1.937179
      6          1           0       -0.340154    0.040415    2.079230
      7          1           0        1.142979    2.076805    1.150800
      8          1           0       -0.260870    0.006134   -1.811047
      9          1           0       -0.379487    1.685273    0.342667
     10          1           0        1.284353   -0.843962   -1.959905
     11          1           0        1.335245    1.781792   -1.428814
     12          1           0        2.393761    0.722138   -0.499359
     13         16           0        0.216501   -1.326313    0.156442
     14          6           0        0.494385    0.019159    1.383227
     15          6           0        0.616630    1.312370    0.578596
     16          6           0        1.350241    0.958630   -0.714131
     17          6           0        0.651153   -0.272014   -1.286975
 ---------------------------------------------------------------------

 SCF Done:  E(RHF) =  -609.976895520     A.U. after    2 cycles

 The electronic state is 1-A.
 Alpha  occ. eigenvalues --  -93.51596 -15.59816 -11.26030 -11.25985 -11.23760
 Alpha  occ. eigenvalues --  -11.23248  -8.81373  -6.15504  -6.15347  -6.15057
 Alpha  occ. eigenvalues --   -1.11277  -1.09985  -0.97794  -0.95417  -0.79074
 Alpha  occ. eigenvalues --   -0.77675  -0.65858  -0.63693  -0.62007  -0.61753
 Alpha  occ. eigenvalues --   -0.59919  -0.54600  -0.50490  -0.49065  -0.47956
 Alpha  occ. eigenvalues --   -0.47414  -0.41950  -0.41295  -0.33123
 Alpha virt. eigenvalues --    0.03493   0.04311   0.04360   0.05208   0.06218
 Alpha virt. eigenvalues --    0.06255   0.06948   0.07525   0.08398   0.09123
 Alpha virt. eigenvalues --    0.09481   0.11651   0.13273   0.14707   0.14732

 Mulliken charges:
               1
     1  N   -0.188355
     2  H    0.079486
     3  H    0.054180
     4  H    0.055763
     5  H   -0.138948
     6  H   -0.145942
     7  H   -0.062173
     8  H   -0.168739
     9  H   -0.198004
    10  H   -0.082620
    11  H   -0.085160
    12  H   -0.164496
    13  S    0.349236
    14  C    0.051359
    15  C    0.343844
    16  C    0.200732
    17  C    0.099836
 Sum of Mulliken charges =  -0.00000

 Dipole moment (field-independent basis, Debye):
    X=             -0.0599    Y=              0.9147    Z=             -0.1842  Tot=              0.9350

 Test job not archived.
 1\1\GINC-SE029\SP\RHF\Aug-CC-pVDZ\C4H11N1S1\OHZDE\09-Apr-2025\0\\#t hf
  aug-cc-pvdz iop(5/13=1,5/36=2,99/5=2) pseudo=read geom=check guess=(r
 ead,tcheck) scf=(maxcycle=1)\\title\\0,1\N,0,-1.82627315,2.2398073,0.1
 9813908\H,0,-1.3275361,1.71497926,-0.51540753\H,0,-2.80551666,2.240204
 76,-0.05849198\H,0,-1.50884454,3.19950412,0.14356214\H,0,-0.45172795,-
 2.31401052,-0.31171803\H,0,-1.75337897,-1.11838792,-0.32760349\H,0,-0.
 5560473,-1.65237906,2.01542851\H,0,1.11219774,1.42550944,0.34972588\H,
 0,-0.88751355,0.02945444,1.58432956\H,0,2.4212482,0.39916113,-0.254867

 Normal termination of Gaussian 16 at Wed Apr  9 17:28:20 2025.
