 Gaussian 16, Revision C.01,

 ----------------------------------------------------------------------
 #t hf aug-cc-pvdz symm=none int=(grid=ultrafine) guess=(read,tcheck) s
 table=(opt,rrhf)
 ----------------------------------------------------------------------
 -----
 title
 -----
 Symbolic Z-matrix:
 Charge =  0 Multiplicity = 1

 SCF Done:  E(RHF) =  -914.493973304     A.U. after   12 cycles

 1\1\GINC-SE340\Stability\RHF\Aug-CC-pVDZ\C3H10S2\OHZDE\09-Apr-2025\0\\
 #t hf aug-cc-pvdz symm=none int=(grid=ultrafine) guess=(read,tcheck) s
 table=(opt,rrhf)\\title\\0,1\H,0,2.306559,-2.0578968,-0.64952301\H,0,3
 .32031438,-1.47471252,0.67641305\H,0,2.52307119,-0.31083024,-0.3888258
 5\H,0,0.07002633,-1.01993654,0.36023035\C,0,2.42249764,-1.27751778,0.0
 9684023\S,0,1.02865784,-1.2837739,1.27093846\H,0,0.68000626,1.51735538
 ,0.02381803\H,0,-0.23280249,2.79599646,-0.81950287\H,0,0.78206257,1.67
 636457,-1.74184068\H,0,-3.02569877,0.27555581,0.41605823\H,0,-2.501764

 Normal termination of Gaussian 16 at Wed Apr  9 17:45:41 2025.
 Gaussian 16:  ES64L-G16RevC.01  3-Jul-2019

 ----------------------------------------------------------------------
 #t hf aug-cc-pvdz iop(5/13=1,5/36=2,99/5=2) pseudo=read geom=check gue
 ss=(read,tcheck) scf=(maxcycle=1)
 ----------------------------------------------------------------------
 -----
 title
 -----
 Structure from the checkpoint file:  "HB300SPXx10_1185_4.23_1.00_methanethiol_dimethylsulfide_dimer_mol1.chk"
 Charge =  0 Multiplicity = 1

                         Standard orientation:
 ---------------------------------------------------------------------
 Center     Atomic      Atomic             Coordinates (Angstroms)
 Number     Number       Type             X           Y           Z
 ---------------------------------------------------------------------
      1          1           0        2.713254    1.006222   -1.283748
      2          1           0        3.568405    0.910983    0.260777
      3          1           0        1.956174    1.633428    0.199668
      4          1           0        0.760664   -0.634644   -0.513039
      5          6           0        2.592837    0.856679   -0.214810
      6         16           0        1.927136   -0.801847    0.142216
      7          1           0       -0.347366    0.953850    1.267986
      8          1           0       -2.040839    1.496421    1.398757
      9          1           0       -0.931839    2.313511    0.286679
     10          1           0       -2.293941   -2.021012   -0.402107
     11          1           0       -2.859868   -1.075455    0.984670
     12          1           0       -1.151538   -1.566803    0.876442
     13          6           0       -1.200198    1.354239    0.722473
     14         16           0       -1.651384    0.251056   -0.640881
     15          6           0       -2.023495   -1.244894    0.309428
 ---------------------------------------------------------------------

 SCF Done:  E(RHF) =  -914.577829600     A.U. after    2 cycles

 The electronic state is 1-A.
 Alpha  occ. eigenvalues --  -93.53133 -93.52458 -11.26451 -11.26441 -11.26419
 Alpha  occ. eigenvalues --   -8.82879  -8.82234  -6.17026  -6.16813  -6.16550
 Alpha  occ. eigenvalues --   -6.16397  -6.16194  -6.15867  -1.05666  -1.02107
 Alpha  occ. eigenvalues --   -0.95359  -0.85515  -0.80652  -0.62045  -0.61106
 Alpha  occ. eigenvalues --   -0.59925  -0.59069  -0.58457  -0.57169  -0.52132
 Alpha  occ. eigenvalues --   -0.50002  -0.45287  -0.43777  -0.34914  -0.34026
 Alpha virt. eigenvalues --    0.03495   0.04184   0.04858   0.05365   0.06343
 Alpha virt. eigenvalues --    0.06838   0.07007   0.07850   0.08996   0.10040
 Alpha virt. eigenvalues --    0.10419   0.13079   0.13425   0.14265   0.14754

 Mulliken charges:
               1
     1  H   -0.117381
     2  H   -0.101266
     3  H   -0.142824
     4  H    0.157716
     5  C    0.113277
     6  S    0.124137
     7  H   -0.142634
     8  H   -0.126885
     9  H   -0.104483
    10  H   -0.090115
    11  H   -0.084056
    12  H   -0.189967
    13  C    0.263567
    14  S    0.219158
    15  C    0.221756
 Sum of Mulliken charges =  -0.00000

 Dipole moment (field-independent basis, Debye):
    X=             -0.4569    Y=              1.2214    Z=              1.0094  Tot=              1.6490

 Test job not archived.
 1\1\GINC-SE340\SP\RHF\Aug-CC-pVDZ\C3H10S2\OHZDE\09-Apr-2025\0\\#t hf a
 ug-cc-pvdz iop(5/13=1,5/36=2,99/5=2) pseudo=read geom=check guess=(rea
 d,tcheck) scf=(maxcycle=1)\\title\\0,1\H,0,2.306559,-2.0578968,-0.6495
 2301\H,0,3.32031438,-1.47471252,0.67641305\H,0,2.52307119,-0.31083024,
 -0.38882585\H,0,0.07002633,-1.01993654,0.36023035\C,0,2.42249764,-1.27
 751778,0.09684023\S,0,1.02865784,-1.2837739,1.27093846\H,0,0.68000626,
 1.51735538,0.02381803\H,0,-0.23280249,2.79599646,-0.81950287\H,0,0.782
 06257,1.67636457,-1.74184068\H,0,-3.02569877,0.27555581,0.41605823\H,0

 Normal termination of Gaussian 16 at Wed Apr  9 17:45:45 2025.
