 Gaussian 16, Revision C.01,

 ----------------------------------------------------------------------
 #t hf aug-cc-pvdz symm=none int=(grid=ultrafine) guess=(read,tcheck) s
 table=(opt,rrhf)
 ----------------------------------------------------------------------
 -----
 title
 -----
 Symbolic Z-matrix:
 Charge =  0 Multiplicity = 1

 SCF Done:  E(RHF) =  -532.965577367     A.U. after   13 cycles
 Normal termination of Gaussian 16 at Wed Apr  9 17:24:12 2025.
 Gaussian 16:  ES64L-G16RevC.01  3-Jul-2019

 ----------------------------------------------------------------------
 #t hf aug-cc-pvdz iop(5/13=1,5/36=2,99/5=2) pseudo=read geom=check gue
 ss=(read,tcheck) scf=(maxcycle=1)
 ----------------------------------------------------------------------
 -----
 title
 -----
 Structure from the checkpoint file:  "HB300SPXx10_1042_4.08_0.85_ammonia_dimethylsulfide_dimer_mol1.chk"
 Charge =  0 Multiplicity = 1

                         Standard orientation:
 ---------------------------------------------------------------------
 Center     Atomic      Atomic             Coordinates (Angstroms)
 Number     Number       Type             X           Y           Z
 ---------------------------------------------------------------------
      1          7           0        2.645104   -0.290778    0.146549
      2          1           0        3.253553   -0.356010    0.952630
      3          1           0        1.767461   -0.736887    0.389651
      4          1           0        3.065168   -0.842976   -0.590388
      5          1           0       -0.136438    1.623146    1.035137
      6          1           0       -0.614987    2.030683   -0.631700
      7          1           0        1.044133    1.488035   -0.275343
      8          1           0       -2.492933   -1.404115    0.199605
      9          1           0       -2.754827    0.287656   -0.251063
     10          1           0       -2.147074   -0.121548    1.371250
     11          6           0       -0.004878    1.372372   -0.016147
     12         16           0       -0.422181   -0.364270   -0.314239
     13          6           0       -2.119270   -0.389742    0.316515
 ---------------------------------------------------------------------

 SCF Done:  E(RHF) =  -533.035046688     A.U. after    2 cycles

 The electronic state is 1-A.
 Alpha  occ. eigenvalues --  -93.52185 -15.59401 -11.25947 -11.24859  -8.81986
 Alpha  occ. eigenvalues --   -6.16145  -6.15931  -6.15606  -1.10032  -1.04642
 Alpha  occ. eigenvalues --   -0.94403  -0.79858  -0.63147  -0.61795  -0.60179
 Alpha  occ. eigenvalues --   -0.59540  -0.57106  -0.56319  -0.49022  -0.43106
 Alpha  occ. eigenvalues --   -0.41061  -0.33381
 Alpha virt. eigenvalues --    0.03563   0.04558   0.04917   0.05283   0.06801
 Alpha virt. eigenvalues --    0.06936   0.07585   0.08134   0.09531   0.11609
 Alpha virt. eigenvalues --    0.13770   0.15321   0.15718   0.16538   0.17032

 Mulliken charges:
               1
     1  N   -0.162826
     2  H    0.066914
     3  H    0.059495
     4  H    0.062866
     5  H   -0.081107
     6  H   -0.111043
     7  H   -0.127408
     8  H   -0.102683
     9  H   -0.076364
    10  H   -0.081180
    11  C    0.208090
    12  S    0.255718
    13  C    0.089530
 Sum of Mulliken charges =  -0.00000

 Dipole moment (field-independent basis, Debye):
    X=             -0.6881    Y=             -0.0690    Z=              1.0955  Tot=              1.2955

 Test job not archived.
 1\1\GINC-SE232\SP\RHF\Aug-CC-pVDZ\C2H9N1S1\OHZDE\09-Apr-2025\0\\#t hf
 aug-cc-pvdz iop(5/13=1,5/36=2,99/5=2) pseudo=read geom=check guess=(re
 ad,tcheck) scf=(maxcycle=1)\\title\\0,1\N,0,-1.73355141,-2.37393966,0.
 81983189\H,0,-2.47172211,-2.47256241,1.50511242\H,0,-1.77953232,-1.428
 67287,0.45551723\H,0,-1.951459,-2.99867579,0.05388488\H,0,0.48035844,0
 .07744163,1.9507608\H,0,1.8474285,-0.42758685,0.92630738\H,0,0.5098026
 2,-1.55392222,1.26727992\H,0,-0.21345427,2.20104278,-1.27792819\H,0,1.
 36706724,1.8896612,-0.54391557\H,0,-0.03774423,2.26336689,0.48348866\C

 Normal termination of Gaussian 16 at Wed Apr  9 17:24:15 2025.
