 Gaussian 16, Revision C.01,

 ----------------------------------------------------------------------
 #t hf aug-cc-pvdz symm=none int=(grid=ultrafine) guess=(read,tcheck) s
 table=(opt,rrhf)
 ----------------------------------------------------------------------
 -----
 title
 -----
 Symbolic Z-matrix:
 Charge =  0 Multiplicity = 1

 SCF Done:  E(RHF) =  -742.483582900     A.U. after   14 cycles
 Normal termination of Gaussian 16 at Wed Apr  9 17:41:13 2025.
 Gaussian 16:  ES64L-G16RevC.01  3-Jul-2019

 ----------------------------------------------------------------------
 #t hf aug-cc-pvdz iop(5/13=1,5/36=2,99/5=2) pseudo=read geom=check gue
 ss=(read,tcheck) scf=(maxcycle=1)
 ----------------------------------------------------------------------
 -----
 title
 -----
 Structure from the checkpoint file:  "HB300SPXx10_1134_4.17_0.95_aceticacid_thioacetone_dimer_mol1.chk"
 Charge =  0 Multiplicity = 1

                         Standard orientation:
 ---------------------------------------------------------------------
 Center     Atomic      Atomic             Coordinates (Angstroms)
 Number     Number       Type             X           Y           Z
 ---------------------------------------------------------------------
      1          6           0       -1.897429    1.488966    0.000000
      2          8           0       -2.149335    0.307296    0.000000
      3          8           0       -0.651955    1.979441    0.000000
      4          1           0       -0.000000    1.242087    0.000000
      5          6           0       -2.929460    2.583252    0.000000
      6          1           0       -3.923961    2.151247    0.000000
      7          1           0       -2.795906    3.215265    0.876954
      8          1           0       -2.795906    3.215265   -0.876954
      9          1           0        3.523944   -2.167954    0.000000
     10          1           0        2.417627   -3.251079    0.874412
     11          1           0        2.417627   -3.251079   -0.874412
     12          1           0       -0.691140   -1.301527    0.000000
     13          1           0       -0.088251   -2.729351   -0.872921
     14          6           0        2.531556   -2.605567    0.000000
     15          6           0        1.455740   -1.563610    0.000000
     16         16           0        1.820714    0.025926    0.000000
     17          6           0        0.056778   -2.086748    0.000000
     18          1           0       -0.088251   -2.729351    0.872921
 ---------------------------------------------------------------------

 SCF Done:  E(RHF) =  -742.614290374     A.U. after    2 cycles

 The electronic state is 1-A'.
 Alpha  occ. eigenvalues --  -93.51837 -20.59840 -20.55116 -11.38962 -11.34353
 Alpha  occ. eigenvalues --  -11.25834 -11.24415 -11.24402  -8.81872  -6.16056
 Alpha  occ. eigenvalues --   -6.15663  -6.15527  -1.40805  -1.31130  -1.11899
 Alpha  occ. eigenvalues --   -1.01152  -0.96834  -0.95022  -0.82393  -0.72510
 Alpha  occ. eigenvalues --   -0.70992  -0.68013  -0.64786  -0.62179  -0.62047
 Alpha  occ. eigenvalues --   -0.61252  -0.58016  -0.56652  -0.56190  -0.55427
 Alpha  occ. eigenvalues --   -0.53541  -0.50409  -0.48707  -0.45730  -0.39246
 Alpha  occ. eigenvalues --   -0.35059
 Alpha virt. eigenvalues --    0.03140   0.04108   0.04180   0.05205   0.06232
 Alpha virt. eigenvalues --    0.06234   0.06503   0.06529   0.07842   0.07919
 Alpha virt. eigenvalues --    0.09100   0.09771   0.12323   0.12982   0.13211

 Mulliken charges:
               1
     1  C    0.286809
     2  O   -0.470330
     3  O   -0.457115
     4  H    0.212782
     5  C    0.396555
     6  H   -0.050099
     7  H    0.039503
     8  H    0.039503
     9  H   -0.078204
    10  H    0.047347
    11  H    0.047347
    12  H   -0.473592
    13  H    0.146262
    14  C    0.390200
    15  C   -0.874417
    16  S    0.053305
    17  C    0.597882
    18  H    0.146262
 Sum of Mulliken charges =  -0.00000

 Dipole moment (field-independent basis, Debye):
    X=              0.2943    Y=             -1.8396    Z=             -0.0000  Tot=              1.8630

 Test job not archived.
 1\1\GINC-SE173\SP\RHF\Aug-CC-pVDZ\C5H10O2S1\OHZDE\09-Apr-2025\0\\#t hf
  aug-cc-pvdz iop(5/13=1,5/36=2,99/5=2) pseudo=read geom=check guess=(r
 ead,tcheck) scf=(maxcycle=1)\\title\\0,1\C,0,0.15920132,2.45664609,0.\
 O,0,1.21885316,1.87618237,0.\O,0,-1.02533188,1.83322707,0.\H,0,-0.8922
 641,0.85801947,0.\C,0,0.00380934,3.95277518,0.\H,0,0.98023034,4.424223
 4,0.\H,0,-0.56217465,4.2641268,-0.87695442\H,0,-0.56217465,4.2641268,0
 .87695442\H,0,-0.60900319,-4.03752137,0.\H,0,0.93368693,-3.90636454,-0
 .87441231\H,0,0.93368693,-3.90636454,0.87441231\H,0,1.48588819,-0.2786

 Normal termination of Gaussian 16 at Wed Apr  9 17:41:19 2025.
