 Gaussian 16, Revision C.01,

 ----------------------------------------------------------------------
 #t hf aug-cc-pvdz symm=none int=(grid=ultrafine) guess=(read,tcheck) s
 table=(opt,rrhf)
 ----------------------------------------------------------------------
 -----
 title
 -----
 Symbolic Z-matrix:
 Charge =  0 Multiplicity = 1

 SCF Done:  E(RHF) =  -630.512783721     A.U. after   14 cycles

 1\1\GINC-SE173\Stability\RHF\Aug-CC-pVDZ\C6H10S1\OHZDE\09-Apr-2025\0\\
 #t hf aug-cc-pvdz symm=none int=(grid=ultrafine) guess=(read,tcheck) s
 table=(opt,rrhf)\\title\\0,1\C,0,2.59090187,-0.04968862,0.43961338\H,0
 ,1.93323189,0.27193926,-0.33858357\C,0,3.30609004,-0.41751171,1.325807
 27\H,0,3.94715573,-0.74121457,2.10714096\H,0,0.04644066,-1.65003802,-0
 .62716651\H,0,-1.42821949,-1.69687101,-1.6026475\H,0,-1.6760711,-1.956
 41517,1.05000586\H,0,-1.99127287,1.83946968,0.12722247\H,0,-2.77310827
 ,-0.85595851,0.21793107\H,0,-0.27942035,2.03010908,0.52147249\H,0,-1.7

 Normal termination of Gaussian 16 at Wed Apr  9 17:18:46 2025.
 Gaussian 16:  ES64L-G16RevC.01  3-Jul-2019

 ----------------------------------------------------------------------
 #t hf aug-cc-pvdz iop(5/13=1,5/36=2,99/5=2) pseudo=read geom=check gue
 ss=(read,tcheck) scf=(maxcycle=1)
 ----------------------------------------------------------------------
 -----
 title
 -----
 Structure from the checkpoint file:  "HB300SPXx10_1006_4.04_1.05_ethyne_tetrahydrothiophene_dimer_mol1.chk"
 Charge =  0 Multiplicity = 1

                         Standard orientation:
 ---------------------------------------------------------------------
 Center     Atomic      Atomic             Coordinates (Angstroms)
 Number     Number       Type             X           Y           Z
 ---------------------------------------------------------------------
      1          6           0       -2.714294   -0.405245   -0.050725
      2          1           0       -1.838118   -1.015368   -0.010332
      3          6           0       -3.679980    0.300117   -0.095910
      4          1           0       -4.541378    0.918684   -0.135898
      5          1           0       -0.060366    0.032704   -1.764869
      6          1           0        1.632783   -0.366123   -2.085122
      7          1           0        1.065392    2.124988   -1.286500
      8          1           0        1.850549   -0.056026    1.873615
      9          1           0        2.419485    1.296328   -0.520602
     10          1           0        0.112228   -0.290639    2.086715
     11          1           0        0.994337    2.133081    1.317884
     12          1           0       -0.436118    1.454024    0.546530
     13         16           0        0.901311   -1.292771    0.023610
     14          6           0        0.931438   -0.040627   -1.321674
     15          6           0        1.337786    1.274290   -0.661474
     16          6           0        0.634623    1.314422    0.694432
     17          6           0        0.887132   -0.034175    1.368819
 ---------------------------------------------------------------------

 SCF Done:  E(RHF) =  -630.607270007     A.U. after    2 cycles

 The electronic state is 1-A.
 Alpha  occ. eigenvalues --  -93.52061 -11.26474 -11.26452 -11.24897 -11.24484
 Alpha  occ. eigenvalues --  -11.24288 -11.24120  -8.81828  -6.15961  -6.15801
 Alpha  occ. eigenvalues --   -6.15516  -1.11763  -1.02380  -0.98329  -0.95997
 Alpha  occ. eigenvalues --   -0.79692  -0.78161  -0.76035  -0.67957  -0.65984
 Alpha  occ. eigenvalues --   -0.64205  -0.60509  -0.55214  -0.51036  -0.49690
 Alpha  occ. eigenvalues --   -0.48545  -0.47911  -0.42301  -0.41133  -0.41100
 Alpha  occ. eigenvalues --   -0.33623
 Alpha virt. eigenvalues --    0.03185   0.03935   0.04508   0.05094   0.05597
 Alpha virt. eigenvalues --    0.06657   0.06879   0.07170   0.08213   0.08793
 Alpha virt. eigenvalues --    0.10226   0.11288   0.12346   0.13351   0.14205

 Mulliken charges:
               1
     1  C    0.521437
     2  H   -0.350530
     3  C    0.164205
     4  H   -0.317733
     5  H   -0.165515
     6  H   -0.081219
     7  H   -0.073680
     8  H   -0.128888
     9  H   -0.159378
    10  H   -0.137355
    11  H   -0.064842
    12  H   -0.213223
    13  S    0.372490
    14  C    0.077492
    15  C    0.246011
    16  C    0.170908
    17  C    0.139819
 Sum of Mulliken charges =  -0.00000

 Dipole moment (field-independent basis, Debye):
    X=              0.3351    Y=              2.3181    Z=             -0.0013  Tot=              2.3422

 Test job not archived.
 1\1\GINC-SE173\SP\RHF\Aug-CC-pVDZ\C6H10S1\OHZDE\09-Apr-2025\0\\#t hf a
 ug-cc-pvdz iop(5/13=1,5/36=2,99/5=2) pseudo=read geom=check guess=(rea
 d,tcheck) scf=(maxcycle=1)\\title\\0,1\C,0,2.59090187,-0.04968862,0.43
 961338\H,0,1.93323189,0.27193926,-0.33858357\C,0,3.30609004,-0.4175117
 1,1.32580727\H,0,3.94715573,-0.74121457,2.10714096\H,0,0.04644066,-1.6
 5003802,-0.62716651\H,0,-1.42821949,-1.69687101,-1.6026475\H,0,-1.6760
 711,-1.95641517,1.05000586\H,0,-1.99127287,1.83946968,0.12722247\H,0,-
 2.77310827,-0.85595851,0.21793107\H,0,-0.27942035,2.03010908,0.5214724

 Normal termination of Gaussian 16 at Wed Apr  9 17:18:52 2025.
