 Gaussian 16, Revision C.01,

 ----------------------------------------------------------------------
 #t hf aug-cc-pvdz symm=none int=(grid=ultrafine) guess=(read,tcheck) s
 table=(opt,rrhf)
 ----------------------------------------------------------------------
 -----
 title
 -----
 Symbolic Z-matrix:
 Charge =  0 Multiplicity = 1

 SCF Done:  E(RHF) =  -974.719896110     A.U. after   13 cycles
 Normal termination of Gaussian 16 at Wed Apr  9 04:10:30 2025.
 Gaussian 16:  ES64L-G16RevC.01  3-Jul-2019

 ----------------------------------------------------------------------
 #t hf aug-cc-pvdz iop(5/13=1,5/36=2,99/5=2) pseudo=read geom=check gue
 ss=(read,tcheck) scf=(maxcycle=1)
 ----------------------------------------------------------------------
 -----
 title
 -----
 Structure from the checkpoint file:  "HB300SPXx10_1373_4.42_0.90_hydrogenchloride_thioacetone_dimer_mol1.chk"
 Charge =  0 Multiplicity = 1

                         Standard orientation:
 ---------------------------------------------------------------------
 Center     Atomic      Atomic             Coordinates (Angstroms)
 Number     Number       Type             X           Y           Z
 ---------------------------------------------------------------------
      1          1           0        1.540561   -0.046613    0.000000
      2         17           0        2.493739   -0.956741    0.000000
      3          1           0       -0.176042   -1.600047    0.000000
      4          1           0       -1.720749   -1.644569    0.874054
      5          1           0       -1.720749   -1.644569   -0.874054
      6          1           0       -2.704135    1.878459    0.000000
      7          1           0       -3.232976    0.423930   -0.874659
      8          6           0       -1.200044   -1.245351    0.000000
      9          6           0       -1.298688    0.247019    0.000000
     10         16           0        0.000000    1.231255    0.000000
     11          6           0       -2.692349    0.793999    0.000000
     12          1           0       -3.232976    0.423930    0.874659
 ---------------------------------------------------------------------

 SCF Done:  E(RHF) =  -974.794532361     A.U. after    2 cycles

 The electronic state is 1-A'.
 Alpha  occ. eigenvalues -- -103.62789 -93.53246 -11.35738 -11.26928 -11.26493
 Alpha  occ. eigenvalues --  -10.66169  -8.83334  -8.31901  -8.31643  -8.31631
 Alpha  occ. eigenvalues --   -6.17502  -6.17108  -6.16995  -1.13490  -1.11672
 Alpha  occ. eigenvalues --   -0.98297  -0.96609  -0.74278  -0.64349  -0.63578
 Alpha  occ. eigenvalues --   -0.63102  -0.59716  -0.57697  -0.55235  -0.51229
 Alpha  occ. eigenvalues --   -0.45099  -0.44999  -0.40615  -0.35871
 Alpha virt. eigenvalues --    0.02578   0.03312   0.04544   0.05656   0.05896
 Alpha virt. eigenvalues --    0.07273   0.07275   0.08139   0.09552   0.10990
 Alpha virt. eigenvalues --    0.13474   0.13619   0.14148   0.15578   0.15739

 Mulliken charges:
               1
     1  H    0.278040
     2  Cl  -0.266326
     3  H   -0.195472
     4  H    0.089847
     5  H    0.089847
     6  H   -0.067417
     7  H    0.054505
     8  C    0.383562
     9  C   -0.735023
    10  S    0.004174
    11  C    0.309758
    12  H    0.054505
 Sum of Mulliken charges =  -0.00000

 Dipole moment (field-independent basis, Debye):
    X=             -5.2656    Y=             -0.2945    Z=             -0.0000  Tot=              5.2739

 Test job not archived.
 1\1\GINC-SE097\SP\RHF\Aug-CC-pVDZ\C3H7Cl1S1\OHZDE\09-Apr-2025\0\\#t hf
  aug-cc-pvdz iop(5/13=1,5/36=2,99/5=2) pseudo=read geom=check guess=(r
 ead,tcheck) scf=(maxcycle=1)\\title\\0,1\H,0,-0.37830043,1.49279945,0.
 \Cl,0,0.15229845,2.69917624,0.\H,0,1.66733836,0.40871212,0.\H,0,2.2358
 7222,-1.02825416,0.87405369\H,0,2.23587222,-1.02825416,-0.87405369\H,0
 ,-0.74075882,-3.15391694,0.\H,0,0.80692468,-3.15513675,-0.87465894\C,0
 ,1.68303732,-0.67486708,0.\C,0,0.31372577,-1.27643452,0.\S,0,-1.054331
 03,-0.39114799,0.\C,0,0.27470062,-2.77308266,0.\H,0,0.80692468,-3.1551

 Normal termination of Gaussian 16 at Wed Apr  9 04:10:34 2025.
