 Gaussian 16, Revision C.01,

 ----------------------------------------------------------------------
 #t hf aug-cc-pvdz symm=none int=(grid=ultrafine) guess=(read,tcheck) s
 table=(opt,rrhf)
 ----------------------------------------------------------------------
 -----
 title
 -----
 Symbolic Z-matrix:
 Charge =  0 Multiplicity = 1

 SCF Done:  E(RHF) =  -605.478664785     A.U. after   13 cycles
 Normal termination of Gaussian 16 at Wed Apr  9 17:42:28 2025.
 Gaussian 16:  ES64L-G16RevC.01  3-Jul-2019

 ----------------------------------------------------------------------
 #t hf aug-cc-pvdz iop(5/13=1,5/36=2,99/5=2) pseudo=read geom=check gue
 ss=(read,tcheck) scf=(maxcycle=1)
 ----------------------------------------------------------------------
 -----
 title
 -----
 Structure from the checkpoint file:  "HB300SPXx10_114_1.12_0.95_sulfane_methylcyanate_dimer_mol1.chk"
 Charge =  0 Multiplicity = 1

                         Standard orientation:
 ---------------------------------------------------------------------
 Center     Atomic      Atomic             Coordinates (Angstroms)
 Number     Number       Type             X           Y           Z
 ---------------------------------------------------------------------
      1          1           0        1.456228    0.879912    0.023449
      2          1           0        2.510565   -0.273350    1.178924
      3         16           0        2.197545   -0.231666   -0.124469
      4          1           0       -1.734174   -1.325344    1.310988
      5          1           0       -2.017290   -2.194211   -0.224818
      6          1           0       -0.379779   -1.577572    0.164047
      7          6           0       -1.449002   -1.413845    0.265957
      8          8           0       -1.815857   -0.183519   -0.434854
      9          6           0       -1.199142    0.873649   -0.058257
     10          7           0       -0.654364    1.843792    0.253077
 ---------------------------------------------------------------------

 SCF Done:  E(RHF) =  -605.567428224     A.U. after    2 cycles

 The electronic state is 1-A.
 Alpha  occ. eigenvalues --  -93.54301 -20.67635 -15.63880 -11.35797 -11.33817
 Alpha  occ. eigenvalues --   -8.84104  -6.18296  -6.18084  -6.17770  -1.45015
 Alpha  occ. eigenvalues --   -1.19690  -1.01536  -0.96523  -0.81006  -0.72412
 Alpha  occ. eigenvalues --   -0.71043  -0.59732  -0.59218  -0.58031  -0.55673
 Alpha  occ. eigenvalues --   -0.49615  -0.46333  -0.44636  -0.37998
 Alpha virt. eigenvalues --    0.02685   0.04482   0.05059   0.06325   0.07824
 Alpha virt. eigenvalues --    0.08625   0.10667   0.11048   0.11460   0.13338
 Alpha virt. eigenvalues --    0.14156   0.14710   0.15027   0.15384   0.16612

 Mulliken charges:
               1
     1  H    0.048761
     2  H    0.025209
     3  S   -0.077862
     4  H   -0.093004
     5  H   -0.157498
     6  H   -0.054639
     7  C    0.891330
     8  O   -0.397084
     9  C   -0.074332
    10  N   -0.110881
 Sum of Mulliken charges =  -0.00000

 Dipole moment (field-independent basis, Debye):
    X=             -1.2056    Y=             -3.8614    Z=              1.1719  Tot=              4.2116

 Test job not archived.
 1\1\GINC-SE029\SP\RHF\Aug-CC-pVDZ\C2H5N1O1S1\OHZDE\09-Apr-2025\0\\#t h
 f aug-cc-pvdz iop(5/13=1,5/36=2,99/5=2) pseudo=read geom=check guess=(
 read,tcheck) scf=(maxcycle=1)\\title\\0,1\H,0,1.70020261,0.23216325,0.
 14198181\H,0,1.83071194,2.07603691,0.74186388\S,0,1.65222468,0.8789214
 7,1.31945248\H,0,-2.2236967,1.10930577,-0.58822602\H,0,-2.90393412,0.1
 4091048,0.75090542\H,0,-1.23291621,0.77866911,0.86865779\C,0,-2.005007
 38,0.39928499,0.20505241\O,0,-1.55196193,-0.85744693,-0.39059631\C,0,-
 0.44690925,-0.79861107,-1.0349285\N,0,0.5513787,-0.7803075,-1.61628412

 Normal termination of Gaussian 16 at Wed Apr  9 17:42:31 2025.
