 Gaussian 16, Revision C.01,

 ----------------------------------------------------------------------
 #t hf aug-cc-pvdz symm=none int=(grid=ultrafine) guess=(read,tcheck) s
 table=(opt,rrhf)
 ----------------------------------------------------------------------
 -----
 title
 -----
 Symbolic Z-matrix:
 Charge =  0 Multiplicity = 1

 SCF Done:  E(RHF) =  -645.414128236     A.U. after   14 cycles
 Normal termination of Gaussian 16 at Wed Apr  9 17:49:36 2025.
 Gaussian 16:  ES64L-G16RevC.01  3-Jul-2019

 ----------------------------------------------------------------------
 #t hf aug-cc-pvdz iop(5/13=1,5/36=2,99/5=2) pseudo=read geom=check gue
 ss=(read,tcheck) scf=(maxcycle=1)
 ----------------------------------------------------------------------
 -----
 title
 -----
 Structure from the checkpoint file:  "HB300SPXx10_121_1.13_0.80_sulfane_pyridine_dimer_mol1.chk"
 Charge =  0 Multiplicity = 1

                         Standard orientation:
 ---------------------------------------------------------------------
 Center     Atomic      Atomic             Coordinates (Angstroms)
 Number     Number       Type             X           Y           Z
 ---------------------------------------------------------------------
      1          1           0        1.748659   -0.306569   -0.025371
      2          1           0        3.205965   -0.040633    1.252645
      3         16           0        3.066625    0.011280   -0.079850
      4          1           0       -2.919985   -1.819405   -0.001561
      5          1           0       -0.481112   -2.292186   -0.002020
      6          6           0       -2.625495    0.316615    0.001358
      7          6           0       -2.208197   -1.007107   -0.000098
      8          6           0       -0.845193   -1.272483   -0.000190
      9          7           0        0.081641   -0.315164    0.001336
     10          6           0       -0.325998    0.953535    0.002531
     11          6           0       -1.665761    1.318871    0.002651
     12          1           0        0.455363    1.703629    0.002616
     13          1           0       -1.944433    2.362295    0.003320
     14          1           0       -3.678079    0.561954    0.001113
 ---------------------------------------------------------------------

 SCF Done:  E(RHF) =  -645.507676552     A.U. after    2 cycles

 The electronic state is 1-A.
 Alpha  occ. eigenvalues --  -93.49382 -15.65058 -11.30452 -11.30195 -11.28525
 Alpha  occ. eigenvalues --  -11.26652 -11.26596  -8.79361  -6.13566  -6.13363
 Alpha  occ. eigenvalues --   -6.13021  -1.25648  -1.09799  -1.04868  -0.92787
 Alpha  occ. eigenvalues --   -0.87734  -0.87491  -0.74724  -0.68620  -0.67147
 Alpha  occ. eigenvalues --   -0.62108  -0.61667  -0.56608  -0.54765  -0.54076
 Alpha  occ. eigenvalues --   -0.47655  -0.40554  -0.39600  -0.36726  -0.34185
 Alpha virt. eigenvalues --    0.02551   0.03514   0.04251   0.05767   0.06040
 Alpha virt. eigenvalues --    0.06901   0.07771   0.08960   0.09052   0.10551
 Alpha virt. eigenvalues --    0.11228   0.12233   0.13075   0.13300   0.13845

 Mulliken charges:
               1
     1  H    0.119957
     2  H    0.015899
     3  S   -0.046781
     4  H   -0.418490
     5  H   -0.395817
     6  C   -0.150293
     7  C    0.789132
     8  C    0.567896
     9  N   -0.520990
    10  C    0.549803
    11  C    0.761864
    12  H   -0.462787
    13  H   -0.416742
    14  H   -0.392651
 Sum of Mulliken charges =  -0.00000

 Dipole moment (field-independent basis, Debye):
    X=             -5.0287    Y=              0.1416    Z=              0.7339  Tot=              5.0839

 Test job not archived.
 1\1\GINC-SE131\SP\RHF\Aug-CC-pVDZ\C5H7N1S1\OHZDE\09-Apr-2025\0\\#t hf
 aug-cc-pvdz iop(5/13=1,5/36=2,99/5=2) pseudo=read geom=check guess=(re
 ad,tcheck) scf=(maxcycle=1)\\title\\0,1\H,0,1.25021154,1.5960457,0.136
 91261\H,0,3.15091491,1.84193998,0.53016902\S,0,2.02337536,2.53859467,0
 .73260516\H,0,-1.60975147,-1.54206935,-2.32445242\H,0,-0.07136911,0.40
 758123,-2.26226936\C,0,-1.48247042,-1.85998951,-0.19559345\C,0,-1.1858
 7039,-1.2130129,-1.38715985\C,0,-0.32596054,-0.123229,-1.3535473\N,0,0
 .22847131,0.33072074,-0.23015045\C,0,-0.06076346,-0.29501047,0.9102755

 Normal termination of Gaussian 16 at Wed Apr  9 17:49:41 2025.
