 Gaussian 16, Revision C.01,

 ----------------------------------------------------------------------
 #t hf aug-cc-pvdz symm=none int=(grid=ultrafine) guess=(read,tcheck) s
 table=(opt,rrhf)
 ----------------------------------------------------------------------
 -----
 title
 -----
 Symbolic Z-matrix:
 Charge =  0 Multiplicity = 1

 SCF Done:  E(RHF) =  -875.462291648     A.U. after   12 cycles
 Normal termination of Gaussian 16 at Wed Apr  9 17:48:34 2025.
 Gaussian 16:  ES64L-G16RevC.01  3-Jul-2019

 ----------------------------------------------------------------------
 #t hf aug-cc-pvdz iop(5/13=1,5/36=2,99/5=2) pseudo=read geom=check gue
 ss=(read,tcheck) scf=(maxcycle=1)
 ----------------------------------------------------------------------
 -----
 title
 -----
 Structure from the checkpoint file:  "HB300SPXx10_1215_4.26_1.00_sulfane_dimethylsulfide_dimer_mol1.chk"
 Charge =  0 Multiplicity = 1

                         Standard orientation:
 ---------------------------------------------------------------------
 Center     Atomic      Atomic             Coordinates (Angstroms)
 Number     Number       Type             X           Y           Z
 ---------------------------------------------------------------------
      1          1           0        1.207705   -0.020599   -0.567163
      2          1           0        2.731612    1.176056   -0.348893
      3         16           0        2.419199   -0.070191    0.034312
      4          1           0       -2.061442   -1.397934    1.167178
      5          1           0       -0.283665   -1.350600    1.080350
      6          1           0       -1.210035   -2.297413   -0.099092
      7          1           0       -1.284552    2.297830   -0.021225
      8          1           0       -0.311426    1.343327    1.113313
      9          1           0       -2.091680    1.327460    1.220926
     10          6           0       -1.203121   -1.389318    0.498445
     11         16           0       -1.296695    0.009636   -0.647376
     12          6           0       -1.239645    1.371109    0.545492
 ---------------------------------------------------------------------

 SCF Done:  E(RHF) =  -875.532478715     A.U. after    2 cycles

 The electronic state is 1-A.
 Alpha  occ. eigenvalues --  -93.53611 -93.53387 -11.26672 -11.26601  -8.83404
 Alpha  occ. eigenvalues --   -8.83139  -6.17601  -6.17385  -6.17279  -6.17071
 Alpha  occ. eigenvalues --   -6.17028  -6.16814  -1.05876  -0.95720  -0.95561
 Alpha  occ. eigenvalues --   -0.80890  -0.62004  -0.61261  -0.58660  -0.57743
 Alpha  occ. eigenvalues --   -0.57061  -0.50216  -0.48826  -0.44008  -0.37322
 Alpha  occ. eigenvalues --   -0.34325
 Alpha virt. eigenvalues --    0.03445   0.04404   0.04919   0.05809   0.07051
 Alpha virt. eigenvalues --    0.07280   0.07925   0.09045   0.10991   0.11828
 Alpha virt. eigenvalues --    0.13394   0.13911   0.15073   0.15840   0.16052

 Mulliken charges:
               1
     1  H    0.074896
     2  H   -0.005450
     3  S   -0.032748
     4  H   -0.082524
     5  H   -0.169848
     6  H   -0.094646
     7  H   -0.095243
     8  H   -0.147086
     9  H   -0.078742
    10  C    0.218722
    11  S    0.208108
    12  C    0.204559
 Sum of Mulliken charges =  -0.00000

 Dipole moment (field-independent basis, Debye):
    X=             -0.9871    Y=              0.7060    Z=              1.1619  Tot=              1.6801

 Test job not archived.
 1\1\GINC-SE173\SP\RHF\Aug-CC-pVDZ\C2H8S2\OHZDE\09-Apr-2025\0\\#t hf au
 g-cc-pvdz iop(5/13=1,5/36=2,99/5=2) pseudo=read geom=check guess=(read
 ,tcheck) scf=(maxcycle=1)\\title\\0,1\H,0,0.94021613,0.77457481,-0.419
 26695\H,0,0.91265107,2.63108631,-1.01468344\S,0,1.34625135,1.9701562,0
 .06824785\H,0,-0.90149127,-1.89935314,1.82807399\H,0,0.11439273,-0.441
 61757,1.71293425\H,0,0.8105785,-2.04198454,1.39694649\H,0,-2.24493664,
 -0.08161239,-1.42238796\H,0,-1.66139166,0.71622525,0.0500786\H,0,-2.70
 970544,-0.72242428,0.16170789\C,0,-0.07995831,-1.42725245,1.29309902\S

 Normal termination of Gaussian 16 at Wed Apr  9 17:48:37 2025.
