 Gaussian 16, Revision C.01,

 ----------------------------------------------------------------------
 #t hf aug-cc-pvdz symm=none int=(grid=ultrafine) guess=(read,tcheck) s
 table=(opt,rrhf)
 ----------------------------------------------------------------------
 -----
 title
 -----
 Symbolic Z-matrix:
 Charge =  0 Multiplicity = 1

 SCF Done:  E(RHF) =  -648.913453880     A.U. after   12 cycles
 Normal termination of Gaussian 16 at Wed Apr  9 17:33:02 2025.
 Gaussian 16:  ES64L-G16RevC.01  3-Jul-2019

 ----------------------------------------------------------------------
 #t hf aug-cc-pvdz iop(5/13=1,5/36=2,99/5=2) pseudo=read geom=check gue
 ss=(read,tcheck) scf=(maxcycle=1)
 ----------------------------------------------------------------------
 -----
 title
 -----
 Structure from the checkpoint file:  "HB300SPXx10_1085_4.12_1.00_methylamine_tetrahydrothiophene_dimer_mol1.chk"
 Charge =  0 Multiplicity = 1

                         Standard orientation:
 ---------------------------------------------------------------------
 Center     Atomic      Atomic             Coordinates (Angstroms)
 Number     Number       Type             X           Y           Z
 ---------------------------------------------------------------------
      1          7           0       -2.283844   -0.270909   -0.824096
      2          1           0       -1.565150   -0.864454   -0.423186
      3          1           0       -2.839661   -0.848813   -1.440246
      4          6           0       -3.116092    0.304603    0.231077
      5          1           0       -3.895194    0.922422   -0.214441
      6          1           0       -3.599913   -0.426761    0.889084
      7          1           0       -2.506048    0.958160    0.854763
      8          1           0        1.501984    0.559532    2.021748
      9          1           0       -0.254903    0.429208    1.898775
     10          1           0        0.955526    2.440967    0.597548
     11          1           0        0.508713   -0.576933   -1.793210
     12          1           0       -0.295371    1.521305   -0.246259
     13          1           0        2.185793   -1.068449   -1.499524
     14          1           0        1.656440    1.547816   -1.744845
     15          1           0        2.709319    1.028524   -0.429534
     16         16           0        0.855054   -1.221929    0.515680
     17          6           0        0.672328    0.418365    1.331869
     18          6           0        0.691532    1.456274    0.210987
     19          6           0        1.695728    0.959437   -0.828032
     20          6           0        1.347258   -0.501228   -1.104716
 ---------------------------------------------------------------------

 SCF Done:  E(RHF) =  -649.013070572     A.U. after    2 cycles

 The electronic state is 1-A.
 Alpha  occ. eigenvalues --  -93.51631 -15.59585 -11.26134 -11.25916 -11.25012
 Alpha  occ. eigenvalues --  -11.23807 -11.23511  -8.81403  -6.15537  -6.15378
 Alpha  occ. eigenvalues --   -6.15093  -1.13290  -1.11289  -0.97865  -0.95506
 Alpha  occ. eigenvalues --   -0.88730  -0.79202  -0.77718  -0.66807  -0.64822
 Alpha  occ. eigenvalues --   -0.63731  -0.60311  -0.59673  -0.55516  -0.54600
 Alpha  occ. eigenvalues --   -0.51560  -0.50524  -0.49181  -0.47957  -0.47443
 Alpha  occ. eigenvalues --   -0.41888  -0.37935  -0.33115
 Alpha virt. eigenvalues --    0.03370   0.04167   0.04231   0.04721   0.05989
 Alpha virt. eigenvalues --    0.06147   0.06337   0.06928   0.08188   0.08801
 Alpha virt. eigenvalues --    0.09182   0.09923   0.10320   0.11954   0.13437

 Mulliken charges:
               1
     1  N   -0.406432
     2  H    0.073617
     3  H   -0.002715
     4  C    0.903182
     5  H   -0.178408
     6  H   -0.131704
     7  H   -0.274978
     8  H   -0.129834
     9  H   -0.160110
    10  H   -0.075611
    11  H   -0.199456
    12  H   -0.226111
    13  H   -0.080779
    14  H   -0.089549
    15  H   -0.168967
    16  S    0.333317
    17  C    0.082197
    18  C    0.359833
    19  C    0.175552
    20  C    0.196957
 Sum of Mulliken charges =  -0.00000

 Dipole moment (field-independent basis, Debye):
    X=             -0.1705    Y=              1.0910    Z=             -0.1870  Tot=              1.1199

 Test job not archived.
 1\1\GINC-SE103\SP\RHF\Aug-CC-pVDZ\C5H13N1S1\OHZDE\09-Apr-2025\0\\#t hf
  aug-cc-pvdz iop(5/13=1,5/36=2,99/5=2) pseudo=read geom=check guess=(r
 ead,tcheck) scf=(maxcycle=1)\\title\\0,1\N,0,-0.48023551,2.04199658,1.
 33183501\H,0,-0.98136805,1.22913012,0.98881982\H,0,-1.14375731,2.80345
 765,1.38144373\C,0,0.08991425,1.76981847,2.65020044\H,0,0.60698078,2.6
 5693888,3.01468146\H,0,-0.63523497,1.46399211,3.41346792\H,0,0.8338340
 5,0.97768014,2.5643137\H,0,0.86214648,-2.40340209,0.08387841\H,0,0.572
 32441,-1.26079245,1.39887161\H,0,2.5903762,-0.74933304,-0.29564289\H,0

 Normal termination of Gaussian 16 at Wed Apr  9 17:33:11 2025.
