 Gaussian 16, Revision C.01,

 ----------------------------------------------------------------------
 #t hf aug-cc-pvdz symm=none int=(grid=ultrafine) guess=(read,tcheck) s
 table=(opt,rrhf)
 ----------------------------------------------------------------------
 -----
 title
 -----
 Symbolic Z-matrix:
 Charge =  0 Multiplicity = 1

 SCF Done:  E(RHF) =  -1054.88452934     A.U. after   15 cycles
 Normal termination of Gaussian 16 at Wed Apr  9 18:02:09 2025.
 Gaussian 16:  ES64L-G16RevC.01  3-Jul-2019

 ----------------------------------------------------------------------
 #t hf aug-cc-pvdz iop(5/13=1,5/36=2,99/5=2) pseudo=read geom=check gue
 ss=(read,tcheck) scf=(maxcycle=1)
 ----------------------------------------------------------------------
 -----
 title
 -----
 Structure from the checkpoint file:  "HB300SPXx10_1482_5.11_0.85_thioacetone_phosphineF2_dimer_mol1.chk"
 Charge =  0 Multiplicity = 1

                         Standard orientation:
 ---------------------------------------------------------------------
 Center     Atomic      Atomic             Coordinates (Angstroms)
 Number     Number       Type             X           Y           Z
 ---------------------------------------------------------------------
      1          1           0        0.443749    1.626244   -0.149557
      2          1           0        1.668271    1.915120    1.103616
      3          1           0        2.089355    2.141531   -0.578223
      4          1           0        3.699340   -1.147168    0.240881
      5          1           0        3.997231    0.447177   -0.484947
      6          6           0        1.493197    1.523760    0.097713
      7          6           0        1.958931    0.103091    0.032079
      8         16           0        0.958627   -1.144799   -0.268906
      9          6           0        3.424243   -0.098501    0.269029
     10          1           0        3.705139    0.326921    1.235804
     11         15           0       -1.781280   -0.233443    0.288293
     12          9           0       -3.385564   -0.109809    0.280781
     13          9           0       -1.476766    1.056667   -0.615162
     14          1           0       -1.719161   -1.183223   -0.772989
 ---------------------------------------------------------------------

 SCF Done:  E(RHF) =  -1055.04972618     A.U. after    2 cycles

 The electronic state is 1-A.
 Alpha  occ. eigenvalues --  -93.52199 -81.37791 -26.12888 -26.11479 -11.34713
 Alpha  occ. eigenvalues --  -11.26213 -11.25529  -8.82267  -7.86500  -6.16440
 Alpha  occ. eigenvalues --   -6.16061  -6.15884  -5.00621  -5.00362  -4.99836
 Alpha  occ. eigenvalues --   -1.66329  -1.64178  -1.12426  -0.97543  -0.95698
 Alpha  occ. eigenvalues --   -0.88594  -0.78084  -0.76767  -0.76173  -0.72994
 Alpha  occ. eigenvalues --   -0.72195  -0.69731  -0.63266  -0.62804  -0.62047
 Alpha  occ. eigenvalues --   -0.60014  -0.56979  -0.54071  -0.50520  -0.41417
 Alpha  occ. eigenvalues --   -0.38186  -0.34498
 Alpha virt. eigenvalues --    0.02870   0.03748   0.04675   0.05213   0.05979
 Alpha virt. eigenvalues --    0.06587   0.07304   0.07900   0.09071   0.09466
 Alpha virt. eigenvalues --    0.10335   0.11877   0.12339   0.14110   0.14585

 Mulliken charges:
               1
     1  H   -0.285417
     2  H    0.105468
     3  H    0.090359
     4  H   -0.071139
     5  H    0.051465
     6  C    0.442291
     7  C   -0.846999
     8  S    0.101510
     9  C    0.388164
    10  H    0.049926
    11  P    1.216551
    12  F   -0.654093
    13  F   -0.639907
    14  H    0.051820
 Sum of Mulliken charges =  -0.00000

 Dipole moment (field-independent basis, Debye):
    X=              4.3748    Y=              0.8089    Z=              0.6493  Tot=              4.4960

 Test job not archived.
 1\1\GINC-SE113\SP\RHF\Aug-CC-pVDZ\C3H7F2P1S1\OHZDE\09-Apr-2025\0\\#t h
 f aug-cc-pvdz iop(5/13=1,5/36=2,99/5=2) pseudo=read geom=check guess=(
 read,tcheck) scf=(maxcycle=1)\\title\\0,1\H,0,-0.82524406,-0.11851319,
 -2.18150719\H,0,-1.6981931,1.21808686,-2.95919937\H,0,-0.71897066,0.14
 764096,-3.93512177\H,0,1.41759528,3.22175764,-3.68330427\H,0,0.7352472
 6,2.04678605,-4.82844268\C,0,-0.77357806,0.63435768,-2.9583614\C,0,0.3
 925438,1.55581911,-2.78347778\S,0,1.39271927,1.4865874,-1.50157001\C,0
 ,0.57891903,2.56210758,-3.87735604\H,0,-0.33203334,3.15446018,-3.99493

 Normal termination of Gaussian 16 at Wed Apr  9 18:02:14 2025.
