 Gaussian 16, Revision C.01,

 ----------------------------------------------------------------------
 #t hf aug-cc-pvdz symm=none int=(grid=ultrafine) guess=(read,tcheck) s
 table=(opt,rrhf)
 ----------------------------------------------------------------------
 -----
 title
 -----
 Symbolic Z-matrix:
 Charge =  0 Multiplicity = 1

 SCF Done:  E(RHF) =  -952.344855582     A.U. after   14 cycles

 1\1\GINC-SE135\Stability\RHF\Aug-CC-pVDZ\C4H10S2\OHZDE\09-Apr-2025\0\\
 #t hf aug-cc-pvdz symm=none int=(grid=ultrafine) guess=(read,tcheck) s
 table=(opt,rrhf)\\title\\0,1\H,0,1.94048627,-0.28311522,0.30003006\H,0
 ,2.70886397,-1.74966836,-0.33633756\H,0,2.5169729,-1.54996222,1.410513
 58\H,0,-0.19256655,-1.5118813,1.21090974\C,0,2.06439688,-1.35234501,0.
 4434425\S,0,0.46794236,-2.21627191,0.2804649\H,0,-2.24049904,0.1779100
 8,0.23704137\H,0,-2.29846353,0.63438573,-1.47912782\H,0,-1.65659233,-0
 .93229741,-1.02565469\H,0,1.40512231,1.1100636,-1.81824563\H,0,0.62857

 Normal termination of Gaussian 16 at Wed Apr  9 17:20:35 2025.
 Gaussian 16:  ES64L-G16RevC.01  3-Jul-2019

 ----------------------------------------------------------------------
 #t hf aug-cc-pvdz iop(5/13=1,5/36=2,99/5=2) pseudo=read geom=check gue
 ss=(read,tcheck) scf=(maxcycle=1)
 ----------------------------------------------------------------------
 -----
 title
 -----
 Structure from the checkpoint file:  "HB300SPXx10_1021_4.06_0.80_methanethiol_thioacetone_dimer_mol1.chk"
 Charge =  0 Multiplicity = 1

                         Standard orientation:
 ---------------------------------------------------------------------
 Center     Atomic      Atomic             Coordinates (Angstroms)
 Number     Number       Type             X           Y           Z
 ---------------------------------------------------------------------
      1          1           0        0.866937   -1.360838    0.630227
      2          1           0        2.312894   -0.822482    1.505171
      3          1           0        2.489313   -1.698549   -0.021124
      4          1           0        1.210185    0.256533   -1.408345
      5          6           0        1.879120   -0.982867    0.521618
      6         16           0        1.878416    0.638684   -0.310350
      7          1           0       -1.392881    1.326185   -1.687161
      8          1           0       -2.237798    2.028582   -0.290837
      9          1           0       -0.491019    2.138142   -0.385131
     10          1           0       -1.096211   -0.591222    2.136347
     11          1           0       -0.160176    0.891734    1.846220
     12          6           0       -1.342039    1.493599   -0.616761
     13          6           0       -1.214837    0.209686    0.143058
     14         16           0       -1.189104   -1.243607   -0.588785
     15          6           0       -1.093382    0.366346    1.626927
     16          1           0       -1.903423    0.990093    2.011735
 ---------------------------------------------------------------------

 SCF Done:  E(RHF) =  -952.434547560     A.U. after    2 cycles

 The electronic state is 1-A.
 Alpha  occ. eigenvalues --  -93.53125 -93.50615 -11.33478 -11.25944 -11.25085
 Alpha  occ. eigenvalues --  -11.24789  -8.82923  -8.80621  -6.17111  -6.16883
 Alpha  occ. eigenvalues --   -6.16604  -6.14806  -6.14504  -6.14214  -1.11379
 Alpha  occ. eigenvalues --   -1.02465  -0.96599  -0.94331  -0.85954  -0.71997
 Alpha  occ. eigenvalues --   -0.62979  -0.61459  -0.61304  -0.60660  -0.58506
 Alpha  occ. eigenvalues --   -0.56145  -0.53319  -0.52519  -0.49615  -0.45713
 Alpha  occ. eigenvalues --   -0.38034  -0.35669  -0.33189
 Alpha virt. eigenvalues --    0.03234   0.04169   0.04587   0.05121   0.06176
 Alpha virt. eigenvalues --    0.06376   0.06893   0.07300   0.08036   0.08923
 Alpha virt. eigenvalues --    0.09449   0.10397   0.11649   0.12227   0.13361

 Mulliken charges:
               1
     1  H   -0.203269
     2  H   -0.079916
     3  H   -0.162439
     4  H    0.152937
     5  C    0.296760
     6  S    0.041990
     7  H   -0.079937
     8  H    0.016771
     9  H    0.026461
    10  H   -0.086640
    11  H    0.087154
    12  C    0.442793
    13  C   -0.880427
    14  S   -0.038317
    15  C    0.511026
    16  H   -0.044948
 Sum of Mulliken charges =  -0.00000

 Dipole moment (field-independent basis, Debye):
    X=             -0.4178    Y=              1.3918    Z=              1.5909  Tot=              2.1547

 Test job not archived.
 1\1\GINC-SE135\SP\RHF\Aug-CC-pVDZ\C4H10S2\OHZDE\09-Apr-2025\0\\#t hf a
 ug-cc-pvdz iop(5/13=1,5/36=2,99/5=2) pseudo=read geom=check guess=(rea
 d,tcheck) scf=(maxcycle=1)\\title\\0,1\H,0,1.94048627,-0.28311522,0.30
 003006\H,0,2.70886397,-1.74966836,-0.33633756\H,0,2.5169729,-1.5499622
 2,1.41051358\H,0,-0.19256655,-1.5118813,1.21090974\C,0,2.06439688,-1.3
 5234501,0.4434425\S,0,0.46794236,-2.21627191,0.2804649\H,0,-2.24049904
 ,0.17791008,0.23704137\H,0,-2.29846353,0.63438573,-1.47912782\H,0,-1.6
 5659233,-0.93229741,-1.02565469\H,0,1.40512231,1.1100636,-1.81824563\H

 Normal termination of Gaussian 16 at Wed Apr  9 17:20:41 2025.
