 Gaussian 16, Revision C.01,

 ----------------------------------------------------------------------
 #t hf aug-cc-pvdz symm=none int=(grid=ultrafine) guess=(read,tcheck) s
 table=(opt,rrhf)
 ----------------------------------------------------------------------
 -----
 title
 -----
 Symbolic Z-matrix:
 Charge =  0 Multiplicity = 1

 SCF Done:  E(RHF) =  -591.449614834     A.U. after   14 cycles
 Normal termination of Gaussian 16 at Wed Apr  9 17:19:22 2025.
 Gaussian 16:  ES64L-G16RevC.01  3-Jul-2019

 ----------------------------------------------------------------------
 #t hf aug-cc-pvdz iop(5/13=1,5/36=2,99/5=2) pseudo=read geom=check gue
 ss=(read,tcheck) scf=(maxcycle=1)
 ----------------------------------------------------------------------
 -----
 title
 -----
 Structure from the checkpoint file:  "HB300SPXx10_1011_4.05_0.80_ethyne_thioacetone_dimer_mol1.chk"
 Charge =  0 Multiplicity = 1

                         Standard orientation:
 ---------------------------------------------------------------------
 Center     Atomic      Atomic             Coordinates (Angstroms)
 Number     Number       Type             X           Y           Z
 ---------------------------------------------------------------------
      1          6           0        0.202998   -2.579481    0.000000
      2          1           0       -0.486273   -1.764806    0.000000
      3          6           0        0.992754   -3.478582    0.000000
      4          1           0        1.687624   -4.280580    0.000000
      5          1           0       -1.110406    3.047399    0.000000
      6          1           0        0.436312    3.099682    0.874719
      7          1           0        0.436312    3.099682   -0.874719
      8          1           0        1.406729   -0.435030    0.000000
      9          1           0        1.934381    1.016999   -0.874314
     10          6           0       -0.083091    2.699887    0.000000
     11          6           0        0.000000    1.203543    0.000000
     12         16           0       -1.328973    0.264684    0.000000
     13          6           0        1.391424    0.648752    0.000000
     14          1           0        1.934381    1.016999    0.874314
 ---------------------------------------------------------------------

 SCF Done:  E(RHF) =  -591.532423579     A.U. after    2 cycles

 The electronic state is 1-A'.
 Alpha  occ. eigenvalues --  -93.51338 -11.34220 -11.25810 -11.25378 -11.23414
 Alpha  occ. eigenvalues --  -11.22739  -8.81420  -6.15596  -6.15217  -6.15068
 Alpha  occ. eigenvalues --   -1.11934  -1.01213  -0.97122  -0.95098  -0.75621
 Alpha  occ. eigenvalues --   -0.72408  -0.66874  -0.62444  -0.61898  -0.61730
 Alpha  occ. eigenvalues --   -0.56644  -0.53972  -0.50233  -0.40053  -0.39888
 Alpha  occ. eigenvalues --   -0.39008  -0.34300
 Alpha virt. eigenvalues --    0.02944   0.03958   0.04066   0.05258   0.06152
 Alpha virt. eigenvalues --    0.06438   0.06996   0.07563   0.08927   0.09867
 Alpha virt. eigenvalues --    0.10704   0.12139   0.13467   0.13642   0.14107

 Mulliken charges:
               1
     1  C    0.452392
     2  H   -0.299954
     3  C    0.171860
     4  H   -0.346302
     5  H   -0.064152
     6  H    0.047362
     7  H    0.047362
     8  H   -0.298638
     9  H    0.119003
    10  C    0.339116
    11  C   -0.798546
    12  S    0.004216
    13  C    0.507276
    14  H    0.119003
 Sum of Mulliken charges =  -0.00000

 Dipole moment (field-independent basis, Debye):
    X=              2.5237    Y=              2.5632    Z=              0.0000  Tot=              3.5971

 Test job not archived.
 1\1\GINC-SE029\SP\RHF\Aug-CC-pVDZ\C5H8S1\OHZDE\09-Apr-2025\0\\#t hf au
 g-cc-pvdz iop(5/13=1,5/36=2,99/5=2) pseudo=read geom=check guess=(read
 ,tcheck) scf=(maxcycle=1)\\title\\0,1\C,0,-0.20751211,-2.93011645,0.\H
 ,0,-0.70775465,-1.98748922,0.\C,0,0.37296237,-3.97660953,0.\H,0,0.8813
 7254,-4.90804053,0.\H,0,-0.29418133,2.84736524,0.\H,0,1.22827177,2.569
 50611,0.87471889\H,0,1.22827177,2.56950611,-0.87471889\H,0,1.42474965,
 -1.0907251,0.\H,0,2.24913865,0.21586854,-0.87431367\C,0,0.63572496,2.2
 8932088,0.\C,0,0.39868284,0.80953647,0.\S,0,-1.09955789,0.17479234,0.\

 Normal termination of Gaussian 16 at Wed Apr  9 17:19:26 2025.
