 Gaussian 16, Revision C.01,

 ----------------------------------------------------------------------
 #t hf aug-cc-pvdz symm=none int=(grid=ultrafine) guess=(read,tcheck) s
 table=(opt,rrhf)
 ----------------------------------------------------------------------
 -----
 title
 -----
 Symbolic Z-matrix:
 Charge =  0 Multiplicity = 1

 SCF Done:  E(RHF) =  -475.527060853     A.U. after   11 cycles
 Normal termination of Gaussian 16 at Wed Apr  9 17:16:59 2025.
 Gaussian 16:  ES64L-G16RevC.01  3-Jul-2019

 ----------------------------------------------------------------------
 #t hf aug-cc-pvdz iop(5/13=1,5/36=2,99/5=2) pseudo=read geom=check gue
 ss=(read,tcheck) scf=(maxcycle=1)
 ----------------------------------------------------------------------
 -----
 title
 -----
 Structure from the checkpoint file:  "HB300SPXx10_1000_4.03_2.00_ethyne_sulfane_dimer_mol1.chk"
 Charge =  0 Multiplicity = 1

                         Standard orientation:
 ---------------------------------------------------------------------
 Center     Atomic      Atomic             Coordinates (Angstroms)
 Number     Number       Type             X           Y           Z
 ---------------------------------------------------------------------
      1          6           0       -0.267456    3.504345   -0.000000
      2          1           0        0.000000    2.473583   -0.000000
      3          6           0       -0.572633    4.660996   -0.000000
      4          1           0       -0.841443    5.687562   -0.000000
      5          1           0       -0.493547   -3.254822    0.969418
      6          1           0       -0.493547   -3.254822   -0.969418
      7         16           0        0.429317   -3.165222    0.000000
 ---------------------------------------------------------------------

 SCF Done:  E(RHF) =  -475.576142634     A.U. after    2 cycles

 The electronic state is 1-A'.
 Alpha  occ. eigenvalues --  -93.55179 -11.25452 -11.25041  -8.84949  -6.19122
 Alpha  occ. eigenvalues --   -6.18910  -6.18531  -1.02776  -0.97152  -0.76591
 Alpha  occ. eigenvalues --   -0.68343  -0.59177  -0.49992  -0.41518  -0.41518
 Alpha  occ. eigenvalues --   -0.38537
 Alpha virt. eigenvalues --    0.03027   0.03863   0.05620   0.06110   0.10242
 Alpha virt. eigenvalues --    0.10869   0.11556   0.11565   0.11739   0.12314
 Alpha virt. eigenvalues --    0.12486   0.14671   0.16256   0.17715   0.19169

 Mulliken charges:
               1
     1  C    0.194497
     2  H   -0.284977
     3  C    0.346908
     4  H   -0.256461
     5  H    0.019765
     6  H    0.019765
     7  S   -0.039498
 Sum of Mulliken charges =   0.00000

 Dipole moment (field-independent basis, Debye):
    X=             -1.0625    Y=             -0.1588    Z=             -0.0000  Tot=              1.0743

 Test job not archived.
 1\1\GINC-SE232\SP\RHF\Aug-CC-pVDZ\C2H4S1\OHZDE\09-Apr-2025\0\\#t hf au
 g-cc-pvdz iop(5/13=1,5/36=2,99/5=2) pseudo=read geom=check guess=(read
 ,tcheck) scf=(maxcycle=1)\\title\\0,1\C,0,0.08831703,1.93916188,0.\H,0
 ,0.21328325,0.88162322,0.\C,0,-0.05692045,3.12654494,0.\H,0,-0.1837980
 6,4.18011045,0.\H,0,-1.05379313,-4.7266495,0.96941829\H,0,-1.05379313,
 -4.7266495,-0.96941829\S,0,-0.12731176,-4.76323485,0.\\Version=ES64L-G
 16RevC.01\State=1-A'\HF=-475.5761426\RMSD=7.633e-03\Dipole=-0.4226279,
 -0.0051341,0.\Quadrupole=-1.071441,1.3584087,-0.2869678,1.8373825,0.,0

 Normal termination of Gaussian 16 at Wed Apr  9 17:17:01 2025.
