 Gaussian 16, Revision C.01,

 ----------------------------------------------------------------------
 #t hf aug-cc-pvdz symm=none int=(grid=ultrafine) guess=(read,tcheck) s
 table=(opt,rrhf)
 ----------------------------------------------------------------------
 -----
 title
 -----
 Symbolic Z-matrix:
 Charge =  0 Multiplicity = 1

 SCF Done:  E(RHF) =  -747.046001864     A.U. after   14 cycles
 Normal termination of Gaussian 16 at Wed Apr  9 17:58:50 2025.
 Gaussian 16:  ES64L-G16RevC.01  3-Jul-2019

 ----------------------------------------------------------------------
 #t hf aug-cc-pvdz iop(5/13=1,5/36=2,99/5=2) pseudo=read geom=check gue
 ss=(read,tcheck) scf=(maxcycle=1)
 ----------------------------------------------------------------------
 -----
 title
 -----
 Structure from the checkpoint file:  "HB300SPXx10_1454_5.08_0.95_methylcyanate_phosphineF2_dimer_mol1.chk"
 Charge =  0 Multiplicity = 1

                         Standard orientation:
 ---------------------------------------------------------------------
 Center     Atomic      Atomic             Coordinates (Angstroms)
 Number     Number       Type             X           Y           Z
 ---------------------------------------------------------------------
      1          1           0       -2.734148   -1.062724    1.320534
      2          1           0       -3.322352   -1.785381   -0.204680
      3          1           0       -1.563106   -1.665092    0.106584
      4          6           0       -2.534696   -1.207520    0.262265
      5          8           0       -2.569493    0.090237   -0.413212
      6          6           0       -1.682019    0.931932   -0.040869
      7          7           0       -0.886977    1.710792    0.268788
      8         15           0        1.648349    0.339482   -0.160957
      9          9           0        0.684927   -0.951573   -0.084993
     10          9           0        3.037256   -0.421552    0.095465
     11          1           0        1.459789    0.735177    1.193463
 ---------------------------------------------------------------------

 SCF Done:  E(RHF) =  -747.222763953     A.U. after    2 cycles

 The electronic state is 1-A.
 Alpha  occ. eigenvalues --  -81.38618 -26.13766 -26.12790 -20.68172 -15.64486
 Alpha  occ. eigenvalues --  -11.36630 -11.34265  -7.87354  -5.01469  -5.01200
 Alpha  occ. eigenvalues --   -5.00676  -1.67102  -1.65376  -1.45631  -1.20469
 Alpha  occ. eigenvalues --   -1.02034  -0.89556  -0.81568  -0.79076  -0.77505
 Alpha  occ. eigenvalues --   -0.76704  -0.73331  -0.72934  -0.71582  -0.70520
 Alpha  occ. eigenvalues --   -0.61888  -0.60044  -0.58803  -0.56027  -0.47234
 Alpha  occ. eigenvalues --   -0.45804  -0.39457
 Alpha virt. eigenvalues --    0.02657   0.04665   0.05233   0.06125   0.06919
 Alpha virt. eigenvalues --    0.08965   0.09475   0.10504   0.11319   0.11797
 Alpha virt. eigenvalues --    0.13568   0.14533   0.14843   0.15283   0.15941

 Mulliken charges:
               1
     1  H   -0.102170
     2  H   -0.158108
     3  H   -0.070251
     4  C    0.915865
     5  O   -0.387153
     6  C   -0.152060
     7  N   -0.049375
     8  P    1.264859
     9  F   -0.664182
    10  F   -0.645176
    11  H    0.047750
 Sum of Mulliken charges =  -0.00000

 Dipole moment (field-independent basis, Debye):
    X=             -3.0688    Y=             -2.0866    Z=              0.7785  Tot=              3.7918

 Test job not archived.
 1\1\GINC-SE114\SP\RHF\Aug-CC-pVDZ\C2H4F2N1O1P1\OHZDE\09-Apr-2025\0\\#t
  hf aug-cc-pvdz iop(5/13=1,5/36=2,99/5=2) pseudo=read geom=check guess
 =(read,tcheck) scf=(maxcycle=1)\\title\\0,1\H,0,-2.89287834,1.38344137
 ,-2.41875402\H,0,-2.88368966,0.15494314,-3.71690786\H,0,-2.33807438,-0
 .28314113,-2.0686702\C,0,-2.39546429,0.50243917,-2.8151059\O,0,-1.0419
 8507,0.86597867,-3.23651367\C,0,-0.26338211,1.27221362,-2.30729377\N,0
 ,0.4658792,1.6354549,-1.48824768\P,0,0.48837486,-0.53984982,0.45097735
 \F,0,-0.89922739,-0.89209147,-0.29149206\F,0,0.24111472,-1.40773338,1.

 Normal termination of Gaussian 16 at Wed Apr  9 17:58:54 2025.
