 Gaussian 16, Revision C.01,

 ----------------------------------------------------------------------
 #t hf aug-cc-pvdz symm=none int=(grid=ultrafine) guess=(read,tcheck) s
 table=(opt,rrhf)
 ----------------------------------------------------------------------
 -----
 title
 -----
 Symbolic Z-matrix:
 Charge =  0 Multiplicity = 1

 SCF Done:  E(RHF) =  -875.447343655     A.U. after   12 cycles
 Normal termination of Gaussian 16 at Wed Apr  9 17:48:34 2025.
 Gaussian 16:  ES64L-G16RevC.01  3-Jul-2019

 ----------------------------------------------------------------------
 #t hf aug-cc-pvdz iop(5/13=1,5/36=2,99/5=2) pseudo=read geom=check gue
 ss=(read,tcheck) scf=(maxcycle=1)
 ----------------------------------------------------------------------
 -----
 title
 -----
 Structure from the checkpoint file:  "HB300SPXx10_1211_4.26_0.80_sulfane_dimethylsulfide_dimer_mol1.chk"
 Charge =  0 Multiplicity = 1

                         Standard orientation:
 ---------------------------------------------------------------------
 Center     Atomic      Atomic             Coordinates (Angstroms)
 Number     Number       Type             X           Y           Z
 ---------------------------------------------------------------------
      1          1           0        0.882411   -0.018930   -0.574209
      2          1           0        2.408637    1.173634   -0.349845
      3         16           0        2.091408   -0.071815    0.031991
      4          1           0       -1.896356   -1.395112    1.165180
      5          1           0       -0.118133   -1.352509    1.085307
      6          1           0       -1.042405   -2.296725   -0.097857
      7          1           0       -1.104977    2.298693   -0.019748
      8          1           0       -0.138842    1.341479    1.118474
      9          1           0       -1.919538    1.330347    1.219125
     10          6           0       -1.035407   -1.388714    0.499808
     11         16           0       -1.120771    0.010605   -0.646208
     12          6           0       -1.064757    1.371795    0.547032
 ---------------------------------------------------------------------

 SCF Done:  E(RHF) =  -875.517549081     A.U. after    2 cycles

 The electronic state is 1-A.
 Alpha  occ. eigenvalues --  -93.54040 -93.51728 -11.27056 -11.26901  -8.83878
 Alpha  occ. eigenvalues --   -8.81673  -6.18011  -6.17802  -6.17613  -6.15882
 Alpha  occ. eigenvalues --   -6.15666  -6.15329  -1.06819  -0.96022  -0.94802
 Alpha  occ. eigenvalues --   -0.81719  -0.63450  -0.61713  -0.59105  -0.58202
 Alpha  occ. eigenvalues --   -0.55816  -0.50758  -0.48408  -0.44596  -0.36197
 Alpha  occ. eigenvalues --   -0.34109
 Alpha virt. eigenvalues --    0.03429   0.04353   0.04997   0.05824   0.06999
 Alpha virt. eigenvalues --    0.07267   0.07945   0.09040   0.11126   0.12008
 Alpha virt. eigenvalues --    0.13120   0.14295   0.14967   0.15647   0.16059

 Mulliken charges:
               1
     1  H    0.208073
     2  H   -0.016737
     3  S   -0.085070
     4  H   -0.078821
     5  H   -0.184824
     6  H   -0.102704
     7  H   -0.098251
     8  H   -0.170868
     9  H   -0.070517
    10  C    0.283647
    11  S    0.038365
    12  C    0.277708
 Sum of Mulliken charges =  -0.00000

 Dipole moment (field-independent basis, Debye):
    X=             -1.6178    Y=              0.6966    Z=              1.0912  Tot=              2.0721

 Test job not archived.
 1\1\GINC-SE135\SP\RHF\Aug-CC-pVDZ\C2H8S2\OHZDE\09-Apr-2025\0\\#t hf au
 g-cc-pvdz iop(5/13=1,5/36=2,99/5=2) pseudo=read geom=check guess=(read
 ,tcheck) scf=(maxcycle=1)\\title\\0,1\H,0,0.94021613,0.77457481,-0.419
 26695\H,0,0.91265107,2.63108631,-1.01468344\S,0,1.34625135,1.9701562,0
 .06824785\H,0,-0.62352684,-1.48247964,1.83934066\H,0,0.39235717,-0.024
 74407,1.72420092\H,0,1.08854293,-1.62511104,1.40821317\H,0,-1.96697221
 ,0.33526111,-1.41112128\H,0,-1.38342722,1.13309875,0.06134528\H,0,-2.4
 3174101,-0.30555079,0.17297457\C,0,0.19800613,-1.01037895,1.3043657\S,

 Normal termination of Gaussian 16 at Wed Apr  9 17:48:37 2025.
