 Gaussian 16, Revision C.01,

 ----------------------------------------------------------------------
 #t hf aug-cc-pvdz symm=none int=(grid=ultrafine) guess=(read,tcheck) s
 table=(opt,rrhf)
 ----------------------------------------------------------------------
 -----
 title
 -----
 Symbolic Z-matrix:
 Charge =  0 Multiplicity = 1

 SCF Done:  E(RHF) =  -914.489061816     A.U. after   12 cycles

 1\1\GINC-SE232\Stability\RHF\Aug-CC-pVDZ\C3H10S2\OHZDE\09-Apr-2025\0\\
 #t hf aug-cc-pvdz symm=none int=(grid=ultrafine) guess=(read,tcheck) s
 table=(opt,rrhf)\\title\\0,1\H,0,2.306559,-2.0578968,-0.64952301\H,0,3
 .32031438,-1.47471252,0.67641305\H,0,2.52307119,-0.31083024,-0.3888258
 5\H,0,0.07002633,-1.01993654,0.36023035\C,0,2.42249764,-1.27751778,0.0
 9684023\S,0,1.02865784,-1.2837739,1.27093846\H,0,0.81196215,1.35344786
 ,0.17183766\H,0,-0.1008466,2.63208894,-0.67148324\H,0,0.91401846,1.512
 45705,-1.59382105\H,0,-2.89374288,0.11164829,0.56407786\H,0,-2.3698089

 Normal termination of Gaussian 16 at Wed Apr  9 17:45:47 2025.
 Gaussian 16:  ES64L-G16RevC.01  3-Jul-2019

 ----------------------------------------------------------------------
 #t hf aug-cc-pvdz iop(5/13=1,5/36=2,99/5=2) pseudo=read geom=check gue
 ss=(read,tcheck) scf=(maxcycle=1)
 ----------------------------------------------------------------------
 -----
 title
 -----
 Structure from the checkpoint file:  "HB300SPXx10_1183_4.23_0.90_methanethiol_dimethylsulfide_dimer_mol1.chk"
 Charge =  0 Multiplicity = 1

                         Standard orientation:
 ---------------------------------------------------------------------
 Center     Atomic      Atomic             Coordinates (Angstroms)
 Number     Number       Type             X           Y           Z
 ---------------------------------------------------------------------
      1          1           0        2.622175    0.947903   -1.283381
      2          1           0        3.467623    0.818979    0.264038
      3          1           0        1.886790    1.607284    0.196993
      4          1           0        0.601022   -0.610221   -0.517723
      5          6           0        2.492201    0.804513   -0.214720
      6         16           0        1.757455   -0.824774    0.141521
      7          1           0       -0.209007    0.925969    1.271937
      8          1           0       -1.879062    1.538095    1.396655
      9          1           0       -0.733661    2.307623    0.287548
     10          1           0       -2.271243   -1.967673   -0.402036
     11          1           0       -2.802184   -0.998197    0.982060
     12          1           0       -1.115245   -1.559735    0.879889
     13          6           0       -1.042803    1.360674    0.723271
     14         16           0       -1.534685    0.275705   -0.640624
     15          6           0       -1.971319   -1.202674    0.309726
 ---------------------------------------------------------------------

 SCF Done:  E(RHF) =  -914.572665788     A.U. after    2 cycles

 The electronic state is 1-A.
 Alpha  occ. eigenvalues --  -93.53354 -93.51875 -11.26561 -11.26460 -11.26257
 Alpha  occ. eigenvalues --   -8.83114  -8.81697  -6.17263  -6.17047  -6.16813
 Alpha  occ. eigenvalues --   -6.15863  -6.15665  -6.15349  -1.05964  -1.01845
 Alpha  occ. eigenvalues --   -0.95496  -0.85364  -0.80871  -0.62598  -0.61250
 Alpha  occ. eigenvalues --   -0.59638  -0.59000  -0.58580  -0.57072  -0.51906
 Alpha  occ. eigenvalues --   -0.50163  -0.45213  -0.43932  -0.34596  -0.33970
 Alpha virt. eigenvalues --    0.03507   0.04191   0.04875   0.05368   0.06382
 Alpha virt. eigenvalues --    0.06894   0.07001   0.07910   0.09005   0.10102
 Alpha virt. eigenvalues --    0.10504   0.13104   0.13501   0.14416   0.14790

 Mulliken charges:
               1
     1  H   -0.122363
     2  H   -0.097192
     3  H   -0.173950
     4  H    0.219430
     5  C    0.135769
     6  S    0.093383
     7  H   -0.151454
     8  H   -0.151205
     9  H   -0.087336
    10  H   -0.093424
    11  H   -0.083958
    12  H   -0.210443
    13  C    0.311117
    14  S    0.153409
    15  C    0.258217
 Sum of Mulliken charges =  -0.00000

 Dipole moment (field-independent basis, Debye):
    X=             -0.6063    Y=              1.2554    Z=              0.9815  Tot=              1.7050

 Test job not archived.
 1\1\GINC-SE232\SP\RHF\Aug-CC-pVDZ\C3H10S2\OHZDE\09-Apr-2025\0\\#t hf a
 ug-cc-pvdz iop(5/13=1,5/36=2,99/5=2) pseudo=read geom=check guess=(rea
 d,tcheck) scf=(maxcycle=1)\\title\\0,1\H,0,2.306559,-2.0578968,-0.6495
 2301\H,0,3.32031438,-1.47471252,0.67641305\H,0,2.52307119,-0.31083024,
 -0.38882585\H,0,0.07002633,-1.01993654,0.36023035\C,0,2.42249764,-1.27
 751778,0.09684023\S,0,1.02865784,-1.2837739,1.27093846\H,0,0.81196215,
 1.35344786,0.17183766\H,0,-0.1008466,2.63208894,-0.67148324\H,0,0.9140
 1846,1.51245705,-1.59382105\H,0,-2.89374288,0.11164829,0.56407786\H,0,

 Normal termination of Gaussian 16 at Wed Apr  9 17:45:52 2025.
