 Gaussian 16, Revision C.01,

 ----------------------------------------------------------------------
 #t hf aug-cc-pvdz symm=none int=(grid=ultrafine) guess=(read,tcheck) s
 table=(opt,rrhf)
 ----------------------------------------------------------------------
 -----
 title
 -----
 Symbolic Z-matrix:
 Charge =  0 Multiplicity = 1

 SCF Done:  E(RHF) =  -591.458775498     A.U. after   14 cycles
 Normal termination of Gaussian 16 at Wed Apr  9 17:19:24 2025.
 Gaussian 16:  ES64L-G16RevC.01  3-Jul-2019

 ----------------------------------------------------------------------
 #t hf aug-cc-pvdz iop(5/13=1,5/36=2,99/5=2) pseudo=read geom=check gue
 ss=(read,tcheck) scf=(maxcycle=1)
 ----------------------------------------------------------------------
 -----
 title
 -----
 Structure from the checkpoint file:  "HB300SPXx10_1014_4.05_0.95_ethyne_thioacetone_dimer_mol1.chk"
 Charge =  0 Multiplicity = 1

                         Standard orientation:
 ---------------------------------------------------------------------
 Center     Atomic      Atomic             Coordinates (Angstroms)
 Number     Number       Type             X           Y           Z
 ---------------------------------------------------------------------
      1          6           0        0.229913   -2.870002    0.000000
      2          1           0       -0.433401   -2.034058    0.000000
      3          6           0        0.991009   -3.793491    0.000000
      4          1           0        1.660319   -4.616941    0.000000
      5          1           0       -1.051881    3.180701    0.000000
      6          1           0        0.495715    3.184326    0.874719
      7          1           0        0.495715    3.184326   -0.874719
      8          1           0        1.354513   -0.379151    0.000000
      9          1           0        1.927559    1.055569   -0.874314
     10          6           0       -0.036002    2.801060    0.000000
     11          6           0        0.000000    1.302843    0.000000
     12         16           0       -1.357836    0.406234    0.000000
     13          6           0        1.373292    0.704576    0.000000
     14          1           0        1.927559    1.055569    0.874314
 ---------------------------------------------------------------------

 SCF Done:  E(RHF) =  -591.541463137     A.U. after    2 cycles

 The electronic state is 1-A'.
 Alpha  occ. eigenvalues --  -93.51424 -11.33973 -11.25704 -11.25481 -11.24136
 Alpha  occ. eigenvalues --  -11.23697  -8.81397  -6.15577  -6.15201  -6.15016
 Alpha  occ. eigenvalues --   -1.11752  -1.01702  -0.97056  -0.94810  -0.75532
 Alpha  occ. eigenvalues --   -0.72478  -0.67119  -0.62384  -0.61853  -0.61675
 Alpha  occ. eigenvalues --   -0.56610  -0.53842  -0.50160  -0.40465  -0.40454
 Alpha  occ. eigenvalues --   -0.38898  -0.34176
 Alpha virt. eigenvalues --    0.02960   0.03914   0.04138   0.05233   0.06123
 Alpha virt. eigenvalues --    0.06582   0.06992   0.07579   0.08929   0.09888
 Alpha virt. eigenvalues --    0.10527   0.11887   0.13044   0.13207   0.14030

 Mulliken charges:
               1
     1  C    0.481098
     2  H   -0.347594
     3  C    0.167098
     4  H   -0.313866
     5  H   -0.062779
     6  H    0.046749
     7  H    0.046749
     8  H   -0.277302
     9  H    0.107403
    10  C    0.331861
    11  C   -0.819444
    12  S    0.064933
    13  C    0.467689
    14  H    0.107403
 Sum of Mulliken charges =   0.00000

 Dipole moment (field-independent basis, Debye):
    X=              2.6542    Y=              2.3068    Z=              0.0000  Tot=              3.5166

 Test job not archived.
 1\1\GINC-SE232\SP\RHF\Aug-CC-pVDZ\C5H8S1\OHZDE\09-Apr-2025\0\\#t hf au
 g-cc-pvdz iop(5/13=1,5/36=2,99/5=2) pseudo=read geom=check guess=(read
 ,tcheck) scf=(maxcycle=1)\\title\\0,1\C,0,-0.20751211,-2.93011645,0.\H
 ,0,-0.70775465,-1.98748922,0.\C,0,0.37296237,-3.97660953,0.\H,0,0.8813
 7254,-4.90804053,0.\H,0,-0.36764444,3.25279303,0.\H,0,1.15480866,2.974
 9339,0.87471889\H,0,1.15480866,2.9749339,-0.87471889\H,0,1.35128654,-0
 .6852973,0.\H,0,2.17567555,0.62129634,-0.87431367\C,0,0.56226185,2.694
 74868,0.\C,0,0.32521974,1.21496426,0.\S,0,-1.173021,0.58022014,0.\C,0,

 Normal termination of Gaussian 16 at Wed Apr  9 17:19:29 2025.
