 Gaussian 16, Revision C.01,

 ----------------------------------------------------------------------
 #t hf aug-cc-pvdz symm=none int=(grid=ultrafine) guess=(read,tcheck) s
 table=(opt,rrhf)
 ----------------------------------------------------------------------
 -----
 title
 -----
 Symbolic Z-matrix:
 Charge =  0 Multiplicity = 1

 SCF Done:  E(RHF) =  -952.380602731     A.U. after   12 cycles

 1\1\GINC-SE454\Stability\RHF\Aug-CC-pVDZ\C4H10S2\OHZDE\09-Apr-2025\0\\
 #t hf aug-cc-pvdz symm=none int=(grid=ultrafine) guess=(read,tcheck) s
 table=(opt,rrhf)\\title\\0,1\H,0,1.25927999,1.11406487,-0.28265552\H,0
 ,2.28279017,2.73418341,-0.67577847\S,0,1.07110419,2.4516331,-0.1764195
 4\H,0,0.21518023,-0.15605707,1.79002032\H,0,0.12536147,-1.89927079,2.0
 7102902\H,0,-2.17762114,-0.54449181,1.88202139\H,0,-1.19503381,-1.8676
 6289,-1.67347666\H,0,-2.03024162,-2.06271768,0.99971482\H,0,-0.4907861
 2,-0.28186075,-2.01700045\H,0,-2.80306759,-0.38846877,-0.64316213\H,0,

 Normal termination of Gaussian 16 at Wed Apr  9 17:50:59 2025.
 Gaussian 16:  ES64L-G16RevC.01  3-Jul-2019

 ----------------------------------------------------------------------
 #t hf aug-cc-pvdz iop(5/13=1,5/36=2,99/5=2) pseudo=read geom=check gue
 ss=(read,tcheck) scf=(maxcycle=1)
 ----------------------------------------------------------------------
 -----
 title
 -----
 Structure from the checkpoint file:  "HB300SPXx10_1236_4.28_1.05_sulfane_tetrahydrothiophene_dimer_mol1.chk"
 Charge =  0 Multiplicity = 1

                         Standard orientation:
 ---------------------------------------------------------------------
 Center     Atomic      Atomic             Coordinates (Angstroms)
 Number     Number       Type             X           Y           Z
 ---------------------------------------------------------------------
      1          1           0       -1.726903   -0.576656   -0.010770
      2          1           0       -3.673789   -0.710842    0.125352
      3         16           0       -2.784611    0.264059   -0.111940
      4          1           0        0.131405    0.021269   -1.796412
      5          1           0        1.722341   -0.720414   -2.007729
      6          1           0        1.630816    1.885318   -1.394003
      7          1           0        1.872154   -0.186145    1.923921
      8          1           0        2.770091    0.863864   -0.520002
      9          1           0        0.114690   -0.056878    2.076731
     10          1           0        1.487439    2.086278    1.200440
     11          1           0       -0.026027    1.655964    0.415970
     12         16           0        0.745308   -1.332597    0.116415
     13          6           0        1.073371   -0.209915   -1.301563
     14          6           0        1.710231    1.043252   -0.706317
     15          6           0        0.990265    1.313870    0.613808
     16          6           0        0.947241   -0.008067    1.379890
 ---------------------------------------------------------------------

 SCF Done:  E(RHF) =  -952.469161532     A.U. after    2 cycles

 The electronic state is 1-A.
 Alpha  occ. eigenvalues --  -93.53646 -93.52302 -11.26680 -11.26659 -11.24542
 Alpha  occ. eigenvalues --  -11.24473  -8.83434  -8.82078  -6.17638  -6.17413
 Alpha  occ. eigenvalues --   -6.17051  -6.16206  -6.16048  -6.15763  -1.12014
 Alpha  occ. eigenvalues --   -0.98584  -0.96382  -0.95579  -0.79954  -0.78375
 Alpha  occ. eigenvalues --   -0.66546  -0.64498  -0.60773  -0.58058  -0.55298
 Alpha  occ. eigenvalues --   -0.51278  -0.49974  -0.49005  -0.48411  -0.48137
 Alpha  occ. eigenvalues --   -0.42518  -0.37308  -0.33672
 Alpha virt. eigenvalues --    0.03369   0.04465   0.04561   0.04965   0.06146
 Alpha virt. eigenvalues --    0.06699   0.07234   0.07958   0.08359   0.09037
 Alpha virt. eigenvalues --    0.11513   0.12677   0.13061   0.14413   0.14578

 Mulliken charges:
               1
     1  H    0.040021
     2  H   -0.038572
     3  S    0.011571
     4  H   -0.186507
     5  H   -0.072240
     6  H   -0.069073
     7  H   -0.124233
     8  H   -0.152362
     9  H   -0.122054
    10  H   -0.058173
    11  H   -0.225827
    12  S    0.362004
    13  C    0.086577
    14  C    0.231353
    15  C    0.210573
    16  C    0.106943
 Sum of Mulliken charges =  -0.00000

 Dipole moment (field-independent basis, Debye):
    X=              1.1198    Y=              1.0280    Z=              0.0925  Tot=              1.5229

 Test job not archived.
 1\1\GINC-SE454\SP\RHF\Aug-CC-pVDZ\C4H10S2\OHZDE\09-Apr-2025\0\\#t hf a
 ug-cc-pvdz iop(5/13=1,5/36=2,99/5=2) pseudo=read geom=check guess=(rea
 d,tcheck) scf=(maxcycle=1)\\title\\0,1\H,0,1.25927999,1.11406487,-0.28
 265552\H,0,2.28279017,2.73418341,-0.67577847\S,0,1.07110419,2.4516331,
 -0.17641954\H,0,0.21518023,-0.15605707,1.79002032\H,0,0.12536147,-1.89
 927079,2.07102902\H,0,-2.17762114,-0.54449181,1.88202139\H,0,-1.195033
 81,-1.86766289,-1.67347666\H,0,-2.03024162,-2.06271768,0.99971482\H,0,
 -0.49078612,-0.28186075,-2.01700045\H,0,-2.80306759,-0.38846877,-0.643

 Normal termination of Gaussian 16 at Wed Apr  9 17:51:05 2025.
