 Gaussian 16, Revision C.01,

 ----------------------------------------------------------------------
 #t hf aug-cc-pvdz symm=none int=(grid=ultrafine) guess=(read,tcheck) s
 table=(opt,rrhf)
 ----------------------------------------------------------------------
 -----
 title
 -----
 Symbolic Z-matrix:
 Charge =  0 Multiplicity = 1

 SCF Done:  E(RHF) =  -1013.77500772     A.U. after   12 cycles
 Normal termination of Gaussian 16 at Wed Apr  9 04:10:50 2025.
 Gaussian 16:  ES64L-G16RevC.01  3-Jul-2019

 ----------------------------------------------------------------------
 #t hf aug-cc-pvdz iop(5/13=1,5/36=2,99/5=2) pseudo=read geom=check gue
 ss=(read,tcheck) scf=(maxcycle=1)
 ----------------------------------------------------------------------
 -----
 title
 -----
 Structure from the checkpoint file:  "HB300SPXx10_1364_4.41_0.95_hydrogenchloride_tetrahydrothiophene_dimer_mol1.chk"
 Charge =  0 Multiplicity = 1

                         Standard orientation:
 ---------------------------------------------------------------------
 Center     Atomic      Atomic             Coordinates (Angstroms)
 Number     Number       Type             X           Y           Z
 ---------------------------------------------------------------------
      1          1           0       -1.470608   -0.448148    0.069778
      2         17           0       -2.523512    0.325793   -0.178648
      3          1           0        1.705102   -0.047669    1.961857
      4          1           0        0.011666    0.461707    2.034750
      5          1           0        1.767018    2.100384    0.832976
      6          1           0        0.115181   -0.222940   -1.820440
      7          1           0        0.212582    1.806482    0.055997
      8          1           0        1.530122   -1.284375   -1.755436
      9          1           0        1.929656    1.371035   -1.663323
     10          1           0        2.826602    0.346500   -0.546234
     11         16           0        0.351596   -1.242975    0.356305
     12          6           0        0.833807    0.217467    1.367482
     13          6           0        1.142411    1.334805    0.373177
     14          6           0        1.826640    0.680940   -0.826308
     15          6           0        0.971615   -0.522187   -1.219982
 ---------------------------------------------------------------------

 SCF Done:  E(RHF) =  -1013.86107308     A.U. after    2 cycles

 The electronic state is 1-A.
 Alpha  occ. eigenvalues -- -103.63421 -93.54205 -11.27834 -11.27814 -11.25373
 Alpha  occ. eigenvalues --  -11.25095 -10.66746  -8.84047  -8.32478  -8.32218
 Alpha  occ. eigenvalues --   -8.32215  -6.18163  -6.18010  -6.17811  -1.13446
 Alpha  occ. eigenvalues --   -1.11831  -0.99641  -0.97703  -0.80883  -0.79904
 Alpha  occ. eigenvalues --   -0.67767  -0.65653  -0.61844  -0.60805  -0.55713
 Alpha  occ. eigenvalues --   -0.52268  -0.50861  -0.49769  -0.49417  -0.45550
 Alpha  occ. eigenvalues --   -0.45431  -0.43967  -0.35604
 Alpha virt. eigenvalues --    0.03055   0.04195   0.04585   0.05167   0.06398
 Alpha virt. eigenvalues --    0.06948   0.07395   0.07820   0.07977   0.10608
 Alpha virt. eigenvalues --    0.12169   0.13702   0.13952   0.14095   0.14679

 Mulliken charges:
               1
     1  H    0.375593
     2  Cl  -0.284455
     3  H   -0.122065
     4  H   -0.135351
     5  H   -0.061241
     6  H   -0.194927
     7  H   -0.174197
     8  H   -0.058179
     9  H   -0.068615
    10  H   -0.142575
    11  S    0.180739
    12  C    0.143670
    13  C    0.190540
    14  C    0.234887
    15  C    0.116177
 Sum of Mulliken charges =  -0.00000

 Dipole moment (field-independent basis, Debye):
    X=              3.6583    Y=              0.7934    Z=             -0.0924  Tot=              3.7444

 Test job not archived.
 1\1\GINC-SE187\SP\RHF\Aug-CC-pVDZ\C4H9Cl1S1\OHZDE\09-Apr-2025\0\\#t hf
  aug-cc-pvdz iop(5/13=1,5/36=2,99/5=2) pseudo=read geom=check guess=(r
 ead,tcheck) scf=(maxcycle=1)\\title\\0,1\H,0,-0.21838216,0.19107529,-1
 .4737198\Cl,0,-0.27626126,1.34164549,-2.13866114\H,0,-1.61853319,-1.07
 278707,1.73060716\H,0,-2.046471,0.01356886,0.40049337\H,0,-0.87476922,
 1.08070454,2.56823894\H,0,1.83520367,0.20381594,-0.08772252\H,0,-0.317
 89035,1.57872745,0.97192823\H,0,2.17805215,-1.30267036,0.77592184\H,0,
 1.70242842,0.91053638,2.22326793\H,0,0.93306957,-0.59611248,2.71333654

 Normal termination of Gaussian 16 at Wed Apr  9 04:10:56 2025.
