 Gaussian 16, Revision C.01,

 ----------------------------------------------------------------------
 #t hf aug-cc-pvdz symm=none int=(grid=ultrafine) guess=(read,tcheck) s
 table=(opt,rrhf)
 ----------------------------------------------------------------------
 -----
 title
 -----
 Symbolic Z-matrix:
 Charge =  0 Multiplicity = 1

 SCF Done:  E(RHF) =  -875.463399204     A.U. after   11 cycles
 Normal termination of Gaussian 16 at Wed Apr  9 17:48:33 2025.
 Gaussian 16:  ES64L-G16RevC.01  3-Jul-2019

 ----------------------------------------------------------------------
 #t hf aug-cc-pvdz iop(5/13=1,5/36=2,99/5=2) pseudo=read geom=check gue
 ss=(read,tcheck) scf=(maxcycle=1)
 ----------------------------------------------------------------------
 -----
 title
 -----
 Structure from the checkpoint file:  "HB300SPXx10_1216_4.26_1.05_sulfane_dimethylsulfide_dimer_mol1.chk"
 Charge =  0 Multiplicity = 1

                         Standard orientation:
 ---------------------------------------------------------------------
 Center     Atomic      Atomic             Coordinates (Angstroms)
 Number     Number       Type             X           Y           Z
 ---------------------------------------------------------------------
      1          1           0        1.289111   -0.020970   -0.565634
      2          1           0        2.812616    1.176436   -0.348686
      3         16           0        2.501139   -0.069953    0.034815
      4          1           0       -2.103114   -1.398411    1.167610
      5          1           0       -0.325434   -1.350209    1.079272
      6          1           0       -1.252340   -2.297506   -0.099359
      7          1           0       -1.329041    2.297702   -0.021544
      8          1           0       -0.354486    1.343704    1.112192
      9          1           0       -2.134640    1.326969    1.221314
     10          6           0       -1.245364   -1.389392    0.498149
     11         16           0       -1.340595    0.009486   -0.647628
     12          6           0       -1.283200    1.371018    0.545157
 ---------------------------------------------------------------------

 SCF Done:  E(RHF) =  -875.533724589     A.U. after    2 cycles

 The electronic state is 1-A.
 Alpha  occ. eigenvalues --  -93.53865 -93.53278 -11.26615 -11.26557  -8.83642
 Alpha  occ. eigenvalues --   -8.83027  -6.17836  -6.17619  -6.17259  -6.17167
 Alpha  occ. eigenvalues --   -6.16959  -6.16690  -1.05766  -0.95869  -0.95498
 Alpha  occ. eigenvalues --   -0.80786  -0.61782  -0.61198  -0.58598  -0.57754
 Alpha  occ. eigenvalues --   -0.57226  -0.50141  -0.48926  -0.43923  -0.37481
 Alpha  occ. eigenvalues --   -0.34275
 Alpha virt. eigenvalues --    0.03438   0.04408   0.04896   0.05805   0.07051
 Alpha virt. eigenvalues --    0.07286   0.07916   0.09035   0.10942   0.11807
 Alpha virt. eigenvalues --    0.13425   0.13828   0.14998   0.15893   0.16049

 Mulliken charges:
               1
     1  H    0.058523
     2  H   -0.003253
     3  S   -0.026743
     4  H   -0.083098
     5  H   -0.161096
     6  H   -0.094662
     7  H   -0.095634
     8  H   -0.138496
     9  H   -0.080769
    10  C    0.202546
    11  S    0.233556
    12  C    0.189126
 Sum of Mulliken charges =  -0.00000

 Dipole moment (field-independent basis, Debye):
    X=             -0.8960    Y=              0.7073    Z=              1.1721  Tot=              1.6361

 Test job not archived.
 1\1\GINC-SE362\SP\RHF\Aug-CC-pVDZ\C2H8S2\OHZDE\09-Apr-2025\0\\#t hf au
 g-cc-pvdz iop(5/13=1,5/36=2,99/5=2) pseudo=read geom=check guess=(read
 ,tcheck) scf=(maxcycle=1)\\title\\0,1\H,0,0.94021613,0.77457481,-0.419
 26695\H,0,0.91265107,2.63108631,-1.01468344\S,0,1.34625135,1.9701562,0
 .06824785\H,0,-0.97098238,-2.00357152,1.82525731\H,0,0.04490163,-0.545
 83594,1.71011758\H,0,0.74108739,-2.14620291,1.39412982\H,0,-2.31442775
 ,-0.18583076,-1.42520463\H,0,-1.73088276,0.61200688,0.04726193\H,0,-2.
 77919655,-0.82664266,0.15889122\C,0,-0.14944941,-1.53147082,1.29028235

 Normal termination of Gaussian 16 at Wed Apr  9 17:48:36 2025.
