 Gaussian 16, Revision C.01,

 ----------------------------------------------------------------------
 #t hf aug-cc-pvdz symm=none int=(grid=ultrafine) guess=(read,tcheck) s
 table=(opt,rrhf)
 ----------------------------------------------------------------------
 -----
 title
 -----
 Symbolic Z-matrix:
 Charge =  0 Multiplicity = 1

 SCF Done:  E(RHF) =  -215.888273556     A.U. after   13 cycles
 Normal termination of Gaussian 16 at Wed Apr  9 17:56:35 2025.
 Gaussian 16:  ES64L-G16RevC.01  3-Jul-2019

 ----------------------------------------------------------------------
 #t hf aug-cc-pvdz iop(5/13=1,5/36=2,99/5=2) pseudo=read geom=check gue
 ss=(read,tcheck) scf=(maxcycle=1)
 ----------------------------------------------------------------------
 -----
 title
 -----
 Structure from the checkpoint file:  "HB300SPXx10_1415_5.04_1.00_ethyne_methylfluoride_dimer_mol1.chk"
 Charge =  0 Multiplicity = 1

                         Standard orientation:
 ---------------------------------------------------------------------
 Center     Atomic      Atomic             Coordinates (Angstroms)
 Number     Number       Type             X           Y           Z
 ---------------------------------------------------------------------
      1          6           0        1.046676    1.308942    0.000000
      2          1           0        0.000000    1.116634    0.000000
      3          6           0        2.225974    1.509489    0.000000
      4          1           0        3.271009    1.694084    0.000000
      5          1           0       -1.279444   -2.207184    0.893893
      6          1           0       -1.279444   -2.207184   -0.893893
      7          1           0        0.096925   -1.498400    0.000000
      8          6           0       -0.978427   -1.664920    0.000000
      9          9           0       -1.619376   -0.424335    0.000000
 ---------------------------------------------------------------------

 SCF Done:  E(RHF) =  -215.966144558     A.U. after    2 cycles

 The electronic state is 1-A'.
 Alpha  occ. eigenvalues --  -26.11315 -11.32505 -11.24818 -11.24402  -1.64300
 Alpha  occ. eigenvalues --   -1.02320  -0.97737  -0.76936  -0.74824  -0.74328
 Alpha  occ. eigenvalues --   -0.72149  -0.67386  -0.56059  -0.56033  -0.41082
 Alpha  occ. eigenvalues --   -0.41045
 Alpha virt. eigenvalues --    0.03358   0.04142   0.05604   0.05800   0.06988
 Alpha virt. eigenvalues --    0.10622   0.11432   0.12083   0.12572   0.14504
 Alpha virt. eigenvalues --    0.14786   0.15678   0.17238   0.17296   0.18680

 Mulliken charges:
               1
     1  C    0.361546
     2  H   -0.253818
     3  C    0.211243
     4  H   -0.309097
     5  H   -0.106436
     6  H   -0.106436
     7  H   -0.155006
     8  C    0.816660
     9  F   -0.458657
 Sum of Mulliken charges =  -0.00000

 Dipole moment (field-independent basis, Debye):
    X=              0.8651    Y=             -2.2094    Z=             -0.0000  Tot=              2.3727

 Test job not archived.
 1\1\GINC-SE340\SP\RHF\Aug-CC-pVDZ\C3H5F1\OHZDE\09-Apr-2025\0\\#t hf au
 g-cc-pvdz iop(5/13=1,5/36=2,99/5=2) pseudo=read geom=check guess=(read
 ,tcheck) scf=(maxcycle=1)\\title\\0,1\C,0,0.31595013,-1.6374503,0.\H,0
 ,0.81540337,-0.69773821,0.\C,0,-0.25942719,-2.68621438,0.\H,0,-0.76390
 634,-3.61984886,0.\H,0,-0.99464991,2.36958159,0.8938929\H,0,-0.9946499
 1,2.36958159,-0.8938929\H,0,-1.29414663,0.85067765,0.\C,0,-0.75667096,
 1.79684416,0.\F,0,0.61368398,1.52853041,0.\\Version=ES64L-G16RevC.01\S
 tate=1-A'\HF=-215.9661446\RMSD=6.433e-03\Dipole=-0.8926247,0.2731908,0

 Normal termination of Gaussian 16 at Wed Apr  9 17:56:37 2025.
