 Gaussian 16, Revision C.01,

 ----------------------------------------------------------------------
 #t hf aug-cc-pvdz symm=none int=(grid=ultrafine) guess=(read,tcheck) s
 table=(opt,rrhf)
 ----------------------------------------------------------------------
 -----
 title
 -----
 Symbolic Z-matrix:
 Charge =  0 Multiplicity = 1

 SCF Done:  E(RHF) =  -514.629393916     A.U. after   12 cycles
 Normal termination of Gaussian 16 at Wed Apr  9 17:19:03 2025.
 Gaussian 16:  ES64L-G16RevC.01  3-Jul-2019

 ----------------------------------------------------------------------
 #t hf aug-cc-pvdz iop(5/13=1,5/36=2,99/5=2) pseudo=read geom=check gue
 ss=(read,tcheck) scf=(maxcycle=1)
 ----------------------------------------------------------------------
 -----
 title
 -----
 Structure from the checkpoint file:  "HB300SPXx10_1011_4.05_0.80_ethyne_thioacetone_dimer_mol3.chk"
 Charge =  0 Multiplicity = 1

                         Standard orientation:
 ---------------------------------------------------------------------
 Center     Atomic      Atomic             Coordinates (Angstroms)
 Number     Number       Type             X           Y           Z
 ---------------------------------------------------------------------
      1          1           0       -2.148601    0.381717    0.000000
      2          1           0       -1.316530    1.686602    0.874719
      3          1           0       -1.316530    1.686602   -0.874719
      4          1           0        2.147009    0.486686    0.000000
      5          1           0        1.248341    1.743348   -0.874314
      6          6           0       -1.280784    1.032127    0.000000
      7          6           0        0.000000    0.253961    0.000000
      8         16           0        0.022137   -1.373041    0.000000
      9          6           0        1.244747    1.087303    0.000000
     10          1           0        1.248341    1.743348    0.874314
 ---------------------------------------------------------------------

 SCF Done:  E(RHF) =  -514.685737575     A.U. after    2 cycles

 The electronic state is 1-A'.
 Alpha  occ. eigenvalues --  -93.50764 -11.33258 -11.25330 -11.25268  -8.80698
 Alpha  occ. eigenvalues --   -6.14868  -6.14499  -6.14252  -1.11187  -0.96690
 Alpha  occ. eigenvalues --   -0.94138  -0.72028  -0.62043  -0.61412  -0.61205
 Alpha  occ. eigenvalues --   -0.56316  -0.53453  -0.49512  -0.38197  -0.33162
 Alpha virt. eigenvalues --    0.03054   0.04370   0.04777   0.06141   0.07033
 Alpha virt. eigenvalues --    0.07470   0.07596   0.08804   0.10634   0.13385
 Alpha virt. eigenvalues --    0.14534   0.14612   0.16551   0.16736   0.16871

 Mulliken charges:
               1
     1  H   -0.071177
     2  H    0.045793
     3  H    0.045793
     4  H   -0.074674
     5  H    0.047342
     6  C    0.310375
     7  C   -0.715912
     8  S    0.045901
     9  C    0.319219
    10  H    0.047342
 Sum of Mulliken charges =  -0.00000

 Dipole moment (field-independent basis, Debye):
    X=             -0.0501    Y=              3.2815    Z=              0.0000  Tot=              3.2819

 Test job not archived.
 1\1\GINC-SE051\SP\RHF\Aug-CC-pVDZ\C3H6S1\OHZDE\09-Apr-2025\0\\#t hf au
 g-cc-pvdz iop(5/13=1,5/36=2,99/5=2) pseudo=read geom=check guess=(read
 ,tcheck) scf=(maxcycle=1)\\title\\0,1\H,0,-0.29418133,2.84736524,0.\H,
 0,1.22827177,2.56950611,0.87471889\H,0,1.22827177,2.56950611,-0.874718
 89\H,0,1.42474965,-1.0907251,0.\H,0,2.24913865,0.21586854,-0.87431367\
 C,0,0.63572496,2.28932088,0.\C,0,0.39868284,0.80953647,0.\S,0,-1.09955
 789,0.17479234,0.\C,0,1.64028628,-0.02848168,0.\H,0,2.24913865,0.21586
 854,0.87431367\\Version=ES64L-G16RevC.01\State=1-A'\HF=-514.6857376\RM

 Normal termination of Gaussian 16 at Wed Apr  9 17:19:06 2025.
