 Gaussian 16, Revision C.01,

 ----------------------------------------------------------------------
 #t hf aug-cc-pvdz symm=none int=(grid=ultrafine) guess=(read,tcheck) s
 table=(opt,rrhf)
 ----------------------------------------------------------------------
 -----
 title
 -----
 Symbolic Z-matrix:
 Charge =  0 Multiplicity = 1

 SCF Done:  E(RHF) =  -571.995137787     A.U. after   12 cycles
 Normal termination of Gaussian 16 at Wed Apr  9 17:30:23 2025.
 Gaussian 16:  ES64L-G16RevC.01  3-Jul-2019

 ----------------------------------------------------------------------
 #t hf aug-cc-pvdz iop(5/13=1,5/36=2,99/5=2) pseudo=read geom=check gue
 ss=(read,tcheck) scf=(maxcycle=1)
 ----------------------------------------------------------------------
 -----
 title
 -----
 Structure from the checkpoint file:  "HB300SPXx10_1074_4.11_0.95_methylamine_dimethylsulfide_dimer_mol1.chk"
 Charge =  0 Multiplicity = 1

                         Standard orientation:
 ---------------------------------------------------------------------
 Center     Atomic      Atomic             Coordinates (Angstroms)
 Number     Number       Type             X           Y           Z
 ---------------------------------------------------------------------
      1          7           0       -1.814152   -0.778376    0.152172
      2          1           0       -2.202127   -1.701637    0.013095
      3          1           0       -1.038904   -0.676001   -0.493510
      4          6           0       -2.823781    0.249772   -0.096517
      5          1           0       -2.380573    1.232664    0.061438
      6          1           0       -3.256073    0.238198   -1.103823
      7          1           0       -3.637770    0.142955    0.619958
      8          1           0        1.515708    1.631603    1.298060
      9          1           0       -0.136945    0.982547    1.122461
     10          1           0        0.431576    2.290174    0.062660
     11          1           0        1.988279   -2.027306   -0.172810
     12          1           0        0.746195   -1.497043    0.981041
     13          1           0        2.434813   -0.954891    1.163457
     14          6           0        0.723303    1.386999    0.593144
     15         16           0        1.308499    0.199218   -0.643983
     16          6           0        1.650296   -1.203458    0.451122
 ---------------------------------------------------------------------

 SCF Done:  E(RHF) =  -572.076388391     A.U. after    2 cycles

 The electronic state is 1-A.
 Alpha  occ. eigenvalues --  -93.52443 -15.59621 -11.25708 -11.25576 -11.24994
 Alpha  occ. eigenvalues --   -8.82190  -6.16339  -6.16130  -6.15870  -1.13367
 Alpha  occ. eigenvalues --   -1.04913  -0.94571  -0.88765  -0.79934  -0.66407
 Alpha  occ. eigenvalues --   -0.60447  -0.60164  -0.59967  -0.57669  -0.56404
 Alpha  occ. eigenvalues --   -0.55161  -0.51552  -0.49247  -0.43148  -0.38138
 Alpha  occ. eigenvalues --   -0.33480
 Alpha virt. eigenvalues --    0.03539   0.04216   0.04505   0.05049   0.06363
 Alpha virt. eigenvalues --    0.06557   0.07331   0.07987   0.09227   0.09293
 Alpha virt. eigenvalues --    0.10246   0.11773   0.13771   0.14246   0.15144

 Mulliken charges:
               1
     1  N   -0.364678
     2  H   -0.027045
     3  H    0.100050
     4  C    0.848690
     5  H   -0.219711
     6  H   -0.136866
     7  H   -0.169428
     8  H   -0.123990
     9  H   -0.161140
    10  H   -0.104366
    11  H   -0.101576
    12  H   -0.177113
    13  H   -0.087448
    14  C    0.299546
    15  S    0.181810
    16  C    0.243266
 Sum of Mulliken charges =  -0.00000

 Dipole moment (field-independent basis, Debye):
    X=             -0.5096    Y=             -0.3632    Z=              0.5868  Tot=              0.8578

 Test job not archived.
 1\1\GINC-SE232\SP\RHF\Aug-CC-pVDZ\C3H11N1S1\OHZDE\09-Apr-2025\0\\#t hf
  aug-cc-pvdz iop(5/13=1,5/36=2,99/5=2) pseudo=read geom=check guess=(r
 ead,tcheck) scf=(maxcycle=1)\\title\\0,1\N,0,-1.19251098,0.46771599,1.
 69699571\H,0,-2.17204653,0.34511648,1.91553075\H,0,-1.12099987,0.60068
 208,0.69419832\C,0,-0.64549649,1.62445241,2.40482331\H,0,0.40921091,1.
 73255139,2.15309408\H,0,-1.13947726,2.57752576,2.18276464\H,0,-0.70604
 436,1.45678733,3.47978713\H,0,2.28693658,-0.95079569,-0.32545119\H,0,1
 .1893999,-0.28754431,0.91506535\H,0,2.12734439,0.80169194,-0.1290163\H

 Normal termination of Gaussian 16 at Wed Apr  9 17:30:28 2025.
