 Gaussian 16, Revision C.01,

 ----------------------------------------------------------------------
 #t hf aug-cc-pvdz symm=none int=(grid=ultrafine) guess=(read,tcheck) s
 table=(opt,rrhf)
 ----------------------------------------------------------------------
 -----
 title
 -----
 Symbolic Z-matrix:
 Charge =  0 Multiplicity = 1

 SCF Done:  E(RHF) =  -855.905347922     A.U. after   14 cycles
 Normal termination of Gaussian 16 at Wed Apr  9 17:23:09 2025.
 Gaussian 16:  ES64L-G16RevC.01  3-Jul-2019

 ----------------------------------------------------------------------
 #t hf aug-cc-pvdz iop(5/13=1,5/36=2,99/5=2) pseudo=read geom=check gue
 ss=(read,tcheck) scf=(maxcycle=1)
 ----------------------------------------------------------------------
 -----
 title
 -----
 Structure from the checkpoint file:  "HB300SPXx10_1033_4.07_0.90_phosphaalkyne_methanethiol_dimer_mol1.chk"
 Charge =  0 Multiplicity = 1

                         Standard orientation:
 ---------------------------------------------------------------------
 Center     Atomic      Atomic             Coordinates (Angstroms)
 Number     Number       Type             X           Y           Z
 ---------------------------------------------------------------------
      1          1           0       -1.164023    2.142580    1.281071
      2          1           0       -1.432858    2.510944   -0.424919
      3          1           0        0.111723    1.825515    0.093350
      4         15           0       -2.012475   -0.968189   -0.169880
      5          6           0       -1.482382    0.460742    0.053663
      6          6           0       -0.967484    1.802441    0.262679
      7          1           0        0.830945   -0.200532    1.532993
      8          1           0        2.579757   -0.470358    1.628259
      9          1           0        1.530447   -1.735503    0.973415
     10          1           0        0.770507   -0.233027   -1.114993
     11          6           0        1.683344   -0.662744    1.044699
     12         16           0        1.972484    0.067537   -0.599202
 ---------------------------------------------------------------------

 SCF Done:  E(RHF) =  -855.981090460     A.U. after    2 cycles

 The electronic state is 1-A.
 Alpha  occ. eigenvalues --  -93.52968 -81.24838 -11.29202 -11.26559 -11.26231
 Alpha  occ. eigenvalues --   -8.82750  -7.75731  -6.16915  -6.16706  -6.16408
 Alpha  occ. eigenvalues --   -4.89737  -4.89236  -4.89202  -1.04574  -1.02367
 Alpha  occ. eigenvalues --   -0.88376  -0.85939  -0.65213  -0.61899  -0.60288
 Alpha  occ. eigenvalues --   -0.60098  -0.58135  -0.52660  -0.46542  -0.45638
 Alpha  occ. eigenvalues --   -0.36528  -0.36271  -0.35099
 Alpha virt. eigenvalues --    0.03286   0.04391   0.05125   0.05577   0.06403
 Alpha virt. eigenvalues --    0.06934   0.07234   0.07901   0.08014   0.08884
 Alpha virt. eigenvalues --    0.11177   0.12590   0.13049   0.14347   0.14546

 Mulliken charges:
               1
     1  H    0.056436
     2  H   -0.003938
     3  H   -0.098694
     4  P   -0.215354
     5  C   -0.419849
     6  C    0.668770
     7  H   -0.157914
     8  H   -0.089033
     9  H   -0.100413
    10  H    0.127831
    11  C    0.158926
    12  S    0.073232
 Sum of Mulliken charges =  -0.00000

 Dipole moment (field-independent basis, Debye):
    X=             -0.6711    Y=              0.2293    Z=              1.2549  Tot=              1.4414

 Test job not archived.
 1\1\GINC-SE029\SP\RHF\Aug-CC-pVDZ\C3H7P1S1\OHZDE\09-Apr-2025\0\\#t hf
 aug-cc-pvdz iop(5/13=1,5/36=2,99/5=2) pseudo=read geom=check guess=(re
 ad,tcheck) scf=(maxcycle=1)\\title\\0,1\H,0,0.38933231,2.34404549,-1.6
 8180664\H,0,-1.19987448,1.75919838,-2.18254684\H,0,0.10218747,0.605834
 91,-1.86864837\P,0,-1.17058474,1.34195856,1.32892267\C,0,-0.7484701,1.
 45533882,-0.14816129\C,0,-0.34350289,1.5476729,-1.53972175\H,0,1.77663
 702,0.20782689,0.06332646\H,0,2.82006313,-1.21157914,-0.12843927\H,0,1
 .74748022,-1.0932075,1.27370865\H,0,-0.47266277,-1.15994674,-0.2305856

 Normal termination of Gaussian 16 at Wed Apr  9 17:23:13 2025.
