 Gaussian 16, Revision C.01,

 ----------------------------------------------------------------------
 #t hf aug-cc-pvdz symm=none int=(grid=ultrafine) guess=(read,tcheck) s
 table=(opt,rrhf)
 ----------------------------------------------------------------------
 -----
 title
 -----
 Symbolic Z-matrix:
 Charge =  0 Multiplicity = 1

 SCF Done:  E(RHF) =  -1037.69751821     A.U. after   14 cycles
 Normal termination of Gaussian 16 at Wed Apr  9 18:01:43 2025.
 Gaussian 16:  ES64L-G16RevC.01  3-Jul-2019

 ----------------------------------------------------------------------
 #t hf aug-cc-pvdz iop(5/13=1,5/36=2,99/5=2) pseudo=read geom=check gue
 ss=(read,tcheck) scf=(maxcycle=1)
 ----------------------------------------------------------------------
 -----
 title
 -----
 Structure from the checkpoint file:  "HB300SPXx10_1474_5.10_0.95_phosphaalkene_phosphineF2_dimer_mol1.chk"
 Charge =  0 Multiplicity = 1

                         Standard orientation:
 ---------------------------------------------------------------------
 Center     Atomic      Atomic             Coordinates (Angstroms)
 Number     Number       Type             X           Y           Z
 ---------------------------------------------------------------------
      1          1           0       -1.547381   -2.947290   -0.593001
      2          1           0       -0.583084   -2.171020    0.664472
      3          1           0       -2.353293   -2.124221    0.741799
      4          1           0       -1.465914    2.138894   -1.515650
      5          1           0       -0.527174    1.215154    1.999321
      6          1           0       -2.306791    2.668818   -0.053980
      7          1           0       -0.550513    2.670908   -0.097886
      8          1           0       -1.313541   -0.364382    2.000592
      9          1           0       -2.274842    1.117327    2.039946
     10         15           0       -1.499300   -0.551608   -0.968682
     11          6           0       -1.423191    0.724353    0.124045
     12          6           0       -1.436264    2.123451   -0.427645
     13          6           0       -1.380836    0.648826    1.618955
     14          6           0       -1.493838   -2.088507    0.073653
     15         15           0        1.694770    0.272374   -0.214671
     16          9           0        3.298112    0.239833   -0.233999
     17          9           0        1.465244   -0.897286    0.856203
     18          1           0        1.525054   -0.547337   -1.369212
 ---------------------------------------------------------------------

 SCF Done:  E(RHF) =  -1037.87712567     A.U. after    2 cycles

 The electronic state is 1-A.
 Alpha  occ. eigenvalues --  -81.39037 -81.24169 -26.13889 -26.13084 -11.27977
 Alpha  occ. eigenvalues --  -11.24501 -11.24230 -11.23292  -7.87786  -7.74754
 Alpha  occ. eigenvalues --   -5.01926  -5.01655  -5.01174  -4.88813  -4.88440
 Alpha  occ. eigenvalues --   -4.88426  -1.67346  -1.65653  -1.07582  -0.96348
 Alpha  occ. eigenvalues --   -0.94994  -0.89809  -0.82881  -0.79292  -0.77721
 Alpha  occ. eigenvalues --   -0.76893  -0.73539  -0.70978  -0.67391  -0.62409
 Alpha  occ. eigenvalues --   -0.60690  -0.60206  -0.59446  -0.56991  -0.55243
 Alpha  occ. eigenvalues --   -0.55235  -0.52008  -0.47298  -0.40436  -0.36076
 Alpha  occ. eigenvalues --   -0.32347
 Alpha virt. eigenvalues --    0.03345   0.04186   0.04511   0.04875   0.06256
 Alpha virt. eigenvalues --    0.06546   0.06798   0.07148   0.07878   0.08114
 Alpha virt. eigenvalues --    0.09170   0.09652   0.10350   0.11094   0.11905

 Mulliken charges:
               1
     1  H   -0.347927
     2  H   -0.159836
     3  H   -0.148575
     4  H   -0.160279
     5  H   -0.034925
     6  H    0.034002
     7  H   -0.008750
     8  H   -0.184726
     9  H    0.000762
    10  P    0.190451
    11  C   -0.642573
    12  C    0.564780
    13  C    0.616382
    14  C    0.287027
    15  P    1.300146
    16  F   -0.656043
    17  F   -0.678889
    18  H    0.028974
 Sum of Mulliken charges =  -0.00000

 Dipole moment (field-independent basis, Debye):
    X=             -1.9668    Y=              0.7416    Z=              0.3126  Tot=              2.1251

 Test job not archived.
 1\1\GINC-SE219\SP\RHF\Aug-CC-pVDZ\C4H10F2P2\OHZDE\09-Apr-2025\0\\#t hf
  aug-cc-pvdz iop(5/13=1,5/36=2,99/5=2) pseudo=read geom=check guess=(r
 ead,tcheck) scf=(maxcycle=1)\\title\\0,1\H,0,-0.66372889,3.26375392,-1
 .41484082\H,0,0.57607353,2.07688321,-1.82463407\H,0,-0.55842324,2.6448
 712,-3.06242126\H,0,-2.87100416,-1.40911587,-1.55416728\H,0,0.42715494
 ,-1.23076192,-3.33739031\H,0,-2.60862974,-1.75549695,-3.26751243\H,0,-
 1.47646146,-2.36750684,-2.07165071\H,0,0.4157342,0.51539066,-3.5906339
 2\H,0,-0.67072928,-0.53226666,-4.50884988\P,0,-1.6570918,1.05342876,-1

 Normal termination of Gaussian 16 at Wed Apr  9 18:01:51 2025.
