 Gaussian 16, Revision C.01,

 ----------------------------------------------------------------------
 #t hf aug-cc-pvdz symm=none int=(grid=ultrafine) guess=(read,tcheck) s
 table=(opt,rrhf)
 ----------------------------------------------------------------------
 -----
 title
 -----
 Symbolic Z-matrix:
 Charge =  0 Multiplicity = 1

 SCF Done:  E(RHF) =  -1334.39186282     A.U. after   13 cycles
 Normal termination of Gaussian 16 at Wed Apr  9 17:52:40 2025.
 Gaussian 16:  ES64L-G16RevC.01  3-Jul-2019

 ----------------------------------------------------------------------
 #t hf aug-cc-pvdz iop(5/13=1,5/36=2,99/5=2) pseudo=read geom=check gue
 ss=(read,tcheck) scf=(maxcycle=1)
 ----------------------------------------------------------------------
 -----
 title
 -----
 Structure from the checkpoint file:  "HB300SPXx10_1313_4.36_0.90_hydrogenchloride_dimethyldisulfide_dimer_mol1.chk"
 Charge =  0 Multiplicity = 1

                         Standard orientation:
 ---------------------------------------------------------------------
 Center     Atomic      Atomic             Coordinates (Angstroms)
 Number     Number       Type             X           Y           Z
 ---------------------------------------------------------------------
      1          1           0       -1.637063   -0.192744    0.388199
      2         17           0       -2.794559   -0.557988   -0.093061
      3          1           0        3.524605   -1.185522   -0.537530
      4          1           0        3.237128   -0.222884    0.927626
      5          1           0        3.104786    0.530385   -0.685320
      6          1           0       -0.659795    1.358822   -1.412346
      7          1           0        0.855629    2.211101   -0.999374
      8          1           0       -0.659817    2.639610   -0.179818
      9          6           0        2.940712   -0.373758   -0.105983
     10         16           0        1.202790   -0.905622   -0.200058
     11         16           0        0.210181    0.633061    0.726596
     12          6           0       -0.084964    1.825093   -0.618017
 ---------------------------------------------------------------------

 SCF Done:  E(RHF) =  -1334.48097402     A.U. after    2 cycles

 The electronic state is 1-A.
 Alpha  occ. eigenvalues -- -103.63889 -93.57617 -93.56888 -11.28275 -11.28231
 Alpha  occ. eigenvalues --  -10.67239  -8.87292  -8.86525  -8.32981  -8.32700
 Alpha  occ. eigenvalues --   -8.32698  -6.21421  -6.21150  -6.20975  -6.20650
 Alpha  occ. eigenvalues --   -6.20377  -6.20051  -1.12951  -1.08902  -1.01779
 Alpha  occ. eigenvalues --   -0.91610  -0.79646  -0.63976  -0.62337  -0.61391
 Alpha  occ. eigenvalues --   -0.59881  -0.59522  -0.54589  -0.50559  -0.45901
 Alpha  occ. eigenvalues --   -0.45863  -0.45225  -0.37672  -0.36649
 Alpha virt. eigenvalues --    0.03047   0.04142   0.05164   0.05593   0.06746
 Alpha virt. eigenvalues --    0.07186   0.08023   0.08874   0.09804   0.11971
 Alpha virt. eigenvalues --    0.13083   0.13919   0.14150   0.14468   0.15200

 Mulliken charges:
               1
     1  H    0.338714
     2  Cl  -0.201167
     3  H   -0.074068
     4  H   -0.026996
     5  H   -0.075812
     6  H   -0.111523
     7  H   -0.108243
     8  H   -0.052357
     9  C    0.062080
    10  S    0.205906
    11  S   -0.209606
    12  C    0.253072
 Sum of Mulliken charges =   0.00000

 Dipole moment (field-independent basis, Debye):
    X=              3.9036    Y=              2.2098    Z=             -0.6041  Tot=              4.5262

 Test job not archived.
 1\1\GINC-SE030\SP\RHF\Aug-CC-pVDZ\C2H7Cl1S2\OHZDE\09-Apr-2025\0\\#t hf
  aug-cc-pvdz iop(5/13=1,5/36=2,99/5=2) pseudo=read geom=check guess=(r
 ead,tcheck) scf=(maxcycle=1)\\title\\0,1\H,0,-0.26068265,0.62653872,-1
 .61580209\Cl,0,0.10581098,1.51670262,-2.49790267\H,0,1.8729326,-1.9114
 5441,2.56650325\H,0,0.27459401,-2.53005028,2.09890479\H,0,0.41980744,-
 0.98339408,2.97827448\H,0,-0.52331078,1.96130567,0.56451806\H,0,-1.212
 76077,1.08632038,1.96183575\H,0,-2.22993283,1.46439093,0.55674052\C,0,
 0.8728759,-1.6343735,2.23599343\S,0,1.09450941,-0.76662951,0.65169452\

 Normal termination of Gaussian 16 at Wed Apr  9 17:52:44 2025.
