 Gaussian 16, Revision C.01,

 ----------------------------------------------------------------------
 #t hf aug-cc-pvdz symm=none int=(grid=ultrafine) guess=(read,tcheck) s
 table=(opt,rrhf)
 ----------------------------------------------------------------------
 -----
 title
 -----
 Symbolic Z-matrix:
 Charge =  0 Multiplicity = 1

 SCF Done:  E(RHF) =  -855.909490053     A.U. after   14 cycles
 Normal termination of Gaussian 16 at Wed Apr  9 17:23:09 2025.
 Gaussian 16:  ES64L-G16RevC.01  3-Jul-2019

 ----------------------------------------------------------------------
 #t hf aug-cc-pvdz iop(5/13=1,5/36=2,99/5=2) pseudo=read geom=check gue
 ss=(read,tcheck) scf=(maxcycle=1)
 ----------------------------------------------------------------------
 -----
 title
 -----
 Structure from the checkpoint file:  "HB300SPXx10_1035_4.07_1.00_phosphaalkyne_methanethiol_dimer_mol1.chk"
 Charge =  0 Multiplicity = 1

                         Standard orientation:
 ---------------------------------------------------------------------
 Center     Atomic      Atomic             Coordinates (Angstroms)
 Number     Number       Type             X           Y           Z
 ---------------------------------------------------------------------
      1          1           0       -1.465863    2.138326    1.260115
      2          1           0       -1.723873    2.465302   -0.455950
      3          1           0       -0.141557    1.912499    0.105146
      4         15           0       -2.027315   -1.046313   -0.169869
      5          6           0       -1.619285    0.423094    0.047307
      6          6           0       -1.219037    1.804176    0.250727
      7          1           0        0.928392   -0.211973    1.516071
      8          1           0        2.690570   -0.338636    1.653585
      9          1           0        1.761958   -1.691400    0.991638
     10          1           0        0.932142   -0.277880   -1.131982
     11          6           0        1.826315   -0.609089    1.052728
     12         16           0        2.093750    0.124336   -0.593447
 ---------------------------------------------------------------------

 SCF Done:  E(RHF) =  -855.985376569     A.U. after    2 cycles

 The electronic state is 1-A.
 Alpha  occ. eigenvalues --  -93.53091 -81.24792 -11.29181 -11.26568 -11.26453
 Alpha  occ. eigenvalues --   -8.82853  -7.75683  -6.17016  -6.16804  -6.16490
 Alpha  occ. eigenvalues --   -4.89688  -4.89178  -4.89149  -1.04459  -1.02440
 Alpha  occ. eigenvalues --   -0.88317  -0.85885  -0.65249  -0.61385  -0.60245
 Alpha  occ. eigenvalues --   -0.60150  -0.58613  -0.52651  -0.46499  -0.45570
 Alpha  occ. eigenvalues --   -0.36379  -0.36235  -0.35299
 Alpha virt. eigenvalues --    0.03254   0.04378   0.05083   0.05577   0.06412
 Alpha virt. eigenvalues --    0.06919   0.07275   0.07886   0.08017   0.08827
 Alpha virt. eigenvalues --    0.11155   0.12501   0.12858   0.14282   0.14479

 Mulliken charges:
               1
     1  H    0.059734
     2  H    0.009092
     3  H   -0.049492
     4  P   -0.215485
     5  C   -0.409343
     6  C    0.596506
     7  H   -0.132907
     8  H   -0.089603
     9  H   -0.112014
    10  H    0.102547
    11  C    0.133768
    12  S    0.107197
 Sum of Mulliken charges =  -0.00000

 Dipole moment (field-independent basis, Debye):
    X=             -0.7096    Y=              0.2212    Z=              1.2485  Tot=              1.4530

 Test job not archived.
 1\1\GINC-SE162\SP\RHF\Aug-CC-pVDZ\C3H7P1S1\OHZDE\09-Apr-2025\0\\#t hf
 aug-cc-pvdz iop(5/13=1,5/36=2,99/5=2) pseudo=read geom=check guess=(re
 ad,tcheck) scf=(maxcycle=1)\\title\\0,1\H,0,0.38933231,2.34404549,-1.6
 8180664\H,0,-1.19987448,1.75919838,-2.18254684\H,0,0.10218747,0.605834
 91,-1.86864837\P,0,-1.17058474,1.34195856,1.32892267\C,0,-0.7484701,1.
 45533882,-0.14816129\C,0,-0.34350289,1.5476729,-1.53972175\H,0,1.83230
 688,-0.05445708,0.18551303\H,0,2.875733,-1.47386311,-0.00625271\H,0,1.
 80315009,-1.35549147,1.39589521\H,0,-0.4169929,-1.42223071,-0.10839913

 Normal termination of Gaussian 16 at Wed Apr  9 17:23:13 2025.
