 Gaussian 16, Revision C.01,

 ----------------------------------------------------------------------
 #t hf aug-cc-pvdz symm=none int=(grid=ultrafine) guess=(read,tcheck) s
 table=(opt,rrhf)
 ----------------------------------------------------------------------
 -----
 title
 -----
 Symbolic Z-matrix:
 Charge =  0 Multiplicity = 1

 SCF Done:  E(RHF) =  -1037.69025433     A.U. after   15 cycles
 Normal termination of Gaussian 16 at Wed Apr  9 18:01:50 2025.
 Gaussian 16:  ES64L-G16RevC.01  3-Jul-2019

 ----------------------------------------------------------------------
 #t hf aug-cc-pvdz iop(5/13=1,5/36=2,99/5=2) pseudo=read geom=check gue
 ss=(read,tcheck) scf=(maxcycle=1)
 ----------------------------------------------------------------------
 -----
 title
 -----
 Structure from the checkpoint file:  "HB300SPXx10_1472_5.10_0.85_phosphaalkene_phosphineF2_dimer_mol1.chk"
 Charge =  0 Multiplicity = 1

                         Standard orientation:
 ---------------------------------------------------------------------
 Center     Atomic      Atomic             Coordinates (Angstroms)
 Number     Number       Type             X           Y           Z
 ---------------------------------------------------------------------
      1          1           0        1.262115    2.978884   -0.602269
      2          1           0        0.360816    2.144616    0.664759
      3          1           0        2.130910    2.213067    0.727146
      4          1           0        1.503534   -2.104031   -1.514893
      5          1           0        0.536147   -1.234860    2.006222
      6          1           0        2.389235   -2.574750   -0.059445
      7          1           0        0.636496   -2.691003   -0.088443
      8          1           0        1.218224    0.392411    1.997933
      9          1           0        2.274046   -1.023640    2.031836
     10         15           0        1.366631    0.584252   -0.973148
     11          6           0        1.382700   -0.691360    0.122517
     12          6           0        1.482028   -2.087961   -0.426706
     13          6           0        1.348010   -0.615191    1.617592
     14          6           0        1.270042    2.120023    0.066384
     15         15           0       -1.554485   -0.295888   -0.212812
     16          9           0       -3.156659   -0.367592   -0.218594
     17          9           0       -1.392495    0.888750    0.853936
     18          1           0       -1.448023    0.530369   -1.370249
 ---------------------------------------------------------------------

 SCF Done:  E(RHF) =  -1037.86976717     A.U. after    2 cycles

 The electronic state is 1-A.
 Alpha  occ. eigenvalues --  -81.38626 -81.24253 -26.13779 -26.12535 -11.28270
 Alpha  occ. eigenvalues --  -11.24614 -11.24364 -11.23194  -7.87385  -7.74870
 Alpha  occ. eigenvalues --   -5.01522  -5.01254  -5.00770  -4.88928  -4.88573
 Alpha  occ. eigenvalues --   -4.88552  -1.67257  -1.65283  -1.07828  -0.96432
 Alpha  occ. eigenvalues --   -0.95125  -0.89680  -0.83140  -0.79093  -0.77665
 Alpha  occ. eigenvalues --   -0.76742  -0.73244  -0.70818  -0.67595  -0.62745
 Alpha  occ. eigenvalues --   -0.60767  -0.60025  -0.59555  -0.56773  -0.55355
 Alpha  occ. eigenvalues --   -0.55255  -0.52153  -0.47472  -0.40355  -0.36178
 Alpha  occ. eigenvalues --   -0.32254
 Alpha virt. eigenvalues --    0.03316   0.04173   0.04572   0.04836   0.06265
 Alpha virt. eigenvalues --    0.06497   0.06798   0.07157   0.07940   0.08184
 Alpha virt. eigenvalues --    0.09125   0.09766   0.10369   0.11165   0.11897

 Mulliken charges:
               1
     1  H   -0.350391
     2  H   -0.156040
     3  H   -0.148753
     4  H   -0.154251
     5  H   -0.029313
     6  H    0.037831
     7  H   -0.005907
     8  H   -0.192739
     9  H   -0.009027
    10  P    0.162281
    11  C   -0.682446
    12  C    0.563188
    13  C    0.648176
    14  C    0.315977
    15  P    1.291176
    16  F   -0.658088
    17  F   -0.686941
    18  H    0.055269
 Sum of Mulliken charges =  -0.00000

 Dipole moment (field-independent basis, Debye):
    X=              2.2138    Y=             -0.6473    Z=              0.3276  Tot=              2.3296

 Test job not archived.
 1\1\GINC-SE103\SP\RHF\Aug-CC-pVDZ\C4H10F2P2\OHZDE\09-Apr-2025\0\\#t hf
  aug-cc-pvdz iop(5/13=1,5/36=2,99/5=2) pseudo=read geom=check guess=(r
 ead,tcheck) scf=(maxcycle=1)\\title\\0,1\H,0,-0.66372889,3.26375392,-1
 .41484082\H,0,0.57607353,2.07688321,-1.82463407\H,0,-0.55842324,2.6448
 712,-3.06242126\H,0,-2.87100416,-1.40911587,-1.55416728\H,0,0.42715494
 ,-1.23076192,-3.33739031\H,0,-2.60862974,-1.75549695,-3.26751243\H,0,-
 1.47646146,-2.36750684,-2.07165071\H,0,0.4157342,0.51539066,-3.5906339
 2\H,0,-0.67072928,-0.53226666,-4.50884988\P,0,-1.6570918,1.05342876,-1

 Normal termination of Gaussian 16 at Wed Apr  9 18:02:00 2025.
