 Gaussian 16, Revision C.01,

 ----------------------------------------------------------------------
 #t hf aug-cc-pvdz symm=none int=(grid=ultrafine) guess=(read,tcheck) s
 table=(opt,rrhf)
 ----------------------------------------------------------------------
 -----
 title
 -----
 Symbolic Z-matrix:
 Charge =  0 Multiplicity = 1

 SCF Done:  E(RHF) =  -1312.03301026     A.U. after   13 cycles

 1\1\GINC-SE454\Stability\RHF\Aug-CC-pVDZ\C3H10S3\OHZDE\09-Apr-2025\0\\
 #t hf aug-cc-pvdz symm=none int=(grid=ultrafine) guess=(read,tcheck) s
 table=(opt,rrhf)\\title\\0,1\H,0,1.01554051,-2.06430295,-0.26345232\H,
 0,1.41221348,-3.50790796,0.68330627\H,0,2.28776701,-1.9997821,0.978385
 09\H,0,0.09227498,-0.7095981,1.83267489\C,0,1.324424,-2.42503809,0.712
 77693\S,0,0.06941485,-2.04508424,1.97921636\H,0,-2.88462704,0.72714453
 ,0.44773386\H,0,-1.8340386,-0.60005052,-0.08818336\H,0,-2.46052067,0.5
 9235748,-1.26880843\H,0,0.35582085,2.94542742,-2.5242975\H,0,-0.658901

 Normal termination of Gaussian 16 at Wed Apr  9 17:44:56 2025.
 Gaussian 16:  ES64L-G16RevC.01  3-Jul-2019

 ----------------------------------------------------------------------
 #t hf aug-cc-pvdz iop(5/13=1,5/36=2,99/5=2) pseudo=read geom=check gue
 ss=(read,tcheck) scf=(maxcycle=1)
 ----------------------------------------------------------------------
 -----
 title
 -----
 Structure from the checkpoint file:  "HB300SPXx10_1176_4.22_1.05_methanethiol_dimethyldisulfide_dimer_mol1.chk"
 Charge =  0 Multiplicity = 1

                         Standard orientation:
 ---------------------------------------------------------------------
 Center     Atomic      Atomic             Coordinates (Angstroms)
 Number     Number       Type             X           Y           Z
 ---------------------------------------------------------------------
      1          1           0        1.606307   -1.536286    0.828879
      2          1           0        3.351003   -1.834122    0.899781
      3          1           0        2.488606   -2.044382   -0.629981
      4          1           0        1.836237    0.555652   -0.799716
      5          6           0        2.540595   -1.456652    0.281770
      6         16           0        2.940113    0.284152   -0.083290
      7          1           0       -0.450814    2.853181    0.728354
      8          1           0        0.317176    1.362111    1.310843
      9          1           0       -1.411570    1.683412    1.652010
     10          1           0       -3.714153   -0.652507   -0.418392
     11          1           0       -3.191774   -0.416003    1.270915
     12          1           0       -3.263352   -2.049326    0.584115
     13          6           0       -0.604862    1.794336    0.933089
     14         16           0       -1.049981    1.035599   -0.660515
     15         16           0       -1.319570   -0.940368   -0.188763
     16          6           0       -3.051843   -1.002994    0.367522
 ---------------------------------------------------------------------

 SCF Done:  E(RHF) =  -1312.13833137     A.U. after    2 cycles

 The electronic state is 1-A.
 Alpha  occ. eigenvalues --  -93.55800 -93.55793 -93.52511 -11.27375 -11.26948
 Alpha  occ. eigenvalues --  -11.25991  -8.85442  -8.85419  -8.82269  -6.19616
 Alpha  occ. eigenvalues --   -6.19511  -6.19313  -6.19273  -6.19002  -6.18987
 Alpha  occ. eigenvalues --   -6.16435  -6.16221  -6.15894  -1.07580  -1.01865
 Alpha  occ. eigenvalues --   -1.00543  -0.90373  -0.85293  -0.78076  -0.61708
 Alpha  occ. eigenvalues --   -0.60880  -0.60451  -0.59787  -0.58666  -0.58566
 Alpha  occ. eigenvalues --   -0.53460  -0.52081  -0.49198  -0.44977  -0.44057
 Alpha  occ. eigenvalues --   -0.36227  -0.35301  -0.34772
 Alpha virt. eigenvalues --    0.03307   0.04350   0.04557   0.05355   0.06064
 Alpha virt. eigenvalues --    0.06472   0.07115   0.07655   0.08097   0.09241
 Alpha virt. eigenvalues --    0.09809   0.11446   0.12512   0.12863   0.13793

 Mulliken charges:
               1
     1  H   -0.134666
     2  H   -0.096886
     3  H   -0.118935
     4  H    0.095936
     5  C    0.143893
     6  S    0.139962
     7  H   -0.059500
     8  H   -0.123759
     9  H   -0.105601
    10  H   -0.035264
    11  H   -0.083809
    12  H   -0.072707
    13  C    0.212862
    14  S    0.034888
    15  S    0.176428
    16  C    0.027157
 Sum of Mulliken charges =  -0.00000

 Dipole moment (field-independent basis, Debye):
    X=             -2.4017    Y=             -0.6760    Z=              1.7974  Tot=              3.0750

 Test job not archived.
 1\1\GINC-SE454\SP\RHF\Aug-CC-pVDZ\C3H10S3\OHZDE\09-Apr-2025\0\\#t hf a
 ug-cc-pvdz iop(5/13=1,5/36=2,99/5=2) pseudo=read geom=check guess=(rea
 d,tcheck) scf=(maxcycle=1)\\title\\0,1\H,0,1.01554051,-2.06430295,-0.2
 6345232\H,0,1.41221348,-3.50790796,0.68330627\H,0,2.28776701,-1.999782
 1,0.97838509\H,0,0.09227498,-0.7095981,1.83267489\C,0,1.324424,-2.4250
 3809,0.71277693\S,0,0.06941485,-2.04508424,1.97921636\H,0,-2.88462704,
 0.72714453,0.44773386\H,0,-1.8340386,-0.60005052,-0.08818336\H,0,-2.46
 052067,0.59235748,-1.26880843\H,0,0.35582085,2.94542742,-2.5242975\H,0

 Normal termination of Gaussian 16 at Wed Apr  9 17:45:01 2025.
