 Gaussian 16, Revision C.01,

 ----------------------------------------------------------------------
 #t hf aug-cc-pvdz symm=none int=(grid=ultrafine) guess=(read,tcheck) s
 table=(opt,rrhf)
 ----------------------------------------------------------------------
 -----
 title
 -----
 Symbolic Z-matrix:
 Charge =  0 Multiplicity = 1

 SCF Done:  E(RHF) =  -1121.34282099     A.U. after   13 cycles
 Normal termination of Gaussian 16 at Wed Apr  9 17:34:51 2025.
 Gaussian 16:  ES64L-G16RevC.01  3-Jul-2019

 ----------------------------------------------------------------------
 #t hf aug-cc-pvdz iop(5/13=1,5/36=2,99/5=2) pseudo=read geom=check gue
 ss=(read,tcheck) scf=(maxcycle=1)
 ----------------------------------------------------------------------
 -----
 title
 -----
 Structure from the checkpoint file:  "HB300SPXx10_1094_4.13_0.95_Nmethylacetamide_dimethyldisulfide_dimer_mol1.chk"
 Charge =  0 Multiplicity = 1

                         Standard orientation:
 ---------------------------------------------------------------------
 Center     Atomic      Atomic             Coordinates (Angstroms)
 Number     Number       Type             X           Y           Z
 ---------------------------------------------------------------------
      1          6           0       -1.721488    1.679239   -0.758828
      2          1           0       -1.059937    1.504706   -1.607387
      3          1           0       -1.148106    2.141266    0.042528
      4          1           0       -2.510009    2.353739   -1.081106
      5          6           0       -2.342173    0.356092   -0.355393
      6          8           0       -3.259201   -0.141563   -0.986458
      7          7           0       -1.795098   -0.224338    0.744628
      8          1           0       -0.961251    0.187511    1.129931
      9          6           0       -2.160593   -1.557097    1.177405
     10          1           0       -3.167619   -1.766435    0.830374
     11          1           0       -1.486972   -2.312063    0.766382
     12          1           0       -2.133383   -1.615143    2.263868
     13          1           0        2.719827   -2.182956   -1.750016
     14          1           0        3.310718   -1.928658   -0.093433
     15          1           0        3.492158   -0.646099   -1.320975
     16          1           0        1.164143    2.321425   -0.469388
     17          1           0        2.898345    1.921562   -0.354638
     18          1           0        2.088713    2.750121    0.987833
     19          6           0        2.858531   -1.449742   -0.956671
     20         16           0        1.194593   -0.837056   -0.545859
     21         16           0        1.544894    0.444527    1.016380
     22          6           0        1.965869    2.013900    0.194646
 ---------------------------------------------------------------------

 SCF Done:  E(RHF) =  -1121.49218462     A.U. after    2 cycles

 The electronic state is 1-A.
 Alpha  occ. eigenvalues --  -93.57049 -93.56618 -20.51508 -15.63077 -11.34710
 Alpha  occ. eigenvalues --  -11.28312 -11.27952 -11.25432 -11.23610  -8.86661
 Alpha  occ. eigenvalues --   -8.86243  -6.20826  -6.20540  -6.20370  -6.20297
 Alpha  occ. eigenvalues --   -6.20113  -6.19787  -1.32890  -1.18218  -1.08631
 Alpha  occ. eigenvalues --   -1.01543  -1.00236  -0.91622  -0.91271  -0.79173
 Alpha  occ. eigenvalues --   -0.77300  -0.68366  -0.64557  -0.62726  -0.62540
 Alpha  occ. eigenvalues --   -0.61680  -0.61167  -0.59619  -0.57938  -0.57551
 Alpha  occ. eigenvalues --   -0.54893  -0.54219  -0.53500  -0.50287  -0.50218
 Alpha  occ. eigenvalues --   -0.45048  -0.42352  -0.37958  -0.37337  -0.36279
 Alpha virt. eigenvalues --    0.02775   0.03638   0.04169   0.04690   0.05601
 Alpha virt. eigenvalues --    0.05923   0.06112   0.07054   0.07455   0.08326
 Alpha virt. eigenvalues --    0.08417   0.08903   0.09173   0.10951   0.11132

 Mulliken charges:
               1
     1  C    0.433478
     2  H    0.013753
     3  H   -0.112143
     4  H   -0.034940
     5  C    0.317805
     6  O   -0.600848
     7  N   -0.182091
     8  H   -0.026800
     9  C    0.769872
    10  H   -0.179692
    11  H   -0.095965
    12  H   -0.175906
    13  H   -0.077123
    14  H   -0.050300
    15  H   -0.092732
    16  H   -0.211317
    17  H   -0.116874
    18  H   -0.028341
    19  C    0.096910
    20  S    0.211475
    21  S   -0.056557
    22  C    0.198338
 Sum of Mulliken charges =  -0.00000

 Dipole moment (field-independent basis, Debye):
    X=              5.8548    Y=              1.5698    Z=              1.2667  Tot=              6.1925

 Test job not archived.
 1\1\GINC-SE113\SP\RHF\Aug-CC-pVDZ\C5H13N1O1S2\OHZDE\09-Apr-2025\0\\#t
 hf aug-cc-pvdz iop(5/13=1,5/36=2,99/5=2) pseudo=read geom=check guess=
 (read,tcheck) scf=(maxcycle=1)\\title\\0,1\C,0,-1.31055971,-0.36190707
 ,2.17525478\H,0,-0.76310857,0.57466921,2.28149083\H,0,-0.59510431,-1.1
 7658722,2.08130356\H,0,-1.91110445,-0.50300543,3.06969011\C,0,-2.23351
 851,-0.24400233,0.97818704\O,0,-3.28055753,0.37845097,1.03390772\N,0,-
 1.80028089,-0.8717422,-0.1463058\H,0,-0.86873727,-1.25332097,-0.144399
 63\C,0,-2.47826303,-0.73306099,-1.41840567\H,0,-3.52176476,-0.50262299

 Normal termination of Gaussian 16 at Wed Apr  9 17:35:04 2025.
