 Gaussian 16, Revision C.01,

 ----------------------------------------------------------------------
 #t hf aug-cc-pvdz symm=none int=(grid=ultrafine) guess=(read,tcheck) s
 table=(opt,rrhf)
 ----------------------------------------------------------------------
 -----
 title
 -----
 Symbolic Z-matrix:
 Charge =  0 Multiplicity = 1

 SCF Done:  E(RHF) =  -1121.34615847     A.U. after   13 cycles
 Normal termination of Gaussian 16 at Wed Apr  9 17:34:41 2025.
 Gaussian 16:  ES64L-G16RevC.01  3-Jul-2019

 ----------------------------------------------------------------------
 #t hf aug-cc-pvdz iop(5/13=1,5/36=2,99/5=2) pseudo=read geom=check gue
 ss=(read,tcheck) scf=(maxcycle=1)
 ----------------------------------------------------------------------
 -----
 title
 -----
 Structure from the checkpoint file:  "HB300SPXx10_1096_4.13_1.05_Nmethylacetamide_dimethyldisulfide_dimer_mol1.chk"
 Charge =  0 Multiplicity = 1

                         Standard orientation:
 ---------------------------------------------------------------------
 Center     Atomic      Atomic             Coordinates (Angstroms)
 Number     Number       Type             X           Y           Z
 ---------------------------------------------------------------------
      1          6           0       -1.852727    1.678585   -0.758112
      2          1           0       -1.189944    1.498803   -1.604611
      3          1           0       -1.278238    2.136244    0.044956
      4          1           0       -2.634983    2.359153   -1.082887
      5          6           0       -2.484919    0.360356   -0.356450
      6          8           0       -3.403842   -0.130236   -0.990282
      7          7           0       -1.945762   -0.224167    0.745313
      8          1           0       -1.109928    0.181237    1.133137
      9          6           0       -2.322939   -1.553988    1.177103
     10          1           0       -3.330489   -1.755535    0.826996
     11          1           0       -1.653946   -2.314221    0.768236
     12          1           0       -2.299525   -1.612102    2.263651
     13          1           0        2.825498   -2.193152   -1.746355
     14          1           0        3.413246   -1.943240   -0.087987
     15          1           0        3.608431   -0.662291   -1.315102
     16          1           0        1.300949    2.323354   -0.471001
     17          1           0        3.031628    1.910035   -0.350869
     18          1           0        2.224335    2.745038    0.989014
     19          6           0        2.967456   -1.460936   -0.952664
     20         16           0        1.307075   -0.835278   -0.547042
     21         16           0        1.662521    0.443746    1.016132
     22          6           0        2.098212    2.009691    0.195531
 ---------------------------------------------------------------------

 SCF Done:  E(RHF) =  -1121.49593163     A.U. after    2 cycles

 The electronic state is 1-A.
 Alpha  occ. eigenvalues --  -93.56917 -93.56560 -20.51627 -15.63405 -11.34843
 Alpha  occ. eigenvalues --  -11.28230 -11.27914 -11.25602 -11.23666  -8.86525
 Alpha  occ. eigenvalues --   -8.86185  -6.20679  -6.20400  -6.20306  -6.20136
 Alpha  occ. eigenvalues --   -6.20049  -6.19728  -1.33019  -1.18371  -1.08495
 Alpha  occ. eigenvalues --   -1.01447  -1.00308  -0.91595  -0.91277  -0.79014
 Alpha  occ. eigenvalues --   -0.77419  -0.68418  -0.64627  -0.62666  -0.62481
 Alpha  occ. eigenvalues --   -0.61566  -0.61108  -0.59549  -0.58018  -0.57717
 Alpha  occ. eigenvalues --   -0.54800  -0.54299  -0.53662  -0.50374  -0.50109
 Alpha  occ. eigenvalues --   -0.44976  -0.42461  -0.38071  -0.37265  -0.36197
 Alpha virt. eigenvalues --    0.02794   0.03656   0.04167   0.04675   0.05562
 Alpha virt. eigenvalues --    0.05884   0.06113   0.07017   0.07460   0.08280
 Alpha virt. eigenvalues --    0.08339   0.08859   0.09186   0.10849   0.11070

 Mulliken charges:
               1
     1  C    0.406987
     2  H    0.019690
     3  H   -0.113910
     4  H   -0.026599
     5  C    0.305879
     6  O   -0.587060
     7  N   -0.196663
     8  H   -0.056163
     9  C    0.764597
    10  H   -0.175769
    11  H   -0.099917
    12  H   -0.175302
    13  H   -0.076489
    14  H   -0.046108
    15  H   -0.089698
    16  H   -0.164113
    17  H   -0.104852
    18  H   -0.046989
    19  C    0.062653
    20  S    0.236967
    21  S    0.001015
    22  C    0.161843
 Sum of Mulliken charges =  -0.00000

 Dipole moment (field-independent basis, Debye):
    X=              5.8289    Y=              1.5397    Z=              1.3005  Tot=              6.1675

 Test job not archived.
 1\1\GINC-SE362\SP\RHF\Aug-CC-pVDZ\C5H13N1O1S2\OHZDE\09-Apr-2025\0\\#t
 hf aug-cc-pvdz iop(5/13=1,5/36=2,99/5=2) pseudo=read geom=check guess=
 (read,tcheck) scf=(maxcycle=1)\\title\\0,1\C,0,-1.31055971,-0.36190707
 ,2.17525478\H,0,-0.76310857,0.57466921,2.28149083\H,0,-0.59510431,-1.1
 7658722,2.08130356\H,0,-1.91110445,-0.50300543,3.06969011\C,0,-2.23351
 851,-0.24400233,0.97818704\O,0,-3.28055753,0.37845097,1.03390772\N,0,-
 1.80028089,-0.8717422,-0.1463058\H,0,-0.86873727,-1.25332097,-0.144399
 63\C,0,-2.47826303,-0.73306099,-1.41840567\H,0,-3.52176476,-0.50262299

 Normal termination of Gaussian 16 at Wed Apr  9 17:34:51 2025.
