 Gaussian 16, Revision C.01,

 ----------------------------------------------------------------------
 #t hf aug-cc-pvdz symm=none int=(grid=ultrafine) guess=(read,tcheck) s
 table=(opt,rrhf)
 ----------------------------------------------------------------------
 -----
 title
 -----
 Symbolic Z-matrix:
 Charge =  0 Multiplicity = 1

 SCF Done:  E(RHF) =  -645.421457209     A.U. after   14 cycles
 Normal termination of Gaussian 16 at Wed Apr  9 17:51:36 2025.
 Gaussian 16:  ES64L-G16RevC.01  3-Jul-2019

 ----------------------------------------------------------------------
 #t hf aug-cc-pvdz iop(5/13=1,5/36=2,99/5=2) pseudo=read geom=check gue
 ss=(read,tcheck) scf=(maxcycle=1)
 ----------------------------------------------------------------------
 -----
 title
 -----
 Structure from the checkpoint file:  "HB300SPXx10_123_1.13_0.90_sulfane_pyridine_dimer_mol1.chk"
 Charge =  0 Multiplicity = 1

                         Standard orientation:
 ---------------------------------------------------------------------
 Center     Atomic      Atomic             Coordinates (Angstroms)
 Number     Number       Type             X           Y           Z
 ---------------------------------------------------------------------
      1          1           0        1.894509   -0.306011   -0.026459
      2          1           0        3.351003   -0.040212    1.252511
      3         16           0        3.212543    0.011702   -0.080076
      4          1           0       -2.982683   -1.819422   -0.002502
      5          1           0       -0.543859   -2.292453   -0.001353
      6          6           0       -2.687976    0.316568    0.000589
      7          6           0       -2.270814   -1.007197   -0.000579
      8          6           0       -0.907837   -1.272713    0.000227
      9          7           0        0.019094   -0.315488    0.002353
     10          6           0       -0.388415    0.953253    0.003268
     11          6           0       -1.728141    1.318726    0.002504
     12          1           0        0.393022    1.703266    0.003859
     13          1           0       -2.006707    2.362178    0.002979
     14          1           0       -3.740535    0.562015   -0.000349
 ---------------------------------------------------------------------

 SCF Done:  E(RHF) =  -645.514997223     A.U. after    2 cycles

 The electronic state is 1-A.
 Alpha  occ. eigenvalues --  -93.50822 -15.64591 -11.29953 -11.29783 -11.28112
 Alpha  occ. eigenvalues --  -11.26286 -11.26247  -8.80693  -6.14895  -6.14686
 Alpha  occ. eigenvalues --   -6.14337  -1.25019  -1.09291  -1.04440  -0.93428
 Alpha  occ. eigenvalues --   -0.87281  -0.87070  -0.74178  -0.68130  -0.66761
 Alpha  occ. eigenvalues --   -0.61719  -0.60487  -0.56081  -0.55166  -0.53685
 Alpha  occ. eigenvalues --   -0.47646  -0.40985  -0.40029  -0.36356  -0.35059
 Alpha virt. eigenvalues --    0.02679   0.03596   0.04239   0.05748   0.06035
 Alpha virt. eigenvalues --    0.07060   0.07926   0.08910   0.09344   0.10758
 Alpha virt. eigenvalues --    0.11302   0.12189   0.13045   0.13450   0.13858

 Mulliken charges:
               1
     1  H    0.054595
     2  H    0.019678
     3  S   -0.018520
     4  H   -0.419570
     5  H   -0.386589
     6  C   -0.160085
     7  C    0.800894
     8  C    0.522646
     9  N   -0.453870
    10  C    0.534941
    11  C    0.773433
    12  H   -0.452890
    13  H   -0.417964
    14  H   -0.396699
 Sum of Mulliken charges =  -0.00000

 Dipole moment (field-independent basis, Debye):
    X=             -4.4205    Y=              0.1845    Z=              0.7470  Tot=              4.4869

 Test job not archived.
 1\1\GINC-SE173\SP\RHF\Aug-CC-pVDZ\C5H7N1S1\OHZDE\09-Apr-2025\0\\#t hf
 aug-cc-pvdz iop(5/13=1,5/36=2,99/5=2) pseudo=read geom=check guess=(re
 ad,tcheck) scf=(maxcycle=1)\\title\\0,1\H,0,1.25021154,1.5960457,0.136
 91261\H,0,3.15091491,1.84193998,0.53016902\S,0,2.02337536,2.53859467,0
 .73260516\H,0,-1.737469,-1.70023497,-2.3703353\H,0,-0.19908664,0.24941
 562,-2.30815224\C,0,-1.61018795,-2.01815513,-0.24147633\C,0,-1.3135879
 2,-1.37117852,-1.43304274\C,0,-0.45367807,-0.28139462,-1.39943018\N,0,
 0.10075378,0.17255512,-0.27603333\C,0,-0.18848099,-0.45317609,0.864392

 Normal termination of Gaussian 16 at Wed Apr  9 17:51:41 2025.
