 Gaussian 16, Revision C.01,

 ----------------------------------------------------------------------
 #t hf aug-cc-pvdz symm=none int=(grid=ultrafine) guess=(read,tcheck) s
 table=(opt,rrhf)
 ----------------------------------------------------------------------
 -----
 title
 -----
 Symbolic Z-matrix:
 Charge =  0 Multiplicity = 1

 SCF Done:  E(RHF) =  -747.036685089     A.U. after   14 cycles
 Normal termination of Gaussian 16 at Wed Apr  9 17:58:49 2025.
 Gaussian 16:  ES64L-G16RevC.01  3-Jul-2019

 ----------------------------------------------------------------------
 #t hf aug-cc-pvdz iop(5/13=1,5/36=2,99/5=2) pseudo=read geom=check gue
 ss=(read,tcheck) scf=(maxcycle=1)
 ----------------------------------------------------------------------
 -----
 title
 -----
 Structure from the checkpoint file:  "HB300SPXx10_1451_5.08_0.80_methylcyanate_phosphineF2_dimer_mol1.chk"
 Charge =  0 Multiplicity = 1

                         Standard orientation:
 ---------------------------------------------------------------------
 Center     Atomic      Atomic             Coordinates (Angstroms)
 Number     Number       Type             X           Y           Z
 ---------------------------------------------------------------------
      1          1           0       -2.510378   -1.061412    1.326183
      2          1           0       -3.096535   -1.794519   -0.194826
      3          1           0       -1.337578   -1.635593    0.100328
      4          6           0       -2.317617   -1.200019    0.265848
      5          8           0       -2.387568    0.097732   -0.406908
      6          6           0       -1.515613    0.958375   -0.041276
      7          7           0       -0.735248    1.754243    0.262414
      8         15           0        1.473789    0.319835   -0.159991
      9          9           0        0.540080   -0.992472   -0.077452
     10          9           0        2.881612   -0.410499    0.082150
     11          1           0        1.289092    0.709042    1.196839
 ---------------------------------------------------------------------

 SCF Done:  E(RHF) =  -747.213163367     A.U. after    2 cycles

 The electronic state is 1-A.
 Alpha  occ. eigenvalues --  -81.38318 -26.14153 -26.12368 -20.68368 -15.64932
 Alpha  occ. eigenvalues --  -11.37204 -11.33835  -7.87076  -5.01194  -5.00927
 Alpha  occ. eigenvalues --   -5.00376  -1.67581  -1.65192  -1.45830  -1.21260
 Alpha  occ. eigenvalues --   -1.01997  -0.89888  -0.81773  -0.79312  -0.77931
 Alpha  occ. eigenvalues --   -0.77056  -0.73299  -0.72979  -0.71649  -0.70338
 Alpha  occ. eigenvalues --   -0.62884  -0.59801  -0.58640  -0.55889  -0.47644
 Alpha  occ. eigenvalues --   -0.46553  -0.38861
 Alpha virt. eigenvalues --    0.02700   0.04665   0.05254   0.06137   0.07016
 Alpha virt. eigenvalues --    0.09058   0.09530   0.10628   0.11428   0.11763
 Alpha virt. eigenvalues --    0.13673   0.14525   0.14797   0.15443   0.16027

 Mulliken charges:
               1
     1  H   -0.107059
     2  H   -0.168618
     3  H   -0.079851
     4  C    0.949051
     5  O   -0.392469
     6  C   -0.154692
     7  N   -0.057152
     8  P    1.238657
     9  F   -0.660209
    10  F   -0.644077
    11  H    0.076419
 Sum of Mulliken charges =  -0.00000

 Dipole moment (field-independent basis, Debye):
    X=             -3.1136    Y=             -1.9848    Z=              0.8186  Tot=              3.7820

 Test job not archived.
 1\1\GINC-SE135\SP\RHF\Aug-CC-pVDZ\C2H4F2N1O1P1\OHZDE\09-Apr-2025\0\\#t
  hf aug-cc-pvdz iop(5/13=1,5/36=2,99/5=2) pseudo=read geom=check guess
 =(read,tcheck) scf=(maxcycle=1)\\title\\0,1\H,0,-2.89287834,1.38344137
 ,-2.41875402\H,0,-2.88368966,0.15494314,-3.71690786\H,0,-2.33807438,-0
 .28314113,-2.0686702\C,0,-2.39546429,0.50243917,-2.8151059\O,0,-1.0419
 8507,0.86597867,-3.23651367\C,0,-0.26338211,1.27221362,-2.30729377\N,0
 ,0.4658792,1.6354549,-1.48824768\P,0,0.26118849,-0.44369977,0.17037027
 \F,0,-1.12641375,-0.79594142,-0.57209914\F,0,0.01392836,-1.31158332,1.

 Normal termination of Gaussian 16 at Wed Apr  9 17:58:54 2025.
