 Gaussian 16, Revision C.01,

 ----------------------------------------------------------------------
 #t hf aug-cc-pvdz symm=none int=(grid=ultrafine) guess=(read,tcheck) s
 table=(opt,rrhf)
 ----------------------------------------------------------------------
 -----
 title
 -----
 Symbolic Z-matrix:
 Charge =  0 Multiplicity = 1

 SCF Done:  E(RHF) =  -1102.15471040     A.U. after   13 cycles
 Normal termination of Gaussian 16 at Wed Apr  9 17:38:08 2025.
 Gaussian 16:  ES64L-G16RevC.01  3-Jul-2019

 ----------------------------------------------------------------------
 #t hf aug-cc-pvdz iop(5/13=1,5/36=2,99/5=2) pseudo=read geom=check gue
 ss=(read,tcheck) scf=(maxcycle=1)
 ----------------------------------------------------------------------
 -----
 title
 -----
 Structure from the checkpoint file:  "HB300SPXx10_1119_4.15_1.50_aceticacid_dimethyldisulfide_dimer_mol1.chk"
 Charge =  0 Multiplicity = 1

                         Standard orientation:
 ---------------------------------------------------------------------
 Center     Atomic      Atomic             Coordinates (Angstroms)
 Number     Number       Type             X           Y           Z
 ---------------------------------------------------------------------
      1          6           0        3.493888   -0.058077   -0.020391
      2          8           0        3.034835    1.052251   -0.139137
      3          8           0        2.740867   -1.169246   -0.021182
      4          1           0        1.802481   -0.911395   -0.145128
      5          6           0        4.954703   -0.372687    0.144067
      6          1           0        5.529025    0.546790    0.160658
      7          1           0        5.111346   -0.930218    1.066404
      8          1           0        5.287976   -1.006188   -0.676982
      9          1           0       -5.016880   -0.974480    0.306590
     10          1           0       -4.395472   -0.285275   -1.208551
     11          1           0       -4.462377    0.709450    0.271591
     12          1           0       -0.944697    1.398676    1.538310
     13          1           0       -2.103786    2.358969    0.576819
     14          1           0       -0.364258    2.357754    0.164687
     15          6           0       -4.292695   -0.286519   -0.127507
     16         16           0       -2.652802   -0.912311    0.354298
     17         16           0       -1.373671    0.372947   -0.606603
     18          6           0       -1.193465    1.767565    0.548002
 ---------------------------------------------------------------------

 SCF Done:  E(RHF) =  -1102.30085056     A.U. after    2 cycles

 The electronic state is 1-A.
 Alpha  occ. eigenvalues --  -93.55519 -93.55489 -20.62320 -20.56054 -11.39902
 Alpha  occ. eigenvalues --  -11.27036 -11.26713 -11.25245  -8.85147  -8.85120
 Alpha  occ. eigenvalues --   -6.19316  -6.19211  -6.19004  -6.18973  -6.18700
 Alpha  occ. eigenvalues --   -6.18660  -1.42285  -1.32313  -1.07229  -1.02041
 Alpha  occ. eigenvalues --   -1.00300  -0.90013  -0.83466  -0.77750  -0.71522
 Alpha  occ. eigenvalues --   -0.69051  -0.66044  -0.61360  -0.60278  -0.59939
 Alpha  occ. eigenvalues --   -0.59151  -0.58542  -0.57506  -0.56558  -0.53078
 Alpha  occ. eigenvalues --   -0.49747  -0.48843  -0.46863  -0.43750  -0.35900
 Alpha  occ. eigenvalues --   -0.35081
 Alpha virt. eigenvalues --    0.03509   0.03860   0.04884   0.05400   0.05877
 Alpha virt. eigenvalues --    0.06037   0.06269   0.07217   0.07660   0.08329
 Alpha virt. eigenvalues --    0.09875   0.10381   0.11199   0.11998   0.13594

 Mulliken charges:
               1
     1  C    0.316980
     2  O   -0.453732
     3  O   -0.450729
     4  H    0.183761
     5  C    0.361522
     6  H   -0.021309
     7  H    0.029638
     8  H    0.032533
     9  H   -0.077209
    10  H   -0.034794
    11  H   -0.066709
    12  H   -0.046742
    13  H   -0.100846
    14  H   -0.063531
    15  C    0.067494
    16  S    0.098900
    17  S    0.103654
    18  C    0.121117
 Sum of Mulliken charges =  -0.00000

 Dipole moment (field-independent basis, Debye):
    X=             -0.6782    Y=             -0.0409    Z=              0.7910  Tot=              1.0427

 Test job not archived.
 1\1\GINC-SE219\SP\RHF\Aug-CC-pVDZ\C4H10O2S2\OHZDE\09-Apr-2025\0\\#t hf
  aug-cc-pvdz iop(5/13=1,5/36=2,99/5=2) pseudo=read geom=check guess=(r
 ead,tcheck) scf=(maxcycle=1)\\title\\0,1\C,0,2.51189353,-1.3688008,0.0
 1480743\O,0,1.76216303,-1.97148126,0.7444221\O,0,2.20838592,-0.1819016
 3,-0.53372859\H,0,1.31541707,0.08523139,-0.22768185\C,0,3.88111819,-1.
 83853704,-0.39087365\H,0,4.08390343,-2.80677129,0.05292751\H,0,3.94369
 33,-1.90220497,-1.47628393\H,0,4.62800978,-1.11523999,-0.06604891\H,0,
 -4.91342991,2.89792805,-0.18387502\H,0,-4.15166782,2.7945492,1.4179473

 Normal termination of Gaussian 16 at Wed Apr  9 17:38:15 2025.
