 Gaussian 16, Revision C.01,

 ----------------------------------------------------------------------
 #t hf aug-cc-pvdz symm=none int=(grid=ultrafine) guess=(read,tcheck) s
 table=(opt,rrhf)
 ----------------------------------------------------------------------
 -----
 title
 -----
 Symbolic Z-matrix:
 Charge =  0 Multiplicity = 1

 SCF Done:  E(RHF) =  -601.588096008     A.U. after   14 cycles
 Normal termination of Gaussian 16 at Wed Apr  9 17:20:06 2025.
 Gaussian 16:  ES64L-G16RevC.01  3-Jul-2019

 ----------------------------------------------------------------------
 #t hf aug-cc-pvdz iop(5/13=1,5/36=2,99/5=2) pseudo=read geom=check gue
 ss=(read,tcheck) scf=(maxcycle=1)
 ----------------------------------------------------------------------
 -----
 title
 -----
 Structure from the checkpoint file:  "HB300SPXx10_101_1.11_0.80_sulfane_methylazide_dimer_mol1.chk"
 Charge =  0 Multiplicity = 1

                         Standard orientation:
 ---------------------------------------------------------------------
 Center     Atomic      Atomic             Coordinates (Angstroms)
 Number     Number       Type             X           Y           Z
 ---------------------------------------------------------------------
      1          1           0       -1.052432   -0.510252   -0.010883
      2          1           0       -2.543433   -0.477591    1.237987
      3         16           0       -2.383806   -0.329150   -0.085127
      4          1           0        1.015338    1.955139   -0.906524
      5          1           0        1.057261    1.990255    0.873357
      6          1           0       -0.485369    1.787973    0.022347
      7          6           0        0.571804    1.547266    0.002724
      8          7           0        0.664808    0.078039    0.029836
      9          7           0        1.795615   -0.393803    0.004122
     10          7           0        2.785107   -0.936053   -0.015472
 ---------------------------------------------------------------------

 SCF Done:  E(RHF) =  -601.671750690     A.U. after    2 cycles

 The electronic state is 1-A.
 Alpha  occ. eigenvalues --  -93.52008 -15.86610 -15.75044 -15.68670 -11.29520
 Alpha  occ. eigenvalues --   -8.81911  -6.16113  -6.15903  -6.15566  -1.47091
 Alpha  occ. eigenvalues --   -1.28091  -1.00378  -0.94935  -0.74738  -0.72070
 Alpha  occ. eigenvalues --   -0.71843  -0.67042  -0.60336  -0.58598  -0.56824
 Alpha  occ. eigenvalues --   -0.49035  -0.42948  -0.38864  -0.36257
 Alpha virt. eigenvalues --    0.03139   0.04502   0.04964   0.06170   0.07617
 Alpha virt. eigenvalues --    0.09622   0.10685   0.11095   0.11894   0.12286
 Alpha virt. eigenvalues --    0.13881   0.14596   0.15984   0.16233   0.18221

 Mulliken charges:
               1
     1  H    0.066691
     2  H    0.021932
     3  S   -0.079126
     4  H   -0.050485
     5  H   -0.051628
     6  H   -0.221139
     7  C    0.823815
     8  N   -0.699924
     9  N    0.456478
    10  N   -0.266613
 Sum of Mulliken charges =  -0.00000

 Dipole moment (field-independent basis, Debye):
    X=              1.6036    Y=              1.8768    Z=              0.7460  Tot=              2.5788

 Test job not archived.
 1\1\GINC-SE103\SP\RHF\Aug-CC-pVDZ\C1H5N3S1\OHZDE\09-Apr-2025\0\\#t hf
 aug-cc-pvdz iop(5/13=1,5/36=2,99/5=2) pseudo=read geom=check guess=(re
 ad,tcheck) scf=(maxcycle=1)\\title\\0,1\H,0,1.21774303,0.78814331,-0.0
 7896573\H,0,1.90622629,2.11329938,-1.32547278\S,0,1.84165876,1.9773473
 1,0.00700442\H,0,-1.86902297,0.43536821,1.14717677\H,0,-2.11986449,0.5
 414817,-0.61259186\H,0,-0.97705863,1.6331311,0.19185848\C,0,-1.3850329
 4,0.62839831,0.18889275\N,0,-0.2482654,-0.28186378,-0.0283513\N,0,-0.5
 1005325,-1.47885691,-0.0547292\N,0,-0.63439382,-2.59966989,-0.09752469

 Normal termination of Gaussian 16 at Wed Apr  9 17:20:10 2025.
