 Gaussian 16, Revision C.01,

 ----------------------------------------------------------------------
 #t hf aug-cc-pvdz symm=none int=(grid=ultrafine) guess=(read,tcheck) s
 table=(opt,rrhf)
 ----------------------------------------------------------------------
 -----
 title
 -----
 Symbolic Z-matrix:
 Charge =  0 Multiplicity = 1

 SCF Done:  E(RHF) =  -215.887713991     A.U. after   13 cycles
 Normal termination of Gaussian 16 at Wed Apr  9 17:56:36 2025.
 Gaussian 16:  ES64L-G16RevC.01  3-Jul-2019

 ----------------------------------------------------------------------
 #t hf aug-cc-pvdz iop(5/13=1,5/36=2,99/5=2) pseudo=read geom=check gue
 ss=(read,tcheck) scf=(maxcycle=1)
 ----------------------------------------------------------------------
 -----
 title
 -----
 Structure from the checkpoint file:  "HB300SPXx10_1414_5.04_0.95_ethyne_methylfluoride_dimer_mol1.chk"
 Charge =  0 Multiplicity = 1

                         Standard orientation:
 ---------------------------------------------------------------------
 Center     Atomic      Atomic             Coordinates (Angstroms)
 Number     Number       Type             X           Y           Z
 ---------------------------------------------------------------------
      1          6           0        1.053888    1.222019    0.000000
      2          1           0        0.000000    1.074260    0.000000
      3          6           0        2.240629    1.372389    0.000000
      4          1           0        3.292550    1.512511    0.000000
      5          1           0       -1.335050   -2.118779    0.893893
      6          1           0       -1.335050   -2.118779   -0.893893
      7          1           0        0.070132   -1.468985    0.000000
      8          6           0       -1.011313   -1.589764    0.000000
      9          9           0       -1.599089   -0.323121    0.000000
 ---------------------------------------------------------------------

 SCF Done:  E(RHF) =  -215.965490157     A.U. after    2 cycles

 The electronic state is 1-A'.
 Alpha  occ. eigenvalues --  -26.11457 -11.32539 -11.24697 -11.24270  -1.64477
 Alpha  occ. eigenvalues --   -1.02241  -0.97820  -0.77295  -0.74960  -0.74196
 Alpha  occ. eigenvalues --   -0.72270  -0.67132  -0.56142  -0.56100  -0.40996
 Alpha  occ. eigenvalues --   -0.40960
 Alpha virt. eigenvalues --    0.03358   0.04156   0.05590   0.05802   0.07014
 Alpha virt. eigenvalues --    0.10670   0.11465   0.12178   0.12710   0.14484
 Alpha virt. eigenvalues --    0.14798   0.15744   0.17311   0.17353   0.18679

 Mulliken charges:
               1
     1  C    0.371181
     2  H   -0.245592
     3  C    0.198576
     4  H   -0.313928
     5  H   -0.105186
     6  H   -0.105186
     7  H   -0.156517
     8  C    0.815924
     9  F   -0.459271
 Sum of Mulliken charges =  -0.00000

 Dipole moment (field-independent basis, Debye):
    X=              0.7356    Y=             -2.2652    Z=              0.0000  Tot=              2.3816

 Test job not archived.
 1\1\GINC-SE114\SP\RHF\Aug-CC-pVDZ\C3H5F1\OHZDE\09-Apr-2025\0\\#t hf au
 g-cc-pvdz iop(5/13=1,5/36=2,99/5=2) pseudo=read geom=check guess=(read
 ,tcheck) scf=(maxcycle=1)\\title\\0,1\C,0,0.31595013,-1.6374503,0.\H,0
 ,0.81540337,-0.69773821,0.\C,0,-0.25942719,-2.68621438,0.\H,0,-0.76390
 634,-3.61984886,0.\H,0,-0.98456394,2.25826816,0.8938929\H,0,-0.9845639
 4,2.25826816,-0.8938929\H,0,-1.28406066,0.73936422,0.\C,0,-0.746585,1.
 68553072,0.\F,0,0.62376995,1.41721698,0.\\Version=ES64L-G16RevC.01\Sta
 te=1-A'\HF=-215.9654902\RMSD=6.515e-03\Dipole=-0.8912313,0.2892547,0.\

 Normal termination of Gaussian 16 at Wed Apr  9 17:56:38 2025.
