 Gaussian 16, Revision C.01,

 ----------------------------------------------------------------------
 #t hf aug-cc-pvdz symm=none int=(grid=ultrafine) guess=(read,tcheck) s
 table=(opt,rrhf)
 ----------------------------------------------------------------------
 -----
 title
 -----
 Symbolic Z-matrix:
 Charge =  0 Multiplicity = 1

 SCF Done:  E(RHF) =  -1121.34733876     A.U. after   13 cycles
 Normal termination of Gaussian 16 at Wed Apr  9 17:35:43 2025.
 Gaussian 16:  ES64L-G16RevC.01  3-Jul-2019

 ----------------------------------------------------------------------
 #t hf aug-cc-pvdz iop(5/13=1,5/36=2,99/5=2) pseudo=read geom=check gue
 ss=(read,tcheck) scf=(maxcycle=1)
 ----------------------------------------------------------------------
 -----
 title
 -----
 Structure from the checkpoint file:  "HB300SPXx10_1098_4.13_1.25_Nmethylacetamide_dimethyldisulfide_dimer_mol1.chk"
 Charge =  0 Multiplicity = 1

                         Standard orientation:
 ---------------------------------------------------------------------
 Center     Atomic      Atomic             Coordinates (Angstroms)
 Number     Number       Type             X           Y           Z
 ---------------------------------------------------------------------
      1          6           0       -2.122627    1.675913   -0.756850
      2          1           0       -1.457809    1.488018   -1.599986
      3          1           0       -1.546762    2.126977    0.048959
      4          1           0       -2.895125    2.365610   -1.085699
      5          6           0       -2.772408    0.365402   -0.358014
      6          8           0       -3.693913   -0.114455   -0.996300
      7          7           0       -2.245725   -0.225131    0.746573
      8          1           0       -1.407085    0.170451    1.138462
      9          6           0       -2.640800   -1.550250    1.176813
     10          1           0       -3.648912   -1.739941    0.821732
     11          1           0       -1.978843   -2.318493    0.771483
     12          1           0       -2.623497   -1.608297    2.263479
     13          1           0        3.042955   -2.207624   -1.740415
     14          1           0        3.625348   -1.964184   -0.079198
     15          1           0        3.841832   -0.686023   -1.305647
     16          1           0        1.565751    2.327046   -0.473830
     17          1           0        3.290784    1.893265   -0.344958
     18          1           0        2.486780    2.738204    0.990669
     19          6           0        3.189628   -1.476896   -0.946211
     20         16           0        1.534784   -0.831460   -0.549039
     21         16           0        1.897577    0.443747    1.015565
     22          6           0        2.355902    2.004157    0.196752
 ---------------------------------------------------------------------

 SCF Done:  E(RHF) =  -1121.49786294     A.U. after    2 cycles

 The electronic state is 1-A.
 Alpha  occ. eigenvalues --  -93.56627 -93.56410 -20.51825 -15.63817 -11.35053
 Alpha  occ. eigenvalues --  -11.28043 -11.27802 -11.25865 -11.23775  -8.86245
 Alpha  occ. eigenvalues --   -8.86039  -6.20390  -6.20166  -6.20101  -6.19896
 Alpha  occ. eigenvalues --   -6.19814  -6.19580  -1.33229  -1.18650  -1.08267
 Alpha  occ. eigenvalues --   -1.01272  -1.00453  -0.91775  -0.91092  -0.78789
 Alpha  occ. eigenvalues --   -0.77666  -0.68565  -0.64814  -0.62749  -0.62341
 Alpha  occ. eigenvalues --   -0.61334  -0.60972  -0.59398  -0.58189  -0.57919
 Alpha  occ. eigenvalues --   -0.54848  -0.54200  -0.53912  -0.50532  -0.49905
 Alpha  occ. eigenvalues --   -0.44785  -0.42646  -0.38340  -0.37000  -0.35996
 Alpha virt. eigenvalues --    0.02829   0.03678   0.04146   0.04646   0.05487
 Alpha virt. eigenvalues --    0.05803   0.06107   0.06914   0.07448   0.08124
 Alpha virt. eigenvalues --    0.08176   0.08789   0.09180   0.10629   0.10931

 Mulliken charges:
               1
     1  C    0.365905
     2  H    0.040247
     3  H   -0.106929
     4  H   -0.021737
     5  C    0.319373
     6  O   -0.568299
     7  N   -0.259985
     8  H   -0.079759
     9  C    0.756852
    10  H   -0.169413
    11  H   -0.102764
    12  H   -0.170648
    13  H   -0.074681
    14  H   -0.039032
    15  H   -0.086535
    16  H   -0.110209
    17  H   -0.095260
    18  H   -0.069159
    19  C    0.024388
    20  S    0.254743
    21  S    0.059442
    22  C    0.133460
 Sum of Mulliken charges =  -0.00000

 Dipole moment (field-independent basis, Debye):
    X=              5.7487    Y=              1.5094    Z=              1.3611  Tot=              6.0974

 Test job not archived.
 1\1\GINC-SE162\SP\RHF\Aug-CC-pVDZ\C5H13N1O1S2\OHZDE\09-Apr-2025\0\\#t
 hf aug-cc-pvdz iop(5/13=1,5/36=2,99/5=2) pseudo=read geom=check guess=
 (read,tcheck) scf=(maxcycle=1)\\title\\0,1\C,0,-1.31055971,-0.36190707
 ,2.17525478\H,0,-0.76310857,0.57466921,2.28149083\H,0,-0.59510431,-1.1
 7658722,2.08130356\H,0,-1.91110445,-0.50300543,3.06969011\C,0,-2.23351
 851,-0.24400233,0.97818704\O,0,-3.28055753,0.37845097,1.03390772\N,0,-
 1.80028089,-0.8717422,-0.1463058\H,0,-0.86873727,-1.25332097,-0.144399
 63\C,0,-2.47826303,-0.73306099,-1.41840567\H,0,-3.52176476,-0.50262299

 Normal termination of Gaussian 16 at Wed Apr  9 17:35:55 2025.
