 Gaussian 16, Revision C.01,

 ----------------------------------------------------------------------
 #t hf aug-cc-pvdz symm=none int=(grid=ultrafine) guess=(read,tcheck) s
 table=(opt,rrhf)
 ----------------------------------------------------------------------
 -----
 title
 -----
 Symbolic Z-matrix:
 Charge =  0 Multiplicity = 1

 SCF Done:  E(RHF) =  -914.492053800     A.U. after   12 cycles

 1\1\GINC-SE029\Stability\RHF\Aug-CC-pVDZ\C3H10S2\OHZDE\09-Apr-2025\0\\
 #t hf aug-cc-pvdz symm=none int=(grid=ultrafine) guess=(read,tcheck) s
 table=(opt,rrhf)\\title\\0,1\H,0,2.306559,-2.0578968,-0.64952301\H,0,3
 .32031438,-1.47471252,0.67641305\H,0,2.52307119,-0.31083024,-0.3888258
 5\H,0,0.07002633,-1.01993654,0.36023035\C,0,2.42249764,-1.27751778,0.0
 9684023\S,0,1.02865784,-1.2837739,1.27093846\H,0,0.7459842,1.43540162,
 0.09782784\H,0,-0.16682454,2.7140427,-0.74549305\H,0,0.84804052,1.5944
 1081,-1.66783087\H,0,-2.95972083,0.19360205,0.49006805\H,0,-2.43578692

 Normal termination of Gaussian 16 at Wed Apr  9 17:45:48 2025.
 Gaussian 16:  ES64L-G16RevC.01  3-Jul-2019

 ----------------------------------------------------------------------
 #t hf aug-cc-pvdz iop(5/13=1,5/36=2,99/5=2) pseudo=read geom=check gue
 ss=(read,tcheck) scf=(maxcycle=1)
 ----------------------------------------------------------------------
 -----
 title
 -----
 Structure from the checkpoint file:  "HB300SPXx10_1184_4.23_0.95_methanethiol_dimethylsulfide_dimer_mol1.chk"
 Charge =  0 Multiplicity = 1

                         Standard orientation:
 ---------------------------------------------------------------------
 Center     Atomic      Atomic             Coordinates (Angstroms)
 Number     Number       Type             X           Y           Z
 ---------------------------------------------------------------------
      1          1           0        2.666561    0.978973   -1.283575
      2          1           0        3.517244    0.867748    0.262349
      3          1           0        1.919508    1.621474    0.198379
      4          1           0        0.681120   -0.623162   -0.515311
      5          6           0        2.541557    0.832274   -0.214769
      6         16           0        1.843069   -0.812797    0.141870
      7          1           0       -0.278833    0.940794    1.269905
      8          1           0       -1.961606    1.516347    1.397757
      9          1           0       -0.835120    2.311166    0.287116
     10          1           0       -2.280410   -1.996268   -0.402078
     11          1           0       -2.829984   -1.039247    0.983412
     12          1           0       -1.131393   -1.563867    0.878104
     13          6           0       -1.122827    1.357501    0.722871
     14         16           0       -1.593283    0.262731   -0.640751
     15          6           0       -1.996006   -1.225261    0.309571
 ---------------------------------------------------------------------

 SCF Done:  E(RHF) =  -914.575761614     A.U. after    2 cycles

 The electronic state is 1-A.
 Alpha  occ. eigenvalues --  -93.53235 -93.52203 -11.26492 -11.26439 -11.26365
 Alpha  occ. eigenvalues --   -8.82985  -8.81998  -6.17133  -6.16918  -6.16668
 Alpha  occ. eigenvalues --   -6.16162  -6.15962  -6.15640  -1.05792  -1.01990
 Alpha  occ. eigenvalues --   -0.95419  -0.85441  -0.80748  -0.62298  -0.61169
 Alpha  occ. eigenvalues --   -0.59783  -0.59025  -0.58512  -0.57140  -0.52023
 Alpha  occ. eigenvalues --   -0.50073  -0.45245  -0.43847  -0.34774  -0.34020
 Alpha virt. eigenvalues --    0.03502   0.04188   0.04867   0.05366   0.06363
 Alpha virt. eigenvalues --    0.06867   0.07004   0.07879   0.09004   0.10073
 Alpha virt. eigenvalues --    0.10461   0.13095   0.13472   0.14336   0.14777

 Mulliken charges:
               1
     1  H   -0.119911
     2  H   -0.099767
     3  H   -0.156243
     4  H    0.185408
     5  C    0.123422
     6  S    0.110068
     7  H   -0.148633
     8  H   -0.138058
     9  H   -0.096981
    10  H   -0.091119
    11  H   -0.084196
    12  H   -0.201447
    13  C    0.287774
    14  S    0.189946
    15  C    0.239737
 Sum of Mulliken charges =  -0.00000

 Dipole moment (field-independent basis, Debye):
    X=             -0.5223    Y=              1.2351    Z=              0.9968  Tot=              1.6709

 Test job not archived.
 1\1\GINC-SE029\SP\RHF\Aug-CC-pVDZ\C3H10S2\OHZDE\09-Apr-2025\0\\#t hf a
 ug-cc-pvdz iop(5/13=1,5/36=2,99/5=2) pseudo=read geom=check guess=(rea
 d,tcheck) scf=(maxcycle=1)\\title\\0,1\H,0,2.306559,-2.0578968,-0.6495
 2301\H,0,3.32031438,-1.47471252,0.67641305\H,0,2.52307119,-0.31083024,
 -0.38882585\H,0,0.07002633,-1.01993654,0.36023035\C,0,2.42249764,-1.27
 751778,0.09684023\S,0,1.02865784,-1.2837739,1.27093846\H,0,0.7459842,1
 .43540162,0.09782784\H,0,-0.16682454,2.7140427,-0.74549305\H,0,0.84804
 052,1.59441081,-1.66783087\H,0,-2.95972083,0.19360205,0.49006805\H,0,-

 Normal termination of Gaussian 16 at Wed Apr  9 17:45:55 2025.
