 Gaussian 16, Revision C.01,

 ----------------------------------------------------------------------
 #t hf aug-cc-pvdz symm=none int=(grid=ultrafine) guess=(read,tcheck) s
 table=(opt,rrhf)
 ----------------------------------------------------------------------
 -----
 title
 -----
 Symbolic Z-matrix:
 Charge =  0 Multiplicity = 1

 SCF Done:  E(RHF) =  -747.043380240     A.U. after   14 cycles
 Normal termination of Gaussian 16 at Wed Apr  9 17:59:22 2025.
 Gaussian 16:  ES64L-G16RevC.01  3-Jul-2019

 ----------------------------------------------------------------------
 #t hf aug-cc-pvdz iop(5/13=1,5/36=2,99/5=2) pseudo=read geom=check gue
 ss=(read,tcheck) scf=(maxcycle=1)
 ----------------------------------------------------------------------
 -----
 title
 -----
 Structure from the checkpoint file:  "HB300SPXx10_1460_5.08_2.00_methylcyanate_phosphineF2_dimer_mol1.chk"
 Charge =  0 Multiplicity = 1

                         Standard orientation:
 ---------------------------------------------------------------------
 Center     Atomic      Atomic             Coordinates (Angstroms)
 Number     Number       Type             X           Y           Z
 ---------------------------------------------------------------------
      1          1           0       -4.231929   -1.058047    1.286937
      2          1           0       -4.834250   -1.727069   -0.257120
      3          1           0       -3.084269   -1.782351    0.118124
      4          6           0       -4.009859   -1.228510    0.237029
      5          8           0       -3.889346    0.062091   -0.442292
      6          6           0       -2.935724    0.812541   -0.039638
      7          7           0       -2.078057    1.509389    0.297130
      8         15           0        2.877706    0.421233   -0.158599
      9          9           0        1.787096   -0.765966   -0.114984
     10          9           0        4.172741   -0.473997    0.150322
     11          1           0        2.680996    0.842005    1.187075
 ---------------------------------------------------------------------

 SCF Done:  E(RHF) =  -747.221344582     A.U. after    2 cycles

 The electronic state is 1-A.
 Alpha  occ. eigenvalues --  -81.39702 -26.13794 -26.13526 -20.67526 -15.63483
 Alpha  occ. eigenvalues --  -11.35102 -11.34452  -7.88435  -5.02538  -5.02264
 Alpha  occ. eigenvalues --   -5.01785  -1.67218  -1.65646  -1.44992  -1.18995
 Alpha  occ. eigenvalues --   -1.01837  -0.89803  -0.81134  -0.79121  -0.77608
 Alpha  occ. eigenvalues --   -0.76766  -0.73542  -0.72512  -0.71114  -0.70809
 Alpha  occ. eigenvalues --   -0.61872  -0.60055  -0.58606  -0.55147  -0.45984
 Alpha  occ. eigenvalues --   -0.44273  -0.40811
 Alpha virt. eigenvalues --    0.02538   0.04611   0.05133   0.05614   0.06534
 Alpha virt. eigenvalues --    0.07566   0.08094   0.09379   0.11005   0.11558
 Alpha virt. eigenvalues --    0.12972   0.13835   0.14269   0.15090   0.15604

 Mulliken charges:
               1
     1  H   -0.050843
     2  H   -0.167133
     3  H   -0.059348
     4  C    0.827742
     5  O   -0.377421
     6  C   -0.071637
     7  N   -0.102286
     8  P    1.227772
     9  F   -0.622112
    10  F   -0.606792
    11  H    0.002059
 Sum of Mulliken charges =  -0.00000

 Dipole moment (field-independent basis, Debye):
    X=             -2.9116    Y=             -2.0266    Z=              0.6478  Tot=              3.6062

 Test job not archived.
 1\1\GINC-SE103\SP\RHF\Aug-CC-pVDZ\C2H4F2N1O1P1\OHZDE\09-Apr-2025\0\\#t
  hf aug-cc-pvdz iop(5/13=1,5/36=2,99/5=2) pseudo=read geom=check guess
 =(read,tcheck) scf=(maxcycle=1)\\title\\0,1\H,0,-2.89287834,1.38344137
 ,-2.41875402\H,0,-2.88368966,0.15494314,-3.71690786\H,0,-2.33807438,-0
 .28314113,-2.0686702\C,0,-2.39546429,0.50243917,-2.8151059\O,0,-1.0419
 8507,0.86597867,-3.23651367\C,0,-0.26338211,1.27221362,-2.30729377\N,0
 ,0.4658792,1.6354549,-1.48824768\P,0,2.07867943,-1.2129002,2.41522687\
 F,0,0.69107719,-1.56514185,1.67275746\F,0,1.8314193,-2.08078376,3.7417

 Normal termination of Gaussian 16 at Wed Apr  9 17:59:26 2025.
