 Gaussian 16, Revision C.01,

 ----------------------------------------------------------------------
 #t hf aug-cc-pvdz symm=none int=(grid=ultrafine) guess=(read,tcheck) s
 table=(opt,rrhf)
 ----------------------------------------------------------------------
 -----
 title
 -----
 Symbolic Z-matrix:
 Charge =  0 Multiplicity = 1

 SCF Done:  E(RHF) =  -1037.70144349     A.U. after   14 cycles
 Normal termination of Gaussian 16 at Wed Apr  9 18:02:16 2025.
 Gaussian 16:  ES64L-G16RevC.01  3-Jul-2019

 ----------------------------------------------------------------------
 #t hf aug-cc-pvdz iop(5/13=1,5/36=2,99/5=2) pseudo=read geom=check gue
 ss=(read,tcheck) scf=(maxcycle=1)
 ----------------------------------------------------------------------
 -----
 title
 -----
 Structure from the checkpoint file:  "HB300SPXx10_1477_5.10_1.10_phosphaalkene_phosphineF2_dimer_mol1.chk"
 Charge =  0 Multiplicity = 1

                         Standard orientation:
 ---------------------------------------------------------------------
 Center     Atomic      Atomic             Coordinates (Angstroms)
 Number     Number       Type             X           Y           Z
 ---------------------------------------------------------------------
      1          1           0       -1.898000   -2.904648   -0.582846
      2          1           0       -0.868421   -2.197150    0.663395
      3          1           0       -2.629992   -2.024955    0.758405
      4          1           0       -1.465825    2.161876   -1.515981
      5          1           0       -0.559239    1.178144    1.991144
      6          1           0       -2.252169    2.751790   -0.046955
      7          1           0       -0.500691    2.629388   -0.108501
      8          1           0       -1.455465   -0.341705    2.003329
      9          1           0       -2.308944    1.204436    2.049504
     10         15           0       -1.684156   -0.518844   -0.963566
     11          6           0       -1.506765    0.749822    0.125902
     12          6           0       -1.426299    2.145670   -0.428301
     13          6           0       -1.454691    0.673269    1.620453
     14          6           0       -1.776993   -2.051021    0.081595
     15         15           0        1.904893    0.255394   -0.216606
     16          9           0        3.501622    0.109312   -0.251973
     17          9           0        1.603973   -0.893785    0.858752
     18          1           0        1.665825   -0.551610   -1.367817
 ---------------------------------------------------------------------

 SCF Done:  E(RHF) =  -1037.88125614     A.U. after    2 cycles

 The electronic state is 1-A.
 Alpha  occ. eigenvalues --  -81.39515 -81.24005 -26.14063 -26.13629 -11.27692
 Alpha  occ. eigenvalues --  -11.24406 -11.24129 -11.23308  -7.88257  -7.74572
 Alpha  occ. eigenvalues --   -5.02398  -5.02125  -5.01643  -4.88631  -4.88261
 Alpha  occ. eigenvalues --   -4.88206  -1.67558  -1.66012  -1.07363  -0.96264
 Alpha  occ. eigenvalues --   -0.94871  -0.90046  -0.82631  -0.79541  -0.77913
 Alpha  occ. eigenvalues --   -0.77120  -0.73850  -0.71187  -0.67212  -0.62180
 Alpha  occ. eigenvalues --   -0.60616  -0.60439  -0.59309  -0.57071  -0.55184
 Alpha  occ. eigenvalues --   -0.55133  -0.51880  -0.47127  -0.40711  -0.35909
 Alpha  occ. eigenvalues --   -0.32215
 Alpha virt. eigenvalues --    0.03370   0.04203   0.04467   0.04923   0.06232
 Alpha virt. eigenvalues --    0.06582   0.06816   0.07108   0.07775   0.08017
 Alpha virt. eigenvalues --    0.09221   0.09517   0.10274   0.11012   0.11838

 Mulliken charges:
               1
     1  H   -0.341287
     2  H   -0.171271
     3  H   -0.148920
     4  H   -0.167258
     5  H   -0.031206
     6  H    0.031467
     7  H   -0.008590
     8  H   -0.178359
     9  H    0.013635
    10  P    0.222908
    11  C   -0.606722
    12  C    0.568710
    13  C    0.570426
    14  C    0.262816
    15  P    1.288863
    16  F   -0.647649
    17  F   -0.663232
    18  H    0.005671
 Sum of Mulliken charges =  -0.00000

 Dipole moment (field-independent basis, Debye):
    X=             -1.6859    Y=              0.8317    Z=              0.3012  Tot=              1.9038

 Test job not archived.
 1\1\GINC-SE174\SP\RHF\Aug-CC-pVDZ\C4H10F2P2\OHZDE\09-Apr-2025\0\\#t hf
  aug-cc-pvdz iop(5/13=1,5/36=2,99/5=2) pseudo=read geom=check guess=(r
 ead,tcheck) scf=(maxcycle=1)\\title\\0,1\H,0,-0.66372889,3.26375392,-1
 .41484082\H,0,0.57607353,2.07688321,-1.82463407\H,0,-0.55842324,2.6448
 712,-3.06242126\H,0,-2.87100416,-1.40911587,-1.55416728\H,0,0.42715494
 ,-1.23076192,-3.33739031\H,0,-2.60862974,-1.75549695,-3.26751243\H,0,-
 1.47646146,-2.36750684,-2.07165071\H,0,0.4157342,0.51539066,-3.5906339
 2\H,0,-0.67072928,-0.53226666,-4.50884988\P,0,-1.6570918,1.05342876,-1

 Normal termination of Gaussian 16 at Wed Apr  9 18:02:24 2025.
