 Gaussian 16, Revision C.01,

 ----------------------------------------------------------------------
 #t hf aug-cc-pvdz symm=none int=(grid=ultrafine) guess=(read,tcheck) s
 table=(opt,rrhf)
 ----------------------------------------------------------------------
 -----
 title
 -----
 Symbolic Z-matrix:
 Charge =  0 Multiplicity = 1

 SCF Done:  E(RHF) =  -936.849923604     A.U. after   12 cycles
 Normal termination of Gaussian 16 at Wed Apr  9 17:53:14 2025.
 Gaussian 16:  ES64L-G16RevC.01  3-Jul-2019

 ----------------------------------------------------------------------
 #t hf aug-cc-pvdz iop(5/13=1,5/36=2,99/5=2) pseudo=read geom=check gue
 ss=(read,tcheck) scf=(maxcycle=1)
 ----------------------------------------------------------------------
 -----
 title
 -----
 Structure from the checkpoint file:  "HB300SPXx10_1322_4.37_0.85_hydrogenchloride_dimethylsulfide_dimer_mol1.chk"
 Charge =  0 Multiplicity = 1

                         Standard orientation:
 ---------------------------------------------------------------------
 Center     Atomic      Atomic             Coordinates (Angstroms)
 Number     Number       Type             X           Y           Z
 ---------------------------------------------------------------------
      1          1           0       -0.839650   -0.000003   -0.450314
      2         17           0       -2.067821   -0.000002    0.044907
      3          1           0        0.326158   -1.354202    1.235341
      4          1           0        2.094185   -1.365703    0.989337
      5          1           0        1.037447   -2.299390   -0.084478
      6          1           0        1.037436    2.299393   -0.084479
      7          1           0        2.094175    1.365710    0.989340
      8          1           0        0.326146    1.354203    1.235338
      9          6           0        1.124652   -1.385385    0.497055
     10         16           0        0.973830    0.000001   -0.659885
     11          6           0        1.124644    1.385389    0.497054
 ---------------------------------------------------------------------

 SCF Done:  E(RHF) =  -936.918663774     A.U. after    2 cycles

 The electronic state is 1-A.
 Alpha  occ. eigenvalues -- -103.62219 -93.55722 -11.28036 -11.28019 -10.65666
 Alpha  occ. eigenvalues --   -8.85616  -8.31393  -8.31134  -8.31133  -6.19742
 Alpha  occ. eigenvalues --   -6.19536  -6.19378  -1.12121  -1.07599  -0.97071
 Alpha  occ. eigenvalues --   -0.83313  -0.65294  -0.62713  -0.60152  -0.59043
 Alpha  occ. eigenvalues --   -0.58545  -0.51979  -0.46006  -0.44799  -0.44771
 Alpha  occ. eigenvalues --   -0.36417
 Alpha virt. eigenvalues --    0.03164   0.04237   0.05147   0.05947   0.06963
 Alpha virt. eigenvalues --    0.07867   0.08088   0.09698   0.12288   0.12616
 Alpha virt. eigenvalues --    0.14639   0.15054   0.15663   0.16471   0.16524

 Mulliken charges:
               1
     1  H    0.456972
     2  Cl  -0.300574
     3  H   -0.154784
     4  H   -0.071968
     5  H   -0.097071
     6  H   -0.097070
     7  H   -0.071968
     8  H   -0.154783
     9  C    0.277299
    10  S   -0.063351
    11  C    0.277298
 Sum of Mulliken charges =  -0.00000

 Dipole moment (field-independent basis, Debye):
    X=              3.5020    Y=              0.0000    Z=              1.1222  Tot=              3.6774

 Test job not archived.
 1\1\GINC-SE232\SP\RHF\Aug-CC-pVDZ\C2H7Cl1S1\OHZDE\09-Apr-2025\0\\#t hf
  aug-cc-pvdz iop(5/13=1,5/36=2,99/5=2) pseudo=read geom=check guess=(r
 ead,tcheck) scf=(maxcycle=1)\\title\\0,1\H,0,-0.09169332,-0.01707414,-
 1.03147385\Cl,0,0.64323048,-0.44620369,-2.04605842\H,0,1.66603013,0.71
 530723,0.52043648\H,0,1.01406676,1.15176287,2.12387695\H,0,0.77536044,
 2.23193438,0.73903253\H,0,-1.27732118,-1.87568881,0.98950226\H,0,-0.20
 510395,-1.28793199,2.27263941\H,0,0.45712433,-1.70383436,0.66794268\C,
 0,0.84469381,1.19297906,1.05040738\S,0,-0.72897355,0.4025187,0.6269728

 Normal termination of Gaussian 16 at Wed Apr  9 17:53:17 2025.
