 Gaussian 16, Revision C.01,

 ----------------------------------------------------------------------
 #t hf aug-cc-pvdz symm=none int=(grid=ultrafine) guess=(read,tcheck) s
 table=(opt,rrhf)
 ----------------------------------------------------------------------
 -----
 title
 -----
 Symbolic Z-matrix:
 Charge =  0 Multiplicity = 1

 SCF Done:  E(RHF) =  -1091.83676170     A.U. after   14 cycles
 Normal termination of Gaussian 16 at Wed Apr  9 17:55:45 2025.
 Gaussian 16:  ES64L-G16RevC.01  3-Jul-2019

 ----------------------------------------------------------------------
 #t hf aug-cc-pvdz iop(5/13=1,5/36=2,99/5=2) pseudo=read geom=check gue
 ss=(read,tcheck) scf=(maxcycle=1)
 ----------------------------------------------------------------------
 -----
 title
 -----
 Structure from the checkpoint file:  "HB300SPXx10_1401_5.03_0.80_dimethylsulfoxide_phosphineF2_dimer_mol1.chk"
 Charge =  0 Multiplicity = 1

                         Standard orientation:
 ---------------------------------------------------------------------
 Center     Atomic      Atomic             Coordinates (Angstroms)
 Number     Number       Type             X           Y           Z
 ---------------------------------------------------------------------
      1          1           0        1.763465    1.680216   -1.479225
      2          1           0        2.615092    1.799606    0.079374
      3          1           0        0.818267    1.790421    0.030572
      4          1           0        1.497891   -1.597997    1.677802
      5          1           0        0.723950    0.005402    1.800854
      6          6           0        1.730528    1.416142   -0.425647
      7         16           0        1.739943   -0.393289   -0.342945
      8          8           0        0.441113   -0.858539   -0.922729
      9          6           0        1.599344   -0.538853    1.457428
     10          1           0        2.508472   -0.150860    1.912705
     11         15           0       -1.560087   -0.353713   -0.096212
     12          9           0       -3.107052    0.059069    0.116960
     13          9           0       -0.932230    1.011985    0.500853
     14          1           0       -1.519511    0.036616   -1.460950
 ---------------------------------------------------------------------

 SCF Done:  E(RHF) =  -1092.03821732     A.U. after    2 cycles

 The electronic state is 1-A.
 Alpha  occ. eigenvalues --  -93.67829 -81.35475 -26.11939 -26.08562 -20.55230
 Alpha  occ. eigenvalues --  -11.28668 -11.28177  -8.96352  -7.84111  -6.30672
 Alpha  occ. eigenvalues --   -6.30427  -6.30141  -4.98206  -4.97979  -4.97405
 Alpha  occ. eigenvalues --   -1.65333  -1.61559  -1.34539  -1.07565  -0.98830
 Alpha  occ. eigenvalues --   -0.87406  -0.84225  -0.76590  -0.75687  -0.74784
 Alpha  occ. eigenvalues --   -0.70121  -0.68364  -0.66877  -0.65042  -0.64810
 Alpha  occ. eigenvalues --   -0.62555  -0.59987  -0.57028  -0.55917  -0.54668
 Alpha  occ. eigenvalues --   -0.47545  -0.41181  -0.34953
 Alpha virt. eigenvalues --    0.02651   0.04056   0.04931   0.05603   0.06629
 Alpha virt. eigenvalues --    0.07078   0.07789   0.08527   0.09541   0.10974
 Alpha virt. eigenvalues --    0.12246   0.12573   0.13374   0.14551   0.15046

 Mulliken charges:
               1
     1  H   -0.042734
     2  H   -0.057189
     3  H   -0.081977
     4  H   -0.026732
     5  H   -0.090621
     6  C    0.271360
     7  S    1.014052
     8  O   -1.046062
     9  C    0.235818
    10  H   -0.057732
    11  P    1.217824
    12  F   -0.659009
    13  F   -0.713146
    14  H    0.036147
 Sum of Mulliken charges =   0.00000

 Dipole moment (field-independent basis, Debye):
    X=              5.7435    Y=              1.1799    Z=              1.1099  Tot=              5.9676

 Test job not archived.
 1\1\GINC-SE232\SP\RHF\Aug-CC-pVDZ\C2H7F2O1P1S1\OHZDE\09-Apr-2025\0\\#t
  hf aug-cc-pvdz iop(5/13=1,5/36=2,99/5=2) pseudo=read geom=check guess
 =(read,tcheck) scf=(maxcycle=1)\\title\\0,1\H,0,1.67395499,0.82417178,
 -3.38423362\H,0,0.49124302,-0.02078366,-4.41184902\H,0,0.89589517,-0.6
 6534236,-2.78340018\H,0,-2.718683,0.46280377,-2.2188292\H,0,-1.5421980
 9,-0.87905323,-2.20106353\C,0,0.76564588,0.22768029,-3.38836814\S,0,-0
 .5351395,1.25679703,-2.66046249\O,0,-0.17783951,1.44910918,-1.22000404
 \C,0,-1.85989706,0.022286,-2.71790313\H,0,-2.10168806,-0.18449539,-3.7

 Normal termination of Gaussian 16 at Wed Apr  9 17:55:50 2025.
