 Gaussian 16, Revision C.01,

 ----------------------------------------------------------------------
 #t hf aug-cc-pvdz symm=none int=(grid=ultrafine) guess=(read,tcheck) s
 table=(opt,rrhf)
 ----------------------------------------------------------------------
 -----
 title
 -----
 Symbolic Z-matrix:
 Charge =  0 Multiplicity = 1

 SCF Done:  E(RHF) =  -645.426092224     A.U. after   14 cycles
 Normal termination of Gaussian 16 at Wed Apr  9 17:51:57 2025.
 Gaussian 16:  ES64L-G16RevC.01  3-Jul-2019

 ----------------------------------------------------------------------
 #t hf aug-cc-pvdz iop(5/13=1,5/36=2,99/5=2) pseudo=read geom=check gue
 ss=(read,tcheck) scf=(maxcycle=1)
 ----------------------------------------------------------------------
 -----
 title
 -----
 Structure from the checkpoint file:  "HB300SPXx10_127_1.13_1.10_sulfane_pyridine_dimer_mol1.chk"
 Charge =  0 Multiplicity = 1

                         Standard orientation:
 ---------------------------------------------------------------------
 Center     Atomic      Atomic             Coordinates (Angstroms)
 Number     Number       Type             X           Y           Z
 ---------------------------------------------------------------------
      1          1           0        2.186212   -0.304998   -0.028340
      2          1           0        3.641241   -0.039484    1.252354
      3         16           0        3.504375    0.012437   -0.080397
      4          1           0       -3.108091   -1.819399   -0.004241
      5          1           0       -0.669370   -2.292943   -0.000189
      6          6           0       -2.812939    0.316529   -0.000835
      7          6           0       -2.396054   -1.007324   -0.001486
      8          6           0       -1.033135   -1.273127    0.000943
      9          7           0       -0.106005   -0.316097    0.004153
     10          6           0       -0.513248    0.952729    0.004564
     11          6           0       -1.852895    1.318484    0.002202
     12          1           0        0.268346    1.702578    0.006070
     13          1           0       -2.131241    2.361995    0.002330
     14          1           0       -3.865444    0.562197   -0.003028
 ---------------------------------------------------------------------

 SCF Done:  E(RHF) =  -645.519826737     A.U. after    2 cycles

 The electronic state is 1-A.
 Alpha  occ. eigenvalues --  -93.52472 -15.64039 -11.29402 -11.29321 -11.27651
 Alpha  occ. eigenvalues --  -11.25873 -11.25851  -8.82245  -6.16440  -6.16223
 Alpha  occ. eigenvalues --   -6.15866  -1.24359  -1.08748  -1.03963  -0.94420
 Alpha  occ. eigenvalues --   -0.86753  -0.86586  -0.73587  -0.67592  -0.66342
 Alpha  occ. eigenvalues --   -0.61285  -0.59220  -0.56221  -0.55448  -0.53248
 Alpha  occ. eigenvalues --   -0.47740  -0.41972  -0.39450  -0.36133  -0.35937
 Alpha virt. eigenvalues --    0.02823   0.03680   0.04175   0.05676   0.06037
 Alpha virt. eigenvalues --    0.07144   0.08080   0.08888   0.09680   0.10869
 Alpha virt. eigenvalues --    0.11490   0.12120   0.12981   0.13596   0.13802

 Mulliken charges:
               1
     1  H    0.004156
     2  H    0.016165
     3  S    0.001147
     4  H   -0.417782
     5  H   -0.384230
     6  C   -0.169754
     7  C    0.808026
     8  C    0.501490
     9  N   -0.423164
    10  C    0.526172
    11  C    0.790088
    12  H   -0.431336
    13  H   -0.418825
    14  H   -0.402152
 Sum of Mulliken charges =  -0.00000

 Dipole moment (field-independent basis, Debye):
    X=             -3.7329    Y=              0.2368    Z=              0.7624  Tot=              3.8173

 Test job not archived.
 1\1\GINC-SE113\SP\RHF\Aug-CC-pVDZ\C5H7N1S1\OHZDE\09-Apr-2025\0\\#t hf
 aug-cc-pvdz iop(5/13=1,5/36=2,99/5=2) pseudo=read geom=check guess=(re
 ad,tcheck) scf=(maxcycle=1)\\title\\0,1\H,0,1.25021154,1.5960457,0.136
 91261\H,0,3.15091491,1.84193998,0.53016902\S,0,2.02337536,2.53859467,0
 .73260516\H,0,-1.99290405,-2.01656621,-2.46210106\H,0,-0.4545217,-0.06
 691563,-2.399918\C,0,-1.865623,-2.33448637,-0.33324209\C,0,-1.56902298
 ,-1.68750976,-1.5248085\C,0,-0.70911313,-0.59772586,-1.49119594\N,0,-0
 .15468128,-0.14377613,-0.36779909\C,0,-0.44391605,-0.76950733,0.772626

 Normal termination of Gaussian 16 at Wed Apr  9 17:52:01 2025.
