 Gaussian 16, Revision C.01,

 ----------------------------------------------------------------------
 #t hf aug-cc-pvdz symm=none int=(grid=ultrafine) guess=(read,tcheck) s
 table=(opt,rrhf)
 ----------------------------------------------------------------------
 -----
 title
 -----
 Symbolic Z-matrix:
 Charge =  0 Multiplicity = 1

 SCF Done:  E(RHF) =  -1017.02070479     A.U. after   12 cycles
 Normal termination of Gaussian 16 at Wed Apr  9 17:54:53 2025.
 Gaussian 16:  ES64L-G16RevC.01  3-Jul-2019

 ----------------------------------------------------------------------
 #t hf aug-cc-pvdz iop(5/13=1,5/36=2,99/5=2) pseudo=read geom=check gue
 ss=(read,tcheck) scf=(maxcycle=1)
 ----------------------------------------------------------------------
 -----
 title
 -----
 Structure from the checkpoint file:  "HB300SPXx10_1382_5.01_0.85_dimethylsulfide_phosphineF2_dimer_mol1.chk"
 Charge =  0 Multiplicity = 1

                         Standard orientation:
 ---------------------------------------------------------------------
 Center     Atomic      Atomic             Coordinates (Angstroms)
 Number     Number       Type             X           Y           Z
 ---------------------------------------------------------------------
      1          1           0       -0.532443    0.877344    1.437117
      2          1           0       -2.270855    1.271061    1.420215
      3          1           0       -1.118389    2.267335    0.513952
      4          1           0       -2.007286   -2.072693   -0.710719
      5          1           0       -2.767016   -1.337578    0.708522
      6          1           0       -1.015773   -1.664808    0.701130
      7          6           0       -1.354065    1.255597    0.833675
      8         16           0       -1.564731    0.258033   -0.662879
      9          6           0       -1.866845   -1.358140    0.096825
     10         15           0        1.934354   -0.304762   -0.333132
     11          9           0        1.133778   -0.972031    0.883167
     12          9           0        1.548351    1.223130   -0.077099
     13          1           0        0.918448   -0.542396   -1.304771
 ---------------------------------------------------------------------

 SCF Done:  E(RHF) =  -1017.17958298     A.U. after    2 cycles

 The electronic state is 1-A.
 Alpha  occ. eigenvalues --  -93.52195 -81.39213 -26.14392 -26.14095 -11.25692
 Alpha  occ. eigenvalues --  -11.25480  -8.81989  -7.88036  -6.16135  -6.15925
 Alpha  occ. eigenvalues --   -6.15635  -5.02199  -5.01890  -5.01421  -1.68062
 Alpha  occ. eigenvalues --   -1.66637  -1.04820  -0.94630  -0.90453  -0.80253
 Alpha  occ. eigenvalues --   -0.79946  -0.78383  -0.77737  -0.74486  -0.71775
 Alpha  occ. eigenvalues --   -0.62130  -0.60196  -0.59640  -0.57679  -0.56424
 Alpha  occ. eigenvalues --   -0.49219  -0.43266  -0.40762  -0.33057
 Alpha virt. eigenvalues --    0.03812   0.04659   0.05046   0.05977   0.06687
 Alpha virt. eigenvalues --    0.06806   0.07600   0.08505   0.09454   0.09837
 Alpha virt. eigenvalues --    0.12051   0.13940   0.15062   0.15521   0.16034

 Mulliken charges:
               1
     1  H   -0.115525
     2  H   -0.120030
     3  H   -0.104306
     4  H   -0.111023
     5  H   -0.106534
     6  H   -0.116658
     7  C    0.246170
     8  S    0.230488
     9  C    0.196195
    10  P    1.172770
    11  F   -0.666535
    12  F   -0.599231
    13  H    0.094220
 Sum of Mulliken charges =  -0.00000

 Dipole moment (field-independent basis, Debye):
    X=              0.2579    Y=             -1.1805    Z=             -0.0562  Tot=              1.2097

 Test job not archived.
 1\1\GINC-SE030\SP\RHF\Aug-CC-pVDZ\C2H7F2P1S1\OHZDE\09-Apr-2025\0\\#t h
 f aug-cc-pvdz iop(5/13=1,5/36=2,99/5=2) pseudo=read geom=check guess=(
 read,tcheck) scf=(maxcycle=1)\\title\\0,1\H,0,0.35324965,2.18742239,-0
 .72380577\H,0,0.23256961,2.54349189,-2.46622469\H,0,1.47961489,1.43776
 879,-1.86264863\H,0,-2.97879656,0.33269977,-1.6977403\H,0,-2.43534977,
 1.89515642,-2.32640837\H,0,-2.24831697,1.5140911,-0.59615001\C,0,0.456
 3691,1.7777672,-1.72571744\S,0,-0.61885679,0.337269,-1.94490696\C,0,-2
 .22218849,1.10820804,-1.60517522\P,0,-0.14420876,-0.08535661,1.5572580

 Normal termination of Gaussian 16 at Wed Apr  9 17:54:58 2025.
