 Gaussian 16, Revision C.01,

 ----------------------------------------------------------------------
 #t hf aug-cc-pvdz symm=none int=(grid=ultrafine) guess=(read,tcheck) s
 table=(opt,rrhf)
 ----------------------------------------------------------------------
 -----
 title
 -----
 Symbolic Z-matrix:
 Charge =  0 Multiplicity = 1

 SCF Done:  E(RHF) =  -800.725544856     A.U. after   14 cycles
 Normal termination of Gaussian 16 at Wed Apr  9 17:38:50 2025.
 Gaussian 16:  ES64L-G16RevC.01  3-Jul-2019

 ----------------------------------------------------------------------
 #t hf aug-cc-pvdz iop(5/13=1,5/36=2,99/5=2) pseudo=read geom=check gue
 ss=(read,tcheck) scf=(maxcycle=1)
 ----------------------------------------------------------------------
 -----
 title
 -----
 Structure from the checkpoint file:  "HB300SPXx10_1105_4.14_1.00_Nmethylacetamide_tetrahydrothiophene_dimer_mol1.chk"
 Charge =  0 Multiplicity = 1

                         Standard orientation:
 ---------------------------------------------------------------------
 Center     Atomic      Atomic             Coordinates (Angstroms)
 Number     Number       Type             X           Y           Z
 ---------------------------------------------------------------------
      1          6           0       -2.325180   -1.691762   -0.150682
      2          1           0       -2.234060   -2.181299    0.817623
      3          1           0       -1.473810   -1.956186   -0.774487
      4          1           0       -3.236676   -2.061393   -0.616504
      5          6           0       -2.468203   -0.198862    0.069094
      6          8           0       -3.384938    0.268163    0.725239
      7          7           0       -1.518570    0.568840   -0.523364
      8          1           0       -0.727431    0.115547   -0.958891
      9          6           0       -1.503606    2.009111   -0.382354
     10          1           0       -2.524279    2.363667   -0.272049
     11          1           0       -0.939447    2.331910    0.496732
     12          1           0       -1.059553    2.458201   -1.268337
     13          1           0        1.452584    1.653307   -0.838114
     14          1           0        3.096435    1.149343   -1.237425
     15          1           0        2.553687    1.867439    1.297537
     16          1           0        2.244243   -1.986783    0.903333
     17          1           0        3.543548    0.439956    1.010481
     18          1           0        0.489172   -1.829835    0.778064
     19          1           0        1.753248   -0.272312    2.549757
     20          1           0        0.531695    0.459901    1.514847
     21         16           0        1.609150   -0.755174   -1.080552
     22          6           0        2.227487    0.919781   -0.627196
     23          6           0        2.550218    0.866824    0.865572
     24          6           0        1.502745   -0.035386    1.515876
     25          6           0        1.432161   -1.302349    0.667673
 ---------------------------------------------------------------------

 SCF Done:  E(RHF) =  -800.872424443     A.U. after    2 cycles

 The electronic state is 1-A.
 Alpha  occ. eigenvalues --  -93.53366 -20.51988 -15.63732 -11.35194 -11.27707
 Alpha  occ. eigenvalues --  -11.27569 -11.26554 -11.25342 -11.25128 -11.23908
 Alpha  occ. eigenvalues --   -8.83140  -6.17281  -6.17118  -6.16855  -1.33402
 Alpha  occ. eigenvalues --   -1.18814  -1.12927  -1.00749  -0.99468  -0.97182
 Alpha  occ. eigenvalues --   -0.92248  -0.80817  -0.79519  -0.77859  -0.68923
 Alpha  occ. eigenvalues --   -0.67435  -0.65469  -0.65018  -0.63103  -0.61600
 Alpha  occ. eigenvalues --   -0.58565  -0.58361  -0.56177  -0.55168  -0.54571
 Alpha  occ. eigenvalues --   -0.52168  -0.50861  -0.50553  -0.49499  -0.49097
 Alpha  occ. eigenvalues --   -0.43554  -0.42852  -0.38593  -0.34932
 Alpha virt. eigenvalues --    0.02721   0.03503   0.04175   0.04364   0.05416
 Alpha virt. eigenvalues --    0.05726   0.05958   0.06499   0.07181   0.07836
 Alpha virt. eigenvalues --    0.08487   0.08663   0.09901   0.10276   0.10830

 Mulliken charges:
               1
     1  C    0.559471
     2  H    0.028382
     3  H   -0.225538
     4  H   -0.064094
     5  C    0.196141
     6  O   -0.581187
     7  N   -0.212539
     8  H   -0.001928
     9  C    0.914443
    10  H   -0.240776
    11  H   -0.153804
    12  H   -0.195265
    13  H   -0.294682
    14  H   -0.069737
    15  H   -0.084304
    16  H   -0.149864
    17  H   -0.178579
    18  H   -0.281967
    19  H   -0.064030
    20  H   -0.328217
    21  S    0.283052
    22  C    0.204202
    23  C    0.262687
    24  C    0.380634
    25  C    0.297499
 Sum of Mulliken charges =  -0.00000

 Dipole moment (field-independent basis, Debye):
    X=              4.5895    Y=              0.0561    Z=             -0.2971  Tot=              4.5994

 Test job not archived.
 1\1\GINC-SE103\SP\RHF\Aug-CC-pVDZ\C7H15N1O1S1\OHZDE\09-Apr-2025\0\\#t
 hf aug-cc-pvdz iop(5/13=1,5/36=2,99/5=2) pseudo=read geom=check guess=
 (read,tcheck) scf=(maxcycle=1)\\title\\0,1\C,0,-2.35790997,-0.53076315
 ,1.51380969\H,0,-2.45888814,0.43106478,2.01406411\H,0,-1.4356415,-1.01
 232631,1.83224394\H,0,-3.20368729,-1.14467685,1.81747472\C,0,-2.435185
 38,-0.3119418,0.01592702\O,0,-3.41358688,0.19433185,-0.50891479\N,0,-1
 .3525984,-0.72916607,-0.68842032\H,0,-0.53292762,-1.03795931,-0.184588
 74\C,0,-1.26500492,-0.56327277,-2.12344447\H,0,-2.26409386,-0.61429593

 Normal termination of Gaussian 16 at Wed Apr  9 17:39:09 2025.
