 Gaussian 16, Revision C.01,

 ----------------------------------------------------------------------
 #t hf aug-cc-pvdz symm=none int=(grid=ultrafine) guess=(read,tcheck) s
 table=(opt,rrhf)
 ----------------------------------------------------------------------
 -----
 title
 -----
 Symbolic Z-matrix:
 Charge =  0 Multiplicity = 1

 SCF Done:  E(RHF) =  -645.424824557     A.U. after   14 cycles
 Normal termination of Gaussian 16 at Wed Apr  9 17:51:57 2025.
 Gaussian 16:  ES64L-G16RevC.01  3-Jul-2019

 ----------------------------------------------------------------------
 #t hf aug-cc-pvdz iop(5/13=1,5/36=2,99/5=2) pseudo=read geom=check gue
 ss=(read,tcheck) scf=(maxcycle=1)
 ----------------------------------------------------------------------
 -----
 title
 -----
 Structure from the checkpoint file:  "HB300SPXx10_125_1.13_1.00_sulfane_pyridine_dimer_mol1.chk"
 Charge =  0 Multiplicity = 1

                         Standard orientation:
 ---------------------------------------------------------------------
 Center     Atomic      Atomic             Coordinates (Angstroms)
 Number     Number       Type             X           Y           Z
 ---------------------------------------------------------------------
      1          1           0        2.040360   -0.305488   -0.027445
      2          1           0        3.496096   -0.039831    1.252416
      3         16           0        3.358460    0.012086   -0.080255
      4          1           0       -3.045387   -1.819418   -0.003395
      5          1           0       -0.606613   -2.292705   -0.000745
      6          6           0       -2.750458    0.316541   -0.000141
      7          6           0       -2.333433   -1.007268   -0.001042
      8          6           0       -0.970485   -1.272927    0.000603
      9          7           0       -0.043455   -0.315799    0.003289
     10          6           0       -0.450832    0.952984    0.003944
     11          6           0       -1.790518    1.318598    0.002354
     12          1           0        0.330684    1.702916    0.005008
     13          1           0       -2.068975    2.362079    0.002649
     14          1           0       -3.802990    0.562098   -0.001728
 ---------------------------------------------------------------------

 SCF Done:  E(RHF) =  -645.518441193     A.U. after    2 cycles

 The electronic state is 1-A.
 Alpha  occ. eigenvalues --  -93.51801 -15.64267 -11.29624 -11.29508 -11.27838
 Alpha  occ. eigenvalues --  -11.26041 -11.26012  -8.81609  -6.15808  -6.15594
 Alpha  occ. eigenvalues --   -6.15241  -1.24621  -1.08964  -1.04156  -0.93981
 Alpha  occ. eigenvalues --   -0.86968  -0.86782  -0.73822  -0.67808  -0.66511
 Alpha  occ. eigenvalues --   -0.61461  -0.59717  -0.55847  -0.55575  -0.53425
 Alpha  occ. eigenvalues --   -0.47643  -0.41692  -0.39685  -0.36108  -0.35683
 Alpha virt. eigenvalues --    0.02764   0.03648   0.04211   0.05713   0.06037
 Alpha virt. eigenvalues --    0.07121   0.08029   0.08889   0.09542   0.10847
 Alpha virt. eigenvalues --    0.11400   0.12150   0.13016   0.13546   0.13829

 Mulliken charges:
               1
     1  H    0.018723
     2  H    0.018741
     3  S   -0.007247
     4  H   -0.418995
     5  H   -0.383132
     6  C   -0.166267
     7  C    0.807059
     8  C    0.503019
     9  N   -0.425955
    10  C    0.530162
    11  C    0.784296
    12  H   -0.442215
    13  H   -0.418404
    14  H   -0.399785
 Sum of Mulliken charges =   0.00000

 Dipole moment (field-independent basis, Debye):
    X=             -4.0110    Y=              0.2151    Z=              0.7561  Tot=              4.0873

 Test job not archived.
 1\1\GINC-SE029\SP\RHF\Aug-CC-pVDZ\C5H7N1S1\OHZDE\09-Apr-2025\0\\#t hf
 aug-cc-pvdz iop(5/13=1,5/36=2,99/5=2) pseudo=read geom=check guess=(re
 ad,tcheck) scf=(maxcycle=1)\\title\\0,1\H,0,1.25021154,1.5960457,0.136
 91261\H,0,3.15091491,1.84193998,0.53016902\S,0,2.02337536,2.53859467,0
 .73260516\H,0,-1.86518653,-1.85840059,-2.41621818\H,0,-0.32680417,0.09
 124999,-2.35403512\C,0,-1.73790547,-2.17632075,-0.28735921\C,0,-1.4413
 0545,-1.52934414,-1.47892562\C,0,-0.5813956,-0.43956024,-1.44531306\N,
 0,-0.02696375,0.0143895,-0.32191621\C,0,-0.31619852,-0.61134171,0.8185

 Normal termination of Gaussian 16 at Wed Apr  9 17:52:02 2025.
