 Gaussian 16, Revision C.01,

 ----------------------------------------------------------------------
 #t hf aug-cc-pvdz symm=none int=(grid=ultrafine) guess=(read,tcheck) s
 table=(opt,rrhf)
 ----------------------------------------------------------------------
 -----
 title
 -----
 Symbolic Z-matrix:
 Charge =  0 Multiplicity = 1

 SCF Done:  E(RHF) =  -601.597826514     A.U. after   14 cycles
 Normal termination of Gaussian 16 at Wed Apr  9 17:29:07 2025.
 Gaussian 16:  ES64L-G16RevC.01  3-Jul-2019

 ----------------------------------------------------------------------
 #t hf aug-cc-pvdz iop(5/13=1,5/36=2,99/5=2) pseudo=read geom=check gue
 ss=(read,tcheck) scf=(maxcycle=1)
 ----------------------------------------------------------------------
 -----
 title
 -----
 Structure from the checkpoint file:  "HB300SPXx10_106_1.11_1.05_sulfane_methylazide_dimer_mol1.chk"
 Charge =  0 Multiplicity = 1

                         Standard orientation:
 ---------------------------------------------------------------------
 Center     Atomic      Atomic             Coordinates (Angstroms)
 Number     Number       Type             X           Y           Z
 ---------------------------------------------------------------------
      1          1           0       -1.424198   -0.537338   -0.013139
      2          1           0       -2.906488   -0.408377    1.239863
      3         16           0       -2.741888   -0.273666   -0.084111
      4          1           0        1.337834    1.941804   -0.910884
      5          1           0        1.387222    1.978909    0.868765
      6          1           0       -0.167580    1.871094    0.022710
      7          6           0        0.872442    1.564807    0.000762
      8          7           0        0.873633    0.092716    0.031735
      9          7           0        1.972699   -0.448869    0.004136
     10          7           0        2.926349   -1.051885   -0.016743
 ---------------------------------------------------------------------

 SCF Done:  E(RHF) =  -601.681804620     A.U. after    2 cycles

 The electronic state is 1-A.
 Alpha  occ. eigenvalues --  -93.53719 -15.85894 -15.74161 -15.68069 -11.29389
 Alpha  occ. eigenvalues --   -8.83503  -6.17694  -6.17480  -6.17119  -1.46332
 Alpha  occ. eigenvalues --   -1.27259  -0.99830  -0.95805  -0.73400  -0.71357
 Alpha  occ. eigenvalues --   -0.71003  -0.66231  -0.59994  -0.58272  -0.57593
 Alpha  occ. eigenvalues --   -0.48881  -0.44097  -0.38009  -0.37327
 Alpha virt. eigenvalues --    0.03162   0.04425   0.04903   0.06331   0.07445
 Alpha virt. eigenvalues --    0.09771   0.10769   0.11114   0.11958   0.12557
 Alpha virt. eigenvalues --    0.13800   0.14414   0.15793   0.15957   0.17681

 Mulliken charges:
               1
     1  H    0.017764
     2  H    0.015949
     3  S   -0.029059
     4  H   -0.051807
     5  H   -0.054361
     6  H   -0.216439
     7  C    0.814016
     8  N   -0.702986
     9  N    0.498027
    10  N   -0.291103
 Sum of Mulliken charges =  -0.00000

 Dipole moment (field-independent basis, Debye):
    X=              1.0364    Y=              1.8165    Z=              0.7508  Tot=              2.2221

 Test job not archived.
 1\1\GINC-SE173\SP\RHF\Aug-CC-pVDZ\C1H5N3S1\OHZDE\09-Apr-2025\0\\#t hf
 aug-cc-pvdz iop(5/13=1,5/36=2,99/5=2) pseudo=read geom=check guess=(re
 ad,tcheck) scf=(maxcycle=1)\\title\\0,1\H,0,1.21774303,0.78814331,-0.0
 7896573\H,0,1.90622629,2.11329938,-1.32547278\S,0,1.84165876,1.9773473
 1,0.00700442\H,0,-2.32715061,0.10099099,1.16299378\H,0,-2.57799212,0.2
 0710449,-0.59677485\H,0,-1.43518626,1.29875389,0.20767549\C,0,-1.84316
 057,0.29402109,0.20470975\N,0,-0.70639303,-0.61624099,-0.01253429\N,0,
 -0.96818088,-1.81323412,-0.03891219\N,0,-1.09252145,-2.9340471,-0.0817

 Normal termination of Gaussian 16 at Wed Apr  9 17:29:10 2025.
