 Gaussian 16, Revision C.01,

 ----------------------------------------------------------------------
 #t hf aug-cc-pvdz symm=none int=(grid=ultrafine) guess=(read,tcheck) s
 table=(opt,rrhf)
 ----------------------------------------------------------------------
 -----
 title
 -----
 Symbolic Z-matrix:
 Charge =  0 Multiplicity = 1

 SCF Done:  E(RHF) =  -605.469342147     A.U. after   13 cycles
 Normal termination of Gaussian 16 at Wed Apr  9 17:37:25 2025.
 Gaussian 16:  ES64L-G16RevC.01  3-Jul-2019

 ----------------------------------------------------------------------
 #t hf aug-cc-pvdz iop(5/13=1,5/36=2,99/5=2) pseudo=read geom=check gue
 ss=(read,tcheck) scf=(maxcycle=1)
 ----------------------------------------------------------------------
 -----
 title
 -----
 Structure from the checkpoint file:  "HB300SPXx10_111_1.12_0.80_sulfane_methylcyanate_dimer_mol1.chk"
 Charge =  0 Multiplicity = 1

                         Standard orientation:
 ---------------------------------------------------------------------
 Center     Atomic      Atomic             Coordinates (Angstroms)
 Number     Number       Type             X           Y           Z
 ---------------------------------------------------------------------
      1          1           0        1.333829    0.854346    0.034259
      2          1           0        2.291594   -0.400149    1.168142
      3         16           0        1.966357   -0.320306   -0.130471
      4          1           0       -1.713397   -1.235844    1.311792
      5          1           0       -2.096778   -2.063719   -0.224902
      6          1           0       -0.403888   -1.604870    0.144537
      7          6           0       -1.451753   -1.343101    0.262371
      8          8           0       -1.711809   -0.079054   -0.426091
      9          6           0       -0.994327    0.913462   -0.052059
     10          7           0       -0.357444    1.826485    0.257223
 ---------------------------------------------------------------------

 SCF Done:  E(RHF) =  -605.557721396     A.U. after    2 cycles

 The electronic state is 1-A.
 Alpha  occ. eigenvalues --  -93.53375 -20.67873 -15.64068 -11.36312 -11.33631
 Alpha  occ. eigenvalues --   -8.83268  -6.17464  -6.17253  -6.16964  -1.45230
 Alpha  occ. eigenvalues --   -1.20316  -1.01584  -0.96131  -0.81136  -0.72561
 Alpha  occ. eigenvalues --   -0.71188  -0.60285  -0.59739  -0.57863  -0.55706
 Alpha  occ. eigenvalues --   -0.49710  -0.46352  -0.44245  -0.37350
 Alpha virt. eigenvalues --    0.02702   0.04553   0.05144   0.06192   0.07884
 Alpha virt. eigenvalues --    0.08549   0.10684   0.11050   0.11549   0.13413
 Alpha virt. eigenvalues --    0.14371   0.14854   0.15335   0.15463   0.16652

 Mulliken charges:
               1
     1  H    0.101128
     2  H    0.034588
     3  S   -0.122551
     4  H   -0.093290
     5  H   -0.159475
     6  H   -0.026037
     7  C    0.872753
     8  O   -0.402515
     9  C   -0.084181
    10  N   -0.120421
 Sum of Mulliken charges =   0.00000

 Dipole moment (field-independent basis, Debye):
    X=             -1.7359    Y=             -3.5894    Z=              1.1734  Tot=              4.1562

 Test job not archived.
 1\1\GINC-SE113\SP\RHF\Aug-CC-pVDZ\C2H5N1O1S1\OHZDE\09-Apr-2025\0\\#t h
 f aug-cc-pvdz iop(5/13=1,5/36=2,99/5=2) pseudo=read geom=check guess=(
 read,tcheck) scf=(maxcycle=1)\\title\\0,1\H,0,1.70020261,0.23216325,0.
 14198181\H,0,1.83071194,2.07603691,0.74186388\S,0,1.65222468,0.8789214
 7,1.31945248\H,0,-2.04230345,1.26916957,-0.31060509\H,0,-2.72254087,0.
 30077428,1.02852635\H,0,-1.05152296,0.93853291,1.14627873\C,0,-1.82361
 414,0.55914879,0.48267335\O,0,-1.37056868,-0.69758313,-0.11297538\C,0,
 -0.265516,-0.63874727,-0.75730756\N,0,0.73277195,-0.62044369,-1.338663

 Normal termination of Gaussian 16 at Wed Apr  9 17:37:28 2025.
