 Gaussian 16, Revision C.01,

 ----------------------------------------------------------------------
 #t hf aug-cc-pvdz symm=none int=(grid=ultrafine) guess=(read,tcheck) s
 table=(opt,rrhf)
 ----------------------------------------------------------------------
 -----
 title
 -----
 Symbolic Z-matrix:
 Charge =  0 Multiplicity = 1

 SCF Done:  E(RHF) =  -1121.34685846     A.U. after   13 cycles
 Normal termination of Gaussian 16 at Wed Apr  9 17:35:47 2025.
 Gaussian 16:  ES64L-G16RevC.01  3-Jul-2019

 ----------------------------------------------------------------------
 #t hf aug-cc-pvdz iop(5/13=1,5/36=2,99/5=2) pseudo=read geom=check gue
 ss=(read,tcheck) scf=(maxcycle=1)
 ----------------------------------------------------------------------
 -----
 title
 -----
 Structure from the checkpoint file:  "HB300SPXx10_1097_4.13_1.10_Nmethylacetamide_dimethyldisulfide_dimer_mol1.chk"
 Charge =  0 Multiplicity = 1

                         Standard orientation:
 ---------------------------------------------------------------------
 Center     Atomic      Atomic             Coordinates (Angstroms)
 Number     Number       Type             X           Y           Z
 ---------------------------------------------------------------------
      1          6           0       -1.919410    1.678041   -0.757776
      2          1           0       -1.256069    1.495978   -1.603351
      3          1           0       -1.344495    2.133826    0.046053
      4          1           0       -2.698930    2.361208   -1.083673
      5          6           0       -2.556574    0.361969   -0.356900
      6          8           0       -3.476265   -0.125581   -0.991965
      7          7           0       -2.020900   -0.224283    0.745642
      8          1           0       -1.184245    0.178340    1.134591
      9          6           0       -2.403131   -1.552802    1.176998
     10          1           0       -3.410869   -1.750991    0.825516
     11          1           0       -1.736131   -2.315304    0.769102
     12          1           0       -2.381409   -1.610918    2.263581
     13          1           0        2.879223   -2.197383   -1.744716
     14          1           0        3.465522   -1.949330   -0.085557
     15          1           0        3.666693   -0.669127   -1.312484
     16          1           0        1.368083    2.324301   -0.471754
     17          1           0        3.097198    1.905186   -0.349213
     18          1           0        2.290867    2.742986    0.989504
     19          6           0        3.022543   -1.465592   -0.950878
     20         16           0        1.363715   -0.834338   -0.547583
     21         16           0        1.721297    0.443594    1.015996
     22          6           0        2.163371    2.008012    0.195895
 ---------------------------------------------------------------------

 SCF Done:  E(RHF) =  -1121.49683375     A.U. after    2 cycles

 The electronic state is 1-A.
 Alpha  occ. eigenvalues --  -93.56844 -93.56525 -20.51681 -15.63532 -11.34902
 Alpha  occ. eigenvalues --  -11.28184 -11.27888 -11.25676 -11.23694  -8.86453
 Alpha  occ. eigenvalues --   -8.86151  -6.20603  -6.20329  -6.20267  -6.20052
 Alpha  occ. eigenvalues --   -6.20012  -6.19693  -1.33077  -1.18446  -1.08434
 Alpha  occ. eigenvalues --   -1.01402  -1.00345  -0.91633  -0.91236  -0.78950
 Alpha  occ. eigenvalues --   -0.77482  -0.68452  -0.64673  -0.62667  -0.62451
 Alpha  occ. eigenvalues --   -0.61505  -0.61075  -0.59511  -0.58063  -0.57777
 Alpha  occ. eigenvalues --   -0.54789  -0.54298  -0.53733  -0.50417  -0.50055
 Alpha  occ. eigenvalues --   -0.44931  -0.42512  -0.38142  -0.37200  -0.36149
 Alpha virt. eigenvalues --    0.02803   0.03663   0.04163   0.04668   0.05542
 Alpha virt. eigenvalues --    0.05864   0.06113   0.06994   0.07459   0.08254
 Alpha virt. eigenvalues --    0.08292   0.08841   0.09188   0.10796   0.11038

 Mulliken charges:
               1
     1  C    0.394181
     2  H    0.024723
     3  H   -0.113028
     4  H   -0.023989
     5  C    0.304871
     6  O   -0.580945
     7  N   -0.210338
     8  H   -0.065743
     9  C    0.762204
    10  H   -0.173808
    11  H   -0.101268
    12  H   -0.174247
    13  H   -0.076028
    14  H   -0.044089
    15  H   -0.088784
    16  H   -0.146236
    17  H   -0.101037
    18  H   -0.054544
    19  C    0.049438
    20  S    0.246739
    21  S    0.021477
    22  C    0.150451
 Sum of Mulliken charges =   0.00000

 Dipole moment (field-independent basis, Debye):
    X=              5.8109    Y=              1.5294    Z=              1.3167  Tot=              6.1514

 Test job not archived.
 1\1\GINC-SE112\SP\RHF\Aug-CC-pVDZ\C5H13N1O1S2\OHZDE\09-Apr-2025\0\\#t
 hf aug-cc-pvdz iop(5/13=1,5/36=2,99/5=2) pseudo=read geom=check guess=
 (read,tcheck) scf=(maxcycle=1)\\title\\0,1\C,0,-1.31055971,-0.36190707
 ,2.17525478\H,0,-0.76310857,0.57466921,2.28149083\H,0,-0.59510431,-1.1
 7658722,2.08130356\H,0,-1.91110445,-0.50300543,3.06969011\C,0,-2.23351
 851,-0.24400233,0.97818704\O,0,-3.28055753,0.37845097,1.03390772\N,0,-
 1.80028089,-0.8717422,-0.1463058\H,0,-0.86873727,-1.25332097,-0.144399
 63\C,0,-2.47826303,-0.73306099,-1.41840567\H,0,-3.52176476,-0.50262299

 Normal termination of Gaussian 16 at Wed Apr  9 17:35:59 2025.
