 Gaussian 16, Revision C.01,

 ----------------------------------------------------------------------
 #t hf aug-cc-pvdz symm=none int=(grid=ultrafine) guess=(read,tcheck) s
 table=(opt,rrhf)
 ----------------------------------------------------------------------
 -----
 title
 -----
 Symbolic Z-matrix:
 Charge =  0 Multiplicity = 1

 SCF Done:  E(RHF) =  -552.792924111     A.U. after   12 cycles
 Normal termination of Gaussian 16 at Wed Apr  9 17:43:12 2025.
 Gaussian 16:  ES64L-G16RevC.01  3-Jul-2019

 ----------------------------------------------------------------------
 #t hf aug-cc-pvdz iop(5/13=1,5/36=2,99/5=2) pseudo=read geom=check gue
 ss=(read,tcheck) scf=(maxcycle=1)
 ----------------------------------------------------------------------
 -----
 title
 -----
 Structure from the checkpoint file:  "HB300SPXx10_1154_4.20_0.95_methanol_methanethiol_dimer_mol1.chk"
 Charge =  0 Multiplicity = 1

                         Standard orientation:
 ---------------------------------------------------------------------
 Center     Atomic      Atomic             Coordinates (Angstroms)
 Number     Number       Type             X           Y           Z
 ---------------------------------------------------------------------
      1          8           0       -1.649395   -0.291457    0.704517
      2          1           0       -0.807978   -0.664973    0.410250
      3          6           0       -2.358707    0.154946   -0.437983
      4          1           0       -3.285985    0.604180   -0.088822
      5          1           0       -1.801116    0.911798   -0.999555
      6          1           0       -2.607063   -0.666843   -1.115877
      7          1           0        0.474627    1.380415    0.833242
      8          1           0        1.033613    1.659326   -0.822590
      9          1           0        2.217697    1.589590    0.487860
     10          1           0        1.753543   -0.984490    1.022045
     11          6           0        1.275953    1.188687    0.126451
     12         16           0        1.419646   -0.597447   -0.218344
 ---------------------------------------------------------------------

 SCF Done:  E(RHF) =  -552.867626409     A.U. after    2 cycles

 The electronic state is 1-A.
 Alpha  occ. eigenvalues --  -93.54842 -20.55440 -11.27542 -11.27494  -8.84607
 Alpha  occ. eigenvalues --   -6.18777  -6.18546  -6.18301  -1.30455  -1.03885
 Alpha  occ. eigenvalues --   -0.91662  -0.87272  -0.69500  -0.62340  -0.61882
 Alpha  occ. eigenvalues --   -0.59828  -0.59365  -0.54032  -0.50352  -0.46869
 Alpha  occ. eigenvalues --   -0.45170  -0.37271
 Alpha virt. eigenvalues --    0.03375   0.04552   0.04891   0.05718   0.06573
 Alpha virt. eigenvalues --    0.07611   0.07936   0.10084   0.10291   0.11493
 Alpha virt. eigenvalues --    0.13403   0.14774   0.15106   0.15894   0.16578

 Mulliken charges:
               1
     1  O   -0.508975
     2  H    0.204529
     3  C    0.860845
     4  H   -0.198974
     5  H   -0.166428
     6  H   -0.134246
     7  H   -0.148674
     8  H   -0.052517
     9  H   -0.159521
    10  H    0.097600
    11  C    0.204821
    12  S    0.001541
 Sum of Mulliken charges =   0.00000

 Dipole moment (field-independent basis, Debye):
    X=              1.1590    Y=              1.2831    Z=             -0.7279  Tot=              1.8760

 Test job not archived.
 1\1\GINC-SE103\SP\RHF\Aug-CC-pVDZ\C2H8O1S1\OHZDE\09-Apr-2025\0\\#t hf
 aug-cc-pvdz iop(5/13=1,5/36=2,99/5=2) pseudo=read geom=check guess=(re
 ad,tcheck) scf=(maxcycle=1)\\title\\0,1\O,0,-1.11765515,0.11430785,-1.
 55067005\H,0,-0.42321658,-0.33845143,-1.05382579\C,0,-0.58571066,1.330
 64039,-2.0459227\H,0,-1.38742324,1.84483596,-2.57168664\H,0,-0.2297527
 6,1.98264255,-1.24138273\H,0,0.23685112,1.16511886,-2.74774471\H,0,-1.
 17416321,0.48432524,1.12945778\H,0,0.30065713,1.35366952,1.57798949\H,
 0,-0.36238163,0.14868068,2.68820447\H,0,0.0845773,-1.89688215,1.032130

 Normal termination of Gaussian 16 at Wed Apr  9 17:43:15 2025.
