 Gaussian 16, Revision C.01,

 ----------------------------------------------------------------------
 #t hf aug-cc-pvdz symm=none int=(grid=ultrafine) guess=(read,tcheck) s
 table=(opt,rrhf)
 ----------------------------------------------------------------------
 -----
 title
 -----
 Symbolic Z-matrix:
 Charge =  0 Multiplicity = 1

 SCF Done:  E(RHF) =  -989.365595184     A.U. after   13 cycles
 Normal termination of Gaussian 16 at Wed Apr  9 17:42:37 2025.
 Gaussian 16:  ES64L-G16RevC.01  3-Jul-2019

 ----------------------------------------------------------------------
 #t hf aug-cc-pvdz iop(5/13=1,5/36=2,99/5=2) pseudo=read geom=check gue
 ss=(read,tcheck) scf=(maxcycle=1)
 ----------------------------------------------------------------------
 -----
 title
 -----
 Structure from the checkpoint file:  "HB300SPXx10_1145_4.19_1.00_methanol_dimethyldisulfide_dimer_mol1.chk"
 Charge =  0 Multiplicity = 1

                         Standard orientation:
 ---------------------------------------------------------------------
 Center     Atomic      Atomic             Coordinates (Angstroms)
 Number     Number       Type             X           Y           Z
 ---------------------------------------------------------------------
      1          8           0        2.805431    0.207203   -0.141433
      2          1           0        1.978506    0.378497   -0.608138
      3          6           0        2.820838   -1.157666    0.247008
      4          1           0        3.742780   -1.324440    0.799877
      5          1           0        1.976795   -1.409118    0.895638
      6          1           0        2.808919   -1.829710   -0.615853
      7          1           0       -3.150538   -1.732812    0.579290
      8          1           0       -3.286174   -0.461728   -0.655300
      9          1           0       -2.978611   -0.031789    1.049093
     10          1           0        0.693059    1.366355    1.384300
     11          1           0       -1.010145    1.918046    1.422598
     12          1           0        0.204982    2.827884    0.503389
     13          6           0       -2.786582   -0.756286    0.262713
     14         16           0       -0.999462   -0.952918   -0.021286
     15         16           0       -0.436523    0.897629   -0.704763
     16          6           0       -0.108797    1.834922    0.822504
 ---------------------------------------------------------------------

 SCF Done:  E(RHF) =  -989.475259028     A.U. after    2 cycles

 The electronic state is 1-A.
 Alpha  occ. eigenvalues --  -93.56455 -93.56162 -20.55457 -11.27651 -11.27320
 Alpha  occ. eigenvalues --  -11.27023  -8.86067  -8.85803  -6.20214  -6.19945
 Alpha  occ. eigenvalues --   -6.19906  -6.19698  -6.19666  -6.19343  -1.30274
 Alpha  occ. eigenvalues --   -1.08020  -1.00931  -0.91314  -0.90734  -0.78546
 Alpha  occ. eigenvalues --   -0.69151  -0.62065  -0.61867  -0.60819  -0.60129
 Alpha  occ. eigenvalues --   -0.59221  -0.58934  -0.53810  -0.50191  -0.49530
 Alpha  occ. eigenvalues --   -0.45001  -0.44536  -0.36838  -0.35815
 Alpha virt. eigenvalues --    0.03236   0.04358   0.04770   0.05275   0.06098
 Alpha virt. eigenvalues --    0.06490   0.07069   0.08054   0.08225   0.09176
 Alpha virt. eigenvalues --    0.09939   0.11076   0.13021   0.13597   0.14014

 Mulliken charges:
               1
     1  O   -0.495636
     2  H    0.203253
     3  C    0.915644
     4  H   -0.205507
     5  H   -0.172066
     6  H   -0.158252
     7  H   -0.073593
     8  H   -0.031654
     9  H   -0.088130
    10  H   -0.129649
    11  H   -0.113467
    12  H   -0.051464
    13  C    0.014606
    14  S    0.224526
    15  S   -0.072992
    16  C    0.234380
 Sum of Mulliken charges =  -0.00000

 Dipole moment (field-independent basis, Debye):
    X=             -3.1331    Y=             -0.1483    Z=              1.3832  Tot=              3.4280

 Test job not archived.
 1\1\GINC-SE162\SP\RHF\Aug-CC-pVDZ\C3H10O1S2\OHZDE\09-Apr-2025\0\\#t hf
  aug-cc-pvdz iop(5/13=1,5/36=2,99/5=2) pseudo=read geom=check guess=(r
 ead,tcheck) scf=(maxcycle=1)\\title\\0,1\O,0,-0.42925951,1.22968046,-2
 .50380826\H,0,-0.36156068,1.36890772,-1.5514469\C,0,-1.37991091,0.2017
 0921,-2.7351714\H,0,-1.41855104,0.0350798,-3.80950666\H,0,-1.09677682,
 -0.73598734,-2.24842974\H,0,-2.37984798,0.48334645,-2.39294418\H,0,-0.
 52987596,-2.5686612,2.52800425\H,0,-0.06444334,-0.99788072,3.21668684\
 H,0,1.10239216,-1.93628062,2.24596499\H,0,1.73014455,-0.07289244,-1.17

 Normal termination of Gaussian 16 at Wed Apr  9 17:42:42 2025.
