 Gaussian 16, Revision C.01,

 ----------------------------------------------------------------------
 #t hf aug-cc-pvdz symm=none int=(grid=ultrafine) guess=(read,tcheck) s
 table=(opt,rrhf)
 ----------------------------------------------------------------------
 -----
 title
 -----
 Symbolic Z-matrix:
 Charge =  0 Multiplicity = 1

 SCF Done:  E(RHF) =  -1334.38771329     A.U. after   13 cycles
 Normal termination of Gaussian 16 at Wed Apr  9 17:52:17 2025.
 Gaussian 16:  ES64L-G16RevC.01  3-Jul-2019

 ----------------------------------------------------------------------
 #t hf aug-cc-pvdz iop(5/13=1,5/36=2,99/5=2) pseudo=read geom=check gue
 ss=(read,tcheck) scf=(maxcycle=1)
 ----------------------------------------------------------------------
 -----
 title
 -----
 Structure from the checkpoint file:  "HB300SPXx10_1312_4.36_0.85_hydrogenchloride_dimethyldisulfide_dimer_mol1.chk"
 Charge =  0 Multiplicity = 1

                         Standard orientation:
 ---------------------------------------------------------------------
 Center     Atomic      Atomic             Coordinates (Angstroms)
 Number     Number       Type             X           Y           Z
 ---------------------------------------------------------------------
      1          1           0       -1.560305   -0.189553    0.393740
      2         17           0       -2.708727   -0.573059   -0.094992
      3          1           0        3.521105   -1.130971   -0.532471
      4          1           0        3.209388   -0.181868    0.936552
      5          1           0        3.070865    0.577829   -0.672856
      6          1           0       -0.704736    1.341848   -1.413171
      7          1           0        0.793019    2.219176   -0.988363
      8          1           0       -0.733750    2.615554   -0.173666
      9          6           0        2.920562   -0.332348   -0.099260
     10         16           0        1.193046   -0.895129   -0.204480
     11         16           0        0.168353    0.620115    0.725866
     12          6           0       -0.142163    1.814050   -0.613586
 ---------------------------------------------------------------------

 SCF Done:  E(RHF) =  -1334.47717160     A.U. after    2 cycles

 The electronic state is 1-A.
 Alpha  occ. eigenvalues -- -103.63170 -93.57805 -93.57051 -11.28385 -11.28369
 Alpha  occ. eigenvalues --  -10.66576  -8.87526  -8.86687  -8.32315  -8.32038
 Alpha  occ. eigenvalues --   -8.32036  -6.21651  -6.21381  -6.21219  -6.20814
 Alpha  occ. eigenvalues --   -6.20539  -6.20211  -1.12718  -1.09034  -1.01939
 Alpha  occ. eigenvalues --   -0.91802  -0.79941  -0.64421  -0.62476  -0.61522
 Alpha  occ. eigenvalues --   -0.59950  -0.59391  -0.54735  -0.50747  -0.45477
 Alpha  occ. eigenvalues --   -0.45434  -0.45259  -0.37740  -0.36801
 Alpha virt. eigenvalues --    0.03001   0.04115   0.05125   0.05577   0.06745
 Alpha virt. eigenvalues --    0.07221   0.08003   0.08783   0.09827   0.11934
 Alpha virt. eigenvalues --    0.12960   0.13976   0.14138   0.14379   0.15168

 Mulliken charges:
               1
     1  H    0.393139
     2  Cl  -0.222019
     3  H   -0.073486
     4  H   -0.026915
     5  H   -0.075897
     6  H   -0.114453
     7  H   -0.108101
     8  H   -0.054981
     9  C    0.065299
    10  S    0.216728
    11  S   -0.265481
    12  C    0.266167
 Sum of Mulliken charges =  -0.00000

 Dipole moment (field-independent basis, Debye):
    X=              4.0852    Y=              2.3390    Z=             -0.5519  Tot=              4.7396

 Test job not archived.
 1\1\GINC-SE226\SP\RHF\Aug-CC-pVDZ\C2H7Cl1S2\OHZDE\09-Apr-2025\0\\#t hf
  aug-cc-pvdz iop(5/13=1,5/36=2,99/5=2) pseudo=read geom=check guess=(r
 ead,tcheck) scf=(maxcycle=1)\\title\\0,1\H,0,-0.26068265,0.62653872,-1
 .61580209\Cl,0,0.10581098,1.51670262,-2.49790267\H,0,1.90496179,-1.855
 11363,2.47274881\H,0,0.30662321,-2.4737095,2.00515035\H,0,0.45183663,-
 0.9270533,2.88452004\H,0,-0.49128158,2.01764645,0.47076362\H,0,-1.1807
 3158,1.14266116,1.86808131\H,0,-2.19790363,1.52073171,0.46298608\C,0,0
 .90490509,-1.57803272,2.142239\S,0,1.1265386,-0.71028873,0.55794008\S,

 Normal termination of Gaussian 16 at Wed Apr  9 17:52:21 2025.
