 Gaussian 16, Revision C.01,

 ----------------------------------------------------------------------
 #t hf aug-cc-pvdz symm=none int=(grid=ultrafine) guess=(read,tcheck) s
 table=(opt,rrhf)
 ----------------------------------------------------------------------
 -----
 title
 -----
 Symbolic Z-matrix:
 Charge =  0 Multiplicity = 1

 SCF Done:  E(RHF) =  -513.767986730     A.U. after   12 cycles
 Normal termination of Gaussian 16 at Wed Apr  9 17:43:24 2025.
 Gaussian 16:  ES64L-G16RevC.01  3-Jul-2019

 ----------------------------------------------------------------------
 #t hf aug-cc-pvdz iop(5/13=1,5/36=2,99/5=2) pseudo=read geom=check gue
 ss=(read,tcheck) scf=(maxcycle=1)
 ----------------------------------------------------------------------
 -----
 title
 -----
 Structure from the checkpoint file:  "HB300SPXx10_1162_4.21_0.85_water_methanethiol_dimer_mol1.chk"
 Charge =  0 Multiplicity = 1

                         Standard orientation:
 ---------------------------------------------------------------------
 Center     Atomic      Atomic             Coordinates (Angstroms)
 Number     Number       Type             X           Y           Z
 ---------------------------------------------------------------------
      1          8           0       -2.077051    0.122727    0.054729
      2          1           0       -1.268371   -0.389633   -0.088696
      3          1           0       -2.786471   -0.414998   -0.303202
      4          1           0       -0.065414    1.538472    0.493878
      5          1           0        0.841245    1.501817   -1.022257
      6          1           0        1.722980    1.491439    0.511741
      7          1           0        0.765727   -0.905355    1.238978
      8          6           0        0.824037    1.152542    0.006414
      9         16           0        0.778906   -0.669925   -0.081673
 ---------------------------------------------------------------------

 SCF Done:  E(RHF) =  -513.829233831     A.U. after    2 cycles

 The electronic state is 1-A.
 Alpha  occ. eigenvalues --  -93.54627 -20.55223 -11.27164  -8.84468  -6.18630
 Alpha  occ. eigenvalues --   -6.18402  -6.18187  -1.29083  -1.03751  -0.87215
 Alpha  occ. eigenvalues --   -0.71990  -0.61666  -0.59676  -0.57962  -0.53779
 Alpha  occ. eigenvalues --   -0.50542  -0.46796  -0.37288
 Alpha virt. eigenvalues --    0.03522   0.04770   0.05134   0.06295   0.07319
 Alpha virt. eigenvalues --    0.09806   0.11142   0.11733   0.14328   0.14855
 Alpha virt. eigenvalues --    0.15815   0.17042   0.18068   0.21253   0.21444

 Mulliken charges:
               1
     1  O   -0.348779
     2  H    0.269594
     3  H    0.186476
     4  H   -0.119770
     5  H   -0.063262
     6  H   -0.110127
     7  H    0.122270
     8  C    0.163750
     9  S   -0.100151
 Sum of Mulliken charges =  -0.00000

 Dipole moment (field-independent basis, Debye):
    X=              0.7697    Y=             -0.2440    Z=              0.0130  Tot=              0.8075

 Test job not archived.
 1\1\GINC-SE113\SP\RHF\Aug-CC-pVDZ\C1H6O1S1\OHZDE\09-Apr-2025\0\\#t hf
 aug-cc-pvdz iop(5/13=1,5/36=2,99/5=2) pseudo=read geom=check guess=(re
 ad,tcheck) scf=(maxcycle=1)\\title\\0,1\O,0,-0.58582535,-1.65985485,-1
 .57348405\H,0,-0.07487288,-1.34797585,-0.81275631\H,0,-0.15829821,-2.4
 72369,-1.85201796\H,0,-1.24837248,0.67628321,-0.98411052\H,0,0.2513546
 8,1.60367088,-1.09728108\H,0,-0.91088829,1.99348686,0.17862982\H,0,-0.
 61120256,-0.37136141,1.40643721\C,0,-0.48252453,1.18941488,-0.41152155
 \S,0,0.4277617,0.01916101,0.6529353\\Version=ES64L-G16RevC.01\State=1-

 Normal termination of Gaussian 16 at Wed Apr  9 17:43:26 2025.
