 Gaussian 16, Revision C.01,

 ----------------------------------------------------------------------
 #t hf aug-cc-pvdz symm=none int=(grid=ultrafine) guess=(read,tcheck) s
 table=(opt,rrhf)
 ----------------------------------------------------------------------
 -----
 title
 -----
 Symbolic Z-matrix:
 Charge =  0 Multiplicity = 1

 SCF Done:  E(RHF) =  -1121.33944798     A.U. after   13 cycles
 Normal termination of Gaussian 16 at Wed Apr  9 17:34:50 2025.
 Gaussian 16:  ES64L-G16RevC.01  3-Jul-2019

 ----------------------------------------------------------------------
 #t hf aug-cc-pvdz iop(5/13=1,5/36=2,99/5=2) pseudo=read geom=check gue
 ss=(read,tcheck) scf=(maxcycle=1)
 ----------------------------------------------------------------------
 -----
 title
 -----
 Structure from the checkpoint file:  "HB300SPXx10_1093_4.13_0.90_Nmethylacetamide_dimethyldisulfide_dimer_mol1.chk"
 Charge =  0 Multiplicity = 1

                         Standard orientation:
 ---------------------------------------------------------------------
 Center     Atomic      Atomic             Coordinates (Angstroms)
 Number     Number       Type             X           Y           Z
 ---------------------------------------------------------------------
      1          6           0       -1.657202    1.679252   -0.759210
      2          1           0       -0.996330    1.507775   -1.608921
      3          1           0       -1.084547    2.143854    0.041176
      4          1           0       -2.449347    2.350162   -1.080089
      5          6           0       -2.271146    0.353270   -0.354770
      6          8           0       -3.186984   -0.148536   -0.984273
      7          7           0       -1.719528   -0.224706    0.744274
      8          1           0       -0.886902    0.190926    1.128155
      9          6           0       -2.078191   -1.559138    1.177614
     10          1           0       -3.084850   -1.773052    0.832314
     11          1           0       -1.401845   -2.311005    0.765388
     12          1           0       -2.048837   -1.617105    2.264025
     13          1           0        2.668134   -2.176731   -1.752072
     14          1           0        3.260723   -1.919812   -0.096500
     15          1           0        3.434188   -0.636386   -1.324289
     16          1           0        1.094138    2.320451   -0.468525
     17          1           0        2.830342    1.928498   -0.356795
     18          1           0        2.019262    2.753297    0.987117
     19          6           0        2.804864   -1.442927   -0.958930
     20         16           0        1.138862   -0.837854   -0.545210
     21         16           0        1.486016    0.445246    1.016487
     22          6           0        1.898406    2.016558    0.194106
 ---------------------------------------------------------------------

 SCF Done:  E(RHF) =  -1121.48862778     A.U. after    2 cycles

 The electronic state is 1-A.
 Alpha  occ. eigenvalues --  -93.57097 -93.56638 -20.51443 -15.62861 -11.34635
 Alpha  occ. eigenvalues --  -11.28344 -11.27961 -11.25335 -11.23581  -8.86719
 Alpha  occ. eigenvalues --   -8.86265  -6.20889  -6.20601  -6.20393  -6.20367
 Alpha  occ. eigenvalues --   -6.20137  -6.19809  -1.32820  -1.18148  -1.08705
 Alpha  occ. eigenvalues --   -1.01596  -1.00202  -0.91708  -0.91211  -0.79283
 Alpha  occ. eigenvalues --   -0.77247  -0.68357  -0.64551  -0.62783  -0.62584
 Alpha  occ. eigenvalues --   -0.61728  -0.61192  -0.59649  -0.57914  -0.57428
 Alpha  occ. eigenvalues --   -0.54968  -0.54137  -0.53408  -0.50315  -0.50201
 Alpha  occ. eigenvalues --   -0.45069  -0.42295  -0.37938  -0.37309  -0.36304
 Alpha virt. eigenvalues --    0.02767   0.03627   0.04168   0.04699   0.05621
 Alpha virt. eigenvalues --    0.05942   0.06112   0.07068   0.07449   0.08345
 Alpha virt. eigenvalues --    0.08449   0.08932   0.09158   0.10999   0.11162

 Mulliken charges:
               1
     1  C    0.445000
     2  H    0.014547
     3  H   -0.109291
     4  H   -0.040755
     5  C    0.327118
     6  O   -0.607826
     7  N   -0.182892
     8  H   -0.004068
     9  C    0.772450
    10  H   -0.181124
    11  H   -0.093551
    12  H   -0.175180
    13  H   -0.077199
    14  H   -0.052271
    15  H   -0.095126
    16  H   -0.240971
    17  H   -0.125589
    18  H   -0.017792
    19  C    0.116738
    20  S    0.198425
    21  S   -0.094578
    22  C    0.223935
 Sum of Mulliken charges =  -0.00000

 Dipole moment (field-independent basis, Debye):
    X=              5.8598    Y=              1.5915    Z=              1.2492  Tot=              6.1993

 Test job not archived.
 1\1\GINC-SE229\SP\RHF\Aug-CC-pVDZ\C5H13N1O1S2\OHZDE\09-Apr-2025\0\\#t
 hf aug-cc-pvdz iop(5/13=1,5/36=2,99/5=2) pseudo=read geom=check guess=
 (read,tcheck) scf=(maxcycle=1)\\title\\0,1\C,0,-1.31055971,-0.36190707
 ,2.17525478\H,0,-0.76310857,0.57466921,2.28149083\H,0,-0.59510431,-1.1
 7658722,2.08130356\H,0,-1.91110445,-0.50300543,3.06969011\C,0,-2.23351
 851,-0.24400233,0.97818704\O,0,-3.28055753,0.37845097,1.03390772\N,0,-
 1.80028089,-0.8717422,-0.1463058\H,0,-0.86873727,-1.25332097,-0.144399
 63\C,0,-2.47826303,-0.73306099,-1.41840567\H,0,-3.52176476,-0.50262299

 Normal termination of Gaussian 16 at Wed Apr  9 17:35:03 2025.
