 Gaussian 16, Revision C.01,

 ----------------------------------------------------------------------
 #t hf aug-cc-pvdz symm=none int=(grid=ultrafine) guess=(read,tcheck) s
 table=(opt,rrhf)
 ----------------------------------------------------------------------
 -----
 title
 -----
 Symbolic Z-matrix:
 Charge =  0 Multiplicity = 1

 SCF Done:  E(RHF) =  -552.780433269     A.U. after   13 cycles
 Normal termination of Gaussian 16 at Wed Apr  9 17:42:27 2025.
 Gaussian 16:  ES64L-G16RevC.01  3-Jul-2019

 ----------------------------------------------------------------------
 #t hf aug-cc-pvdz iop(5/13=1,5/36=2,99/5=2) pseudo=read geom=check gue
 ss=(read,tcheck) scf=(maxcycle=1)
 ----------------------------------------------------------------------
 -----
 title
 -----
 Structure from the checkpoint file:  "HB300SPXx10_1151_4.20_0.80_methanol_methanethiol_dimer_mol1.chk"
 Charge =  0 Multiplicity = 1

                         Standard orientation:
 ---------------------------------------------------------------------
 Center     Atomic      Atomic             Coordinates (Angstroms)
 Number     Number       Type             X           Y           Z
 ---------------------------------------------------------------------
      1          8           0       -1.412644   -0.291452    0.704296
      2          1           0       -0.579666   -0.660336    0.381553
      3          6           0       -2.169939    0.135856   -0.414461
      4          1           0       -3.087318    0.580252   -0.034334
      5          1           0       -1.641864    0.891676   -1.005199
      6          1           0       -2.436369   -0.695550   -1.073503
      7          1           0        0.350958    1.388516    0.845793
      8          1           0        0.842706    1.654514   -0.833333
      9          1           0        2.077245    1.610071    0.430840
     10          1           0        1.659087   -0.962221    1.009750
     11          6           0        1.126148    1.196529    0.110497
     12         16           0        1.273695   -0.591851   -0.220759
 ---------------------------------------------------------------------

 SCF Done:  E(RHF) =  -552.855414984     A.U. after    2 cycles

 The electronic state is 1-A.
 Alpha  occ. eigenvalues --  -93.54907 -20.54129 -11.27480 -11.27146  -8.84800
 Alpha  occ. eigenvalues --   -6.18968  -6.18731  -6.18526  -1.29899  -1.04269
 Alpha  occ. eigenvalues --   -0.91465  -0.87574  -0.69663  -0.62515  -0.62061
 Alpha  occ. eigenvalues --   -0.59114  -0.58590  -0.54293  -0.50236  -0.47142
 Alpha  occ. eigenvalues --   -0.44451  -0.37383
 Alpha virt. eigenvalues --    0.03388   0.04615   0.04898   0.05758   0.06659
 Alpha virt. eigenvalues --    0.07683   0.07996   0.10150   0.10316   0.11470
 Alpha virt. eigenvalues --    0.13612   0.14931   0.15011   0.16034   0.16686

 Mulliken charges:
               1
     1  O   -0.550310
     2  H    0.298698
     3  C    0.870502
     4  H   -0.197446
     5  H   -0.187292
     6  H   -0.131992
     7  H   -0.139028
     8  H   -0.048874
     9  H   -0.184523
    10  H    0.128405
    11  C    0.251516
    12  S   -0.109655
 Sum of Mulliken charges =   0.00000

 Dipole moment (field-independent basis, Debye):
    X=              1.2656    Y=              1.2641    Z=             -0.7447  Tot=              1.9376

 Test job not archived.
 1\1\GINC-SE174\SP\RHF\Aug-CC-pVDZ\C2H8O1S1\OHZDE\09-Apr-2025\0\\#t hf
 aug-cc-pvdz iop(5/13=1,5/36=2,99/5=2) pseudo=read geom=check guess=(re
 ad,tcheck) scf=(maxcycle=1)\\title\\0,1\O,0,-1.11765515,0.11430785,-1.
 55067005\H,0,-0.42321658,-0.33845143,-1.05382579\C,0,-0.58571066,1.330
 64039,-2.0459227\H,0,-1.38742324,1.84483596,-2.57168664\H,0,-0.2297527
 6,1.98264255,-1.24138273\H,0,0.23685112,1.16511886,-2.74774471\H,0,-1.
 37584418,0.56023741,0.83409221\H,0,0.09897616,1.4295817,1.28262393\H,0
 ,-0.5640626,0.22459286,2.39283891\H,0,-0.11710367,-1.82096997,0.736765

 Normal termination of Gaussian 16 at Wed Apr  9 17:42:31 2025.
