 Gaussian 16, Revision C.01,

 ----------------------------------------------------------------------
 #t hf aug-cc-pvdz symm=none int=(grid=ultrafine) guess=(read,tcheck) s
 table=(opt,rrhf)
 ----------------------------------------------------------------------
 -----
 title
 -----
 Symbolic Z-matrix:
 Charge =  0 Multiplicity = 1

 SCF Done:  E(RHF) =  -605.480974314     A.U. after   13 cycles
 Normal termination of Gaussian 16 at Wed Apr  9 17:45:13 2025.
 Gaussian 16:  ES64L-G16RevC.01  3-Jul-2019

 ----------------------------------------------------------------------
 #t hf aug-cc-pvdz iop(5/13=1,5/36=2,99/5=2) pseudo=read geom=check gue
 ss=(read,tcheck) scf=(maxcycle=1)
 ----------------------------------------------------------------------
 -----
 title
 -----
 Structure from the checkpoint file:  "HB300SPXx10_117_1.12_1.10_sulfane_methylcyanate_dimer_mol1.chk"
 Charge =  0 Multiplicity = 1

                         Standard orientation:
 ---------------------------------------------------------------------
 Center     Atomic      Atomic             Coordinates (Angstroms)
 Number     Number       Type             X           Y           Z
 ---------------------------------------------------------------------
      1          1           0        1.611155    0.889066    0.015205
      2          1           0        2.723793   -0.190334    1.187252
      3         16           0        2.423214   -0.173674   -0.119625
      4          1           0       -1.789336   -1.378828    1.310175
      5          1           0       -1.999629   -2.269863   -0.224627
      6          1           0       -0.409028   -1.548828    0.179103
      7          6           0       -1.487558   -1.453045    0.268702
      8          8           0       -1.924080   -0.251256   -0.441632
      9          6           0       -1.380011    0.844441   -0.063211
     10          7           0       -0.901475    1.848463    0.249571
 ---------------------------------------------------------------------

 SCF Done:  E(RHF) =  -605.570090060     A.U. after    2 cycles

 The electronic state is 1-A.
 Alpha  occ. eigenvalues --  -93.54736 -20.67552 -15.63772 -11.35534 -11.34000
 Alpha  occ. eigenvalues --   -8.84509  -6.18696  -6.18483  -6.18148  -1.44942
 Alpha  occ. eigenvalues --   -1.19410  -1.01573  -0.96754  -0.80990  -0.72386
 Alpha  occ. eigenvalues --   -0.71014  -0.59782  -0.58899  -0.58273  -0.55514
 Alpha  occ. eigenvalues --   -0.49676  -0.46297  -0.44588  -0.38303
 Alpha virt. eigenvalues --    0.02655   0.04398   0.05007   0.06411   0.07743
 Alpha virt. eigenvalues --    0.08686   0.10615   0.11032   0.11424   0.13231
 Alpha virt. eigenvalues --    0.13883   0.14468   0.14864   0.15299   0.16508

 Mulliken charges:
               1
     1  H    0.034124
     2  H    0.022721
     3  S   -0.057224
     4  H   -0.083457
     5  H   -0.157417
     6  H   -0.074439
     7  C    0.892413
     8  O   -0.390661
     9  C   -0.075815
    10  N   -0.110244
 Sum of Mulliken charges =  -0.00000

 Dipole moment (field-independent basis, Debye):
    X=             -0.8754    Y=             -3.9983    Z=              1.1754  Tot=              4.2584

 Test job not archived.
 1\1\GINC-SE131\SP\RHF\Aug-CC-pVDZ\C2H5N1O1S1\OHZDE\09-Apr-2025\0\\#t h
 f aug-cc-pvdz iop(5/13=1,5/36=2,99/5=2) pseudo=read geom=check guess=(
 read,tcheck) scf=(maxcycle=1)\\title\\0,1\H,0,1.70020261,0.23216325,0.
 14198181\H,0,1.83071194,2.07603691,0.74186388\S,0,1.65222468,0.8789214
 7,1.31945248\H,0,-2.40508995,0.94944197,-0.86584696\H,0,-3.08532736,-0
 .01895332,0.47328448\H,0,-1.41430946,0.61880531,0.59103686\C,0,-2.1864
 0063,0.23942119,-0.07256853\O,0,-1.73335518,-1.01731073,-0.66821725\C,
 0,-0.6283025,-0.95847487,-1.31254943\N,0,0.36998546,-0.9401713,-1.8939

 Normal termination of Gaussian 16 at Wed Apr  9 17:45:16 2025.
