 Gaussian 16, Revision C.01,

 ----------------------------------------------------------------------
 #t hf aug-cc-pvdz symm=none int=(grid=ultrafine) guess=(read,tcheck) s
 table=(opt,rrhf)
 ----------------------------------------------------------------------
 -----
 title
 -----
 Symbolic Z-matrix:
 Charge =  0 Multiplicity = 1

 SCF Done:  E(RHF) =  -576.782078439     A.U. after   12 cycles
 Normal termination of Gaussian 16 at Wed Apr  9 17:57:16 2025.
 Gaussian 16:  ES64L-G16RevC.01  3-Jul-2019

 ----------------------------------------------------------------------
 #t hf aug-cc-pvdz iop(5/13=1,5/36=2,99/5=2) pseudo=read geom=check gue
 ss=(read,tcheck) scf=(maxcycle=1)
 ----------------------------------------------------------------------
 -----
 title
 -----
 Structure from the checkpoint file:  "HB300SPXx10_1431_5.06_0.80_methanethiol_methylfluoride_dimer_mol1.chk"
 Charge =  0 Multiplicity = 1

                         Standard orientation:
 ---------------------------------------------------------------------
 Center     Atomic      Atomic             Coordinates (Angstroms)
 Number     Number       Type             X           Y           Z
 ---------------------------------------------------------------------
      1          1           0        1.603656    1.744523   -0.504668
      2          1           0        1.520517    1.362892    1.220206
      3          1           0        0.036836    1.360060    0.248747
      4          1           0        0.702012   -0.724164   -1.195796
      5          6           0        1.099435    1.139873    0.243403
      6         16           0        1.388614   -0.636741   -0.047106
      7          1           0       -1.070515   -0.825008    0.886222
      8          1           0       -2.592969    0.076465    1.166435
      9          1           0       -2.546562   -1.247207   -0.031503
     10          6           0       -1.980225   -0.440301    0.429943
     11          9           0       -1.620673    0.471430   -0.564002
 ---------------------------------------------------------------------

 SCF Done:  E(RHF) =  -576.867873963     A.U. after    2 cycles

 The electronic state is 1-A.
 Alpha  occ. eigenvalues --  -93.52800 -26.10800 -11.31665 -11.25715  -8.82577
 Alpha  occ. eigenvalues --   -6.16742  -6.16524  -6.16232  -1.63979  -1.02101
 Alpha  occ. eigenvalues --   -0.97216  -0.85511  -0.75132  -0.74483  -0.71725
 Alpha  occ. eigenvalues --   -0.60078  -0.58134  -0.55552  -0.55472  -0.52243
 Alpha  occ. eigenvalues --   -0.45090  -0.35068
 Alpha virt. eigenvalues --    0.03500   0.04551   0.05072   0.05894   0.06867
 Alpha virt. eigenvalues --    0.07840   0.08455   0.10992   0.11723   0.13536
 Alpha virt. eigenvalues --    0.14784   0.15248   0.15620   0.16445   0.17650

 Mulliken charges:
               1
     1  H   -0.127278
     2  H   -0.067793
     3  H   -0.127672
     4  H    0.118385
     5  C    0.157149
     6  S    0.048005
     7  H   -0.120183
     8  H   -0.093469
     9  H   -0.144938
    10  C    0.863258
    11  F   -0.505465
 Sum of Mulliken charges =  -0.00000

 Dipole moment (field-independent basis, Debye):
    X=             -1.4271    Y=              0.0171    Z=              1.1339  Tot=              1.8228

 Test job not archived.
 1\1\GINC-SE045\SP\RHF\Aug-CC-pVDZ\C2H7F1S1\OHZDE\09-Apr-2025\0\\#t hf
 aug-cc-pvdz iop(5/13=1,5/36=2,99/5=2) pseudo=read geom=check guess=(re
 ad,tcheck) scf=(maxcycle=1)\\title\\0,1\H,0,2.08229041,-1.4254109,-0.5
 8197167\H,0,2.56243491,-0.07269824,0.45116733\H,0,1.30281242,0.1638302
 2,-0.77457926\H,0,-0.45614858,-1.39442223,0.38777169\C,0,1.72720839,-0
 .53887394,-0.06484534\S,0,0.50833702,-0.97408013,1.21941614\H,0,-0.538
 99674,1.33803557,0.50452271\H,0,-0.61165396,2.55957789,-0.80375584\H,0
 ,-2.06326984,1.60397142,-0.39272759\C,0,-0.97680389,1.59414755,-0.4580

 Normal termination of Gaussian 16 at Wed Apr  9 17:57:22 2025.
