 Gaussian 16, Revision C.01,

 ----------------------------------------------------------------------
 #t hf aug-cc-pvdz symm=none int=(grid=ultrafine) guess=(read,tcheck) s
 table=(opt,rrhf)
 ----------------------------------------------------------------------
 -----
 title
 -----
 Symbolic Z-matrix:
 Charge =  0 Multiplicity = 1

 SCF Done:  E(RHF) =  -977.978489846     A.U. after   13 cycles
 Normal termination of Gaussian 16 at Wed Apr  9 17:57:41 2025.
 Gaussian 16:  ES64L-G16RevC.01  3-Jul-2019

 ----------------------------------------------------------------------
 #t hf aug-cc-pvdz iop(5/13=1,5/36=2,99/5=2) pseudo=read geom=check gue
 ss=(read,tcheck) scf=(maxcycle=1)
 ----------------------------------------------------------------------
 -----
 title
 -----
 Structure from the checkpoint file:  "HB300SPXx10_1441_5.07_0.80_methanethiol_phosphineF2_dimer_mol1.chk"
 Charge =  0 Multiplicity = 1

                         Standard orientation:
 ---------------------------------------------------------------------
 Center     Atomic      Atomic             Coordinates (Angstroms)
 Number     Number       Type             X           Y           Z
 ---------------------------------------------------------------------
      1          1           0        1.170285    1.629016   -0.027337
      2          1           0        1.727058    0.930382   -1.554187
      3          1           0        2.909106    1.322989   -0.296137
      4          1           0        1.846914   -0.477736    1.428499
      5          6           0        1.900509    0.967342   -0.482245
      6         16           0        1.690153   -0.738340    0.121930
      7         15           0       -1.024302   -0.217168   -0.295502
      8          9           0       -0.696801    0.967982    0.735289
      9          9           0       -2.624737   -0.174049   -0.158500
     10          1           0       -0.840488   -1.283142    0.633175
 ---------------------------------------------------------------------

 SCF Done:  E(RHF) =  -978.123305874     A.U. after    2 cycles

 The electronic state is 1-A.
 Alpha  occ. eigenvalues --  -93.55315 -81.38269 -26.13316 -26.11869 -11.27635
 Alpha  occ. eigenvalues --   -8.85188  -7.86986  -6.19346  -6.19115  -6.18883
 Alpha  occ. eigenvalues --   -5.01119  -5.00842  -5.00319  -1.66830  -1.64648
 Alpha  occ. eigenvalues --   -1.04703  -0.89510  -0.87595  -0.78626  -0.77066
 Alpha  occ. eigenvalues --   -0.76543  -0.72681  -0.70366  -0.63258  -0.61285
 Alpha  occ. eigenvalues --   -0.59458  -0.54529  -0.47316  -0.40395  -0.36949
 Alpha virt. eigenvalues --    0.03453   0.04581   0.05127   0.06215   0.07071
 Alpha virt. eigenvalues --    0.08405   0.09793   0.10281   0.11504   0.12925
 Alpha virt. eigenvalues --    0.13750   0.15398   0.15925   0.16383   0.16673

 Mulliken charges:
               1
     1  H   -0.109201
     2  H   -0.061683
     3  H   -0.155461
     4  H    0.127303
     5  C    0.205527
     6  S   -0.017301
     7  P    1.219298
     8  F   -0.636888
     9  F   -0.641856
    10  H    0.070262
 Sum of Mulliken charges =  -0.00000

 Dipole moment (field-independent basis, Debye):
    X=              2.6047    Y=             -0.0143    Z=             -0.0937  Tot=              2.6064

 Test job not archived.
 1\1\GINC-SE113\SP\RHF\Aug-CC-pVDZ\C1H5F2P1S1\OHZDE\09-Apr-2025\0\\#t h
 f aug-cc-pvdz iop(5/13=1,5/36=2,99/5=2) pseudo=read geom=check guess=(
 read,tcheck) scf=(maxcycle=1)\\title\\0,1\H,0,-1.72434823,-0.02735536,
 -1.47402619\H,0,-1.29643549,-1.41515971,-2.4840979\H,0,-1.57230153,0.1
 6002765,-3.24353895\H,0,0.52779021,1.28305094,-1.94983564\C,0,-1.18500
 823,-0.34129171,-2.36202164\S,0,0.60124692,-0.03772908,-2.17289215\P,0
 ,0.19694585,-1.12222001,0.37162229\F,0,-0.84065869,0.09899271,0.451513
 \F,0,0.27606689,-1.42975603,1.9467995\H,0,1.37499157,-0.32015371,0.333

 Normal termination of Gaussian 16 at Wed Apr  9 17:57:44 2025.
