 Gaussian 16, Revision C.01,

 ----------------------------------------------------------------------
 #t hf aug-cc-pvdz symm=none int=(grid=ultrafine) guess=(read,tcheck) s
 table=(opt,rrhf)
 ----------------------------------------------------------------------
 -----
 title
 -----
 Symbolic Z-matrix:
 Charge =  0 Multiplicity = 1

 SCF Done:  E(RHF) =  -969.534933890     A.U. after   13 cycles
 Normal termination of Gaussian 16 at Wed Apr  9 17:29:37 2025.
 Gaussian 16:  ES64L-G16RevC.01  3-Jul-2019

 ----------------------------------------------------------------------
 #t hf aug-cc-pvdz iop(5/13=1,5/36=2,99/5=2) pseudo=read geom=check gue
 ss=(read,tcheck) scf=(maxcycle=1)
 ----------------------------------------------------------------------
 -----
 title
 -----
 Structure from the checkpoint file:  "HB300SPXx10_1067_4.10_1.10_methylamine_dimethyldisulfide_dimer_mol1.chk"
 Charge =  0 Multiplicity = 1

                         Standard orientation:
 ---------------------------------------------------------------------
 Center     Atomic      Atomic             Coordinates (Angstroms)
 Number     Number       Type             X           Y           Z
 ---------------------------------------------------------------------
      1          7           0        2.475731    0.884562    0.002324
      2          1           0        2.742154    1.814147   -0.293796
      3          1           0        1.738513    0.575137   -0.619820
      4          6           0        3.619314   -0.025481   -0.059032
      5          1           0        3.308181   -1.014929    0.274418
      6          1           0        4.069754   -0.133680   -1.052129
      7          1           0        4.393405    0.317835    0.626248
      8          1           0       -1.667628    2.661301    0.651400
      9          1           0       -0.700549    2.206689   -0.766507
     10          1           0       -0.188513    1.697140    0.864061
     11          1           0       -0.783096   -2.029812    1.555035
     12          1           0        0.597482   -0.915916    1.310635
     13          1           0        0.588624   -2.515123    0.535944
     14          6           0       -1.038384    1.886385    0.215357
     15         16           0       -2.093915    0.408724    0.074779
     16         16           0       -0.826943   -1.030918   -0.648506
     17          6           0       -0.030047   -1.677507    0.856655
 ---------------------------------------------------------------------

 SCF Done:  E(RHF) =  -969.637516432     A.U. after    2 cycles

 The electronic state is 1-A.
 Alpha  occ. eigenvalues --  -93.55231 -93.55071 -15.60745 -11.26476 -11.26467
 Alpha  occ. eigenvalues --  -11.25665  -8.84850  -8.84700  -6.19002  -6.18819
 Alpha  occ. eigenvalues --   -6.18708  -6.18562  -6.18429  -6.18239  -1.14193
 Alpha  occ. eigenvalues --   -1.06890  -0.99866  -0.89758  -0.89467  -0.77388
 Alpha  occ. eigenvalues --   -0.66770  -0.61008  -0.60712  -0.59836  -0.59618
 Alpha  occ. eigenvalues --   -0.58036  -0.56061  -0.52821  -0.52175  -0.48529
 Alpha  occ. eigenvalues --   -0.43412  -0.38904  -0.35598  -0.34612
 Alpha virt. eigenvalues --    0.03281   0.04027   0.04496   0.04933   0.06044
 Alpha virt. eigenvalues --    0.06613   0.07261   0.07825   0.08439   0.09427
 Alpha virt. eigenvalues --    0.09862   0.10337   0.11529   0.13106   0.14303

 Mulliken charges:
               1
     1  N   -0.365416
     2  H   -0.022528
     3  H    0.040620
     4  C    0.828516
     5  H   -0.207502
     6  H   -0.129413
     7  H   -0.174823
     8  H   -0.105346
     9  H   -0.079167
    10  H   -0.089502
    11  H   -0.091310
    12  H   -0.131332
    13  H   -0.078400
    14  C    0.223772
    15  S    0.091954
    16  S    0.046173
    17  C    0.243703
 Sum of Mulliken charges =  -0.00000

 Dipole moment (field-independent basis, Debye):
    X=              2.1221    Y=              0.7874    Z=              0.3015  Tot=              2.2834

 Test job not archived.
 1\1\GINC-SE226\SP\RHF\Aug-CC-pVDZ\C3H11N1S2\OHZDE\09-Apr-2025\0\\#t hf
  aug-cc-pvdz iop(5/13=1,5/36=2,99/5=2) pseudo=read geom=check guess=(r
 ead,tcheck) scf=(maxcycle=1)\\title\\0,1\N,0,-0.790217,0.77789413,2.28
 472778\H,0,-1.73224372,0.61681804,2.6155392\H,0,-0.85550262,0.99181266
 ,1.29666237\C,0,-0.16836631,1.8838218,3.01270443\H,0,0.84688345,2.0289
 6517,2.64500493\H,0,-0.69345824,2.84224623,2.93178871\H,0,-0.0959132,1
 .62767695,4.06903376\H,0,-1.56550827,-2.70617775,-0.54470516\H,0,-2.09
 468999,-1.01365574,-0.45690894\H,0,-0.76190685,-1.58730711,0.58000243\

 Normal termination of Gaussian 16 at Wed Apr  9 17:29:44 2025.
