 Gaussian 16, Revision C.01,

 ----------------------------------------------------------------------
 #t hf aug-cc-pvdz symm=none int=(grid=ultrafine) guess=(read,tcheck) s
 table=(opt,rrhf)
 ----------------------------------------------------------------------
 -----
 title
 -----
 Symbolic Z-matrix:
 Charge =  0 Multiplicity = 1

 SCF Done:  E(RHF) =  -952.351169978     A.U. after   14 cycles

 1\1\GINC-SE226\Stability\RHF\Aug-CC-pVDZ\C4H10S2\OHZDE\09-Apr-2025\0\\
 #t hf aug-cc-pvdz symm=none int=(grid=ultrafine) guess=(read,tcheck) s
 table=(opt,rrhf)\\title\\0,1\H,0,1.94048627,-0.28311522,0.30003006\H,0
 ,2.70886397,-1.74966836,-0.33633756\H,0,2.5169729,-1.54996222,1.410513
 58\H,0,-0.19256655,-1.5118813,1.21090974\C,0,2.06439688,-1.35234501,0.
 4434425\S,0,0.46794236,-2.21627191,0.2804649\H,0,-2.34597254,0.2805714
 5,0.26363496\H,0,-2.40393703,0.73704709,-1.45253423\H,0,-1.76206584,-0
 .82963605,-0.9990611\H,0,1.2996488,1.21272496,-1.79165204\H,0,0.523104

 Normal termination of Gaussian 16 at Wed Apr  9 17:20:36 2025.
 Gaussian 16:  ES64L-G16RevC.01  3-Jul-2019

 ----------------------------------------------------------------------
 #t hf aug-cc-pvdz iop(5/13=1,5/36=2,99/5=2) pseudo=read geom=check gue
 ss=(read,tcheck) scf=(maxcycle=1)
 ----------------------------------------------------------------------
 -----
 title
 -----
 Structure from the checkpoint file:  "HB300SPXx10_1022_4.06_0.85_methanethiol_thioacetone_dimer_mol1.chk"
 Charge =  0 Multiplicity = 1

                         Standard orientation:
 ---------------------------------------------------------------------
 Center     Atomic      Atomic             Coordinates (Angstroms)
 Number     Number       Type             X           Y           Z
 ---------------------------------------------------------------------
      1          1           0        0.969212   -1.360769    0.650477
      2          1           0        2.439980   -0.815971    1.478839
      3          1           0        2.571635   -1.695728   -0.049850
      4          1           0        1.244590    0.251954   -1.402028
      5          6           0        1.976460   -0.980268    0.509604
      6         16           0        1.945356    0.638985   -0.326249
      7          1           0       -1.499741    1.320310   -1.675225
      8          1           0       -2.303090    2.024172   -0.255304
      9          1           0       -0.560386    2.138357   -0.403879
     10          1           0       -1.079444   -0.585757    2.142357
     11          1           0       -0.157104    0.899010    1.819475
     12          6           0       -1.416302    1.490804   -0.607359
     13          6           0       -1.261964    0.209342    0.151571
     14         16           0       -1.254691   -1.245877   -0.576853
     15          6           0       -1.095129    0.370414    1.630551
     16          1           0       -1.894675    0.992947    2.038574
 ---------------------------------------------------------------------

 SCF Done:  E(RHF) =  -952.440970062     A.U. after    2 cycles

 The electronic state is 1-A.
 Alpha  occ. eigenvalues --  -93.53219 -93.50685 -11.33486 -11.26153 -11.25058
 Alpha  occ. eigenvalues --  -11.24878  -8.83001  -8.80668  -6.17186  -6.16959
 Alpha  occ. eigenvalues --   -6.16672  -6.14852  -6.14540  -6.14257  -1.11320
 Alpha  occ. eigenvalues --   -1.02515  -0.96588  -0.94282  -0.85980  -0.71971
 Alpha  occ. eigenvalues --   -0.62740  -0.61429  -0.61262  -0.60682  -0.58685
 Alpha  occ. eigenvalues --   -0.56145  -0.53322  -0.52612  -0.49610  -0.45717
 Alpha  occ. eigenvalues --   -0.38185  -0.35692  -0.33262
 Alpha virt. eigenvalues --    0.03235   0.04153   0.04579   0.05166   0.06152
 Alpha virt. eigenvalues --    0.06360   0.06900   0.07302   0.08060   0.08884
 Alpha virt. eigenvalues --    0.09437   0.10375   0.11666   0.12231   0.13332

 Mulliken charges:
               1
     1  H   -0.195063
     2  H   -0.083356
     3  H   -0.155712
     4  H    0.137358
     5  C    0.268392
     6  S    0.062051
     7  H   -0.076328
     8  H    0.029664
     9  H    0.017080
    10  H   -0.096844
    11  H    0.087672
    12  C    0.414123
    13  C   -0.854026
    14  S   -0.028883
    15  C    0.514487
    16  H   -0.040615
 Sum of Mulliken charges =  -0.00000

 Dipole moment (field-independent basis, Debye):
    X=             -0.3690    Y=              1.3902    Z=              1.5981  Tot=              2.1501

 Test job not archived.
 1\1\GINC-SE226\SP\RHF\Aug-CC-pVDZ\C4H10S2\OHZDE\09-Apr-2025\0\\#t hf a
 ug-cc-pvdz iop(5/13=1,5/36=2,99/5=2) pseudo=read geom=check guess=(rea
 d,tcheck) scf=(maxcycle=1)\\title\\0,1\H,0,1.94048627,-0.28311522,0.30
 003006\H,0,2.70886397,-1.74966836,-0.33633756\H,0,2.5169729,-1.5499622
 2,1.41051358\H,0,-0.19256655,-1.5118813,1.21090974\C,0,2.06439688,-1.3
 5234501,0.4434425\S,0,0.46794236,-2.21627191,0.2804649\H,0,-2.34597254
 ,0.28057145,0.26363496\H,0,-2.40393703,0.73704709,-1.45253423\H,0,-1.7
 6206584,-0.82963605,-0.9990611\H,0,1.2996488,1.21272496,-1.79165204\H,

 Normal termination of Gaussian 16 at Wed Apr  9 17:20:41 2025.
