 Gaussian 16, Revision C.01,

 ----------------------------------------------------------------------
 #t hf aug-cc-pvdz symm=none int=(grid=ultrafine) guess=(read,tcheck) s
 table=(opt,rrhf)
 ----------------------------------------------------------------------
 -----
 title
 -----
 Symbolic Z-matrix:
 Charge =  0 Multiplicity = 1

 SCF Done:  E(RHF) =  -215.881805987     A.U. after   13 cycles
 Normal termination of Gaussian 16 at Wed Apr  9 17:56:11 2025.
 Gaussian 16:  ES64L-G16RevC.01  3-Jul-2019

 ----------------------------------------------------------------------
 #t hf aug-cc-pvdz iop(5/13=1,5/36=2,99/5=2) pseudo=read geom=check gue
 ss=(read,tcheck) scf=(maxcycle=1)
 ----------------------------------------------------------------------
 -----
 title
 -----
 Structure from the checkpoint file:  "HB300SPXx10_1411_5.04_0.80_ethyne_methylfluoride_dimer_mol1.chk"
 Charge =  0 Multiplicity = 1

                         Standard orientation:
 ---------------------------------------------------------------------
 Center     Atomic      Atomic             Coordinates (Angstroms)
 Number     Number       Type             X           Y           Z
 ---------------------------------------------------------------------
      1          6           0        1.064152    0.951043    0.000000
      2          1           0        0.000000    0.960706    0.000000
      3          6           0        2.260083    0.924320    0.000000
      4          1           0        3.321161    0.907394    0.000000
      5          1           0       -1.510087   -1.818995    0.893893
      6          1           0       -1.510087   -1.818995   -0.893893
      7          1           0       -0.024284   -1.384073    0.000000
      8          6           0       -1.111702   -1.343652    0.000000
      9          9           0       -1.505767   -0.004033    0.000000
 ---------------------------------------------------------------------

 SCF Done:  E(RHF) =  -215.959234162     A.U. after    2 cycles

 The electronic state is 1-A'.
 Alpha  occ. eigenvalues --  -26.12070 -11.32702 -11.24122 -11.23564  -1.65346
 Alpha  occ. eigenvalues --   -1.01869  -0.98231  -0.79325  -0.75607  -0.73587
 Alpha  occ. eigenvalues --   -0.72709  -0.65747  -0.56537  -0.56413  -0.40555
 Alpha  occ. eigenvalues --   -0.40548
 Alpha virt. eigenvalues --    0.03348   0.04200   0.05530   0.05782   0.07084
 Alpha virt. eigenvalues --    0.10824   0.11608   0.12489   0.13191   0.14361
 Alpha virt. eigenvalues --    0.14862   0.15902   0.17286   0.17585   0.18633

 Mulliken charges:
               1
     1  C    0.385861
     2  H   -0.215244
     3  C    0.160780
     4  H   -0.329992
     5  H   -0.103012
     6  H   -0.103012
     7  H   -0.156786
     8  C    0.812761
     9  F   -0.451355
 Sum of Mulliken charges =  -0.00000

 Dipole moment (field-independent basis, Debye):
    X=              0.2050    Y=             -2.4288    Z=              0.0000  Tot=              2.4374

 Test job not archived.
 1\1\GINC-SE219\SP\RHF\Aug-CC-pVDZ\C3H5F1\OHZDE\09-Apr-2025\0\\#t hf au
 g-cc-pvdz iop(5/13=1,5/36=2,99/5=2) pseudo=read geom=check guess=(read
 ,tcheck) scf=(maxcycle=1)\\title\\0,1\C,0,0.31595013,-1.6374503,0.\H,0
 ,0.81540337,-0.69773821,0.\C,0,-0.25942719,-2.68621438,0.\H,0,-0.76390
 634,-3.61984886,0.\H,0,-0.95430603,1.92432786,0.8938929\H,0,-0.9543060
 3,1.92432786,-0.8938929\H,0,-1.25380275,0.40542392,0.\C,0,-0.71632709,
 1.35159043,0.\F,0,0.65402786,1.08327669,0.\\Version=ES64L-G16RevC.01\S
 tate=1-A'\HF=-215.9592342\RMSD=6.814e-03\Dipole=-0.8850081,0.3692365,0

 Normal termination of Gaussian 16 at Wed Apr  9 17:56:13 2025.
