 Gaussian 16, Revision C.01,

 ----------------------------------------------------------------------
 #t hf aug-cc-pvdz symm=none int=(grid=ultrafine) guess=(read,tcheck) s
 table=(opt,rrhf)
 ----------------------------------------------------------------------
 -----
 title
 -----
 Symbolic Z-matrix:
 Charge =  0 Multiplicity = 1

 SCF Done:  E(RHF) =  -969.533589778     A.U. after   13 cycles
 Normal termination of Gaussian 16 at Wed Apr  9 17:29:38 2025.
 Gaussian 16:  ES64L-G16RevC.01  3-Jul-2019

 ----------------------------------------------------------------------
 #t hf aug-cc-pvdz iop(5/13=1,5/36=2,99/5=2) pseudo=read geom=check gue
 ss=(read,tcheck) scf=(maxcycle=1)
 ----------------------------------------------------------------------
 -----
 title
 -----
 Structure from the checkpoint file:  "HB300SPXx10_1065_4.10_1.00_methylamine_dimethyldisulfide_dimer_mol1.chk"
 Charge =  0 Multiplicity = 1

                         Standard orientation:
 ---------------------------------------------------------------------
 Center     Atomic      Atomic             Coordinates (Angstroms)
 Number     Number       Type             X           Y           Z
 ---------------------------------------------------------------------
      1          7           0        2.252712    0.915891   -0.003934
      2          1           0        2.461876    1.859126   -0.302857
      3          1           0        1.535185    0.560469   -0.624520
      4          6           0        3.449474    0.076909   -0.063890
      5          1           0        3.199353   -0.928693    0.272571
      6          1           0        3.904876   -0.006474   -1.057118
      7          1           0        4.201795    0.468577    0.619704
      8          1           0       -1.766601    2.599107    0.646222
      9          1           0       -0.774785    2.200184   -0.771358
     10          1           0       -0.231421    1.727277    0.860109
     11          1           0       -0.597704   -2.026989    1.561871
     12          1           0        0.712384   -0.831886    1.313094
     13          1           0        0.800186   -2.430831    0.542800
     14          6           0       -1.091740    1.862675    0.211704
     15         16           0       -2.055565    0.323172    0.076190
     16         16           0       -0.703958   -1.038774   -0.644359
     17          6           0        0.131974   -1.631495    0.861806
 ---------------------------------------------------------------------

 SCF Done:  E(RHF) =  -969.635868853     A.U. after    2 cycles

 The electronic state is 1-A.
 Alpha  occ. eigenvalues --  -93.55247 -93.55066 -15.60589 -11.26395 -11.26337
 Alpha  occ. eigenvalues --  -11.25639  -8.84863  -8.84694  -6.19021  -6.18817
 Alpha  occ. eigenvalues --   -6.18723  -6.18560  -6.18464  -6.18234  -1.14173
 Alpha  occ. eigenvalues --   -1.06883  -0.99826  -0.89737  -0.89453  -0.77386
 Alpha  occ. eigenvalues --   -0.66904  -0.60982  -0.60756  -0.59738  -0.59521
 Alpha  occ. eigenvalues --   -0.57948  -0.55933  -0.52903  -0.52069  -0.48524
 Alpha  occ. eigenvalues --   -0.43416  -0.38882  -0.35593  -0.34609
 Alpha virt. eigenvalues --    0.03286   0.04050   0.04501   0.04967   0.06083
 Alpha virt. eigenvalues --    0.06684   0.07277   0.07889   0.08476   0.09471
 Alpha virt. eigenvalues --    0.09900   0.10380   0.11630   0.13178   0.14328

 Mulliken charges:
               1
     1  N   -0.376914
     2  H   -0.036507
     3  H    0.079076
     4  C    0.833986
     5  H   -0.230134
     6  H   -0.130075
     7  H   -0.175374
     8  H   -0.120607
     9  H   -0.083883
    10  H   -0.074629
    11  H   -0.117496
    12  H   -0.139924
    13  H   -0.068211
    14  C    0.240769
    15  S    0.093315
    16  S    0.014553
    17  C    0.292055
 Sum of Mulliken charges =   0.00000

 Dipole moment (field-independent basis, Debye):
    X=              2.0615    Y=              0.9266    Z=              0.3232  Tot=              2.2832

 Test job not archived.
 1\1\GINC-SE029\SP\RHF\Aug-CC-pVDZ\C3H11N1S2\OHZDE\09-Apr-2025\0\\#t hf
  aug-cc-pvdz iop(5/13=1,5/36=2,99/5=2) pseudo=read geom=check guess=(r
 ead,tcheck) scf=(maxcycle=1)\\title\\0,1\N,0,-0.790217,0.77789413,2.28
 472778\H,0,-1.73224372,0.61681804,2.6155392\H,0,-0.85550262,0.99181266
 ,1.29666237\C,0,-0.16836631,1.8838218,3.01270443\H,0,0.84688345,2.0289
 6517,2.64500493\H,0,-0.69345824,2.84224623,2.93178871\H,0,-0.0959132,1
 .62767695,4.06903376\H,0,-1.69754833,-2.66796822,-0.30632981\H,0,-2.22
 673006,-0.97544622,-0.21853358\H,0,-0.89394691,-1.54909758,0.81837778\

 Normal termination of Gaussian 16 at Wed Apr  9 17:29:45 2025.
