 Gaussian 16, Revision C.01,

 ----------------------------------------------------------------------
 #t hf aug-cc-pvdz symm=none int=(grid=ultrafine) guess=(read,tcheck) s
 table=(opt,rrhf)
 ----------------------------------------------------------------------
 -----
 title
 -----
 Symbolic Z-matrix:
 Charge =  0 Multiplicity = 1

 SCF Done:  E(RHF) =  -3015.76415422     A.U. after   14 cycles
 Normal termination of Gaussian 16 at Wed Apr  9 04:10:29 2025.
 Gaussian 16:  ES64L-G16RevC.01  3-Jul-2019

 ----------------------------------------------------------------------
 #t hf aug-cc-pvdz iop(5/13=1,5/36=2,99/5=2) pseudo=read geom=check gue
 ss=(read,tcheck) scf=(maxcycle=1)
 ----------------------------------------------------------------------
 -----
 title
 -----
 Structure from the checkpoint file:  "HB300SPXx10_1345_4.39_1.00_hydrogenchloride_P4S3_dimer_mol1.chk"
 Charge =  0 Multiplicity = 1

                         Standard orientation:
 ---------------------------------------------------------------------
 Center     Atomic      Atomic             Coordinates (Angstroms)
 Number     Number       Type             X           Y           Z
 ---------------------------------------------------------------------
      1          1           0       -2.631313   -0.480419   -0.503069
      2         17           0       -3.708100    0.006175    0.016299
      3         16           0       -0.399684   -0.718654   -1.560146
      4         15           0       -0.140419    1.323885   -1.076611
      5         16           0       -0.210873   -0.732210    1.668432
      6         16           0        2.487446   -0.660406   -0.122541
      7         15           0        1.872106    1.357001   -0.067889
      8         15           0       -0.009790    1.306997    1.170330
      9         15           0        0.654022   -1.710832    0.004442
 ---------------------------------------------------------------------

 SCF Done:  E(RHF) =  -3015.90768218     A.U. after    2 cycles

 The electronic state is 1-A.
 Alpha  occ. eigenvalues -- -103.66445 -93.58377 -93.57876 -93.57859 -81.36463
 Alpha  occ. eigenvalues --  -81.32599 -81.32530 -81.32500 -10.69711  -8.88255
 Alpha  occ. eigenvalues --   -8.87812  -8.87789  -8.35469  -8.35163  -8.35159
 Alpha  occ. eigenvalues --   -7.86221  -7.82773  -7.82702  -7.82674  -6.22321
 Alpha  occ. eigenvalues --   -6.22095  -6.21878  -6.21867  -6.21848  -6.21655
 Alpha  occ. eigenvalues --   -6.21608  -6.21340  -6.21320  -4.99909  -4.99903
 Alpha  occ. eigenvalues --   -4.99697  -4.96576  -4.96464  -4.96422  -4.96258
 Alpha  occ. eigenvalues --   -4.96230  -4.96184  -4.96164  -4.96134  -4.96123
 Alpha  occ. eigenvalues --   -1.14969  -1.07087  -0.97973  -0.97816  -0.89717
 Alpha  occ. eigenvalues --   -0.72576  -0.68803  -0.68784  -0.63098  -0.55236
 Alpha  occ. eigenvalues --   -0.54812  -0.54583  -0.48090  -0.47976  -0.45807
 Alpha  occ. eigenvalues --   -0.43954  -0.43904  -0.42669  -0.42414  -0.39150
 Alpha  occ. eigenvalues --   -0.38002  -0.34746  -0.34651
 Alpha virt. eigenvalues --    0.02765   0.05199   0.05368   0.05580   0.05806
 Alpha virt. eigenvalues --    0.06148   0.06248   0.07371   0.07488   0.08560
 Alpha virt. eigenvalues --    0.09816   0.09929   0.10491   0.10674   0.10781

 Mulliken charges:
               1
     1  H    0.192069
     2  Cl  -0.120976
     3  S   -0.388889
     4  P    0.220673
     5  S   -0.267315
     6  S   -0.255156
     7  P    0.190522
     8  P    0.227604
     9  P    0.201467
 Sum of Mulliken charges =  -0.00000

 Dipole moment (field-independent basis, Debye):
    X=              1.7337    Y=              0.2535    Z=             -0.2412  Tot=              1.7686

 Test job not archived.
 1\1\GINC-SE226\SP\RHF\Aug-CC-pVDZ\Cl1H1P4S3\OHZDE\09-Apr-2025\0\\#t hf
  aug-cc-pvdz iop(5/13=1,5/36=2,99/5=2) pseudo=read geom=check guess=(r
 ead,tcheck) scf=(maxcycle=1)\\title\\0,1\H,0,-0.57388532,0.23171594,-0
 .00983813\Cl,0,-1.31085335,0.72448843,-0.94794305\S,0,0.90321132,-0.02
 141964,1.96714012\P,0,0.39618944,1.98758674,2.39118072\S,0,-2.22478984
 ,-0.19281382,2.77074378\S,0,0.0493062,-0.11538199,5.0764225\P,0,-0.205
 21928,1.91430125,4.55954628\P,0,-1.78060184,1.86088541,2.94940971\P,0,
 -0.38664937,-1.11665891,3.26304075\\Version=ES64L-G16RevC.01\State=1-A

 Normal termination of Gaussian 16 at Wed Apr  9 04:10:35 2025.
