 Gaussian 16, Revision C.01,

 ----------------------------------------------------------------------
 #t hf aug-cc-pvdz symm=none int=(grid=ultrafine) guess=(read,tcheck) s
 table=(opt,rrhf)
 ----------------------------------------------------------------------
 -----
 title
 -----
 Symbolic Z-matrix:
 Charge =  0 Multiplicity = 1

 SCF Done:  E(RHF) =  -1037.69944425     A.U. after   14 cycles
 Normal termination of Gaussian 16 at Wed Apr  9 18:01:32 2025.
 Gaussian 16:  ES64L-G16RevC.01  3-Jul-2019

 ----------------------------------------------------------------------
 #t hf aug-cc-pvdz iop(5/13=1,5/36=2,99/5=2) pseudo=read geom=check gue
 ss=(read,tcheck) scf=(maxcycle=1)
 ----------------------------------------------------------------------
 -----
 title
 -----
 Structure from the checkpoint file:  "HB300SPXx10_1475_5.10_1.00_phosphaalkene_phosphineF2_dimer_mol1.chk"
 Charge =  0 Multiplicity = 1

                         Standard orientation:
 ---------------------------------------------------------------------
 Center     Atomic      Atomic             Coordinates (Angstroms)
 Number     Number       Type             X           Y           Z
 ---------------------------------------------------------------------
      1          1           0       -1.672538   -2.932228   -0.589193
      2          1           0       -0.683400   -2.180989    0.664182
      3          1           0       -2.451452   -2.087247    0.747940
      4          1           0       -1.459713    2.149426   -1.515847
      5          1           0       -0.532883    1.203359    1.996345
      6          1           0       -2.280882    2.702372   -0.051502
      7          1           0       -0.525337    2.657892   -0.101825
      8          1           0       -1.360819   -0.354783    2.001642
      9          1           0       -2.282368    1.151905    2.043425
     10         15           0       -1.562372   -0.538900   -0.966796
     11          6           0       -1.448469    0.735288    0.124714
     12          6           0       -1.426489    2.133891   -0.427946
     13          6           0       -1.402642    0.659611    1.619514
     14          6           0       -1.593811   -2.074743    0.076634
     15         15           0        1.764738    0.264790   -0.215411
     16          9           0        3.366573    0.189758   -0.240573
     17          9           0        1.508232   -0.897699    0.857148
     18          1           0        1.569124   -0.550866   -1.368727
 ---------------------------------------------------------------------

 SCF Done:  E(RHF) =  -1037.87910394     A.U. after    2 cycles

 The electronic state is 1-A.
 Alpha  occ. eigenvalues --  -81.39215 -81.24116 -26.13947 -26.13297 -11.27866
 Alpha  occ. eigenvalues --  -11.24463 -11.24186 -11.23308  -7.87960  -7.74692
 Alpha  occ. eigenvalues --   -5.02101  -5.01830  -5.01348  -4.88751  -4.88380
 Alpha  occ. eigenvalues --   -4.88349  -1.67414  -1.65793  -1.07493  -0.96316
 Alpha  occ. eigenvalues --   -0.94945  -0.89889  -0.82783  -0.79382  -0.77780
 Alpha  occ. eigenvalues --   -0.76972  -0.73657  -0.71052  -0.67319  -0.62300
 Alpha  occ. eigenvalues --   -0.60660  -0.60299  -0.59394  -0.57038  -0.55225
 Alpha  occ. eigenvalues --   -0.55193  -0.51956  -0.47232  -0.40519  -0.36020
 Alpha  occ. eigenvalues --   -0.32323
 Alpha virt. eigenvalues --    0.03355   0.04192   0.04491   0.04892   0.06249
 Alpha virt. eigenvalues --    0.06563   0.06803   0.07138   0.07845   0.08081
 Alpha virt. eigenvalues --    0.09190   0.09601   0.10330   0.11064   0.11893

 Mulliken charges:
               1
     1  H   -0.345711
     2  H   -0.164767
     3  H   -0.148741
     4  H   -0.162767
     5  H   -0.035354
     6  H    0.032756
     7  H   -0.009362
     8  H   -0.181208
     9  H    0.005540
    10  P    0.202924
    11  C   -0.628155
    12  C    0.566377
    13  C    0.600163
    14  C    0.277587
    15  P    1.298618
    16  F   -0.653707
    17  F   -0.673697
    18  H    0.019504
 Sum of Mulliken charges =   0.00000

 Dipole moment (field-independent basis, Debye):
    X=             -1.8620    Y=              0.7768    Z=              0.3080  Tot=              2.0409

 Test job not archived.
 1\1\GINC-SE362\SP\RHF\Aug-CC-pVDZ\C4H10F2P2\OHZDE\09-Apr-2025\0\\#t hf
  aug-cc-pvdz iop(5/13=1,5/36=2,99/5=2) pseudo=read geom=check guess=(r
 ead,tcheck) scf=(maxcycle=1)\\title\\0,1\H,0,-0.66372889,3.26375392,-1
 .41484082\H,0,0.57607353,2.07688321,-1.82463407\H,0,-0.55842324,2.6448
 712,-3.06242126\H,0,-2.87100416,-1.40911587,-1.55416728\H,0,0.42715494
 ,-1.23076192,-3.33739031\H,0,-2.60862974,-1.75549695,-3.26751243\H,0,-
 1.47646146,-2.36750684,-2.07165071\H,0,0.4157342,0.51539066,-3.5906339
 2\H,0,-0.67072928,-0.53226666,-4.50884988\P,0,-1.6570918,1.05342876,-1

 Normal termination of Gaussian 16 at Wed Apr  9 18:01:39 2025.
