 Gaussian 16, Revision C.01,

 ----------------------------------------------------------------------
 #t hf aug-cc-pvdz symm=none int=(grid=ultrafine) guess=(read,tcheck) s
 table=(opt,rrhf)
 ----------------------------------------------------------------------
 -----
 title
 -----
 Symbolic Z-matrix:
 Charge =  0 Multiplicity = 1

 SCF Done:  E(RHF) =  -855.911079411     A.U. after   14 cycles
 Normal termination of Gaussian 16 at Wed Apr  9 17:23:15 2025.
 Gaussian 16:  ES64L-G16RevC.01  3-Jul-2019

 ----------------------------------------------------------------------
 #t hf aug-cc-pvdz iop(5/13=1,5/36=2,99/5=2) pseudo=read geom=check gue
 ss=(read,tcheck) scf=(maxcycle=1)
 ----------------------------------------------------------------------
 -----
 title
 -----
 Structure from the checkpoint file:  "HB300SPXx10_1037_4.07_1.10_phosphaalkyne_methanethiol_dimer_mol1.chk"
 Charge =  0 Multiplicity = 1

                         Standard orientation:
 ---------------------------------------------------------------------
 Center     Atomic      Atomic             Coordinates (Angstroms)
 Number     Number       Type             X           Y           Z
 ---------------------------------------------------------------------
      1          1           0       -1.738614    2.120579    1.244680
      2          1           0       -1.984175    2.418200   -0.478540
      3          1           0       -0.379919    1.975651    0.116990
      4         15           0       -2.059351   -1.103835   -0.170346
      5          6           0       -1.754094    0.390881    0.042861
      6          6           0       -1.450470    1.796859    0.242870
      7          1           0        1.037163   -0.227473    1.500754
      8          1           0        2.800837   -0.235698    1.672828
      9          1           0        1.977195   -1.651634    1.004095
     10          1           0        1.097030   -0.310664   -1.146137
     11          6           0        1.968352   -0.567056    1.057782
     12         16           0        2.218626    0.171528   -0.588784
 ---------------------------------------------------------------------

 SCF Done:  E(RHF) =  -855.987209247     A.U. after    2 cycles

 The electronic state is 1-A.
 Alpha  occ. eigenvalues --  -93.53161 -81.24747 -11.29147 -11.26588 -11.26575
 Alpha  occ. eigenvalues --   -8.82916  -7.75637  -6.17076  -6.16863  -6.16535
 Alpha  occ. eigenvalues --   -4.89641  -4.89122  -4.89100  -1.04423  -1.02474
 Alpha  occ. eigenvalues --   -0.88270  -0.85876  -0.65265  -0.61083  -0.60235
 Alpha  occ. eigenvalues --   -0.60183  -0.58919  -0.52658  -0.46456  -0.45546
 Alpha  occ. eigenvalues --   -0.36285  -0.36202  -0.35362
 Alpha virt. eigenvalues --    0.03221   0.04360   0.05041   0.05572   0.06403
 Alpha virt. eigenvalues --    0.06907   0.07301   0.07843   0.08023   0.08773
 Alpha virt. eigenvalues --    0.11116   0.12383   0.12669   0.14244   0.14398

 Mulliken charges:
               1
     1  H    0.058225
     2  H    0.017996
     3  H   -0.008891
     4  P   -0.214442
     5  C   -0.402430
     6  C    0.544852
     7  H   -0.123616
     8  H   -0.091659
     9  H   -0.113767
    10  H    0.082646
    11  C    0.119099
    12  S    0.131988
 Sum of Mulliken charges =   0.00000

 Dipole moment (field-independent basis, Debye):
    X=             -0.7394    Y=              0.2068    Z=              1.2422  Tot=              1.4603

 Test job not archived.
 1\1\GINC-SE219\SP\RHF\Aug-CC-pVDZ\C3H7P1S1\OHZDE\09-Apr-2025\0\\#t hf
 aug-cc-pvdz iop(5/13=1,5/36=2,99/5=2) pseudo=read geom=check guess=(re
 ad,tcheck) scf=(maxcycle=1)\\title\\0,1\H,0,0.38933231,2.34404549,-1.6
 8180664\H,0,-1.19987448,1.75919838,-2.18254684\H,0,0.10218747,0.605834
 91,-1.86864837\P,0,-1.17058474,1.34195856,1.32892267\C,0,-0.7484701,1.
 45533882,-0.14816129\C,0,-0.34350289,1.5476729,-1.53972175\H,0,1.88797
 675,-0.31674106,0.30769959\H,0,2.93140287,-1.73614709,0.11593386\H,0,1
 .85881996,-1.61777544,1.51808178\H,0,-0.36132304,-1.68451468,0.0137874

 Normal termination of Gaussian 16 at Wed Apr  9 17:23:19 2025.
