 Gaussian 16, Revision C.01,

 ----------------------------------------------------------------------
 #t hf aug-cc-pvdz symm=none int=(grid=ultrafine) guess=(read,tcheck) s
 table=(opt,rrhf)
 ----------------------------------------------------------------------
 -----
 title
 -----
 Symbolic Z-matrix:
 Charge =  0 Multiplicity = 1

 SCF Done:  E(RHF) =  -904.397133327     A.U. after   17 cycles
 Normal termination of Gaussian 16 at Fri Sep 20 14:16:27 2024.
 Gaussian 16:  ES64L-G16RevC.01  3-Jul-2019

 ----------------------------------------------------------------------
 #t symm=none mp2 aug-cc-pvdz geom=allcheck guess=(read,tcheck) int=(gr
 id=ultrafine)
 ----------------------------------------------------------------------
 Structure from the checkpoint file:  "02_94TS.chk"
 -----
 title
 -----
 Charge =  0 Multiplicity = 1

                          Input orientation:
 ---------------------------------------------------------------------
 Center     Atomic      Atomic             Coordinates (Angstroms)
 Number     Number       Type             X           Y           Z
 ---------------------------------------------------------------------
      1          6           0        0.135774   -2.358284   -0.449993
      2          1           0       -0.227450   -2.944753   -1.314959
      3          6           0        1.254932   -1.441691   -0.885563
      4          6           0       -0.231289    0.523174   -0.612949
      5          1           0       -0.410239    1.093656    0.297400
      6          1           0       -0.344500    1.212395   -1.450293
      7          6           0       -1.331639   -0.537186   -0.710317
      8          1           0       -1.382067   -0.903398   -1.754548
      9          7           0       -0.959288   -1.640007    0.165089
     10          6           0        2.282751    0.652418   -0.140017
     11          6           0        2.423061   -2.007484   -1.361153
     12          1           0        2.923582   -1.492721   -2.163489
     13          1           0        2.516113   -3.090597   -1.392965
     14          6           0        3.415123   -0.036838    0.337766
     15          6           0        4.041720   -1.186072   -0.121360
     16          6           0        1.166123   -0.064962   -0.632971
     17          1           0        4.441540   -1.184232   -1.119833
     18          1           0        3.752124    0.306434    1.315712
     19          6           0        4.829312   -2.044313    0.836086
     20          1           0        4.781844   -3.094699    0.541354
     21          1           0        5.887780   -1.762854    0.843968
     22          1           0        4.444420   -1.967648    1.854225
     23          6           0       -2.062791   -2.515142    0.504922
     24          1           0       -2.543493   -2.930875   -0.400097
     25          1           0       -1.667611   -3.357673    1.077046
     26          6           0       -2.684232    0.058405   -0.376117
     27          6           0       -3.507851   -0.497898    0.601538
     28          6           0       -3.079244   -1.746070    1.326236
     29          1           0       -2.628738   -1.483096    2.288213
     30          1           0       -3.951209   -2.371257    1.534366
     31          1           0        0.541714   -3.075360    0.272334
     32          6           0       -4.736984    0.097779    0.879532
     33          1           0       -5.373892   -0.342981    1.639344
     34          6           0       -3.124486    1.184568   -1.071862
     35          1           0       -2.501573    1.609028   -1.850709
     36          6           0       -5.157463    1.226822    0.199084
     37          1           0       -6.116714    1.675200    0.428052
     38          6           0       -4.346436    1.769874   -0.789860
     39          1           0       -4.668065    2.644709   -1.341995
     40          6           0        2.214629    2.141957    0.300256
     41          6           0        1.674614    2.259975    1.734985
     42          1           0        0.669809    1.847836    1.831036
     43          1           0        2.318052    1.728389    2.439322
     44          1           0        1.639182    3.309424    2.040627
     45          6           0        1.378541    3.022489   -0.647727
     46          1           0        1.576454    2.774455   -1.693273
     47          1           0        0.309015    2.951266   -0.472736
     48          1           0        1.655823    4.068352   -0.498689
     49          6           0        3.631312    2.750420    0.267679
     50          1           0        4.054704    2.691328   -0.737644
     51          1           0        4.321923    2.254568    0.948166
     52          1           0        3.583618    3.803500    0.555283
 ---------------------------------------------------------------------

 SCF Done:  E(RHF) =  -904.397133330     A.U. after    3 cycles
 E2 =    -0.3342583373D+01 EUMP2 =    -0.90773971670303D+03

 Alpha  occ. eigenvalues --  -15.54996 -11.26071 -11.25303 -11.25208 -11.24438
 Alpha  occ. eigenvalues --  -11.24171 -11.23953 -11.23794 -11.23675 -11.23347
 Alpha  occ. eigenvalues --  -11.23260 -11.23168 -11.23093 -11.23069 -11.23028
 Alpha  occ. eigenvalues --  -11.22780 -11.22356 -11.22318 -11.22136 -11.21977
 Alpha  occ. eigenvalues --  -11.21324 -11.21105 -11.21039  -1.25477  -1.15784
 Alpha  occ. eigenvalues --   -1.14057  -1.09083  -1.07041  -1.05601  -1.04767
 Alpha  occ. eigenvalues --   -1.00497  -0.99406  -0.96735  -0.92942  -0.92825
 Alpha  occ. eigenvalues --   -0.91931  -0.88829  -0.85813  -0.83864  -0.82610
 Alpha  occ. eigenvalues --   -0.80815  -0.76866  -0.75044  -0.73212  -0.69299
 Alpha  occ. eigenvalues --   -0.66817  -0.66474  -0.65230  -0.63915  -0.63154
 Alpha  occ. eigenvalues --   -0.62781  -0.60887  -0.60226  -0.59572  -0.58990
 Alpha  occ. eigenvalues --   -0.58620  -0.57920  -0.56939  -0.56347  -0.56128
 Alpha  occ. eigenvalues --   -0.54534  -0.54226  -0.54139  -0.53240  -0.52181
 Alpha  occ. eigenvalues --   -0.52050  -0.51692  -0.51481  -0.51004  -0.49819
 Alpha  occ. eigenvalues --   -0.49735  -0.48668  -0.47458  -0.46870  -0.46073
 Alpha  occ. eigenvalues --   -0.45405  -0.44319  -0.43549  -0.41574  -0.35750
 Alpha  occ. eigenvalues --   -0.32626  -0.31902  -0.29376  -0.27272
 Alpha virt. eigenvalues --    0.03131   0.03515   0.03705   0.03912   0.04422
 Alpha virt. eigenvalues --    0.04692   0.05167   0.05256   0.05328   0.05946
 Alpha virt. eigenvalues --    0.06003   0.06661   0.06871   0.07075   0.07377

 Mulliken charges:
               1
     1  C    0.132537
     2  H    0.079259
     3  C   -0.154128
     4  C   -0.044457
     5  H   -0.262641
     6  H   -0.020434
     7  C    0.338966
     8  H   -0.073187
     9  N   -0.680083
    10  C   -0.779306
    11  C    0.827504
    12  H   -0.212293
    13  H   -0.526507
    14  C    1.680058
    15  C   -0.369577
    16  C   -0.176573
    17  H   -0.215254
    18  H   -0.709260
    19  C    0.647113
    20  H   -0.058821
    21  H    0.013358
    22  H   -0.125279
    23  C    1.114042
    24  H   -0.155236
    25  H   -0.308722
    26  C    0.865417
    27  C   -0.157590
    28  C    0.502146
    29  H    0.078065
    30  H   -0.054490
    31  H   -0.223086
    32  C    0.792821
    33  H   -0.648925
    34  C    0.466464
    35  H   -0.723543
    36  C    0.158919
    37  H   -0.478300
    38  C    0.017790
    39  H   -0.542788
    40  C   -3.451933
    41  C    1.230486
    42  H   -0.114779
    43  H   -0.150320
    44  H   -0.051130
    45  C    1.298718
    46  H   -0.082034
    47  H   -0.024551
    48  H   -0.138592
    49  C    1.649941
    50  H   -0.012206
    51  H   -0.049660
    52  H   -0.117920
 Sum of Mulliken charges =  -0.00000

 Dipole moment (field-independent basis, Debye):
    X=              0.3953    Y=             -0.8452    Z=              0.0107  Tot=              0.9332
 Unable to Open any file for archive entry.
 1\1\GINC-SE017\SP\RMP2-FC\Aug-CC-pVDZ\C22H29N1\OHZDE\20-Sep-2024\0\\#t
  symm=none mp2 aug-cc-pvdz geom=allcheck guess=(read,tcheck) int=(grid
 =ultrafine)\\title\\0,1\C,0,0.135774,-2.358284,-0.449993\H,0,-0.22745,
 -2.944753,-1.314959\C,0,1.254932,-1.441691,-0.885563\C,0,-0.231289,0.5
 23174,-0.612949\H,0,-0.410239,1.093656,0.2974\H,0,-0.3445,1.212395,-1.
 450293\C,0,-1.331639,-0.537186,-0.710317\H,0,-1.382067,-0.903398,-1.75
 4548\N,0,-0.959288,-1.640007,0.165089\C,0,2.282751,0.652418,-0.140017\
 C,0,2.423061,-2.007484,-1.361153\H,0,2.923582,-1.492721,-2.163489\H,0,
 2.516113,-3.090597,-1.392965\C,0,3.415123,-0.036838,0.337766\C,0,4.041

 Normal termination of Gaussian 16 at Fri Sep 20 16:46:02 2024.
