 Gaussian 16, Revision C.01,

 ----------------------------------------------------------------------
 #t hf aug-cc-pvdz symm=none int=(grid=ultrafine) guess=(read,tcheck) s
 table=(opt,rrhf)
 ----------------------------------------------------------------------
 -----
 title
 -----
 Symbolic Z-matrix:
 Charge =  1 Multiplicity = 1

 SCF Done:  E(RHF) =  -1109.82376103     A.U. after   19 cycles
 Normal termination of Gaussian 16 at Fri Sep 20 22:38:57 2024.
 Gaussian 16:  ES64L-G16RevC.01  3-Jul-2019

 ----------------------------------------------------------------------
 #t symm=none mp2 aug-cc-pvdz geom=allcheck guess=(read,tcheck) int=(gr
 id=ultrafine)
 ----------------------------------------------------------------------
 Structure from the checkpoint file:  "05_23TS.chk"
 -----
 title
 -----
 Charge =  1 Multiplicity = 1

                          Input orientation:
 ---------------------------------------------------------------------
 Center     Atomic      Atomic             Coordinates (Angstroms)
 Number     Number       Type             X           Y           Z
 ---------------------------------------------------------------------
      1          6           0        1.523049   -1.809286   -0.535382
      2          6           0        0.920126   -0.527359    1.708369
      3          6           0        2.079999    0.423544    1.407451
      4          6           0        3.196348   -0.177355    0.550293
      5          6           0        2.653791   -0.798989   -0.738508
      6          1           0        1.697472    1.304603    0.893618
      7          1           0        2.496918    0.758789    2.359312
      8          1           0        3.718409   -0.944141    1.126545
      9          1           0        2.303628    0.007148   -1.382426
     10          1           0        3.466093   -1.304136   -1.264995
     11          7           0        0.531763   -1.212176    0.425430
     12          8           0       -0.675817   -1.562324    0.305284
     13          6           0        0.826377   -2.080939   -1.865271
     14          1           0        0.069425   -2.858471   -1.771335
     15          1           0        0.362966   -1.189098   -2.282448
     16          1           0        1.580220   -2.426950   -2.572561
     17          6           0        2.029461   -3.148236    0.025459
     18          1           0        1.195750   -3.781289    0.331575
     19          1           0        2.572195   -3.664899   -0.766985
     20          1           0        2.707836   -3.032780    0.866510
     21          6           0       -0.275487    0.265530    2.230206
     22          1           0        0.047653    0.812524    3.115940
     23          1           0       -0.634223    0.995992    1.508035
     24          1           0       -1.101464   -0.383882    2.515260
     25          6           0        1.288730   -1.588148    2.757395
     26          1           0        1.358382   -1.096099    3.728337
     27          1           0        0.516046   -2.355158    2.822615
     28          1           0        2.243597   -2.069598    2.564327
     29          6           0       -1.858326    0.195917   -1.090456
     30          1           0       -1.346325   -0.747194   -0.316104
     31          6           0       -3.041811    0.586283   -0.254587
     32          6           0       -3.717203   -0.344260    0.533523
     33          6           0       -3.482090    1.909760   -0.282624
     34          6           0       -4.819172    0.040842    1.279710
     35          1           0       -3.374012   -1.370935    0.579660
     36          6           0       -4.593463    2.287980    0.454912
     37          1           0       -2.971944    2.641804   -0.896220
     38          6           0       -5.260015    1.356873    1.239061
     39          1           0       -5.333929   -0.686443    1.894637
     40          1           0       -4.937538    3.313855    0.417127
     41          1           0       -6.122900    1.657149    1.820116
     42          8           0       -2.063313   -0.427636   -2.271793
     43          6           0       -3.205032   -1.268876   -2.461167
     44          1           0       -3.130731   -2.159142   -1.834054
     45          1           0       -4.124883   -0.729513   -2.237738
     46          1           0       -3.179568   -1.555280   -3.508499
     47          6           0       -0.671114    1.092049   -1.160729
     48          1           0       -0.416693    1.325079   -2.193334
     49          1           0       -0.802614    2.004124   -0.584501
     50          1           0        0.216361    0.591066   -0.730132
     51          7           0        4.201702    0.834840    0.242822
     52          6           0        3.938829    1.967643   -0.470178
     53          6           0        5.105104    2.893598   -0.694651
     54          1           0        6.033104    2.548188   -0.239321
     55          1           0        5.254211    3.009017   -1.768652
     56          1           0        4.851454    3.874859   -0.292877
     57          1           0        5.141613    0.686533    0.569973
     58          8           0        2.824208    2.215736   -0.901753
 ---------------------------------------------------------------------

 SCF Done:  E(RHF) =  -1109.82376103     A.U. after    3 cycles
 E2 =    -0.3906967967D+01 EUMP2 =    -0.11137307290000D+04

 Alpha  occ. eigenvalues --  -20.83070 -20.72919 -20.62258 -15.83078 -15.69443
 Alpha  occ. eigenvalues --  -11.47738 -11.45515 -11.41751 -11.41674 -11.39979
 Alpha  occ. eigenvalues --  -11.39353 -11.37073 -11.35874 -11.35815 -11.35663
 Alpha  occ. eigenvalues --  -11.35004 -11.34836 -11.34732 -11.34448 -11.34419
 Alpha  occ. eigenvalues --  -11.34336 -11.34312 -11.34154 -11.33896 -11.32734
 Alpha  occ. eigenvalues --   -1.66335  -1.55016  -1.48555  -1.34580  -1.31100
 Alpha  occ. eigenvalues --   -1.28034  -1.23489  -1.20128  -1.16721  -1.13603
 Alpha  occ. eigenvalues --   -1.12857  -1.12230  -1.08505  -1.07133  -1.06034
 Alpha  occ. eigenvalues --   -1.05726  -1.05688  -0.99168  -0.97201  -0.95362
 Alpha  occ. eigenvalues --   -0.94772  -0.91918  -0.89221  -0.87484  -0.85224
 Alpha  occ. eigenvalues --   -0.83159  -0.81722  -0.81512  -0.79600  -0.78538
 Alpha  occ. eigenvalues --   -0.78400  -0.77298  -0.75281  -0.74206  -0.73775
 Alpha  occ. eigenvalues --   -0.73204  -0.72942  -0.71376  -0.71017  -0.70551
 Alpha  occ. eigenvalues --   -0.70166  -0.69444  -0.69147  -0.68797  -0.68029
 Alpha  occ. eigenvalues --   -0.67789  -0.67286  -0.66613  -0.65928  -0.64942
 Alpha  occ. eigenvalues --   -0.64554  -0.64500  -0.64143  -0.63780  -0.63681
 Alpha  occ. eigenvalues --   -0.62154  -0.61606  -0.61404  -0.60651  -0.60420
 Alpha  occ. eigenvalues --   -0.60226  -0.59330  -0.58909  -0.57855  -0.57639
 Alpha  occ. eigenvalues --   -0.51415  -0.49350  -0.47434  -0.45036  -0.44351
 Alpha virt. eigenvalues --   -0.12936  -0.05156  -0.04501  -0.04026  -0.03869
 Alpha virt. eigenvalues --   -0.03032  -0.02887  -0.02800  -0.02466  -0.02261
 Alpha virt. eigenvalues --   -0.01382  -0.01302  -0.01163  -0.01006  -0.00624

 Mulliken charges:
               1
     1  C   -3.632269
     2  C   -3.836588
     3  C    1.905989
     4  C   -0.586654
     5  C    1.808571
     6  H    0.099185
     7  H   -0.170705
     8  H   -0.334902
     9  H    0.083557
    10  H   -0.174282
    11  N   -0.118912
    12  O   -0.993081
    13  C    1.682678
    14  H    0.097741
    15  H    0.069656
    16  H   -0.100376
    17  C    1.419930
    18  H   -0.009396
    19  H    0.015739
    20  H   -0.012727
    21  C    1.614794
    22  H   -0.081914
    23  H   -0.202767
    24  H    0.085787
    25  C    1.476065
    26  H    0.020205
    27  H   -0.002634
    28  H   -0.019319
    29  C   -0.208018
    30  H    0.838166
    31  C    1.806707
    32  C    0.860490
    33  C   -0.032890
    34  C    0.198204
    35  H   -0.898428
    36  C    0.334971
    37  H   -0.739209
    38  C    0.725522
    39  H   -0.552837
    40  H   -0.479044
    41  H   -0.464024
    42  O   -1.125986
    43  C    1.228430
    44  H   -0.074780
    45  H   -0.022806
    46  H   -0.330174
    47  C    0.728115
    48  H   -0.011967
    49  H   -0.066115
    50  H   -0.567906
    51  N   -0.148387
    52  C    0.247394
    53  C    0.653808
    54  H   -0.157528
    55  H    0.051804
    56  H    0.049050
    57  H   -0.134161
    58  O   -0.811770
 Sum of Mulliken charges =   1.00000

 Dipole moment (field-independent basis, Debye):
    X=              0.8825    Y=             -2.4432    Z=              1.6439  Tot=              3.0742
 Unable to Open any file for archive entry.
 1\1\GINC-SE410\SP\RMP2-FC\Aug-CC-pVDZ\C20H33N2O3\OHZDE\21-Sep-2024\0\\
 #t symm=none mp2 aug-cc-pvdz geom=allcheck guess=(read,tcheck) int=(gr
 id=ultrafine)\\title\\1,1\C,0,1.523049,-1.809286,-0.535382\C,0,0.92012
 6,-0.527359,1.708369\C,0,2.079999,0.423544,1.407451\C,0,3.196348,-0.17
 7355,0.550293\C,0,2.653791,-0.798989,-0.738508\H,0,1.697472,1.304603,0
 .893618\H,0,2.496918,0.758789,2.359312\H,0,3.718409,-0.944141,1.126545
 \H,0,2.303628,0.007148,-1.382426\H,0,3.466093,-1.304136,-1.264995\N,0,
 0.531763,-1.212176,0.42543\O,0,-0.675817,-1.562324,0.305284\C,0,0.8263
 77,-2.080939,-1.865271\H,0,0.069425,-2.858471,-1.771335\H,0,0.362966,-

 Normal termination of Gaussian 16 at Sat Sep 21 01:26:53 2024.
