 Gaussian 16, Revision C.01,

 ----------------------------------------------------------------------
 #t hf aug-cc-pvdz symm=none int=(grid=ultrafine) guess=(read,tcheck) s
 table=(opt,rrhf)
 ----------------------------------------------------------------------
 -----
 title
 -----
 Symbolic Z-matrix:
 Charge =  1 Multiplicity = 1

 SCF Done:  E(RHF) =  -919.299507500     A.U. after   17 cycles
 Normal termination of Gaussian 16 at Fri Sep 20 21:27:26 2024.
 Gaussian 16:  ES64L-G16RevC.01  3-Jul-2019

 ----------------------------------------------------------------------
 #t symm=none mp2 aug-cc-pvdz geom=allcheck guess=(read,tcheck) int=(gr
 id=ultrafine)
 ----------------------------------------------------------------------
 Structure from the checkpoint file:  "05_13TS.chk"
 -----
 title
 -----
 Charge =  1 Multiplicity = 1

                          Input orientation:
 ---------------------------------------------------------------------
 Center     Atomic      Atomic             Coordinates (Angstroms)
 Number     Number       Type             X           Y           Z
 ---------------------------------------------------------------------
      1          6           0        0.036349   -1.063781   -0.921516
      2          6           0       -0.130145   -0.450404    1.662788
      3          6           0        1.074080    0.469473    1.438317
      4          6           0        1.989246    0.000608    0.322174
      5          6           0        1.196806   -0.073192   -0.978204
      6          1           0        0.718332    1.478934    1.205200
      7          1           0        1.621117    0.531762    2.381531
      8          1           0        2.389533   -0.988615    0.549916
      9          1           0        0.816498    0.924981   -1.218323
     10          1           0        1.861597   -0.377829   -1.786476
     11          7           0       -0.741371   -0.807076    0.337812
     12          8           0       -1.860222   -1.432997    0.428929
     13          6           0       -0.877502   -0.853845   -2.124547
     14          1           0       -0.279024   -0.956400   -3.029827
     15          1           0       -1.661866   -1.609255   -2.162351
     16          1           0       -1.323935    0.139508   -2.117846
     17          6           0        0.526570   -2.520271   -0.920580
     18          1           0       -0.309623   -3.203249   -0.766790
     19          1           0        0.975294   -2.737691   -1.890283
     20          1           0        1.282617   -2.713179   -0.163518
     21          6           0       -1.177812    0.285161    2.493830
     22          1           0       -2.037963   -0.346189    2.715603
     23          1           0       -0.729944    0.576631    3.443987
     24          1           0       -1.506612    1.195598    1.993633
     25          6           0        0.273359   -1.740520    2.390646
     26          1           0        0.584563   -1.491568    3.406209
     27          1           0       -0.573279   -2.424681    2.451100
     28          1           0        1.100262   -2.253447    1.904971
     29          6           0       -3.764744    0.085568   -0.206417
     30          1           0       -4.231214    0.268561    0.766317
     31          1           0       -2.760272   -0.774616    0.242466
     32          8           0       -3.075519    1.087086   -0.708499
     33          6           0       -3.032700    2.361384   -0.003058
     34          1           0       -3.117349    2.168299    1.067540
     35          1           0       -3.915517    2.912133   -0.332270
     36          6           0       -4.456826   -0.813158   -1.172017
     37          1           0       -3.858834   -0.962014   -2.069081
     38          1           0       -5.399990   -0.336624   -1.465022
     39          6           0       -1.762546    3.075990   -0.372997
     40          1           0       -1.705278    3.230766   -1.450553
     41          1           0       -1.743484    4.052933    0.112492
     42          1           0       -0.886809    2.511854   -0.052337
     43          1           0       -4.693613   -1.773716   -0.714610
     44          7           0        3.134171    0.879730    0.199892
     45          6           0        4.260348    0.449739   -0.446091
     46          6           0        5.412348    1.417072   -0.502935
     47          1           0        6.271713    0.961389   -0.010071
     48          1           0        5.682536    1.578625   -1.546599
     49          1           0        5.198259    2.377323   -0.033037
     50          8           0        4.307996   -0.660981   -0.938205
     51          1           0        3.103660    1.807391    0.589950
 ---------------------------------------------------------------------

 SCF Done:  E(RHF) =  -919.299507500     A.U. after    2 cycles
 E2 =    -0.3223630151D+01 EUMP2 =    -0.92252313765087D+03

 Alpha  occ. eigenvalues --  -20.81946 -20.79479 -20.60937 -15.78907 -15.68220
 Alpha  occ. eigenvalues --  -11.53515 -11.45209 -11.44051 -11.41360 -11.40316
 Alpha  occ. eigenvalues --  -11.39565 -11.37706 -11.36353 -11.35340 -11.35191
 Alpha  occ. eigenvalues --  -11.33640 -11.33546 -11.33503 -11.32663 -11.31838
 Alpha  occ. eigenvalues --   -1.64328  -1.61399  -1.47364  -1.33724  -1.30234
 Alpha  occ. eigenvalues --   -1.23362  -1.22831  -1.16826  -1.15867  -1.11675
 Alpha  occ. eigenvalues --   -1.07801  -1.06770  -1.05520  -1.04870  -1.03003
 Alpha  occ. eigenvalues --   -1.00367  -0.95914  -0.94149  -0.90551  -0.88507
 Alpha  occ. eigenvalues --   -0.87124  -0.85097  -0.82999  -0.80912  -0.80355
 Alpha  occ. eigenvalues --   -0.78496  -0.77536  -0.76152  -0.74682  -0.73514
 Alpha  occ. eigenvalues --   -0.72478  -0.72038  -0.71261  -0.70588  -0.70356
 Alpha  occ. eigenvalues --   -0.69773  -0.69041  -0.68543  -0.68265  -0.67625
 Alpha  occ. eigenvalues --   -0.66820  -0.66503  -0.66252  -0.65744  -0.64858
 Alpha  occ. eigenvalues --   -0.64079  -0.63858  -0.63317  -0.63141  -0.61819
 Alpha  occ. eigenvalues --   -0.60571  -0.60009  -0.59758  -0.58870  -0.57277
 Alpha  occ. eigenvalues --   -0.56724  -0.50576  -0.48113  -0.46844
 Alpha virt. eigenvalues --   -0.14831  -0.06563  -0.05313  -0.05127  -0.04595
 Alpha virt. eigenvalues --   -0.03487  -0.03315  -0.03060  -0.02958  -0.02464
 Alpha virt. eigenvalues --   -0.01393  -0.01256  -0.01120  -0.00939  -0.00650

 Mulliken charges:
               1
     1  C   -4.199804
     2  C   -3.536180
     3  C    1.493270
     4  C   -0.198652
     5  C    1.575409
     6  H   -0.056169
     7  H   -0.108693
     8  H   -0.366197
     9  H   -0.021522
    10  H   -0.127565
    11  N    0.979645
    12  O   -1.238192
    13  C    2.041450
    14  H   -0.114855
    15  H   -0.060094
    16  H   -0.025828
    17  C    1.662680
    18  H   -0.029396
    19  H    0.029293
    20  H   -0.088102
    21  C    1.806315
    22  H   -0.043346
    23  H   -0.053796
    24  H   -0.230249
    25  C    1.585451
    26  H   -0.043318
    27  H   -0.006440
    28  H   -0.036840
    29  C    0.336015
    30  H   -0.154374
    31  H    0.380902
    32  O   -0.817460
    33  C    1.057463
    34  H   -0.163530
    35  H   -0.341139
    36  C    0.546237
    37  H   -0.059845
    38  H    0.036112
    39  C    0.602904
    40  H   -0.017348
    41  H    0.003869
    42  H   -0.668737
    43  H    0.034854
    44  N   -0.208368
    45  C    0.415231
    46  C    0.466542
    47  H    0.054856
    48  H    0.057299
    49  H   -0.184158
    50  O   -0.852626
    51  H   -0.112971
 Sum of Mulliken charges =   1.00000

 Dipole moment (field-independent basis, Debye):
    X=            -10.2783    Y=              4.5879    Z=              1.9989  Tot=             11.4319
 Unable to Open any file for archive entry.
 1\1\GINC-SE194\SP\RMP2-FC\Aug-CC-pVDZ\C15H31N2O3\OHZDE\20-Sep-2024\0\\
 #t symm=none mp2 aug-cc-pvdz geom=allcheck guess=(read,tcheck) int=(gr
 id=ultrafine)\\title\\1,1\C,0,0.036349,-1.063781,-0.921516\C,0,-0.1301
 45,-0.450404,1.662788\C,0,1.07408,0.469473,1.438317\C,0,1.989246,0.000
 608,0.322174\C,0,1.196806,-0.073192,-0.978204\H,0,0.718332,1.478934,1.
 2052\H,0,1.621117,0.531762,2.381531\H,0,2.389533,-0.988615,0.549916\H,
 0,0.816498,0.924981,-1.218323\H,0,1.861597,-0.377829,-1.786476\N,0,-0.
 741371,-0.807076,0.337812\O,0,-1.860222,-1.432997,0.428929\C,0,-0.8775
 02,-0.853845,-2.124547\H,0,-0.279024,-0.9564,-3.029827\H,0,-1.661866,-

 Normal termination of Gaussian 16 at Fri Sep 20 23:21:43 2024.
