 Gaussian 16, Revision C.01,

 ----------------------------------------------------------------------
 #t hf aug-cc-pvdz symm=none int=(grid=ultrafine) guess=(read,tcheck) s
 table=(opt,rrhf)
 ----------------------------------------------------------------------
 -----
 title
 -----
 Symbolic Z-matrix:
 Charge =  1 Multiplicity = 1

 SCF Done:  E(RHF) =  -956.860697412     A.U. after   19 cycles
 Normal termination of Gaussian 16 at Fri Sep 20 21:29:30 2024.
 Gaussian 16:  ES64L-G16RevC.01  3-Jul-2019

 ----------------------------------------------------------------------
 #t symm=none mp2 aug-cc-pvdz geom=allcheck guess=(read,tcheck) int=(gr
 id=ultrafine)
 ----------------------------------------------------------------------
 Structure from the checkpoint file:  "05_12TS.chk"
 -----
 title
 -----
 Charge =  1 Multiplicity = 1

                          Input orientation:
 ---------------------------------------------------------------------
 Center     Atomic      Atomic             Coordinates (Angstroms)
 Number     Number       Type             X           Y           Z
 ---------------------------------------------------------------------
      1          6           0        0.339672   -0.703234   -0.578206
      2          6           0        0.667074    1.846389    0.093706
      3          6           0        2.148944    1.659494   -0.250837
      4          6           0        2.639021    0.242446   -0.018370
      5          6           0        1.835550   -0.708524   -0.897352
      6          1           0        2.303452    1.925523   -1.301984
      7          1           0        2.720634    2.368729    0.351323
      8          1           0        2.506412   -0.040089    1.027218
      9          1           0        1.985096   -0.430944   -1.945213
     10          1           0        2.205719   -1.725376   -0.766466
     11          7           0       -0.124296    0.709368   -0.468565
     12          8           0       -1.366470    0.908612   -0.604078
     13          6           0       -0.438368   -1.364607   -1.715239
     14          1           0       -0.032013   -2.363415   -1.877977
     15          1           0       -1.497241   -1.456200   -1.479566
     16          1           0       -0.334299   -0.796500   -2.640588
     17          6           0        0.050918   -1.439362    0.741899
     18          1           0       -1.007112   -1.379412    0.993171
     19          1           0        0.310438   -2.490804    0.612630
     20          1           0        0.637394   -1.060139    1.576236
     21          6           0        0.153148    3.138025   -0.539302
     22          1           0       -0.865588    3.365155   -0.230047
     23          1           0        0.796342    3.960589   -0.224648
     24          1           0        0.180400    3.076776   -1.627867
     25          6           0        0.447796    1.890782    1.614154
     26          1           0        0.892351    2.806785    2.005094
     27          1           0       -0.615819    1.915554    1.855898
     28          1           0        0.903433    1.047998    2.129999
     29          6           0       -4.560597   -1.207746   -1.043315
     30          6           0       -4.186617   -2.032827   -0.025217
     31          6           0       -3.782547   -1.675269    1.292362
     32          6           0       -4.657935    0.212722   -1.032107
     33          6           0       -3.408755   -0.454136    1.752535
     34          6           0       -4.150473    1.084684   -0.123320
     35          6           0       -3.292812    0.779785    1.003959
     36          1           0       -4.906103   -1.690117   -1.951048
     37          1           0       -4.271895   -3.097595   -0.212977
     38          1           0       -3.750962   -2.489953    2.007787
     39          1           0       -5.205497    0.647599   -1.861203
     40          1           0       -3.112234   -0.395133    2.794480
     41          1           0       -4.338468    2.138340   -0.297239
     42          1           0       -3.111856    1.643276    1.641675
     43          1           0       -2.136422    0.746355    0.387386
     44          7           0        4.059649    0.137638   -0.276817
     45          6           0        4.773771   -0.899775    0.254343
     46          6           0        6.242700   -0.939800   -0.071408
     47          1           0        6.805501   -0.915483    0.862085
     48          1           0        6.466359   -1.886872   -0.563071
     49          1           0        6.569456   -0.117501   -0.708214
     50          8           0        4.231889   -1.733610    0.955397
     51          1           0        4.508746    0.789518   -0.899460
 ---------------------------------------------------------------------

 SCF Done:  E(RHF) =  -956.860697412     A.U. after    2 cycles
 E2 =    -0.3398908083D+01 EUMP2 =    -0.96025960549467D+03

 Alpha  occ. eigenvalues --  -20.81068 -20.61093 -15.82167 -15.68322 -11.44190
 Alpha  occ. eigenvalues --  -11.41959 -11.41812 -11.41091 -11.40019 -11.39965
 Alpha  occ. eigenvalues --  -11.39623 -11.39612 -11.39421 -11.39285 -11.37930
 Alpha  occ. eigenvalues --  -11.35374 -11.34994 -11.34225 -11.34114 -11.33923
 Alpha  occ. eigenvalues --  -11.33740 -11.31851  -1.64705  -1.47480  -1.33944
 Alpha  occ. eigenvalues --   -1.30702  -1.29075  -1.23454  -1.20580  -1.20285
 Alpha  occ. eigenvalues --   -1.16278  -1.11721  -1.07889  -1.07116  -1.05924
 Alpha  occ. eigenvalues --   -1.05844  -1.05449  -1.02954  -0.95798  -0.95207
 Alpha  occ. eigenvalues --   -0.90982  -0.88686  -0.87041  -0.86021  -0.85235
 Alpha  occ. eigenvalues --   -0.81452  -0.81019  -0.80427  -0.77857  -0.76527
 Alpha  occ. eigenvalues --   -0.76176  -0.76049  -0.73719  -0.72594  -0.71199
 Alpha  occ. eigenvalues --   -0.71160  -0.70043  -0.69980  -0.69176  -0.68884
 Alpha  occ. eigenvalues --   -0.68508  -0.68384  -0.66870  -0.65796  -0.65379
 Alpha  occ. eigenvalues --   -0.65068  -0.64397  -0.64124  -0.63965  -0.63273
 Alpha  occ. eigenvalues --   -0.62938  -0.62267  -0.61381  -0.60021  -0.59916
 Alpha  occ. eigenvalues --   -0.59197  -0.57643  -0.57212  -0.54483  -0.51594
 Alpha  occ. eigenvalues --   -0.50748  -0.48249  -0.40273
 Alpha virt. eigenvalues --   -0.15371  -0.07958  -0.05765  -0.04743  -0.04675
 Alpha virt. eigenvalues --   -0.04304  -0.03210  -0.02995  -0.02917  -0.02799
 Alpha virt. eigenvalues --   -0.02341  -0.01252  -0.01112  -0.01093  -0.01018

 Mulliken charges:
               1
     1  C   -3.730436
     2  C   -3.902173
     3  C    1.772093
     4  C   -0.182806
     5  C    1.742718
     6  H   -0.071883
     7  H   -0.125024
     8  H   -0.375872
     9  H   -0.032998
    10  H   -0.157339
    11  N    0.734981
    12  O   -1.035965
    13  C    1.724288
    14  H    0.052723
    15  H   -0.086343
    16  H   -0.091671
    17  C    1.624511
    18  H   -0.383331
    19  H    0.009678
    20  H   -0.045336
    21  C    1.709623
    22  H    0.045980
    23  H    0.062863
    24  H   -0.073128
    25  C    1.498207
    26  H   -0.026874
    27  H   -0.228896
    28  H   -0.007584
    29  C    0.591150
    30  C    0.515633
    31  C    0.668073
    32  C    0.609465
    33  C    0.641487
    34  C    0.408398
    35  C    0.326834
    36  H   -0.541794
    37  H   -0.532061
    38  H   -0.530068
    39  H   -0.504903
    40  H   -0.582452
    41  H   -0.549257
    42  H   -0.077087
    43  H    0.526162
    44  N   -0.175765
    45  C    0.342759
    46  C    0.477644
    47  H    0.057284
    48  H    0.058031
    49  H   -0.177851
    50  O   -0.864587
    51  H   -0.107101
 Sum of Mulliken charges =   1.00000

 Dipole moment (field-independent basis, Debye):
    X=             -5.9315    Y=              2.7190    Z=             -1.3428  Tot=              6.6617
 Unable to Open any file for archive entry.
 1\1\GINC-SE431\SP\RMP2-FC\Aug-CC-pVDZ\C18H29N2O2\OHZDE\21-Sep-2024\0\\
 #t symm=none mp2 aug-cc-pvdz geom=allcheck guess=(read,tcheck) int=(gr
 id=ultrafine)\\title\\1,1\C,0,0.339672,-0.703234,-0.578206\C,0,0.66707
 4,1.846389,0.093706\C,0,2.148944,1.659494,-0.250837\C,0,2.639021,0.242
 446,-0.01837\C,0,1.83555,-0.708524,-0.897352\H,0,2.303452,1.925523,-1.
 301984\H,0,2.720634,2.368729,0.351323\H,0,2.506412,-0.040089,1.027218\
 H,0,1.985096,-0.430944,-1.945213\H,0,2.205719,-1.725376,-0.766466\N,0,
 -0.124296,0.709368,-0.468565\O,0,-1.36647,0.908612,-0.604078\C,0,-0.43
 8368,-1.364607,-1.715239\H,0,-0.032013,-2.363415,-1.877977\H,0,-1.4972

 Normal termination of Gaussian 16 at Sat Sep 21 00:32:16 2024.
