 Gaussian 16, Revision C.01,

 ----------------------------------------------------------------------
 #t hf aug-cc-pvdz symm=none int=(grid=ultrafine) guess=(read,tcheck) s
 table=opt
 ----------------------------------------------------------------------
 -----
 title
 -----
 Symbolic Z-matrix:
 Charge =  0 Multiplicity = 2

 SCF Done:  E(UHF) =  -1706.37272290     A.U. after   18 cycles
 Normal termination of Gaussian 16 at Sat Sep 21 01:08:54 2024.
 Gaussian 16:  ES64L-G16RevC.01  3-Jul-2019

 ----------------------------------------------------------------------
 #t symm=none mp2 aug-cc-pvdz geom=allcheck guess=(read,tcheck) int=(gr
 id=ultrafine)
 ----------------------------------------------------------------------
 Structure from the checkpoint file:  "06_31P.chk"
 -----
 title
 -----
 Charge =  0 Multiplicity = 2

                          Input orientation:
 ---------------------------------------------------------------------
 Center     Atomic      Atomic             Coordinates (Angstroms)
 Number     Number       Type             X           Y           Z
 ---------------------------------------------------------------------
      1         14           0        1.009991   -0.256438    1.884303
      2         14           0       -1.200987    2.056673   -0.200994
      3         14           0       -1.692643   -1.712535   -0.442613
      4          6           0       -0.216905    0.178798    3.250789
      5          1           0        0.237274    0.016045    4.232524
      6          1           0       -0.516298    1.228061    3.197695
      7          1           0       -1.122594   -0.428213    3.198740
      8          6           0        1.574619   -2.036687    2.151247
      9          1           0        2.089746   -2.139097    3.110697
     10          1           0        0.722493   -2.720702    2.158999
     11          1           0        2.259273   -2.371292    1.369010
     12          6           0        2.485723    0.901675    2.062191
     13          1           0        2.919441    0.805869    3.062063
     14          1           0        3.271250    0.688465    1.336423
     15          1           0        2.185943    1.942595    1.926083
     16          6           0       -1.595712    2.533109   -1.982613
     17          1           0       -2.227738    1.783995   -2.465007
     18          1           0       -2.125127    3.489559   -2.018874
     19          1           0       -0.687298    2.633870   -2.581059
     20          6           0       -2.816323    1.957195    0.767858
     21          1           0       -2.647119    1.646584    1.801263
     22          1           0       -3.305969    2.934988    0.791263
     23          1           0       -3.515683    1.249057    0.318252
     24          6           0       -0.147728    3.419490    0.567220
     25          1           0        0.031574    3.233303    1.628591
     26          1           0        0.824692    3.501554    0.077329
     27          1           0       -0.650613    4.387155    0.481735
     28          6           0       -2.691215   -1.939895    1.140872
     29          1           0       -3.148189   -1.006372    1.474738
     30          1           0       -3.493689   -2.665817    0.980852
     31          1           0       -2.066230   -2.315368    1.954461
     32          6           0       -2.874739   -1.261860   -1.842999
     33          1           0       -3.596087   -2.066690   -2.011628
     34          1           0       -3.438290   -0.353284   -1.620318
     35          1           0       -2.338226   -1.097425   -2.780849
     36          6           0       -0.902252   -3.371030   -0.869946
     37          1           0       -1.669281   -4.149583   -0.919398
     38          1           0       -0.399803   -3.340003   -1.838965
     39          1           0       -0.166735   -3.676183   -0.122221
     40          6           0        1.090971   -0.040486   -1.720807
     41          6           0        2.047386    1.097905   -1.718875
     42          6           0        2.004337   -1.284985   -1.840918
     43          6           0        3.467204    0.643088   -1.633837
     44          1           0        1.756204    2.128814   -1.870720
     45          6           0        3.352274   -0.842969   -1.258583
     46          1           0        1.610282   -2.170830   -1.342186
     47          1           0        2.127338   -1.539805   -2.898239
     48          1           0        3.971485    0.754973   -2.605921
     49          1           0        4.065429    1.217483   -0.918619
     50          1           0        4.185066   -1.442438   -1.629611
     51          1           0        3.340134   -0.948504   -0.171804
     52         14           0       -0.084011   -0.012719   -0.180978
     53          1           0        0.398614    0.019421   -2.570919
 ---------------------------------------------------------------------

 SCF Done:  E(UHF) =  -1706.37272290     A.U. after    2 cycles
 E2 =    -0.2534049286D+01 EUMP2 =    -0.17089067721887D+04

 Alpha  occ. eigenvalues --  -68.75430 -68.75369 -68.75284 -68.73095 -11.22431
 Alpha  occ. eigenvalues --  -11.22327 -11.22203 -11.22132 -11.21569 -11.20269
 Alpha  occ. eigenvalues --  -11.20242 -11.20185 -11.20160 -11.20131 -11.20129
 Alpha  occ. eigenvalues --  -11.20112 -11.20096 -11.19981  -6.10175  -6.10122
 Alpha  occ. eigenvalues --   -6.10043  -6.08253  -4.20779  -4.20775  -4.20768
 Alpha  occ. eigenvalues --   -4.20726  -4.20723  -4.20720  -4.20649  -4.20644
 Alpha  occ. eigenvalues --   -4.20632  -4.18846  -4.18760  -4.18749  -1.12744
 Alpha  occ. eigenvalues --   -0.97101  -0.96653  -0.96385  -0.96074  -0.95975
 Alpha  occ. eigenvalues --   -0.92395  -0.92212  -0.92172  -0.91913  -0.91855
 Alpha  occ. eigenvalues --   -0.91798  -0.78320  -0.76252  -0.69920  -0.66068
 Alpha  occ. eigenvalues --   -0.64282  -0.62401  -0.62283  -0.58794  -0.57361
 Alpha  occ. eigenvalues --   -0.57240  -0.56754  -0.56321  -0.56250  -0.56036
 Alpha  occ. eigenvalues --   -0.55371  -0.55251  -0.55005  -0.54376  -0.54078
 Alpha  occ. eigenvalues --   -0.53710  -0.53557  -0.53287  -0.53220  -0.53000
 Alpha  occ. eigenvalues --   -0.52605  -0.52497  -0.52350  -0.51042  -0.49488
 Alpha  occ. eigenvalues --   -0.47842  -0.47230  -0.46896  -0.43519  -0.42881
 Alpha  occ. eigenvalues --   -0.42819  -0.42258  -0.42243  -0.41994  -0.40421
 Alpha  occ. eigenvalues --   -0.33434  -0.33209  -0.29007
 Alpha virt. eigenvalues --    0.02890   0.03476   0.03494   0.03522   0.04788
 Alpha virt. eigenvalues --    0.04891   0.04982   0.05031   0.05150   0.06494
 Alpha virt. eigenvalues --    0.06616   0.06669   0.06832   0.07068   0.07130

  Beta  occ. eigenvalues --  -68.75432 -68.75359 -68.75287 -68.73024 -11.22533
  Beta  occ. eigenvalues --  -11.22298 -11.22118 -11.21889 -11.20270 -11.20241
  Beta  occ. eigenvalues --  -11.20175 -11.20161 -11.20131 -11.20131 -11.20109
  Beta  occ. eigenvalues --  -11.20096 -11.19981 -11.19972  -6.10179  -6.10107
  Beta  occ. eigenvalues --   -6.10047  -6.08139  -4.20781  -4.20777  -4.20775
  Beta  occ. eigenvalues --   -4.20719  -4.20712  -4.20687  -4.20651  -4.20647
  Beta  occ. eigenvalues --   -4.20642  -4.18711  -4.18700  -4.18612  -1.11148
  Beta  occ. eigenvalues --   -0.97064  -0.96373  -0.96203  -0.95987  -0.93331
  Beta  occ. eigenvalues --   -0.92387  -0.92204  -0.92152  -0.91893  -0.91849
  Beta  occ. eigenvalues --   -0.91794  -0.78103  -0.72885  -0.69107  -0.65262
  Beta  occ. eigenvalues --   -0.63559  -0.62329  -0.62241  -0.58716  -0.57340
  Beta  occ. eigenvalues --   -0.57231  -0.56403  -0.56288  -0.56072  -0.55808
  Beta  occ. eigenvalues --   -0.55304  -0.55193  -0.54881  -0.54067  -0.53809
  Beta  occ. eigenvalues --   -0.53653  -0.53334  -0.53214  -0.53013  -0.52647
  Beta  occ. eigenvalues --   -0.52492  -0.52443  -0.51967  -0.50186  -0.48679
  Beta  occ. eigenvalues --   -0.47530  -0.47074  -0.46413  -0.43266  -0.42866
  Beta  occ. eigenvalues --   -0.42812  -0.42250  -0.42206  -0.41993  -0.37954
  Beta  occ. eigenvalues --   -0.33197  -0.33111
  Beta virt. eigenvalues --    0.02893   0.03478   0.03495   0.03529   0.04790
  Beta virt. eigenvalues --    0.04889   0.04986   0.05037   0.05147   0.06490
  Beta virt. eigenvalues --    0.06616   0.06672   0.06827   0.07072   0.07129

 Mulliken charges and spin densities:
               1          2
     1  Si  -0.189634  -0.025846
     2  Si  -0.008173  -0.001778
     3  Si   0.271143   0.035588
     4  C    1.232620   0.000808
     5  H   -0.556324   0.000362
     6  H   -0.458738   0.000161
     7  H   -0.498956  -0.001382
     8  C    1.122277   0.001348
     9  H   -0.532841  -0.000067
    10  H   -0.447580   0.000328
    11  H   -0.449290   0.000090
    12  C    1.254687   0.001626
    13  H   -0.500522  -0.000511
    14  H   -0.550603   0.000702
    15  H   -0.509451   0.003878
    16  C    1.043775   0.000773
    17  H   -0.434580   0.000946
    18  H   -0.513227  -0.000554
    19  H   -0.436893   0.004201
    20  C    1.105703  -0.002047
    21  H   -0.408190  -0.000097
    22  H   -0.569667  -0.000209
    23  H   -0.482785   0.000234
    24  C    1.079633   0.002255
    25  H   -0.475649  -0.001386
    26  H   -0.434850  -0.000578
    27  H   -0.523790  -0.000017
    28  C    1.158402   0.003736
    29  H   -0.479115  -0.001163
    30  H   -0.492069   0.001302
    31  H   -0.443162  -0.001289
    32  C    1.045822  -0.002966
    33  H   -0.523732   0.000527
    34  H   -0.477428  -0.000292
    35  H   -0.404721  -0.000879
    36  C    0.981870  -0.004254
    37  H   -0.592909  -0.000295
    38  H   -0.332516  -0.000645
    39  H   -0.440479   0.000449
    40  C   -0.187028  -0.438211
    41  C    0.732087   1.744939
    42  C    0.779164   0.017943
    43  C    0.487593  -0.339869
    44  H   -0.681014  -0.138060
    45  C    0.612175   0.007162
    46  H   -0.335122   0.005225
    47  H   -0.287266  -0.002753
    48  H   -0.148021   0.045138
    49  H   -0.188440   0.020491
    50  H   -0.221735   0.000822
    51  H   -0.362880  -0.006906
    52  Si   3.316700   0.025432
    53  H   -0.644269   0.045590
 Sum of Mulliken charges =  -0.00000   1.00000

 Dipole moment (field-independent basis, Debye):
    X=              0.2041    Y=             -0.1385    Z=             -0.2080  Tot=              0.3226
 Unable to Open any file for archive entry.
 1\1\GINC-SE321\SP\UMP2-FC\Aug-CC-pVDZ\C14H35Si4\OHZDE\21-Sep-2024\0\\#
 t symm=none mp2 aug-cc-pvdz geom=allcheck guess=(read,tcheck) int=(gri
 d=ultrafine)\\title\\0,2\Si,0,1.009991,-0.256438,1.884303\Si,0,-1.2009
 87,2.056673,-0.200994\Si,0,-1.692643,-1.712535,-0.442613\C,0,-0.216905
 ,0.178798,3.250789\H,0,0.237274,0.016045,4.232524\H,0,-0.516298,1.2280
 61,3.197695\H,0,-1.122594,-0.428213,3.19874\C,0,1.574619,-2.036687,2.1
 51247\H,0,2.089746,-2.139097,3.110697\H,0,0.722493,-2.720702,2.158999\
 H,0,2.259273,-2.371292,1.36901\C,0,2.485723,0.901675,2.062191\H,0,2.91
 9441,0.805869,3.062063\H,0,3.27125,0.688465,1.336423\H,0,2.185943,1.94

 Normal termination of Gaussian 16 at Sat Sep 21 06:30:04 2024.
