 Gaussian 16, Revision C.01,

 ----------------------------------------------------------------------
 #t hf aug-cc-pvdz symm=none int=(grid=ultrafine) guess=(read,tcheck) s
 table=(opt,rrhf)
 ----------------------------------------------------------------------
 -----
 title
 -----
 Symbolic Z-matrix:
 Charge =  1 Multiplicity = 1

 SCF Done:  E(RHF) =  -1032.57300684     A.U. after   19 cycles
 Normal termination of Gaussian 16 at Fri Sep 20 21:46:08 2024.
 Gaussian 16:  ES64L-G16RevC.01  3-Jul-2019

 ----------------------------------------------------------------------
 #t symm=none mp2 aug-cc-pvdz geom=allcheck guess=(read,tcheck) int=(gr
 id=ultrafine)
 ----------------------------------------------------------------------
 Structure from the checkpoint file:  "05_14TS.chk"
 -----
 title
 -----
 Charge =  1 Multiplicity = 1

                          Input orientation:
 ---------------------------------------------------------------------
 Center     Atomic      Atomic             Coordinates (Angstroms)
 Number     Number       Type             X           Y           Z
 ---------------------------------------------------------------------
      1          6           0        0.689820   -0.486370   -0.412877
      2          6           0        1.613817    1.987513   -0.143074
      3          6           0        2.991872    1.420744   -0.503241
      4          6           0        3.171476   -0.024056   -0.075534
      5          6           0        2.121387   -0.882393   -0.771692
      6          1           0        3.130279    1.494176   -1.587221
      7          1           0        3.745785    2.057190   -0.035353
      8          1           0        3.051712   -0.118398    1.004892
      9          1           0        2.260356   -0.799638   -1.853982
     10          1           0        2.264660   -1.927574   -0.496481
     11          7           0        0.563370    0.996745   -0.521777
     12          8           0       -0.627926    1.449589   -0.578935
     13          6           0       -0.287362   -1.112770   -1.406573
     14          1           0       -0.118642   -2.189974   -1.428790
     15          1           0       -1.324907   -0.935605   -1.126645
     16          1           0       -0.125946   -0.718634   -2.410572
     17          6           0        0.332632   -0.929122    1.015135
     18          1           0       -0.635909   -0.532749    1.323476
     19          1           0        0.263000   -2.017138    1.032821
     20          1           0        1.081117   -0.637892    1.748614
     21          6           0        1.364225    3.265213   -0.942774
     22          1           0        0.435135    3.751313   -0.649700
     23          1           0        2.184658    3.960467   -0.760962
     24          1           0        1.323022    3.052479   -2.011656
     25          6           0        1.506082    2.289976    1.359312
     26          1           0        2.186569    3.106803    1.602490
     27          1           0        0.499910    2.622302    1.621320
     28          1           0        1.768347    1.437143    1.982333
     29          6           0       -3.297925    2.428223    0.547835
     30          6           0       -3.450642    1.103743    0.582132
     31          6           0       -2.307199    1.682349    1.219269
     32          1           0       -3.670281    3.401612    0.279045
     33          1           0       -1.218673    1.528320    0.454102
     34          1           0       -1.892208    1.681244    2.226240
     35          6           0       -4.175720   -0.083593    0.272057
     36          6           0       -3.766861   -1.310596    0.807223
     37          6           0       -5.293129   -0.021775   -0.570284
     38          6           0       -4.469828   -2.461351    0.503504
     39          1           0       -2.905643   -1.351483    1.462350
     40          6           0       -5.987926   -1.176800   -0.871889
     41          1           0       -5.604085    0.930516   -0.981966
     42          6           0       -5.576768   -2.393315   -0.335412
     43          1           0       -4.161323   -3.411882    0.919090
     44          1           0       -6.851546   -1.135411   -1.522836
     45          1           0       -6.125741   -3.296246   -0.572746
     46          7           0        4.513851   -0.484809   -0.362780
     47          6           0        5.019341   -1.568772    0.297830
     48          6           0        6.418445   -1.985766   -0.069209
     49          1           0        6.871423   -1.359133   -0.837744
     50          1           0        7.036233   -1.954363    0.828623
     51          1           0        6.396195   -3.019664   -0.414532
     52          8           0        4.359289   -2.149574    1.139147
     53          1           0        5.050634   -0.047938   -1.094434
 ---------------------------------------------------------------------

 SCF Done:  E(RHF) =  -1032.57300684     A.U. after    3 cycles
 E2 =    -0.3626503555D+01 EUMP2 =    -0.10361995103941D+04

 Alpha  occ. eigenvalues --  -20.80093 -20.60518 -15.78273 -15.67662 -11.45889
 Alpha  occ. eigenvalues --  -11.45564 -11.44508 -11.43622 -11.40338 -11.39868
 Alpha  occ. eigenvalues --  -11.38828 -11.37987 -11.37879 -11.37171 -11.37064
 Alpha  occ. eigenvalues --  -11.36052 -11.35988 -11.34307 -11.33949 -11.33691
 Alpha  occ. eigenvalues --  -11.33064 -11.32976 -11.32821 -11.31396  -1.62863
 Alpha  occ. eigenvalues --   -1.46887  -1.39155  -1.33118  -1.29352  -1.29027
 Alpha  occ. eigenvalues --   -1.22196  -1.17081  -1.15513  -1.15141  -1.10981
 Alpha  occ. eigenvalues --   -1.07297  -1.06139  -1.05105  -1.04438  -1.00990
 Alpha  occ. eigenvalues --   -0.98959  -0.95820  -0.94579  -0.93582  -0.91552
 Alpha  occ. eigenvalues --   -0.89141  -0.87878  -0.86452  -0.80678  -0.80202
 Alpha  occ. eigenvalues --   -0.79957  -0.79511  -0.77044  -0.76726  -0.75513
 Alpha  occ. eigenvalues --   -0.74108  -0.72928  -0.71973  -0.71765  -0.71255
 Alpha  occ. eigenvalues --   -0.70249  -0.69421  -0.69053  -0.68014  -0.67645
 Alpha  occ. eigenvalues --   -0.67548  -0.66670  -0.65807  -0.65400  -0.64677
 Alpha  occ. eigenvalues --   -0.64398  -0.63517  -0.63296  -0.62852  -0.62658
 Alpha  occ. eigenvalues --   -0.61891  -0.61682  -0.61026  -0.60236  -0.59017
 Alpha  occ. eigenvalues --   -0.58915  -0.58495  -0.56494  -0.56248  -0.50181
 Alpha  occ. eigenvalues --   -0.48704  -0.47566  -0.46489  -0.42385
 Alpha virt. eigenvalues --   -0.13095  -0.06323  -0.05735  -0.04662  -0.04289
 Alpha virt. eigenvalues --   -0.04088  -0.03029  -0.02949  -0.02654  -0.02497
 Alpha virt. eigenvalues --   -0.02171  -0.01356  -0.01233  -0.01054  -0.00596

 Mulliken charges:
               1
     1  C   -3.993620
     2  C   -3.876886
     3  C    1.775535
     4  C   -0.210811
     5  C    1.799253
     6  H   -0.070993
     7  H   -0.129056
     8  H   -0.392438
     9  H   -0.026759
    10  H   -0.136707
    11  N    0.903889
    12  O   -1.235979
    13  C    1.758653
    14  H    0.051254
    15  H   -0.073922
    16  H   -0.075869
    17  C    1.660041
    18  H   -0.295272
    19  H   -0.041197
    20  H   -0.037803
    21  C    1.681807
    22  H    0.026196
    23  H    0.070671
    24  H   -0.072245
    25  C    1.462596
    26  H   -0.038837
    27  H   -0.105522
    28  H   -0.039509
    29  C    0.197377
    30  C    0.176408
    31  C    0.345784
    32  H   -0.450670
    33  H    0.469387
    34  H   -0.436984
    35  C    1.245048
    36  C    1.042904
    37  C    0.336486
    38  C   -0.123881
    39  H   -0.643247
    40  C    0.286943
    41  H   -0.607624
    42  C    0.612763
    43  H   -0.505729
    44  H   -0.446381
    45  H   -0.438859
    46  N   -0.183598
    47  C    0.348956
    48  C    0.476779
    49  H   -0.179517
    50  H    0.055259
    51  H    0.056780
    52  O   -0.865081
    53  H   -0.105772
 Sum of Mulliken charges =   1.00000

 Dipole moment (field-independent basis, Debye):
    X=             -6.2537    Y=              4.5922    Z=             -0.9456  Tot=              7.8161
 Unable to Open any file for archive entry.
 1\1\GINC-SE030\SP\RMP2-FC\Aug-CC-pVDZ\C20H29N2O2\OHZDE\21-Sep-2024\0\\
 #t symm=none mp2 aug-cc-pvdz geom=allcheck guess=(read,tcheck) int=(gr
 id=ultrafine)\\title\\1,1\C,0,0.68982,-0.48637,-0.412877\C,0,1.613817,
 1.987513,-0.143074\C,0,2.991872,1.420744,-0.503241\C,0,3.171476,-0.024
 056,-0.075534\C,0,2.121387,-0.882393,-0.771692\H,0,3.130279,1.494176,-
 1.587221\H,0,3.745785,2.05719,-0.035353\H,0,3.051712,-0.118398,1.00489
 2\H,0,2.260356,-0.799638,-1.853982\H,0,2.26466,-1.927574,-0.496481\N,0
 ,0.56337,0.996745,-0.521777\O,0,-0.627926,1.449589,-0.578935\C,0,-0.28
 7362,-1.11277,-1.406573\H,0,-0.118642,-2.189974,-1.42879\H,0,-1.324907

 Normal termination of Gaussian 16 at Sat Sep 21 00:13:52 2024.
