 Gaussian 16, Revision C.01,

 ----------------------------------------------------------------------
 #t hf aug-cc-pvdz symm=none int=(grid=ultrafine) guess=(read,tcheck) s
 table=(opt,rrhf)
 ----------------------------------------------------------------------
 -----
 title
 -----
 Symbolic Z-matrix:
 Charge =  0 Multiplicity = 1

 SCF Done:  E(RHF) =  -1125.16353989     A.U. after   16 cycles
 Normal termination of Gaussian 16 at Fri Sep 20 23:51:05 2024.
 Gaussian 16:  ES64L-G16RevC.01  3-Jul-2019

 ----------------------------------------------------------------------
 #t symm=none mp2 aug-cc-pvdz geom=allcheck guess=(read,tcheck) int=(gr
 id=ultrafine)
 ----------------------------------------------------------------------
 Structure from the checkpoint file:  "06_24TS.chk"
 -----
 title
 -----
 Charge =  0 Multiplicity = 1

                          Input orientation:
 ---------------------------------------------------------------------
 Center     Atomic      Atomic             Coordinates (Angstroms)
 Number     Number       Type             X           Y           Z
 ---------------------------------------------------------------------
      1          6           0        0.128961   -3.006560   -0.081461
      2          6           0       -0.113072   -1.870068    0.931470
      3          6           0        2.190256   -0.596158   -0.694610
      4          1           0       -0.550166   -2.880268   -0.933932
      5          6           0        0.943960   -1.825309    2.059530
      6          1           0        0.428518   -1.661501    3.011038
      7          1           0        1.437439   -2.798035    2.161014
      8          1           0        2.880652   -0.029820   -1.328882
      9          1           0       -1.072633   -2.108892    1.411099
     10          1           0       -0.634328    0.371892    1.201870
     11          6           0        1.996086   -0.717131    1.937285
     12          1           0        1.485690    0.245742    2.020828
     13          1           0        2.658173   -0.772946    2.808195
     14          6           0        2.880432   -0.680957    0.687131
     15          1           0        3.536137    0.188490    0.798386
     16          1           0        3.551049   -1.547226    0.688916
     17          6           0        2.106657   -1.968272   -1.394018
     18          1           0        1.521556   -1.847554   -2.313204
     19          6           0        1.556349   -3.146955   -0.599086
     20          1           0        1.606897   -4.036296   -1.236279
     21          1           0        2.224786   -3.356731    0.240952
     22          1           0        3.119654   -2.237077   -1.715736
     23          1           0       -0.147399   -3.959892    0.385548
     24          6           0        0.838690    0.166220   -0.710263
     25          1           0        0.435463   -0.002690   -1.720560
     26         14           0        1.020309    2.041020   -0.726279
     27          6           0        1.611372    2.788494    0.897303
     28          1           0        1.715455    3.872476    0.794143
     29          1           0        0.905226    2.600625    1.706729
     30          1           0        2.583381    2.390881    1.197031
     31          6           0       -0.638097    2.817946   -1.175388
     32          1           0       -1.007544    2.425990   -2.127038
     33          1           0       -1.399551    2.632694   -0.416244
     34          1           0       -0.539282    3.901669   -1.282364
     35          6           0        2.254346    2.551595   -2.058789
     36          1           0        1.997803    2.115692   -3.028311
     37          1           0        2.265849    3.638676   -2.177124
     38          1           0        3.272908    2.239351   -1.816065
     39          5           0       -0.295711   -0.425153    0.269131
     40          6           0       -1.996238    1.154156    1.806350
     41          6           0       -2.982287    0.546302    1.128211
     42          1           0       -3.954074    0.426877    1.588169
     43          6           0       -1.541974    2.031500    2.662659
     44          1           0       -0.684673    1.836950    3.291558
     45          1           0       -2.009797    3.008004    2.712109
     46          6           0       -2.769776   -0.126345   -0.105964
     47          8           0       -1.658496   -0.472460   -0.565852
     48          8           0       -3.856939   -0.479859   -0.758471
     49          6           0       -3.687072   -1.290491   -1.932907
     50          1           0       -3.084915   -0.761841   -2.670110
     51          1           0       -3.203943   -2.231315   -1.673404
     52          1           0       -4.692163   -1.461699   -2.306200
 ---------------------------------------------------------------------

 SCF Done:  E(RHF) =  -1125.16353989     A.U. after    1 cycles
 E2 =    -0.3100346871D+01 EUMP2 =    -0.11282638867568D+04

 Alpha  occ. eigenvalues --  -68.73673 -20.64804 -20.60798 -11.43453 -11.33710
 Alpha  occ. eigenvalues --  -11.31593 -11.25491 -11.25454 -11.20799 -11.20225
 Alpha  occ. eigenvalues --  -11.20156 -11.19989 -11.19988 -11.19942 -11.19900
 Alpha  occ. eigenvalues --  -11.18803 -11.18620 -11.18493 -11.17237 -11.15928
 Alpha  occ. eigenvalues --   -7.56682  -6.08396  -4.19025  -4.19019  -4.18990
 Alpha  occ. eigenvalues --   -1.51455  -1.41102  -1.12770  -1.09505  -1.04461
 Alpha  occ. eigenvalues --   -1.02669  -1.02567  -0.97997  -0.96112  -0.93523
 Alpha  occ. eigenvalues --   -0.90933  -0.90614  -0.89844  -0.86353  -0.84672
 Alpha  occ. eigenvalues --   -0.80254  -0.77711  -0.76136  -0.74997  -0.71255
 Alpha  occ. eigenvalues --   -0.70577  -0.69322  -0.66147  -0.64261  -0.63453
 Alpha  occ. eigenvalues --   -0.62074  -0.61813  -0.60626  -0.60487  -0.58534
 Alpha  occ. eigenvalues --   -0.57213  -0.56428  -0.55941  -0.55657  -0.55288
 Alpha  occ. eigenvalues --   -0.54972  -0.54716  -0.53949  -0.53463  -0.52339
 Alpha  occ. eigenvalues --   -0.52167  -0.51404  -0.51116  -0.50675  -0.47860
 Alpha  occ. eigenvalues --   -0.46688  -0.46634  -0.45984  -0.44793  -0.44244
 Alpha  occ. eigenvalues --   -0.43703  -0.41540  -0.41260  -0.40818  -0.40032
 Alpha  occ. eigenvalues --   -0.39287  -0.38309  -0.35343  -0.30779
 Alpha virt. eigenvalues --    0.02576   0.03241   0.03594   0.03840   0.04640
 Alpha virt. eigenvalues --    0.04814   0.05018   0.05187   0.05427   0.06301
 Alpha virt. eigenvalues --    0.06334   0.06616   0.06876   0.07075   0.07193

 Mulliken charges:
               1
     1  C    0.511059
     2  C    0.046295
     3  C    0.025126
     4  H   -0.175396
     5  C    0.477636
     6  H   -0.264506
     7  H   -0.249468
     8  H   -0.307317
     9  H   -0.427362
    10  H    0.525094
    11  C    0.724606
    12  H    0.072209
    13  H   -0.391197
    14  C    0.282008
    15  H   -0.277944
    16  H   -0.243218
    17  C    0.536534
    18  H   -0.158766
    19  C    0.470443
    20  H   -0.271546
    21  H   -0.026389
    22  H   -0.231586
    23  H   -0.302901
    24  C    0.605882
    25  H   -0.571478
    26  Si   0.498662
    27  C    1.102603
    28  H   -0.493039
    29  H   -0.483476
    30  H   -0.286556
    31  C    1.097596
    32  H   -0.267135
    33  H   -0.344620
    34  H   -0.478388
    35  C    0.848672
    36  H   -0.292247
    37  H   -0.508348
    38  H   -0.350288
    39  B    0.194468
    40  C   -0.726280
    41  C    1.214199
    42  H   -0.575765
    43  C    1.171308
    44  H   -0.307597
    45  H   -0.256676
    46  C    0.663185
    47  O   -1.315771
    48  O   -1.030060
    49  C    1.036214
    50  H   -0.064287
    51  H   -0.075214
    52  H   -0.348977
 Sum of Mulliken charges =  -0.00000

 Dipole moment (field-independent basis, Debye):
    X=             -3.7945    Y=              0.1253    Z=             -0.2652  Tot=              3.8059
 Unable to Open any file for archive entry.
 1\1\GINC-SE045\SP\RMP2-FC\Aug-CC-pVDZ\C17H31B1O2Si1\OHZDE\21-Sep-2024\
 0\\#t symm=none mp2 aug-cc-pvdz geom=allcheck guess=(read,tcheck) int=
 (grid=ultrafine)\\title\\0,1\C,0,0.128961,-3.00656,-0.081461\C,0,-0.11
 3072,-1.870068,0.93147\C,0,2.190256,-0.596158,-0.69461\H,0,-0.550166,-
 2.880268,-0.933932\C,0,0.94396,-1.825309,2.05953\H,0,0.428518,-1.66150
 1,3.011038\H,0,1.437439,-2.798035,2.161014\H,0,2.880652,-0.02982,-1.32
 8882\H,0,-1.072633,-2.108892,1.411099\H,0,-0.634328,0.371892,1.20187\C
 ,0,1.996086,-0.717131,1.937285\H,0,1.48569,0.245742,2.020828\H,0,2.658
 173,-0.772946,2.808195\C,0,2.880432,-0.680957,0.687131\H,0,3.536137,0.

 Normal termination of Gaussian 16 at Sat Sep 21 02:16:25 2024.
