 Gaussian 16, Revision C.01,

 ----------------------------------------------------------------------
 #t hf aug-cc-pvdz symm=none int=(grid=ultrafine) guess=(read,tcheck) s
 table=(opt,rrhf)
 ----------------------------------------------------------------------
 -----
 title
 -----
 Symbolic Z-matrix:
 Charge =  0 Multiplicity = 1

 SCF Done:  E(RHF) =  -1572.23868341     A.U. after   18 cycles
 Normal termination of Gaussian 16 at Fri Sep 20 13:22:46 2024.
 Gaussian 16:  ES64L-G16RevC.01  3-Jul-2019

 ----------------------------------------------------------------------
 #t symm=none mp2 aug-cc-pvdz geom=allcheck guess=(read,tcheck) int=(gr
 id=ultrafine)
 ----------------------------------------------------------------------
 Structure from the checkpoint file:  "02_67P.chk"
 -----
 title
 -----
 Charge =  0 Multiplicity = 1

                          Input orientation:
 ---------------------------------------------------------------------
 Center     Atomic      Atomic             Coordinates (Angstroms)
 Number     Number       Type             X           Y           Z
 ---------------------------------------------------------------------
      1          6           0       -5.967721   -1.529844   -0.854710
      2          6           0       -5.133723   -0.544391   -0.345309
      3          6           0       -3.976442   -0.886473    0.345547
      4          6           0       -3.667107   -2.230641    0.529610
      5          6           0       -4.500602   -3.215858    0.021777
      6          6           0       -5.651657   -2.868549   -0.672885
      7          1           0       -6.867773   -1.250769   -1.389067
      8          1           0       -5.383741    0.501386   -0.485435
      9          1           0       -2.777614   -2.509976    1.081128
     10          1           0       -4.252484   -4.259353    0.173399
     11          1           0       -6.302805   -3.639613   -1.066292
     12          6           0       -3.048400    0.200741    0.827539
     13          6           0       -1.835509    0.413366   -0.098835
     14          6           0       -1.252587    2.656479    0.704772
     15          6           0       -0.710132    2.004667   -1.572434
     16          6           0       -1.369408    4.118994    0.295462
     17          1           0       -0.233177    2.461285    1.074042
     18          1           0       -1.930423    2.446030    1.533070
     19          6           0       -0.826531    3.443364   -2.056002
     20          1           0        0.344973    1.798437   -1.327197
     21          1           0       -1.003321    1.309983   -2.361993
     22          6           0       -0.503091    4.416407   -0.925242
     23          1           0       -0.153215    3.596060   -2.903141
     24          1           0       -1.847247    3.613774   -2.411382
     25          1           0       -0.644644    5.448605   -1.253804
     26          1           0        0.553883    4.314348   -0.652443
     27          7           0       -1.578932    1.782981   -0.419102
     28          7           0       -0.818882   -0.256716    0.755893
     29          7           0       -1.265609   -0.389326    2.048983
     30          7           0       -2.472169   -0.145371    2.145279
     31          6           0        0.536916   -0.379505    0.485087
     32          6           0        0.951795   -0.976271   -0.703580
     33          6           0        1.533594    0.084622    1.341840
     34          6           0        2.285771   -1.087294   -1.032535
     35          6           0        2.870325   -0.067396    1.025079
     36          6           0        3.278569   -0.646335   -0.167828
     37          9           0        0.032900   -1.452149   -1.550621
     38          9           0        2.603816   -1.679366   -2.180650
     39          9           0        3.769103    0.427659    1.875200
     40          9           0        1.215818    0.732010    2.460732
     41          6           0        4.718350   -0.758261   -0.551514
     42          8           0        5.152269   -0.437838   -1.622423
     43          8           0        5.446298   -1.261760    0.442610
     44          6           0        6.854421   -1.367121    0.192496
     45          1           0        7.272782   -0.383343   -0.017531
     46          1           0        7.279498   -1.780374    1.102337
     47          1           0        7.037704   -2.025988   -0.655456
     48          1           0       -3.605523    1.131273    0.931267
     49          1           0       -2.416722    4.337534    0.065479
     50          1           0       -1.080825    4.751820    1.138273
     51          1           0       -1.944441   -0.142906   -1.026094
 ---------------------------------------------------------------------

 SCF Done:  E(RHF) =  -1572.23868342     A.U. after    3 cycles
 E2 =    -0.4771936614D+01 EUMP2 =    -0.15770106200345D+04

 Alpha  occ. eigenvalues --  -26.35929 -26.35787 -26.35677 -26.35322 -20.63062
 Alpha  occ. eigenvalues --  -20.57581 -15.68921 -15.63838 -15.62593 -15.57212
 Alpha  occ. eigenvalues --  -11.41726 -11.38207 -11.38166 -11.36965 -11.36912
 Alpha  occ. eigenvalues --  -11.34448 -11.32444 -11.30421 -11.29954 -11.28730
 Alpha  occ. eigenvalues --  -11.26633 -11.26369 -11.25707 -11.24790 -11.24685
 Alpha  occ. eigenvalues --  -11.24649 -11.24495 -11.24436 -11.23205 -11.23171
 Alpha  occ. eigenvalues --  -11.23117  -1.67850  -1.67725  -1.66292  -1.66059
 Alpha  occ. eigenvalues --   -1.49114  -1.45427  -1.38853  -1.28007  -1.25125
 Alpha  occ. eigenvalues --   -1.20197  -1.17291  -1.11026  -1.08986  -1.06950
 Alpha  occ. eigenvalues --   -1.06923  -1.03313  -1.02730  -1.00824  -1.00145
 Alpha  occ. eigenvalues --   -0.94564  -0.91601  -0.90822  -0.86950  -0.86192
 Alpha  occ. eigenvalues --   -0.84511  -0.83931  -0.83510  -0.82567  -0.81063
 Alpha  occ. eigenvalues --   -0.79362  -0.78990  -0.77123  -0.75441  -0.75086
 Alpha  occ. eigenvalues --   -0.74394  -0.74296  -0.73754  -0.73581  -0.71791
 Alpha  occ. eigenvalues --   -0.71574  -0.71145  -0.69591  -0.69315  -0.68955
 Alpha  occ. eigenvalues --   -0.68300  -0.67908  -0.65236  -0.64577  -0.64298
 Alpha  occ. eigenvalues --   -0.63627  -0.63399  -0.62089  -0.61332  -0.61011
 Alpha  occ. eigenvalues --   -0.60566  -0.59557  -0.59469  -0.57912  -0.57218
 Alpha  occ. eigenvalues --   -0.56850  -0.56557  -0.55816  -0.54607  -0.54390
 Alpha  occ. eigenvalues --   -0.53577  -0.51941  -0.50983  -0.50432  -0.49933
 Alpha  occ. eigenvalues --   -0.49789  -0.47907  -0.47801  -0.47648  -0.46486
 Alpha  occ. eigenvalues --   -0.45783  -0.44194  -0.42280  -0.37989  -0.37024
 Alpha  occ. eigenvalues --   -0.34987  -0.34439  -0.33127
 Alpha virt. eigenvalues --    0.02954   0.03396   0.03507   0.04013   0.04250
 Alpha virt. eigenvalues --    0.04677   0.05006   0.05656   0.05733   0.05855
 Alpha virt. eigenvalues --    0.06164   0.06455   0.06837   0.06904   0.07174

 Mulliken charges:
               1
     1  C    0.108412
     2  C    0.754416
     3  C    1.211152
     4  C    0.537397
     5  C   -0.112793
     6  C    0.770555
     7  H   -0.482017
     8  H   -0.711723
     9  H   -0.691146
    10  H   -0.507623
    11  H   -0.455401
    12  C    1.169943
    13  C    0.476713
    14  C    0.681285
    15  C    0.931048
    16  C    0.418212
    17  H   -0.262860
    18  H   -0.374738
    19  C    0.449434
    20  H   -0.144170
    21  H   -0.361713
    22  C    0.400191
    23  H   -0.107983
    24  H   -0.054167
    25  H   -0.168571
    26  H   -0.079168
    27  N   -1.053294
    28  N    0.300966
    29  N   -0.854576
    30  N   -0.681492
    31  C   -0.209713
    32  C    0.987096
    33  C    0.894552
    34  C    1.146872
    35  C    1.042060
    36  C    0.678309
    37  F   -0.894182
    38  F   -0.874211
    39  F   -0.869892
    40  F   -0.912565
    41  C    0.463281
    42  O   -0.709503
    43  O   -0.811589
    44  C    0.836975
    45  H   -0.055213
    46  H   -0.240437
    47  H   -0.074697
    48  H   -0.537692
    49  H   -0.080164
    50  H   -0.099432
    51  H   -0.786143
 Sum of Mulliken charges =  -0.00000

 Dipole moment (field-independent basis, Debye):
    X=             -0.3056    Y=              0.8062    Z=             -1.2618  Tot=              1.5283
 Unable to Open any file for archive entry.
 1\1\GINC-SE135\SP\RMP2-FC\Aug-CC-pVDZ\C21H20F4N4O2\OHZDE\20-Sep-2024\0
 \\#t symm=none mp2 aug-cc-pvdz geom=allcheck guess=(read,tcheck) int=(
 grid=ultrafine)\\title\\0,1\C,0,-5.967721,-1.529844,-0.85471\C,0,-5.13
 3723,-0.544391,-0.345309\C,0,-3.976442,-0.886473,0.345547\C,0,-3.66710
 7,-2.230641,0.52961\C,0,-4.500602,-3.215858,0.021777\C,0,-5.651657,-2.
 868549,-0.672885\H,0,-6.867773,-1.250769,-1.389067\H,0,-5.383741,0.501
 386,-0.485435\H,0,-2.777614,-2.509976,1.081128\H,0,-4.252484,-4.259353
 ,0.173399\H,0,-6.302805,-3.639613,-1.066292\C,0,-3.0484,0.200741,0.827
 539\C,0,-1.835509,0.413366,-0.098835\C,0,-1.252587,2.656479,0.704772\C

 Normal termination of Gaussian 16 at Fri Sep 20 16:51:06 2024.
