 Gaussian 16, Revision C.01,

 ----------------------------------------------------------------------
 #t hf aug-cc-pvdz symm=none int=(grid=ultrafine) guess=(read,tcheck) s
 table=(opt,rrhf)
 ----------------------------------------------------------------------
 -----
 title
 -----
 Symbolic Z-matrix:
 Charge =  0 Multiplicity = 1

 SCF Done:  E(RHF) =  -904.508555550     A.U. after   15 cycles
 Normal termination of Gaussian 16 at Fri Sep 20 14:07:07 2024.
 Gaussian 16:  ES64L-G16RevC.01  3-Jul-2019

 ----------------------------------------------------------------------
 #t symm=none mp2 aug-cc-pvdz geom=allcheck guess=(read,tcheck) int=(gr
 id=ultrafine)
 ----------------------------------------------------------------------
 Structure from the checkpoint file:  "02_95P.chk"
 -----
 title
 -----
 Charge =  0 Multiplicity = 1

                          Input orientation:
 ---------------------------------------------------------------------
 Center     Atomic      Atomic             Coordinates (Angstroms)
 Number     Number       Type             X           Y           Z
 ---------------------------------------------------------------------
      1          6           0        0.026208   -2.360955   -0.416424
      2          1           0       -0.087820   -3.031802   -1.275827
      3          1           0        0.145935   -3.015624    0.471946
      4          6           0       -1.229110   -1.561383   -0.262985
      5          6           0        0.085750    0.480065    0.114398
      6          1           0        0.356261    1.111413   -0.735513
      7          1           0       -0.015703    1.138785    0.976433
      8          6           0        1.240375   -0.486184    0.382338
      9          1           0        1.083566   -0.933818    1.384231
     10          7           0        1.196633   -1.538116   -0.622738
     11          6           0       -2.535062    0.489333   -0.054373
     12          6           0       -2.518241   -2.330146   -0.290425
     13          6           0       -3.609763   -0.214454    0.320022
     14          6           0       -3.543066   -1.686078    0.640246
     15          6           0       -1.226145   -0.233554   -0.103024
     16          6           0       -3.226850   -1.928620    2.120413
     17          1           0       -3.220127   -2.998060    2.348609
     18          1           0       -2.249997   -1.515640    2.379953
     19          1           0       -3.972820   -1.451201    2.759157
     20          6           0        2.573450    0.236596    0.415228
     21          6           0        2.413599   -2.321638   -0.690772
     22          1           0        2.249054   -3.152668   -1.380304
     23          1           0        2.668692   -2.758250    0.292732
     24          6           0        3.547742   -1.443281   -1.181616
     25          1           0        3.353104   -1.165436   -2.221969
     26          6           0        3.663708   -0.204003   -0.334367
     27          1           0        4.491414   -1.994438   -1.162314
     28          6           0        4.865491    0.499272   -0.272907
     29          1           0        5.709191    0.148061   -0.857783
     30          6           0        2.724611    1.357494    1.232019
     31          1           0        1.892704    1.693889    1.839413
     32          6           0        5.000290    1.622215    0.524045
     33          1           0        5.942784    2.155173    0.559845
     34          6           0        3.921812    2.049667    1.288307
     35          1           0        4.015037    2.918252    1.928992
     36          6           0       -2.657607    1.945882   -0.529314
     37          6           0       -1.877113    2.937997    0.354484
     38          1           0       -0.800513    2.869379    0.220965
     39          1           0       -2.106167    2.783202    1.411602
     40          1           0       -2.167137    3.959495    0.096186
     41          6           0       -4.117744    2.416531   -0.529858
     42          1           0       -4.538768    2.437496    0.477785
     43          1           0       -4.749238    1.783633   -1.155511
     44          1           0       -4.166163    3.432111   -0.928282
     45          6           0       -2.150219    2.031026   -1.979491
     46          1           0       -1.114718    1.706433   -2.076278
     47          1           0       -2.214654    3.060522   -2.341765
     48          1           0       -2.757897    1.401515   -2.633383
     49          1           0       -2.340337   -3.371836   -0.003836
     50          1           0       -2.911320   -2.348671   -1.315602
     51          1           0       -4.522696   -2.125316    0.430502
     52          1           0       -4.580789    0.255514    0.393508
 ---------------------------------------------------------------------

 SCF Done:  E(RHF) =  -904.508555548     A.U. after    3 cycles
 E2 =    -0.3307449923D+01 EUMP2 =    -0.90781600547077D+03

 Alpha  occ. eigenvalues --  -15.55176 -11.26252 -11.25595 -11.25347 -11.24108
 Alpha  occ. eigenvalues --  -11.23851 -11.23731 -11.23382 -11.23301 -11.23203
 Alpha  occ. eigenvalues --  -11.23122 -11.23008 -11.22925 -11.22850 -11.22644
 Alpha  occ. eigenvalues --  -11.22479 -11.22387 -11.22378 -11.21496 -11.21449
 Alpha  occ. eigenvalues --  -11.21308 -11.21215 -11.21158  -1.25617  -1.15947
 Alpha  occ. eigenvalues --   -1.14983  -1.09793  -1.07752  -1.05649  -1.03870
 Alpha  occ. eigenvalues --   -1.00528  -0.99293  -0.97146  -0.92950  -0.92920
 Alpha  occ. eigenvalues --   -0.92440  -0.88132  -0.86183  -0.84300  -0.82708
 Alpha  occ. eigenvalues --   -0.81058  -0.76786  -0.75154  -0.72710  -0.69245
 Alpha  occ. eigenvalues --   -0.66948  -0.65865  -0.65299  -0.63620  -0.63079
 Alpha  occ. eigenvalues --   -0.62366  -0.61176  -0.60231  -0.59915  -0.59291
 Alpha  occ. eigenvalues --   -0.58621  -0.58139  -0.57877  -0.56602  -0.55775
 Alpha  occ. eigenvalues --   -0.54509  -0.54254  -0.53509  -0.52895  -0.52425
 Alpha  occ. eigenvalues --   -0.51995  -0.51472  -0.50840  -0.50505  -0.49454
 Alpha  occ. eigenvalues --   -0.49165  -0.48307  -0.47620  -0.46812  -0.46579
 Alpha  occ. eigenvalues --   -0.46168  -0.44716  -0.43531  -0.41758  -0.38145
 Alpha  occ. eigenvalues --   -0.35818  -0.32638  -0.31914  -0.29050
 Alpha virt. eigenvalues --    0.03199   0.03511   0.03608   0.04064   0.04388
 Alpha virt. eigenvalues --    0.04617   0.05171   0.05314   0.05581   0.05794
 Alpha virt. eigenvalues --    0.05945   0.06660   0.06861   0.07350   0.07440

 Mulliken charges:
               1
     1  C    0.630469
     2  H   -0.122712
     3  H    0.132378
     4  C   -1.475292
     5  C    0.056375
     6  H   -0.100774
     7  H   -0.120022
     8  C   -0.247952
     9  H   -0.124189
    10  N   -0.701410
    11  C    0.348032
    12  C    0.787086
    13  C    0.723228
    14  C   -0.460516
    15  C    0.220772
    16  C    0.832542
    17  H   -0.098995
    18  H   -0.045634
    19  H   -0.138881
    20  C    1.155125
    21  C    1.014901
    22  H   -0.299839
    23  H   -0.166878
    24  C    0.522070
    25  H    0.087131
    26  C   -0.336940
    27  H   -0.038652
    28  C    0.756779
    29  H   -0.635104
    30  C    0.785963
    31  H   -0.674463
    32  C    0.326261
    33  H   -0.468416
    34  C   -0.161211
    35  H   -0.549513
    36  C   -3.552768
    37  C    1.126703
    38  H   -0.075891
    39  H   -0.127964
    40  H   -0.143464
    41  C    1.497966
    42  H    0.082974
    43  H    0.062344
    44  H   -0.195076
    45  C    1.374316
    46  H   -0.192793
    47  H   -0.051023
    48  H   -0.081107
    49  H   -0.162610
    50  H   -0.011735
    51  H   -0.163952
    52  H   -0.797639
 Sum of Mulliken charges =  -0.00000

 Dipole moment (field-independent basis, Debye):
    X=             -0.1252    Y=             -0.8327    Z=              0.1524  Tot=              0.8558
 Unable to Open any file for archive entry.
 1\1\GINC-SE146\SP\RMP2-FC\Aug-CC-pVDZ\C22H29N1\OHZDE\20-Sep-2024\0\\#t
  symm=none mp2 aug-cc-pvdz geom=allcheck guess=(read,tcheck) int=(grid
 =ultrafine)\\title\\0,1\C,0,0.026208,-2.360955,-0.416424\H,0,-0.08782,
 -3.031802,-1.275827\H,0,0.145935,-3.015624,0.471946\C,0,-1.22911,-1.56
 1383,-0.262985\C,0,0.08575,0.480065,0.114398\H,0,0.356261,1.111413,-0.
 735513\H,0,-0.015703,1.138785,0.976433\C,0,1.240375,-0.486184,0.382338
 \H,0,1.083566,-0.933818,1.384231\N,0,1.196633,-1.538116,-0.622738\C,0,
 -2.535062,0.489333,-0.054373\C,0,-2.518241,-2.330146,-0.290425\C,0,-3.
 609763,-0.214454,0.320022\C,0,-3.543066,-1.686078,0.640246\C,0,-1.2261

 Normal termination of Gaussian 16 at Fri Sep 20 16:09:45 2024.
