 Gaussian 16, Revision C.01,

 ----------------------------------------------------------------------
 #t hf aug-cc-pvdz symm=none int=(grid=ultrafine) guess=(read,tcheck) s
 table=opt
 ----------------------------------------------------------------------
 -----
 title
 -----
 Symbolic Z-matrix:
 Charge =  0 Multiplicity = 2

 SCF Done:  E(UHF) =  -1746.58182701     A.U. after   18 cycles
 Normal termination of Gaussian 16 at Sat Sep 21 01:28:19 2024.
 Gaussian 16:  ES64L-G16RevC.01  3-Jul-2019

 ----------------------------------------------------------------------
 #t symm=none mp2 aug-cc-pvdz geom=allcheck guess=(read,tcheck) int=(gr
 id=ultrafine)
 ----------------------------------------------------------------------
 Structure from the checkpoint file:  "06_34P.chk"
 -----
 title
 -----
 Charge =  0 Multiplicity = 2

                          Input orientation:
 ---------------------------------------------------------------------
 Center     Atomic      Atomic             Coordinates (Angstroms)
 Number     Number       Type             X           Y           Z
 ---------------------------------------------------------------------
      1         14           0       -0.727017   -0.004328   -0.273321
      2         14           0       -0.828645    2.122130    0.715434
      3         14           0        0.059982   -1.567247    1.294348
      4         14           0       -2.873045   -0.640706   -0.992872
      5          6           0       -3.713784    0.806078   -1.864934
      6          1           0       -4.681683    0.501141   -2.273163
      7          1           0       -3.890327    1.640101   -1.181977
      8          1           0       -3.108119    1.179515   -2.694378
      9          6           0       -2.718447   -2.060640   -2.224206
     10          1           0       -2.237074   -2.931926   -1.774488
     11          1           0       -3.703251   -2.371592   -2.584631
     12          1           0       -2.125291   -1.767104   -3.093776
     13          6           0       -3.964514   -1.193993    0.440619
     14          1           0       -4.045084   -0.420957    1.208024
     15          1           0       -4.974732   -1.418784    0.086730
     16          1           0       -3.573527   -2.096333    0.916121
     17          6           0       -0.177875   -3.323826    0.650179
     18          1           0        0.206658   -4.054602    1.367419
     19          1           0       -1.233597   -3.548526    0.481744
     20          1           0        0.348442   -3.478242   -0.295070
     21          6           0        1.875294   -1.338558    1.743396
     22          1           0        2.084907   -0.316905    2.065369
     23          1           0        2.139914   -2.009826    2.565831
     24          1           0        2.535531   -1.565441    0.905571
     25          6           0       -0.944026   -1.359575    2.878574
     26          1           0       -2.017560   -1.445633    2.701011
     27          1           0       -0.664021   -2.124437    3.608664
     28          1           0       -0.760181   -0.385148    3.337607
     29          6           0        0.697522    2.463664    1.767870
     30          1           0        0.670022    3.479531    2.172507
     31          1           0        0.761092    1.773005    2.611980
     32          1           0        1.613983    2.358388    1.183198
     33          6           0       -0.944521    3.436480   -0.631484
     34          1           0       -1.829425    3.290601   -1.255068
     35          1           0       -1.006501    4.436491   -0.192758
     36          1           0       -0.070576    3.415851   -1.286706
     37          6           0       -2.353210    2.248506    1.818638
     38          1           0       -2.391010    3.223470    2.312837
     39          1           0       -3.275015    2.133711    1.243835
     40          1           0       -2.350347    1.481872    2.596743
     41          6           0        0.358817    0.114321   -1.868355
     42          6           0        1.707567    0.666559   -1.618680
     43          6           0        2.932523   -0.177557   -1.624600
     44          1           0        2.686042   -1.185734   -1.267532
     45          1           0        3.284318   -0.326545   -2.659770
     46          6           0        4.080587    0.395102   -0.797189
     47          1           0        3.738796    0.550209    0.231307
     48          1           0        4.341979    1.386445   -1.185121
     49          6           0        5.321309   -0.489994   -0.789429
     50          1           0        5.661251   -0.646019   -1.819032
     51          1           0        5.053297   -1.480287   -0.404570
     52          6           0        6.458064    0.089427    0.044375
     53          1           0        6.151479    0.223688    1.085147
     54          1           0        7.334510   -0.562038    0.037172
     55          1           0        6.766586    1.066537   -0.336974
     56          1           0        0.417690   -0.881631   -2.318302
     57          1           0       -0.208721    0.744861   -2.563211
     58          1           0        1.819852    1.738435   -1.491183
 ---------------------------------------------------------------------

 SCF Done:  E(UHF) =  -1746.58182701     A.U. after    2 cycles
 E2 =    -0.2696817327D+01 EUMP2 =    -0.17492786443410D+04

 Alpha  occ. eigenvalues --  -68.75444 -68.75338 -68.75315 -68.73185 -11.22495
 Alpha  occ. eigenvalues --  -11.22185 -11.22078 -11.21886 -11.21596 -11.21348
 Alpha  occ. eigenvalues --  -11.20320 -11.20272 -11.20266 -11.20201 -11.20188
 Alpha  occ. eigenvalues --  -11.20145 -11.20132 -11.20131 -11.20042  -6.10198
 Alpha  occ. eigenvalues --   -6.10105  -6.10076  -6.08340  -4.20805  -4.20798
 Alpha  occ. eigenvalues --   -4.20790  -4.20708  -4.20705  -4.20701  -4.20682
 Alpha  occ. eigenvalues --   -4.20677  -4.20668  -4.18942  -4.18843  -4.18837
 Alpha  occ. eigenvalues --   -1.09348  -1.04311  -0.97115  -0.96516  -0.96229
 Alpha  occ. eigenvalues --   -0.96178  -0.92436  -0.92238  -0.92189  -0.91991
 Alpha  occ. eigenvalues --   -0.91915  -0.91828  -0.87554  -0.79507  -0.78201
 Alpha  occ. eigenvalues --   -0.69990  -0.64862  -0.62722  -0.62486  -0.60948
 Alpha  occ. eigenvalues --   -0.59366  -0.58570  -0.58279  -0.57298  -0.57199
 Alpha  occ. eigenvalues --   -0.56411  -0.56094  -0.55961  -0.55477  -0.55337
 Alpha  occ. eigenvalues --   -0.55283  -0.54713  -0.54377  -0.53822  -0.53815
 Alpha  occ. eigenvalues --   -0.53760  -0.53390  -0.53251  -0.53063  -0.52871
 Alpha  occ. eigenvalues --   -0.52577  -0.52464  -0.52426  -0.50192  -0.49016
 Alpha  occ. eigenvalues --   -0.46843  -0.46410  -0.45889  -0.43724  -0.42893
 Alpha  occ. eigenvalues --   -0.42845  -0.42368  -0.42278  -0.42027  -0.41075
 Alpha  occ. eigenvalues --   -0.33529  -0.33265  -0.28960
 Alpha virt. eigenvalues --    0.02904   0.03431   0.03451   0.03593   0.04401
 Alpha virt. eigenvalues --    0.04717   0.04815   0.05001   0.05164   0.05954
 Alpha virt. eigenvalues --    0.06141   0.06239   0.06777   0.06820   0.07037

  Beta  occ. eigenvalues --  -68.75446 -68.75328 -68.75317 -68.73114 -11.22528
  Beta  occ. eigenvalues --  -11.22080 -11.21825 -11.21657 -11.21598 -11.20321
  Beta  occ. eigenvalues --  -11.20266 -11.20262 -11.20202 -11.20187 -11.20145
  Beta  occ. eigenvalues --  -11.20134 -11.20126 -11.20042 -11.20027  -6.10202
  Beta  occ. eigenvalues --   -6.10090  -6.10081  -6.08225  -4.20806  -4.20800
  Beta  occ. eigenvalues --   -4.20798  -4.20701  -4.20694  -4.20684  -4.20680
  Beta  occ. eigenvalues --   -4.20677  -4.20670  -4.18800  -4.18782  -4.18706
  Beta  occ. eigenvalues --   -1.08145  -1.02070  -0.97060  -0.96342  -0.96212
  Beta  occ. eigenvalues --   -0.95962  -0.92423  -0.92236  -0.92182  -0.91988
  Beta  occ. eigenvalues --   -0.91909  -0.91822  -0.87034  -0.79140  -0.74393
  Beta  occ. eigenvalues --   -0.69520  -0.64187  -0.62638  -0.62423  -0.60392
  Beta  occ. eigenvalues --   -0.58877  -0.58291  -0.57480  -0.57260  -0.57127
  Beta  occ. eigenvalues --   -0.56382  -0.55998  -0.55903  -0.55360  -0.55279
  Beta  occ. eigenvalues --   -0.55260  -0.54274  -0.53944  -0.53794  -0.53661
  Beta  occ. eigenvalues --   -0.53391  -0.53303  -0.53187  -0.53026  -0.52797
  Beta  occ. eigenvalues --   -0.52531  -0.52423  -0.52401  -0.49288  -0.48480
  Beta  occ. eigenvalues --   -0.46545  -0.46075  -0.45381  -0.43439  -0.42882
  Beta  occ. eigenvalues --   -0.42838  -0.42348  -0.42262  -0.42025  -0.39105
  Beta  occ. eigenvalues --   -0.33213  -0.33200
  Beta virt. eigenvalues --    0.02903   0.03434   0.03452   0.03602   0.04403
  Beta virt. eigenvalues --    0.04720   0.04819   0.04999   0.05162   0.05958
  Beta virt. eigenvalues --    0.06142   0.06239   0.06768   0.06822   0.07042

 Mulliken charges and spin densities:
               1          2
     1  Si   3.066728   0.026255
     2  Si   0.409219   0.012231
     3  Si   0.055960  -0.009704
     4  Si   0.527516   0.026518
     5  C    0.963064  -0.001974
     6  H   -0.504276   0.000089
     7  H   -0.481084   0.000734
     8  H   -0.409904  -0.001048
     9  C    0.858786  -0.004992
    10  H   -0.455184   0.000833
    11  H   -0.517097  -0.000530
    12  H   -0.419662  -0.000422
    13  C    1.098439   0.004912
    14  H   -0.431957  -0.000867
    15  H   -0.517922   0.001028
    16  H   -0.450813  -0.000464
    17  C    1.047065   0.000675
    18  H   -0.533299  -0.000073
    19  H   -0.454756   0.000404
    20  H   -0.377861  -0.000389
    21  C    1.175893  -0.001146
    22  H   -0.544315   0.000239
    23  H   -0.454267  -0.000287
    24  H   -0.662964  -0.001237
    25  C    1.232653  -0.001041
    26  H   -0.518175  -0.001788
    27  H   -0.494126   0.000505
    28  H   -0.442751   0.000307
    29  C    1.093520  -0.002503
    30  H   -0.503963   0.000384
    31  H   -0.505336   0.000117
    32  H   -0.469395  -0.006350
    33  C    1.012562  -0.001501
    34  H   -0.444342  -0.000632
    35  H   -0.487741   0.000391
    36  H   -0.440369   0.003178
    37  C    1.047980  -0.002198
    38  H   -0.540888   0.000329
    39  H   -0.511854  -0.000343
    40  H   -0.434334  -0.000117
    41  C    0.794418  -0.317948
    42  C    0.679415   1.675889
    43  C   -0.025569  -0.371411
    44  H   -0.217450   0.007250
    45  H   -0.132142   0.047353
    46  C    0.263944   0.048555
    47  H   -0.364162   0.009732
    48  H   -0.271438  -0.001422
    49  C    0.620967  -0.003023
    50  H   -0.203841  -0.001125
    51  H   -0.190761   0.000150
    52  C    0.620474   0.000533
    53  H   -0.107179  -0.000120
    54  H   -0.084935   0.000334
    55  H   -0.088677  -0.000017
    56  H   -0.695203   0.002016
    57  H   -0.368090   0.027600
    58  H   -0.810520  -0.163869
 Sum of Mulliken charges =   0.00000   1.00000

 Dipole moment (field-independent basis, Debye):
    X=              0.0665    Y=             -0.1009    Z=             -0.0773  Tot=              0.1435
 Unable to Open any file for archive entry.
 1\1\GINC-SE405\SP\UMP2-FC\Aug-CC-pVDZ\C15H39Si4\OHZDE\21-Sep-2024\0\\#
 t symm=none mp2 aug-cc-pvdz geom=allcheck guess=(read,tcheck) int=(gri
 d=ultrafine)\\title\\0,2\Si,0,-0.727017,-0.004328,-0.273321\Si,0,-0.82
 8645,2.12213,0.715434\Si,0,0.059982,-1.567247,1.294348\Si,0,-2.873045,
 -0.640706,-0.992872\C,0,-3.713784,0.806078,-1.864934\H,0,-4.681683,0.5
 01141,-2.273163\H,0,-3.890327,1.640101,-1.181977\H,0,-3.108119,1.17951
 5,-2.694378\C,0,-2.718447,-2.06064,-2.224206\H,0,-2.237074,-2.931926,-
 1.774488\H,0,-3.703251,-2.371592,-2.584631\H,0,-2.125291,-1.767104,-3.
 093776\C,0,-3.964514,-1.193993,0.440619\H,0,-4.045084,-0.420957,1.2080

 Normal termination of Gaussian 16 at Sat Sep 21 07:17:15 2024.
