 Gaussian 16, Revision C.01,

 ----------------------------------------------------------------------
 #t hf aug-cc-pvdz symm=none int=(grid=ultrafine) guess=(read,tcheck) s
 table=(opt,rrhf)
 ----------------------------------------------------------------------
 -----
 title
 -----
 Symbolic Z-matrix:
 Charge =  0 Multiplicity = 1

 SCF Done:  E(RHF) =  -1094.47661398     A.U. after   15 cycles
 Normal termination of Gaussian 16 at Fri Sep 20 11:58:00 2024.
 Gaussian 16:  ES64L-G16RevC.01  3-Jul-2019

 ----------------------------------------------------------------------
 #t symm=none mp2 aug-cc-pvdz geom=allcheck guess=(read,tcheck) int=(gr
 id=ultrafine)
 ----------------------------------------------------------------------
 Structure from the checkpoint file:  "02_19P.chk"
 -----
 title
 -----
 Charge =  0 Multiplicity = 1

                          Input orientation:
 ---------------------------------------------------------------------
 Center     Atomic      Atomic             Coordinates (Angstroms)
 Number     Number       Type             X           Y           Z
 ---------------------------------------------------------------------
      1          6           0        0.218699   -0.266894    0.270881
      2          6           0       -0.200341    1.224736    0.507802
      3          6           0        1.654649   -0.408597   -0.231587
      4          6           0       -0.810962   -0.901812   -0.636285
      5          6           0        0.955620    2.087657    0.970189
      6          6           0       -0.917647    1.856790   -0.680860
      7          6           0        2.200397    1.637600    1.074791
      8          6           0        2.635983    0.228711    0.777385
      9          6           0        4.031979    0.241830    0.130651
     10          6           0        2.694402   -0.517306    2.125922
     11          6           0        2.083153   -1.837218   -0.573162
     12          1           0        1.744768    0.174024   -1.153612
     13          1           0        1.723047   -0.521436    2.621336
     14          1           0        3.028953   -1.549542    2.025361
     15          1           0        3.394592   -0.007495    2.792793
     16          6           0        4.527532   -1.144047   -0.288624
     17          1           0        3.997730    0.887717   -0.755560
     18          1           0        4.749413    0.698853    0.821609
     19          6           0        3.489689   -1.839138   -1.172417
     20          1           0        2.048911   -2.467752    0.321447
     21          1           0        1.389333   -2.270227   -1.292110
     22          6           0        5.879561   -1.053477   -0.987704
     23          1           0        4.661320   -1.748800    0.615333
     24          1           0        3.810755   -2.864143   -1.381921
     25          1           0        3.454520   -1.322630   -2.140266
     26          6           0        0.588899    3.496804    1.339682
     27          1           0        2.970194    2.307017    1.454791
     28          1           0       -0.188258    3.504573    2.110262
     29          1           0        1.454638    4.041227    1.718190
     30          1           0        0.183945    4.041677    0.482809
     31          1           0        5.803690   -0.455554   -1.901049
     32          1           0        6.629706   -0.585888   -0.344779
     33          1           0        6.247790   -2.043641   -1.268178
     34          6           0       -0.094076    2.118399   -1.910535
     35          1           0       -0.587379    2.797159   -2.604082
     36          1           0        0.870004    2.553631   -1.637677
     37          1           0        0.110762    1.184970   -2.441223
     38          6           0       -2.218911    2.125006   -0.578032
     39          6           0       -3.131215    2.690410   -1.621015
     40          1           0       -2.614346    2.957438   -2.541319
     41          1           0       -3.909917    1.965538   -1.881581
     42          1           0       -3.644224    3.582045   -1.248861
     43          1           0       -2.699420    1.894478    0.370822
     44          6           0       -2.151596   -1.228065   -0.063605
     45          8           0       -0.613246   -1.128122   -1.810343
     46          6           0       -3.189941   -1.618542   -0.801411
     47          6           0       -2.586700   -1.158831    1.370455
     48          1           0       -3.176353   -1.745117   -1.875395
     49          6           0       -4.412945   -1.828588    0.037167
     50          7           0       -3.909485   -1.502404    1.355963
     51          1           0       -4.439393   -1.579558    2.208627
     52          8           0       -1.939596   -0.866565    2.354576
     53          6           0       -5.589939   -0.955597   -0.391092
     54          1           0       -6.439593   -1.100040    0.278685
     55          1           0       -5.909045   -1.214679   -1.402432
     56          1           0       -5.306226    0.097824   -0.370493
     57          1           0       -4.707790   -2.884884   -0.009132
     58          1           0        0.119649   -0.758996    1.240572
     59          1           0       -0.920376    1.207549    1.329850
 ---------------------------------------------------------------------

 SCF Done:  E(RHF) =  -1094.47661398     A.U. after    2 cycles
 E2 =    -0.3871925724D+01 EUMP2 =    -0.10983485397010D+04

 Alpha  occ. eigenvalues --  -20.55245 -20.53746 -15.59891 -11.36857 -11.33946
 Alpha  occ. eigenvalues --  -11.30740 -11.28288 -11.25639 -11.25314 -11.23443
 Alpha  occ. eigenvalues --  -11.23016 -11.22844 -11.22601 -11.22521 -11.22487
 Alpha  occ. eigenvalues --  -11.22150 -11.21602 -11.21578 -11.21400 -11.21048
 Alpha  occ. eigenvalues --  -11.20976 -11.20867 -11.20865 -11.20850 -11.20542
 Alpha  occ. eigenvalues --  -11.20392  -1.39937  -1.39272  -1.27821  -1.15689
 Alpha  occ. eigenvalues --   -1.11540  -1.09855  -1.07410  -1.05524  -1.04506
 Alpha  occ. eigenvalues --   -1.03157  -0.99661  -0.97481  -0.92580  -0.92301
 Alpha  occ. eigenvalues --   -0.91737  -0.91491  -0.88926  -0.86731  -0.83526
 Alpha  occ. eigenvalues --   -0.82048  -0.79997  -0.78309  -0.73392  -0.72936
 Alpha  occ. eigenvalues --   -0.71567  -0.70069  -0.68204  -0.66461  -0.65789
 Alpha  occ. eigenvalues --   -0.64225  -0.63425  -0.62610  -0.62205  -0.61823
 Alpha  occ. eigenvalues --   -0.61176  -0.60624  -0.59620  -0.58751  -0.58173
 Alpha  occ. eigenvalues --   -0.57652  -0.56294  -0.56087  -0.55917  -0.55711
 Alpha  occ. eigenvalues --   -0.54683  -0.54477  -0.54439  -0.53736  -0.53330
 Alpha  occ. eigenvalues --   -0.52899  -0.52496  -0.52442  -0.51730  -0.51148
 Alpha  occ. eigenvalues --   -0.49616  -0.49250  -0.48101  -0.46723  -0.46578
 Alpha  occ. eigenvalues --   -0.46259  -0.45944  -0.44673  -0.43397  -0.42507
 Alpha  occ. eigenvalues --   -0.42369  -0.40814  -0.40414  -0.39174  -0.38915
 Alpha  occ. eigenvalues --   -0.33123  -0.32807
 Alpha virt. eigenvalues --    0.02316   0.03516   0.03781   0.03848   0.04339
 Alpha virt. eigenvalues --    0.04593   0.04750   0.05329   0.05416   0.05756
 Alpha virt. eigenvalues --    0.06112   0.06345   0.06476   0.06676   0.06885

 Mulliken charges:
               1
     1  C    0.653618
     2  C    0.249206
     3  C   -0.855525
     4  C    0.487396
     5  C   -0.107238
     6  C   -0.969779
     7  C    0.947129
     8  C   -1.883121
     9  C    0.922232
    10  C    1.645421
    11  C    0.992676
    12  H   -0.667461
    13  H   -0.098145
    14  H   -0.227564
    15  H   -0.085650
    16  C   -0.995369
    17  H   -0.056735
    18  H   -0.331392
    19  C    1.089006
    20  H   -0.085919
    21  H   -0.240189
    22  C    0.980910
    23  H   -0.251935
    24  H   -0.235591
    25  H   -0.024464
    26  C    0.788275
    27  H   -0.837144
    28  H    0.101089
    29  H   -0.290563
    30  H    0.121431
    31  H   -0.076721
    32  H   -0.049560
    33  H   -0.033840
    34  C    0.959228
    35  H   -0.345835
    36  H    0.106720
    37  H    0.109333
    38  C    0.107733
    39  C    0.634779
    40  H   -0.212027
    41  H    0.026310
    42  H    0.043514
    43  H   -0.905665
    44  C    1.235285
    45  O   -1.098652
    46  C    0.477552
    47  C    0.744018
    48  H   -0.583995
    49  C   -0.028878
    50  N   -0.575274
    51  H   -0.192073
    52  O   -0.887538
    53  C    0.819305
    54  H   -0.027781
    55  H   -0.015700
    56  H   -0.078873
    57  H   -0.104248
    58  H   -0.331727
    59  H   -0.449993
 Sum of Mulliken charges =  -0.00000

 Dipole moment (field-independent basis, Debye):
    X=             -4.6285    Y=             -0.8301    Z=             -0.6760  Tot=              4.7507
 Unable to Open any file for archive entry.
 1\1\GINC-SE209\SP\RMP2-FC\Aug-CC-pVDZ\C23H33N1O2\OHZDE\20-Sep-2024\0\\
 #t symm=none mp2 aug-cc-pvdz geom=allcheck guess=(read,tcheck) int=(gr
 id=ultrafine)\\title\\0,1\C,0,0.218699,-0.266894,0.270881\C,0,-0.20034
 1,1.224736,0.507802\C,0,1.654649,-0.408597,-0.231587\C,0,-0.810962,-0.
 901812,-0.636285\C,0,0.95562,2.087657,0.970189\C,0,-0.917647,1.85679,-
 0.68086\C,0,2.200397,1.6376,1.074791\C,0,2.635983,0.228711,0.777385\C,
 0,4.031979,0.24183,0.130651\C,0,2.694402,-0.517306,2.125922\C,0,2.0831
 53,-1.837218,-0.573162\H,0,1.744768,0.174024,-1.153612\H,0,1.723047,-0
 .521436,2.621336\H,0,3.028953,-1.549542,2.025361\H,0,3.394592,-0.00749

 Normal termination of Gaussian 16 at Fri Sep 20 15:21:19 2024.
