 Gaussian 16, Revision C.01,

 ----------------------------------------------------------------------
 #t hf aug-cc-pvdz symm=none int=(grid=ultrafine) guess=(read,tcheck) s
 table=(opt,rrhf)
 ----------------------------------------------------------------------
 -----
 title
 -----
 Symbolic Z-matrix:
 Charge =  0 Multiplicity = 1

 SCF Done:  E(RHF) =  -1517.13833152     A.U. after   17 cycles
 Normal termination of Gaussian 16 at Fri Sep 20 22:42:10 2024.
 Gaussian 16:  ES64L-G16RevC.01  3-Jul-2019

 ----------------------------------------------------------------------
 #t symm=none mp2 aug-cc-pvdz geom=allcheck guess=(read,tcheck) int=(gr
 id=ultrafine)
 ----------------------------------------------------------------------
 Structure from the checkpoint file:  "05_18TS.chk"
 -----
 title
 -----
 Charge =  0 Multiplicity = 1

                          Input orientation:
 ---------------------------------------------------------------------
 Center     Atomic      Atomic             Coordinates (Angstroms)
 Number     Number       Type             X           Y           Z
 ---------------------------------------------------------------------
      1          6           0        1.290956   -3.097931   -0.357344
      2          6           0        1.621286   -2.751874   -1.692983
      3          6           0        2.173558   -1.538190   -1.940145
      4          7           0        2.635907   -0.742598   -0.935603
      5          6           0        2.582653   -1.183779    0.351835
      6          6           0        1.992997   -2.362008    0.670270
      7          6           0        1.870758   -2.838574    2.072957
      8          8           0        0.954431   -3.567736    2.399423
      9          7           0        2.799374   -2.383342    2.963750
     10          6           0        2.817785    0.686593   -1.201241
     11          6           0        1.554933    1.498075   -0.885924
     12          6           0        2.158700    2.858834   -0.610966
     13          6           0        3.423347    2.493946    0.158552
     14          8           0        3.827371    1.206287   -0.380467
     15          1           0        3.073983    0.774826   -2.261313
     16          6           0        4.565492    3.470147    0.040944
     17          1           0        3.148425    2.354000    1.209481
     18          1           0        4.257809    4.438946    0.439556
     19          1           0        4.856065    3.595190   -1.003999
     20          1           0        5.432851    3.122380    0.603590
     21          8           0        1.347858    3.702654    0.167999
     22          1           0        2.413704    3.335900   -1.567092
     23          8           0        0.594222    1.515029   -1.882494
     24          1           0        1.140173    1.125912    0.061040
     25          1           0        0.085625    0.665082   -1.813137
     26          1           0        0.495741    3.790822   -0.272227
     27          1           0        3.698564   -2.057925    2.651437
     28          1           0        2.738087   -2.753702    3.899548
     29          1           0        2.294232   -1.148423   -2.940806
     30          1           0        1.291448   -3.356962   -2.524576
     31          1           0        3.027996   -0.517933    1.077369
     32          1           0       -0.083849   -2.522425   -0.311722
     33          1           0        0.973378   -4.104269   -0.112295
     34          6           0       -4.355977    0.735828   -0.042480
     35          6           0       -4.267062    1.919824    0.683776
     36          6           0       -3.122125    2.183661    1.411072
     37          6           0       -2.054995    1.281544    1.442311
     38          6           0       -2.139166    0.103707    0.735777
     39          6           0       -3.288399   -0.190496   -0.029589
     40          6           0       -3.372745   -1.393723   -0.847677
     41          6           0       -2.190492   -2.335543   -0.879567
     42          6           0       -0.892069   -1.585253   -0.581758
     43          1           0       -2.158889   -2.801032   -1.864002
     44          1           0       -2.374043   -3.113645   -0.130017
     45          6           0       -1.008264   -0.889462    0.776456
     46          1           0       -1.197350   -1.634175    1.556425
     47          1           0       -0.078014   -0.383229    1.033007
     48          1           0       -5.098327    2.614227    0.652420
     49          1           0       -1.177339    1.530422    2.024514
     50          8           0       -4.377576   -1.660251   -1.507677
     51          8           0       -0.390301   -0.911327   -1.563547
     52          8           0       -2.972857    3.326447    2.124748
     53          1           0       -3.758776    3.874246    2.038904
     54          8           0       -5.466226    0.515836   -0.743857
     55          1           0       -5.350869   -0.354144   -1.201808
 ---------------------------------------------------------------------

 SCF Done:  E(RHF) =  -1517.13833152     A.U. after    3 cycles
 E2 =    -0.4867071482D+01 EUMP2 =    -0.15220054030008D+04

 Alpha  occ. eigenvalues --  -20.61021 -20.60422 -20.58260 -20.57631 -20.55634
 Alpha  occ. eigenvalues --  -20.55266 -20.54575 -20.49039 -15.66685 -15.61520
 Alpha  occ. eigenvalues --  -11.38951 -11.35869 -11.34243 -11.33878 -11.33693
 Alpha  occ. eigenvalues --  -11.32430 -11.32357 -11.32133 -11.30973 -11.30249
 Alpha  occ. eigenvalues --  -11.29892 -11.29645 -11.28272 -11.26743 -11.26699
 Alpha  occ. eigenvalues --  -11.23860 -11.23486 -11.22992 -11.22420 -11.22259
 Alpha  occ. eigenvalues --  -11.21996  -1.43915  -1.42363  -1.41644  -1.41188
 Alpha  occ. eigenvalues --   -1.38649  -1.37493  -1.36244  -1.34710  -1.31295
 Alpha  occ. eigenvalues --   -1.24018  -1.16223  -1.15570  -1.10085  -1.07773
 Alpha  occ. eigenvalues --   -1.07400  -1.04837  -1.03085  -1.00378  -0.96896
 Alpha  occ. eigenvalues --   -0.96517  -0.94510  -0.90768  -0.86401  -0.84869
 Alpha  occ. eigenvalues --   -0.83798  -0.83424  -0.82093  -0.80760  -0.78159
 Alpha  occ. eigenvalues --   -0.75543  -0.75302  -0.74649  -0.73711  -0.72873
 Alpha  occ. eigenvalues --   -0.71843  -0.69819  -0.69101  -0.68465  -0.68017
 Alpha  occ. eigenvalues --   -0.67935  -0.66852  -0.65944  -0.65165  -0.65015
 Alpha  occ. eigenvalues --   -0.63602  -0.63124  -0.62552  -0.62056  -0.61328
 Alpha  occ. eigenvalues --   -0.60417  -0.60087  -0.59528  -0.59038  -0.58321
 Alpha  occ. eigenvalues --   -0.57888  -0.57629  -0.57371  -0.57006  -0.55882
 Alpha  occ. eigenvalues --   -0.55829  -0.55689  -0.55126  -0.54550  -0.54416
 Alpha  occ. eigenvalues --   -0.53761  -0.52528  -0.51237  -0.49666  -0.49304
 Alpha  occ. eigenvalues --   -0.48649  -0.46411  -0.45741  -0.45551  -0.45029
 Alpha  occ. eigenvalues --   -0.44636  -0.43565  -0.42133  -0.41205  -0.38466
 Alpha  occ. eigenvalues --   -0.37655  -0.32874  -0.32014  -0.30984
 Alpha virt. eigenvalues --    0.01822   0.02875   0.03262   0.03563   0.04047
 Alpha virt. eigenvalues --    0.04369   0.04598   0.04926   0.05276   0.05754
 Alpha virt. eigenvalues --    0.05885   0.06497   0.06589   0.06738   0.06837

 Mulliken charges:
               1
     1  C   -0.049530
     2  C    0.827223
     3  C    1.167942
     4  N   -0.668537
     5  C    1.612855
     6  C    0.240321
     7  C    0.659160
     8  O   -0.904795
     9  N   -0.264925
    10  C    1.575106
    11  C    0.029881
    12  C    1.611930
    13  C   -0.005729
    14  O   -1.165017
    15  H   -0.424810
    16  C    0.912735
    17  H   -0.363148
    18  H    0.043145
    19  H   -0.016661
    20  H   -0.010260
    21  O   -0.851797
    22  H   -0.185135
    23  O   -0.944731
    24  H   -0.601409
    25  H    0.420796
    26  H    0.176110
    27  H   -0.003074
    28  H    0.010276
    29  H   -0.633511
    30  H   -0.495628
    31  H   -0.814196
    32  H    0.256812
    33  H   -0.348665
    34  C   -0.242525
    35  C    0.651912
    36  C    0.894273
    37  C    0.775748
    38  C    0.671693
    39  C    0.642910
    40  C    0.381253
    41  C    1.015490
    42  C   -0.315944
    43  H   -0.119070
    44  H    0.067389
    45  C    0.363872
    46  H   -0.076565
    47  H   -0.100165
    48  H   -0.627183
    49  H   -0.769522
    50  O   -1.186512
    51  O   -1.336821
    52  O   -1.016567
    53  H    0.228193
    54  O   -0.968296
    55  H    0.273701
 Sum of Mulliken charges =  -0.00000

 Dipole moment (field-independent basis, Debye):
    X=              8.8832    Y=              0.0297    Z=              1.9656  Tot=              9.0981
 Unable to Open any file for archive entry.
 1\1\GINC-SE336\SP\RMP2-FC\Aug-CC-pVDZ\C21H24N2O8\OHZDE\21-Sep-2024\0\\
 #t symm=none mp2 aug-cc-pvdz geom=allcheck guess=(read,tcheck) int=(gr
 id=ultrafine)\\title\\0,1\C,0,1.290956,-3.097931,-0.357344\C,0,1.62128
 6,-2.751874,-1.692983\C,0,2.173558,-1.53819,-1.940145\N,0,2.635907,-0.
 742598,-0.935603\C,0,2.582653,-1.183779,0.351835\C,0,1.992997,-2.36200
 8,0.67027\C,0,1.870758,-2.838574,2.072957\O,0,0.954431,-3.567736,2.399
 423\N,0,2.799374,-2.383342,2.96375\C,0,2.817785,0.686593,-1.201241\C,0
 ,1.554933,1.498075,-0.885924\C,0,2.1587,2.858834,-0.610966\C,0,3.42334
 7,2.493946,0.158552\O,0,3.827371,1.206287,-0.380467\H,0,3.073983,0.774

 Normal termination of Gaussian 16 at Sat Sep 21 04:49:40 2024.
