 Gaussian 16, Revision C.01,

 ----------------------------------------------------------------------
 #t hf aug-cc-pvdz symm=none int=(grid=ultrafine) guess=(read,tcheck) s
 table=(opt,rrhf)
 ----------------------------------------------------------------------
 -----
 title
 -----
 Symbolic Z-matrix:
 Charge =  0 Multiplicity = 1

 SCF Done:  E(RHF) =  -1125.15972735     A.U. after   15 cycles
 Normal termination of Gaussian 16 at Fri Sep 20 23:57:52 2024.
 Gaussian 16:  ES64L-G16RevC.01  3-Jul-2019

 ----------------------------------------------------------------------
 #t symm=none mp2 aug-cc-pvdz geom=allcheck guess=(read,tcheck) int=(gr
 id=ultrafine)
 ----------------------------------------------------------------------
 Structure from the checkpoint file:  "06_26TS.chk"
 -----
 title
 -----
 Charge =  0 Multiplicity = 1

                          Input orientation:
 ---------------------------------------------------------------------
 Center     Atomic      Atomic             Coordinates (Angstroms)
 Number     Number       Type             X           Y           Z
 ---------------------------------------------------------------------
      1          6           0        1.871802   -2.468434    0.087719
      2          6           0        1.607128   -1.395582    1.160803
      3          6           0        1.424471    0.424994   -1.330839
      4          1           0        0.946328   -2.998360   -0.158761
      5          6           0        2.872854   -0.544919    1.435013
      6          1           0        2.979699   -0.419053    2.516614
      7          1           0        3.762734   -1.095522    1.112626
      8          1           0        1.201108    1.077799   -2.179638
      9          1           0        1.406641   -1.945647    2.088199
     10          1           0        0.174873    0.217825    1.936958
     11          6           0        2.879334    0.862242    0.833512
     12          1           0        2.105957    1.439803    1.341853
     13          1           0        3.824188    1.346369    1.102505
     14          6           0        2.688721    1.028877   -0.678555
     15          1           0        2.686631    2.107992   -0.866494
     16          1           0        3.569471    0.648960   -1.206249
     17          6           0        1.682670   -0.947154   -1.988777
     18          1           0        0.719186   -1.388321   -2.266206
     19          6           0        2.496625   -1.973427   -1.210296
     20          1           0        2.661618   -2.838139   -1.860801
     21          1           0        3.492357   -1.568263   -1.007962
     22          1           0        2.212128   -0.760494   -2.929977
     23          1           0        2.546823   -3.219401    0.515862
     24          6           0        0.153703    0.449098   -0.432104
     25          1           0       -0.622057    0.003488   -1.065875
     26         14           0       -0.533855    2.206066   -0.196039
     27          6           0        0.182626    3.168363    1.259153
     28          1           0        1.224120    3.450889    1.094897
     29          1           0       -0.389033    4.091098    1.393591
     30          1           0        0.134244    2.611910    2.197967
     31          6           0       -0.226880    3.236289   -1.745208
     32          1           0       -0.721088    4.207478   -1.653320
     33          1           0       -0.626835    2.747985   -2.638042
     34          1           0        0.835227    3.423611   -1.917920
     35          6           0       -2.402665    2.157942    0.040483
     36          1           0       -2.896921    1.796373   -0.864001
     37          1           0       -2.713450    1.511912    0.861302
     38          1           0       -2.775136    3.167022    0.238194
     39          5           0        0.339182   -0.427305    0.913928
     40          6           0       -1.347213   -0.873457    2.005305
     41          6           0       -1.118346   -1.800612    1.062060
     42          1           0       -0.565322   -2.694831    1.311306
     43          6           0       -1.891041   -0.205585    2.978528
     44          1           0       -2.796761   -0.601934    3.425390
     45          1           0       -1.492464    0.726397    3.350415
     46          6           0       -1.886447   -1.910850   -0.200957
     47          8           0       -1.674330   -2.760599   -1.025358
     48          8           0       -2.842436   -0.985750   -0.311848
     49          6           0       -3.592183   -1.009309   -1.530286
     50          1           0       -4.091184   -1.970179   -1.650127
     51          1           0       -4.318081   -0.206136   -1.440844
     52          1           0       -2.933767   -0.839087   -2.382243
 ---------------------------------------------------------------------

 SCF Done:  E(RHF) =  -1125.15972735     A.U. after    1 cycles
 E2 =    -0.3109168361D+01 EUMP2 =    -0.11282688957085D+04

 Alpha  occ. eigenvalues --  -68.74621 -20.62150 -20.56295 -11.40322 -11.33962
 Alpha  occ. eigenvalues --  -11.29906 -11.28742 -11.27652 -11.21535 -11.20836
 Alpha  occ. eigenvalues --  -11.20722 -11.20663 -11.20173 -11.20123 -11.20085
 Alpha  occ. eigenvalues --  -11.19430 -11.19172 -11.19157 -11.19153 -11.17820
 Alpha  occ. eigenvalues --   -7.57640  -6.09321  -4.19947  -4.19946  -4.19913
 Alpha  occ. eigenvalues --   -1.48066  -1.37629  -1.14734  -1.10113  -1.03997
 Alpha  occ. eigenvalues --   -1.03459  -1.03065  -0.97663  -0.96508  -0.93947
 Alpha  occ. eigenvalues --   -0.91484  -0.91279  -0.90350  -0.86186  -0.83159
 Alpha  occ. eigenvalues --   -0.78661  -0.77988  -0.76858  -0.71238  -0.70366
 Alpha  occ. eigenvalues --   -0.69391  -0.68882  -0.67614  -0.65521  -0.64743
 Alpha  occ. eigenvalues --   -0.62856  -0.61456  -0.60354  -0.59772  -0.58558
 Alpha  occ. eigenvalues --   -0.56917  -0.56388  -0.56184  -0.55852  -0.55428
 Alpha  occ. eigenvalues --   -0.54993  -0.54546  -0.54092  -0.53627  -0.52621
 Alpha  occ. eigenvalues --   -0.52514  -0.51897  -0.49283  -0.48135  -0.47835
 Alpha  occ. eigenvalues --   -0.47288  -0.46870  -0.46523  -0.45391  -0.44714
 Alpha  occ. eigenvalues --   -0.43124  -0.42612  -0.41900  -0.41587  -0.40488
 Alpha  occ. eigenvalues --   -0.39871  -0.38984  -0.38177  -0.35940
 Alpha virt. eigenvalues --    0.02440   0.03358   0.03592   0.03804   0.04699
 Alpha virt. eigenvalues --    0.04896   0.05007   0.05155   0.05426   0.06501
 Alpha virt. eigenvalues --    0.06586   0.06744   0.06817   0.06951   0.07287

 Mulliken charges:
               1
     1  C    0.694945
     2  C   -0.384886
     3  C    0.300869
     4  H   -0.210122
     5  C    0.659560
     6  H   -0.265942
     7  H   -0.233880
     8  H   -0.373244
     9  H   -0.096255
    10  H    0.860422
    11  C    0.674667
    12  H   -0.070898
    13  H   -0.329146
    14  C    0.418822
    15  H   -0.225135
    16  H   -0.290016
    17  C    0.777771
    18  H   -0.067378
    19  C    0.290708
    20  H   -0.265459
    21  H   -0.016919
    22  H   -0.286583
    23  H   -0.241923
    24  C   -0.392711
    25  H   -0.956485
    26  Si   0.630016
    27  C    1.108601
    28  H   -0.287510
    29  H   -0.530733
    30  H   -0.298087
    31  C    1.079875
    32  H   -0.604733
    33  H   -0.274861
    34  H   -0.292108
    35  C    1.231879
    36  H   -0.440140
    37  H   -0.403222
    38  H   -0.435501
    39  B   -0.369333
    40  C   -0.993827
    41  C    0.740911
    42  H   -0.419291
    43  C    1.558496
    44  H   -0.311966
    45  H   -0.290859
    46  C    0.999081
    47  O   -0.862839
    48  O   -1.057583
    49  C    0.964301
    50  H   -0.176026
    51  H   -0.229488
    52  H   -0.005834
 Sum of Mulliken charges =  -0.00000

 Dipole moment (field-independent basis, Debye):
    X=             -2.8830    Y=              0.8708    Z=              2.3602  Tot=              3.8264
 Unable to Open any file for archive entry.
 1\1\GINC-SE229\SP\RMP2-FC\Aug-CC-pVDZ\C17H31B1O2Si1\OHZDE\21-Sep-2024\
 0\\#t symm=none mp2 aug-cc-pvdz geom=allcheck guess=(read,tcheck) int=
 (grid=ultrafine)\\title\\0,1\C,0,1.871802,-2.468434,0.087719\C,0,1.607
 128,-1.395582,1.160803\C,0,1.424471,0.424994,-1.330839\H,0,0.946328,-2
 .99836,-0.158761\C,0,2.872854,-0.544919,1.435013\H,0,2.979699,-0.41905
 3,2.516614\H,0,3.762734,-1.095522,1.112626\H,0,1.201108,1.077799,-2.17
 9638\H,0,1.406641,-1.945647,2.088199\H,0,0.174873,0.217825,1.936958\C,
 0,2.879334,0.862242,0.833512\H,0,2.105957,1.439803,1.341853\H,0,3.8241
 88,1.346369,1.102505\C,0,2.688721,1.028877,-0.678555\H,0,2.686631,2.10

 Normal termination of Gaussian 16 at Sat Sep 21 01:40:55 2024.
