 Gaussian 16, Revision C.01,

 ----------------------------------------------------------------------
 #t hf aug-cc-pvdz symm=none int=(grid=ultrafine) guess=(read,tcheck) s
 table=(opt,rrhf)
 ----------------------------------------------------------------------
 -----
 title
 -----
 Symbolic Z-matrix:
 Charge = -1 Multiplicity = 1

 SCF Done:  E(RHF) =  -1052.90657520     A.U. after   15 cycles
 Normal termination of Gaussian 16 at Fri Sep 20 11:07:13 2024.
 Gaussian 16:  ES64L-G16RevC.01  3-Jul-2019

 ----------------------------------------------------------------------
 #t symm=none mp2 aug-cc-pvdz geom=allcheck guess=(read,tcheck) int=(gr
 id=ultrafine)
 ----------------------------------------------------------------------
 Structure from the checkpoint file:  "02_14P.chk"
 -----
 title
 -----
 Charge = -1 Multiplicity = 1

                          Input orientation:
 ---------------------------------------------------------------------
 Center     Atomic      Atomic             Coordinates (Angstroms)
 Number     Number       Type             X           Y           Z
 ---------------------------------------------------------------------
      1          6           0        4.477615   -2.003505   -0.438977
      2          6           0        3.049245   -1.659029   -0.016938
      3          1           0        2.336549   -2.251542   -0.588361
      4          1           0        2.906513   -1.906918    1.043485
      5          1           0        4.683265   -3.063219   -0.255942
      6          1           0        4.567986   -1.851428   -1.521344
      7          6           0        2.756824   -0.171586   -0.222591
      8          6           0        1.335079    0.241865    0.162021
      9          6           0        3.770155    0.654989    0.580855
     10          6           0        3.450893    2.120456    0.538524
     11          6           0        2.252624    2.590606    0.216563
     12          6           0        1.073057    1.736735   -0.156173
     13          6           0        0.680235    2.014182   -1.614109
     14          1           0        1.441104    1.646849   -2.305852
     15          1           0       -0.260917    1.527263   -1.870564
     16          1           0        0.566352    3.090927   -1.774193
     17          6           0        0.259345   -0.608785   -0.522744
     18          6           0       -1.023353   -0.721341    0.118567
     19          8           0        0.518914   -1.117721   -1.611195
     20          6           0       -1.392827   -0.175754    1.413784
     21          6           0       -2.170467   -1.364153   -0.444176
     22          8           0       -2.362391   -1.933517   -1.511350
     23          8           0       -0.766860    0.532035    2.203805
     24          6           0       -3.332682   -1.208037    0.562641
     25          1           0       -3.689824   -2.213584    0.815144
     26          6           0       -4.502223   -0.421522   -0.046889
     27          6           0       -4.081950    0.985026   -0.484743
     28          1           0       -3.185472    0.900764   -1.102539
     29          1           0       -3.791320    1.568695    0.395248
     30          6           0       -5.152956    1.737210   -1.269327
     31          1           0       -6.039338    1.946210   -0.664899
     32          1           0       -4.769850    2.695438   -1.628984
     33          1           0       -5.472601    1.160297   -2.142152
     34          7           0       -2.691018   -0.584009    1.696134
     35          1           0       -3.191260   -0.062696    2.397504
     36          6           0       -5.700024   -0.402782    0.902951
     37          1           0       -5.959497   -1.416297    1.220131
     38          1           0       -5.484142    0.183747    1.802748
     39          1           0       -6.584788    0.034739    0.435443
     40          1           0       -4.776147   -0.985505   -0.945773
     41          6           0        5.198689    0.350035    0.124806
     42          1           0        5.912539    0.951086    0.699862
     43          1           0        5.307763    0.649027   -0.925023
     44          6           0        5.514775   -1.137062    0.275716
     45          1           0        6.520305   -1.354167   -0.100373
     46          1           0        5.517753   -1.389797    1.343418
     47          1           0        4.249225    2.811350    0.804080
     48          1           0        2.089582    3.666623    0.200726
     49          1           0        1.217800    0.141457    1.243322
     50          1           0        0.234962    2.038467    0.479027
     51          1           0        2.905477    0.048649   -1.286635
     52          1           0        3.695470    0.329947    1.630907
 ---------------------------------------------------------------------

 SCF Done:  E(RHF) =  -1052.90657520     A.U. after    2 cycles
 E2 =    -0.3636691179D+01 EUMP2 =    -0.10565432663755D+04

 Alpha  occ. eigenvalues --  -20.38180 -20.38050 -20.37770 -15.44561 -11.21121
 Alpha  occ. eigenvalues --  -11.17781 -11.17667 -11.14432 -11.13195 -11.13111
 Alpha  occ. eigenvalues --  -11.13013 -11.12879 -11.12861 -11.12353 -11.12313
 Alpha  occ. eigenvalues --  -11.12260 -11.12061 -11.12058 -11.11567 -11.10722
 Alpha  occ. eigenvalues --  -11.10298 -11.10250 -11.09622 -11.05752  -1.23918
 Alpha  occ. eigenvalues --   -1.22042  -1.21122  -1.11250  -1.04215  -0.98769
 Alpha  occ. eigenvalues --   -0.98701  -0.93466  -0.90850  -0.90352  -0.89698
 Alpha  occ. eigenvalues --   -0.87469  -0.83363  -0.81617  -0.76738  -0.74264
 Alpha  occ. eigenvalues --   -0.72863  -0.71385  -0.67590  -0.67397  -0.65856
 Alpha  occ. eigenvalues --   -0.62068  -0.59152  -0.57159  -0.55153  -0.54177
 Alpha  occ. eigenvalues --   -0.53519  -0.53225  -0.52200  -0.51693  -0.51118
 Alpha  occ. eigenvalues --   -0.49806  -0.48914  -0.48296  -0.47568  -0.47143
 Alpha  occ. eigenvalues --   -0.46464  -0.46249  -0.45293  -0.44651  -0.43402
 Alpha  occ. eigenvalues --   -0.42540  -0.41960  -0.41911  -0.41141  -0.40768
 Alpha  occ. eigenvalues --   -0.40613  -0.39646  -0.38595  -0.37910  -0.37420
 Alpha  occ. eigenvalues --   -0.37202  -0.36442  -0.36324  -0.36185  -0.35301
 Alpha  occ. eigenvalues --   -0.33891  -0.33586  -0.31543  -0.30253  -0.28930
 Alpha  occ. eigenvalues --   -0.26449  -0.25445  -0.23835  -0.22702  -0.17140
 Alpha virt. eigenvalues --    0.09870   0.10150   0.10653   0.11082   0.11614
 Alpha virt. eigenvalues --    0.11745   0.12148   0.12388   0.12761   0.13076
 Alpha virt. eigenvalues --    0.13752   0.13824   0.14272   0.14547   0.14797

 Mulliken charges:
               1
     1  C    0.432829
     2  C    0.778822
     3  H   -0.204654
     4  H   -0.176559
     5  H   -0.127629
     6  H   -0.119730
     7  C   -0.630099
     8  C    0.837081
     9  C    0.195012
    10  C    0.833528
    11  C    0.405496
    12  C   -0.579755
    13  C    0.615976
    14  H   -0.048830
    15  H   -0.142711
    16  H   -0.184951
    17  C    0.623343
    18  C    0.357425
    19  O   -1.132917
    20  C    0.288813
    21  C    0.898743
    22  O   -1.115226
    23  O   -1.004639
    24  C    0.915701
    25  H   -0.362010
    26  C   -0.931642
    27  C    0.728797
    28  H   -0.193721
    29  H   -0.197743
    30  C    0.612122
    31  H   -0.113714
    32  H   -0.092569
    33  H   -0.070770
    34  N   -0.531336
    35  H   -0.171289
    36  C    0.987765
    37  H   -0.089543
    38  H   -0.078118
    39  H   -0.085207
    40  H   -0.331632
    41  C    0.689556
    42  H   -0.242863
    43  H   -0.110043
    44  C    0.471605
    45  H   -0.171593
    46  H   -0.120499
    47  H   -0.629603
    48  H   -0.567588
    49  H   -0.308902
    50  H   -0.226158
    51  H   -0.370363
    52  H   -0.208005
 Sum of Mulliken charges =  -1.00000

 Dipole moment (field-independent basis, Debye):
    X=              1.2396    Y=              3.4570    Z=              2.2571  Tot=              4.3107
 Unable to Open any file for archive entry.
 1\1\GINC-SE342\SP\RMP2-FC\Aug-CC-pVDZ\C20H28N1O3\OHZDE\20-Sep-2024\0\\
 #t symm=none mp2 aug-cc-pvdz geom=allcheck guess=(read,tcheck) int=(gr
 id=ultrafine)\\title\\-1,1\C,0,4.477615,-2.003505,-0.438977\C,0,3.0492
 45,-1.659029,-0.016938\H,0,2.336549,-2.251542,-0.588361\H,0,2.906513,-
 1.906918,1.043485\H,0,4.683265,-3.063219,-0.255942\H,0,4.567986,-1.851
 428,-1.521344\C,0,2.756824,-0.171586,-0.222591\C,0,1.335079,0.241865,0
 .162021\C,0,3.770155,0.654989,0.580855\C,0,3.450893,2.120456,0.538524\
 C,0,2.252624,2.590606,0.216563\C,0,1.073057,1.736735,-0.156173\C,0,0.6
 80235,2.014182,-1.614109\H,0,1.441104,1.646849,-2.305852\H,0,-0.260917

 Normal termination of Gaussian 16 at Fri Sep 20 13:57:35 2024.
