 Gaussian 16, Revision C.01,

 ----------------------------------------------------------------------
 #t hf aug-cc-pvdz symm=none int=(grid=ultrafine) guess=(read,tcheck) s
 table=(opt,rrhf)
 ----------------------------------------------------------------------
 -----
 title
 -----
 Symbolic Z-matrix:
 Charge =  0 Multiplicity = 1

 SCF Done:  E(RHF) =  -1155.56705675     A.U. after   16 cycles
 Normal termination of Gaussian 16 at Fri Sep 20 14:01:40 2024.
 Gaussian 16:  ES64L-G16RevC.01  3-Jul-2019

 ----------------------------------------------------------------------
 #t symm=none mp2 aug-cc-pvdz geom=allcheck guess=(read,tcheck) int=(gr
 id=ultrafine)
 ----------------------------------------------------------------------
 Structure from the checkpoint file:  "02_93R.chk"
 -----
 title
 -----
 Charge =  0 Multiplicity = 1

                          Input orientation:
 ---------------------------------------------------------------------
 Center     Atomic      Atomic             Coordinates (Angstroms)
 Number     Number       Type             X           Y           Z
 ---------------------------------------------------------------------
      1          6           0        0.431736   -2.604557    0.450379
      2          1           0        0.612882   -3.664990    0.269476
      3          1           0        0.211628   -2.483275    1.529527
      4          6           0       -0.768611   -2.149803   -0.340692
      5          6           0        0.306397    0.056249   -0.599609
      6          1           0        0.612701   -0.123263   -1.635216
      7          1           0        0.177542    1.125272   -0.482417
      8          6           0        1.446120   -0.430946    0.304499
      9          1           0        1.137551   -0.256740    1.355426
     10          7           0        1.627884   -1.861149    0.086747
     11          6           0       -2.163861   -0.088172   -0.064933
     12          6           0       -1.524407   -3.010043   -1.013731
     13          6           0       -3.345318   -0.925010    0.244314
     14          6           0       -4.580723   -0.748396   -0.214793
     15          6           0       -0.980739   -0.682029   -0.325095
     16          6           0       -5.742012   -1.630397    0.118455
     17          1           0       -6.162978   -2.088067   -0.782079
     18          1           0       -5.449041   -2.430568    0.800718
     19          1           0       -6.549592   -1.060948    0.588870
     20          6           0        2.732410    0.345580    0.078323
     21          6           0        2.814305   -2.372231    0.746387
     22          1           0        2.809733   -3.461462    0.672697
     23          1           0        2.819499   -2.116685    1.822000
     24          6           0        4.043619   -1.805191    0.063845
     25          1           0        4.118836   -2.236630   -0.938852
     26          6           0        3.961618   -0.304935   -0.036094
     27          1           0        4.946913   -2.090269    0.609493
     28          6           0        5.119482    0.446304   -0.227889
     29          1           0        6.069905   -0.069588   -0.316121
     30          6           0        2.703266    1.739612    0.028370
     31          1           0        1.763971    2.265543    0.144133
     32          6           0        5.077325    1.827474   -0.296802
     33          1           0        5.988525    2.394258   -0.445209
     34          6           0        3.858634    2.478572   -0.159695
     35          1           0        3.807810    3.560025   -0.196615
     36         14           0       -2.315873    1.805070    0.093332
     37          6           0       -1.245249    2.384894    1.532221
     38          1           0       -0.197532    2.094347    1.454332
     39          1           0       -1.285332    3.474117    1.621978
     40          1           0       -1.628730    1.964114    2.465518
     41          6           0       -1.844955    2.685815   -1.502042
     42          1           0       -0.806707    2.535026   -1.799975
     43          1           0       -2.474843    2.336351   -2.324248
     44          1           0       -2.008403    3.762050   -1.396203
     45          6           0       -4.063883    2.346409    0.519841
     46          1           0       -4.474748    1.782398    1.358675
     47          1           0       -4.037843    3.402396    0.804716
     48          1           0       -4.756436    2.251893   -0.317914
     49          1           0       -2.384794   -2.683169   -1.582276
     50          1           0       -1.295349   -4.069970   -1.019206
     51          1           0       -4.784176    0.071943   -0.897011
     52          1           0       -3.164876   -1.782234    0.890359
 ---------------------------------------------------------------------

 SCF Done:  E(RHF) =  -1155.56705675     A.U. after    3 cycles
 E2 =    -0.3255151688D+01 EUMP2 =    -0.11588222084422D+04

 Alpha  occ. eigenvalues --  -68.76216 -15.55702 -11.26911 -11.25995 -11.25626
 Alpha  occ. eigenvalues --  -11.24486 -11.24132 -11.24044 -11.23993 -11.23560
 Alpha  occ. eigenvalues --  -11.23504 -11.23375 -11.23280 -11.23054 -11.22918
 Alpha  occ. eigenvalues --  -11.22570 -11.22424 -11.22413 -11.22365 -11.21740
 Alpha  occ. eigenvalues --  -11.20032 -11.20030 -11.19737  -6.10851  -4.21488
 Alpha  occ. eigenvalues --   -4.21479  -4.21469  -1.25835  -1.16005  -1.12587
 Alpha  occ. eigenvalues --   -1.07615  -1.06659  -1.05511  -1.01668  -0.99875
 Alpha  occ. eigenvalues --   -0.96811  -0.95994  -0.93136  -0.92208  -0.91775
 Alpha  occ. eigenvalues --   -0.89967  -0.86041  -0.83731  -0.81403  -0.80196
 Alpha  occ. eigenvalues --   -0.75766  -0.74709  -0.69988  -0.69237  -0.66392
 Alpha  occ. eigenvalues --   -0.65342  -0.64468  -0.64006  -0.62051  -0.61801
 Alpha  occ. eigenvalues --   -0.60120  -0.59747  -0.59074  -0.58281  -0.57663
 Alpha  occ. eigenvalues --   -0.56764  -0.56225  -0.56022  -0.55834  -0.54914
 Alpha  occ. eigenvalues --   -0.54588  -0.53830  -0.53376  -0.53051  -0.52823
 Alpha  occ. eigenvalues --   -0.52566  -0.52103  -0.50999  -0.50634  -0.50024
 Alpha  occ. eigenvalues --   -0.48734  -0.47791  -0.45813  -0.45609  -0.43406
 Alpha  occ. eigenvalues --   -0.42277  -0.41741  -0.38355  -0.36645  -0.36033
 Alpha  occ. eigenvalues --   -0.32873  -0.32165  -0.29762
 Alpha virt. eigenvalues --    0.02947   0.03457   0.03523   0.04046   0.04319
 Alpha virt. eigenvalues --    0.04451   0.05115   0.05320   0.05556   0.05638
 Alpha virt. eigenvalues --    0.05878   0.06636   0.06922   0.07166   0.07320

 Mulliken charges:
               1
     1  C    0.597279
     2  H   -0.461414
     3  H   -0.006710
     4  C   -0.608919
     5  C    0.497189
     6  H   -0.138781
     7  H   -0.764610
     8  C   -0.674321
     9  H   -0.173593
    10  N   -0.932419
    11  C   -1.712810
    12  C    1.688712
    13  C    1.686259
    14  C   -0.127292
    15  C    0.638531
    16  C    0.444602
    17  H    0.062257
    18  H   -0.189325
    19  H    0.012662
    20  C    0.564198
    21  C    1.007976
    22  H   -0.291490
    23  H   -0.128192
    24  C    0.510378
    25  H    0.108997
    26  C   -0.609799
    27  H   -0.006897
    28  C    0.753500
    29  H   -0.649059
    30  C    1.320605
    31  H   -0.688173
    32  C    0.358082
    33  H   -0.458028
    34  C    0.033371
    35  H   -0.563226
    36  Si   1.696938
    37  C    1.014459
    38  H   -0.609060
    39  H   -0.263419
    40  H   -0.329997
    41  C    0.881643
    42  H   -0.324022
    43  H   -0.365999
    44  H   -0.263152
    45  C    0.709202
    46  H   -0.249440
    47  H   -0.459164
    48  H   -0.358183
    49  H   -0.447899
    50  H   -0.550799
    51  H   -0.581934
    52  H   -0.598711
 Sum of Mulliken charges =  -0.00000

 Dipole moment (field-independent basis, Debye):
    X=              0.1699    Y=             -0.6328    Z=              0.6293  Tot=              0.9085
 Unable to Open any file for archive entry.
 1\1\GINC-SE219\SP\RMP2-FC\Aug-CC-pVDZ\C21H29N1Si1\OHZDE\20-Sep-2024\0\
 \#t symm=none mp2 aug-cc-pvdz geom=allcheck guess=(read,tcheck) int=(g
 rid=ultrafine)\\title\\0,1\C,0,0.431736,-2.604557,0.450379\H,0,0.61288
 2,-3.66499,0.269476\H,0,0.211628,-2.483275,1.529527\C,0,-0.768611,-2.1
 49803,-0.340692\C,0,0.306397,0.056249,-0.599609\H,0,0.612701,-0.123263
 ,-1.635216\H,0,0.177542,1.125272,-0.482417\C,0,1.44612,-0.430946,0.304
 499\H,0,1.137551,-0.25674,1.355426\N,0,1.627884,-1.861149,0.086747\C,0
 ,-2.163861,-0.088172,-0.064933\C,0,-1.524407,-3.010043,-1.013731\C,0,-
 3.345318,-0.92501,0.244314\C,0,-4.580723,-0.748396,-0.214793\C,0,-0.98

 Normal termination of Gaussian 16 at Fri Sep 20 16:05:19 2024.
