 Gaussian 16, Revision C.01,

 ----------------------------------------------------------------------
 #t hf aug-cc-pvdz symm=none int=(grid=ultrafine) guess=(read,tcheck) s
 table=(opt,rrhf)
 ----------------------------------------------------------------------
 -----
 title
 -----
 Symbolic Z-matrix:
 Charge =  0 Multiplicity = 1

 SCF Done:  E(RHF) =  -1155.61176108     A.U. after   15 cycles
 Normal termination of Gaussian 16 at Fri Sep 20 13:50:05 2024.
 Gaussian 16:  ES64L-G16RevC.01  3-Jul-2019

 ----------------------------------------------------------------------
 #t symm=none mp2 aug-cc-pvdz geom=allcheck guess=(read,tcheck) int=(gr
 id=ultrafine)
 ----------------------------------------------------------------------
 Structure from the checkpoint file:  "02_92P.chk"
 -----
 title
 -----
 Charge =  0 Multiplicity = 1

                          Input orientation:
 ---------------------------------------------------------------------
 Center     Atomic      Atomic             Coordinates (Angstroms)
 Number     Number       Type             X           Y           Z
 ---------------------------------------------------------------------
      1          6           0       -0.288069   -2.561065    0.162216
      2          1           0       -0.459806   -3.176339   -0.744858
      3          6           0        0.985207   -1.791261   -0.001450
      4          6           0       -0.284057    0.310431   -0.229357
      5          1           0       -0.476904    0.879251    0.685973
      6          1           0       -0.194689    1.036861   -1.038633
      7          6           0       -1.481342   -0.600092   -0.499148
      8          1           0       -1.382892   -0.991827   -1.531078
      9          7           0       -1.425849   -1.710278    0.443635
     10          6           0        2.298408    0.263500   -0.140547
     11          6           0        2.270083   -2.569684    0.040912
     12          6           0        3.400277   -0.432402   -0.457251
     13          6           0        3.350625   -1.899124   -0.801327
     14          6           0        1.002524   -0.461104   -0.122892
     15          6           0        4.706944   -2.577430   -0.647279
     16          1           0        4.656392   -3.630653   -0.933197
     17          1           0        5.462182   -2.096211   -1.273302
     18          1           0        5.050090   -2.526704    0.389781
     19          6           0       -2.662995   -2.461191    0.519032
     20          1           0       -2.971917   -2.832473   -0.475778
     21          1           0       -2.495976   -3.335571    1.152015
     22          6           0       -2.791014    0.161608   -0.427355
     23          6           0       -3.861459   -0.291183    0.342909
     24          6           0       -3.748912   -1.582570    1.108621
     25          1           0       -3.503963   -1.374077    2.154545
     26          1           0       -4.708929   -2.105052    1.096468
     27          1           0       -0.170016   -3.267896    0.991731
     28          6           0       -5.040952    0.450613    0.378642
     29          1           0       -5.869551    0.089746    0.979030
     30          6           0       -2.939987    1.335339   -1.166786
     31          1           0       -2.124273    1.683501   -1.789332
     32          6           0       -5.172944    1.624363   -0.341883
     33          1           0       -6.097923    2.186935   -0.302533
     34          6           0       -4.114926    2.065650   -1.126690
     35          1           0       -4.206838    2.974964   -1.708327
     36         14           0        2.468291    2.068890    0.382352
     37          6           0        1.877828    2.253319    2.156763
     38          1           0        2.461208    1.616223    2.825837
     39          1           0        1.985469    3.286453    2.498145
     40          1           0        0.827890    1.975401    2.269256
     41          6           0        4.278177    2.563843    0.290473
     42          1           0        4.670322    2.493624   -0.726878
     43          1           0        4.389666    3.602244    0.613793
     44          1           0        4.905723    1.948663    0.938907
     45          6           0        1.492639    3.240199   -0.722427
     46          1           0        1.679612    3.038572   -1.780116
     47          1           0        0.417153    3.175945   -0.550127
     48          1           0        1.794563    4.272521   -0.524597
     49          1           0        2.104822   -3.594455   -0.306084
     50          1           0        2.611642   -2.645973    1.084500
     51          1           0        3.042251   -1.975382   -1.855273
     52          1           0        4.373218    0.048638   -0.489292
 ---------------------------------------------------------------------

 SCF Done:  E(RHF) =  -1155.61176108     A.U. after    3 cycles
 E2 =    -0.3254889698D+01 EUMP2 =    -0.11588666507822D+04

 Alpha  occ. eigenvalues --  -68.75750 -15.55202 -11.26306 -11.25634 -11.25337
 Alpha  occ. eigenvalues --  -11.23834 -11.23714 -11.23359 -11.23277 -11.23275
 Alpha  occ. eigenvalues --  -11.23179 -11.23102 -11.23017 -11.22833 -11.22699
 Alpha  occ. eigenvalues --  -11.22585 -11.22430 -11.22372 -11.22120 -11.21006
 Alpha  occ. eigenvalues --  -11.19887 -11.19845 -11.19592  -6.10423  -4.21065
 Alpha  occ. eigenvalues --   -4.21054  -4.21042  -1.25499  -1.15851  -1.14201
 Alpha  occ. eigenvalues --   -1.07943  -1.05898  -1.04272  -1.01890  -0.99541
 Alpha  occ. eigenvalues --   -0.97286  -0.95916  -0.92991  -0.91920  -0.91784
 Alpha  occ. eigenvalues --   -0.87936  -0.86039  -0.84162  -0.81549  -0.81007
 Alpha  occ. eigenvalues --   -0.76325  -0.74331  -0.69358  -0.67504  -0.66603
 Alpha  occ. eigenvalues --   -0.64976  -0.64356  -0.63558  -0.62360  -0.61653
 Alpha  occ. eigenvalues --   -0.59957  -0.59190  -0.58672  -0.57826  -0.57634
 Alpha  occ. eigenvalues --   -0.56415  -0.55695  -0.55579  -0.54921  -0.54260
 Alpha  occ. eigenvalues --   -0.53814  -0.53558  -0.53206  -0.52695  -0.52522
 Alpha  occ. eigenvalues --   -0.52048  -0.51871  -0.51131  -0.49757  -0.49237
 Alpha  occ. eigenvalues --   -0.48524  -0.47711  -0.47237  -0.45477  -0.43497
 Alpha  occ. eigenvalues --   -0.42819  -0.42070  -0.40502  -0.38654  -0.35778
 Alpha  occ. eigenvalues --   -0.32615  -0.31903  -0.29176
 Alpha virt. eigenvalues --    0.02938   0.03514   0.03544   0.03922   0.04339
 Alpha virt. eigenvalues --    0.04585   0.05161   0.05214   0.05310   0.05750
 Alpha virt. eigenvalues --    0.05950   0.06611   0.06804   0.07114   0.07311

 Mulliken charges:
               1
     1  C    0.309575
     2  H    0.117286
     3  C   -0.498204
     4  C   -0.050619
     5  H   -0.059411
     6  H   -0.009484
     7  C    0.363119
     8  H   -0.150629
     9  N   -0.722797
    10  C   -1.867308
    11  C    0.683513
    12  C    0.400577
    13  C   -0.129258
    14  C    0.264029
    15  C    0.938039
    16  H   -0.095278
    17  H   -0.063773
    18  H   -0.002134
    19  C    1.032798
    20  H   -0.169151
    21  H   -0.293978
    22  C    0.836002
    23  C   -0.276302
    24  C    0.530387
    25  H    0.083350
    26  H   -0.041856
    27  H   -0.134849
    28  C    0.924380
    29  H   -0.652681
    30  C    0.857134
    31  H   -0.738687
    32  C    0.198153
    33  H   -0.472884
    34  C   -0.206710
    35  H   -0.558198
    36  Si   1.427320
    37  C    0.924038
    38  H   -0.372148
    39  H   -0.341645
    40  H   -0.302104
    41  C    0.618887
    42  H   -0.317639
    43  H   -0.527362
    44  H   -0.300486
    45  C    0.891366
    46  H   -0.336644
    47  H   -0.318423
    48  H   -0.336085
    49  H   -0.151623
    50  H    0.019638
    51  H   -0.135949
    52  H   -0.785289
 Sum of Mulliken charges =  -0.00000

 Dipole moment (field-independent basis, Debye):
    X=              0.1948    Y=             -1.1141    Z=             -0.3764  Tot=              1.1920
 Unable to Open any file for archive entry.
 1\1\GINC-SE243\SP\RMP2-FC\Aug-CC-pVDZ\C21H29N1Si1\OHZDE\20-Sep-2024\0\
 \#t symm=none mp2 aug-cc-pvdz geom=allcheck guess=(read,tcheck) int=(g
 rid=ultrafine)\\title\\0,1\C,0,-0.288069,-2.561065,0.162216\H,0,-0.459
 806,-3.176339,-0.744858\C,0,0.985207,-1.791261,-0.00145\C,0,-0.284057,
 0.310431,-0.229357\H,0,-0.476904,0.879251,0.685973\H,0,-0.194689,1.036
 861,-1.038633\C,0,-1.481342,-0.600092,-0.499148\H,0,-1.382892,-0.99182
 7,-1.531078\N,0,-1.425849,-1.710278,0.443635\C,0,2.298408,0.2635,-0.14
 0547\C,0,2.270083,-2.569684,0.040912\C,0,3.400277,-0.432402,-0.457251\
 C,0,3.350625,-1.899124,-0.801327\C,0,1.002524,-0.461104,-0.122892\C,0,

 Normal termination of Gaussian 16 at Fri Sep 20 17:15:02 2024.
