 Gaussian 16, Revision C.01,

 ----------------------------------------------------------------------
 #t hf aug-cc-pvdz symm=none int=(grid=ultrafine) guess=(read,tcheck) s
 table=(opt,rrhf)
 ----------------------------------------------------------------------
 -----
 title
 -----
 Symbolic Z-matrix:
 Charge =  0 Multiplicity = 1

 SCF Done:  E(RHF) =  -1112.16461584     A.U. after   16 cycles
 Normal termination of Gaussian 16 at Fri Sep 20 10:15:56 2024.
 Gaussian 16:  ES64L-G16RevC.01  3-Jul-2019

 ----------------------------------------------------------------------
 #t symm=none mp2 aug-cc-pvdz geom=allcheck guess=(read,tcheck) int=(gr
 id=ultrafine)
 ----------------------------------------------------------------------
 Structure from the checkpoint file:  "02_126TS.chk"
 -----
 title
 -----
 Charge =  0 Multiplicity = 1

                          Input orientation:
 ---------------------------------------------------------------------
 Center     Atomic      Atomic             Coordinates (Angstroms)
 Number     Number       Type             X           Y           Z
 ---------------------------------------------------------------------
      1          6           0       -6.094960   -0.502306   -1.508971
      2          6           0       -5.203818   -1.215027   -0.499050
      3          6           0       -3.853614   -0.539002   -0.337746
      4          6           0       -2.840473   -1.332079    0.510555
      5          6           0       -1.497035   -0.637319    0.625764
      6          6           0       -0.349760   -0.950525   -0.094001
      7          6           0        0.842623   -0.315871    0.268442
      8          6           0        2.193614   -0.714334   -0.265934
      9          6           0        2.927953    0.358212   -1.144183
     10          6           0        2.921377    1.721056   -0.517372
     11          6           0        1.765774    2.329258   -0.246897
     12          6           0        0.491400    1.708984   -0.588519
     13          6           0       -0.709782    2.052595    0.015721
     14          6           0       -1.874239    1.384669   -0.301112
     15          6           0       -3.124127    1.645903    0.430749
     16          6           0       -3.375237   -1.640454    1.911343
     17          6           0        3.074829   -1.200698    0.906568
     18          6           0        4.432174   -1.698400    0.412707
     19          6           0        5.176425   -0.647837   -0.403880
     20          6           0        4.319992   -0.139458   -1.552739
     21          6           0       -0.430223   -1.703675   -1.398072
     22          8           0       -3.306361    2.568564    1.179817
     23          8           0       -4.120076    0.740611    0.252490
     24          8           0        3.214774   -0.226519    1.926343
     25          8           0        5.530352    0.481894    0.411123
     26          1           0       -6.274635    0.528488   -1.201469
     27          1           0       -7.060620   -1.002622   -1.600927
     28          1           0       -5.633348   -0.484400   -2.500234
     29          1           0       -5.700065   -1.249034    0.472649
     30          1           0       -5.030791   -2.250259   -0.810147
     31          1           0       -3.430937   -0.392694   -1.336707
     32          1           0       -2.699056   -2.278902   -0.018347
     33          1           0       -1.326861   -0.171046    1.589561
     34          1           0        0.883822    0.105266    1.264401
     35          1           0        2.067809   -1.581732   -0.921700
     36          1           0        2.341160    0.419151   -2.066925
     37          1           0        3.866062    2.173012   -0.242696
     38          1           0        1.749319    3.275195    0.285013
     39          1           0        0.434887    1.237845   -1.565286
     40          1           0       -0.703996    2.670280    0.908934
     41          1           0       -1.954736    0.913641   -1.270398
     42          1           0       -3.634198   -0.719464    2.437383
     43          1           0       -2.616191   -2.163305    2.495709
     44          1           0       -4.263070   -2.272315    1.875808
     45          1           0        2.551455   -2.031884    1.385040
     46          1           0        4.286634   -2.585399   -0.212342
     47          1           0        5.032009   -2.008051    1.273517
     48          1           0        6.093372   -1.082229   -0.817184
     49          1           0        4.205701   -0.967655   -2.259162
     50          1           0        4.858150    0.653220   -2.076897
     51          1           0       -0.064202   -1.089278   -2.227131
     52          1           0        0.178422   -2.611462   -1.382563
     53          1           0       -1.448724   -2.000091   -1.642249
     54          1           0        3.806712    0.463442    1.601822
     55          1           0        6.179036    0.203723    1.064103
 ---------------------------------------------------------------------

 SCF Done:  E(RHF) =  -1112.16461584     A.U. after    2 cycles
 E2 =    -0.3854358329D+01 EUMP2 =    -0.11160189741690D+04

 Alpha  occ. eigenvalues --  -20.59267 -20.58705 -20.55710 -20.52768 -11.37094
 Alpha  occ. eigenvalues --  -11.30202 -11.29991 -11.28932 -11.25834 -11.25234
 Alpha  occ. eigenvalues --  -11.25074 -11.24776 -11.24697 -11.24595 -11.24380
 Alpha  occ. eigenvalues --  -11.24001 -11.23965 -11.23961 -11.23819 -11.23305
 Alpha  occ. eigenvalues --  -11.23163 -11.23087 -11.22603 -11.22473 -11.22065
 Alpha  occ. eigenvalues --   -1.44441  -1.38761  -1.35961  -1.34826  -1.15589
 Alpha  occ. eigenvalues --   -1.12730  -1.10378  -1.08805  -1.06458  -1.04532
 Alpha  occ. eigenvalues --   -1.01801  -1.00951  -0.96088  -0.95106  -0.93858
 Alpha  occ. eigenvalues --   -0.90213  -0.87114  -0.85231  -0.82927  -0.81772
 Alpha  occ. eigenvalues --   -0.79712  -0.77884  -0.74284  -0.73169  -0.72901
 Alpha  occ. eigenvalues --   -0.71817  -0.69347  -0.68510  -0.67591  -0.65874
 Alpha  occ. eigenvalues --   -0.65100  -0.64112  -0.63519  -0.62922  -0.61684
 Alpha  occ. eigenvalues --   -0.60419  -0.60233  -0.59913  -0.58498  -0.58291
 Alpha  occ. eigenvalues --   -0.57988  -0.57564  -0.57062  -0.56682  -0.55309
 Alpha  occ. eigenvalues --   -0.54530  -0.54180  -0.53413  -0.53024  -0.52582
 Alpha  occ. eigenvalues --   -0.51735  -0.51469  -0.51170  -0.49956  -0.49666
 Alpha  occ. eigenvalues --   -0.49462  -0.48953  -0.47937  -0.47840  -0.47629
 Alpha  occ. eigenvalues --   -0.46378  -0.45810  -0.43905  -0.42686  -0.42643
 Alpha  occ. eigenvalues --   -0.41801  -0.37087  -0.30899  -0.27965
 Alpha virt. eigenvalues --    0.02071   0.02758   0.03402   0.03643   0.04251
 Alpha virt. eigenvalues --    0.04340   0.04816   0.05114   0.05503   0.05634
 Alpha virt. eigenvalues --    0.05969   0.06157   0.06929   0.06971   0.07367

 Mulliken charges:
               1
     1  C    0.701176
     2  C    0.457424
     3  C    0.617195
     4  C   -0.941416
     5  C    1.439698
     6  C   -1.688295
     7  C    1.286057
     8  C    0.148609
     9  C   -0.366607
    10  C    0.608872
    11  C    0.594535
    12  C    0.607085
    13  C    0.260171
    14  C    1.296409
    15  C    0.974527
    16  C    1.305732
    17  C    1.054814
    18  C    0.682041
    19  C    0.865262
    20  C    1.007866
    21  C    0.896872
    22  O   -0.920274
    23  O   -1.153761
    24  O   -0.907120
    25  O   -0.868853
    26  H   -0.022580
    27  H   -0.095000
    28  H   -0.082916
    29  H   -0.127882
    30  H   -0.115389
    31  H   -0.322163
    32  H   -0.463479
    33  H   -0.809942
    34  H   -0.873257
    35  H   -0.593148
    36  H   -0.268906
    37  H   -0.609411
    38  H   -0.615251
    39  H   -0.635232
    40  H   -0.613284
    41  H   -0.747543
    42  H    0.029943
    43  H   -0.136022
    44  H   -0.111785
    45  H   -0.374016
    46  H    0.000223
    47  H   -0.117179
    48  H   -0.233453
    49  H   -0.053896
    50  H   -0.155713
    51  H    0.120916
    52  H    0.122306
    53  H   -0.467838
    54  H    0.266207
    55  H    0.147673
 Sum of Mulliken charges =  -0.00000

 Dipole moment (field-independent basis, Debye):
    X=              4.7199    Y=             -6.4039    Z=             -3.5828  Tot=              8.7249
 Unable to Open any file for archive entry.
 1\1\GINC-SE334\SP\RMP2-FC\Aug-CC-pVDZ\C21H30O4\OHZDE\20-Sep-2024\0\\#t
  symm=none mp2 aug-cc-pvdz geom=allcheck guess=(read,tcheck) int=(grid
 =ultrafine)\\title\\0,1\C,0,-6.09496,-0.502306,-1.508971\C,0,-5.203818
 ,-1.215027,-0.49905\C,0,-3.853614,-0.539002,-0.337746\C,0,-2.840473,-1
 .332079,0.510555\C,0,-1.497035,-0.637319,0.625764\C,0,-0.34976,-0.9505
 25,-0.094001\C,0,0.842623,-0.315871,0.268442\C,0,2.193614,-0.714334,-0
 .265934\C,0,2.927953,0.358212,-1.144183\C,0,2.921377,1.721056,-0.51737
 2\C,0,1.765774,2.329258,-0.246897\C,0,0.4914,1.708984,-0.588519\C,0,-0
 .709782,2.052595,0.015721\C,0,-1.874239,1.384669,-0.301112\C,0,-3.1241

 Normal termination of Gaussian 16 at Fri Sep 20 15:12:52 2024.
