 Gaussian 16, Revision C.01,

 ----------------------------------------------------------------------
 #t hf aug-cc-pvdz symm=none int=(grid=ultrafine) guess=(read,tcheck) s
 table=(opt,rrhf)
 ----------------------------------------------------------------------
 -----
 title
 -----
 Symbolic Z-matrix:
 Charge =  0 Multiplicity = 1

 SCF Done:  E(RHF) =  -1375.46180421     A.U. after   17 cycles
 Normal termination of Gaussian 16 at Fri Sep 20 13:33:09 2024.
 Gaussian 16:  ES64L-G16RevC.01  3-Jul-2019

 ----------------------------------------------------------------------
 #t symm=none mp2 aug-cc-pvdz geom=allcheck guess=(read,tcheck) int=(gr
 id=ultrafine)
 ----------------------------------------------------------------------
 Structure from the checkpoint file:  "02_86P.chk"
 -----
 title
 -----
 Charge =  0 Multiplicity = 1

                          Input orientation:
 ---------------------------------------------------------------------
 Center     Atomic      Atomic             Coordinates (Angstroms)
 Number     Number       Type             X           Y           Z
 ---------------------------------------------------------------------
      1          6           0       -0.102494   -2.590145    1.067154
      2          7           0        1.119239   -2.169892    0.414155
      3          6           0       -1.320783   -1.870288    0.575100
      4          6           0        0.097070   -0.278243   -0.665035
      5          1           0        0.345638   -0.644576   -1.665733
      6          1           0        0.075197    0.805568   -0.725510
      7          6           0       -2.499782   -0.145241   -0.648672
      8          6           0       -2.654481   -2.365031    1.067303
      9          6           0       -3.678031   -0.761293   -0.514771
     10          6           0       -3.757652   -2.164718    0.026852
     11          6           0       -1.242037   -0.803207   -0.226688
     12          6           0       -3.673768   -3.185044   -1.115259
     13          1           0       -2.713804   -3.108463   -1.629908
     14          1           0       -3.779714   -4.203402   -0.732330
     15          1           0       -4.463978   -3.015103   -1.849204
     16          1           0       -0.042804   -2.453544    2.167807
     17          6           0        1.186235   -0.717345    0.308694
     18          1           0       -0.229479   -3.665735    0.902603
     19         16           0       -2.464727    1.449318   -1.443430
     20          6           0        2.296096   -2.765497    1.013060
     21          6           0        2.554696   -0.219502   -0.106675
     22          1           0        0.957803   -0.261626    1.292180
     23          6           0        3.645771   -1.079377   -0.219689
     24          6           0        3.489740   -2.541994    0.103602
     25          1           0        4.401676   -2.915736    0.576310
     26          1           0        3.341667   -3.113842   -0.817540
     27          1           0        2.112292   -3.834692    1.142427
     28          1           0        2.497452   -2.345264    2.015932
     29          6           0        2.734370    1.142810   -0.349326
     30          6           0        4.882856   -0.565935   -0.605559
     31          6           0        5.048337    0.782414   -0.868930
     32          6           0        3.966582    1.643770   -0.731019
     33          1           0        4.084859    2.704599   -0.916434
     34          1           0        1.899581    1.823956   -0.229618
     35          1           0        5.728640   -1.240379   -0.689766
     36          1           0        6.017599    1.163896   -1.166856
     37          6           0       -1.656356    2.451251   -0.211115
     38          6           0       -0.899062    3.537417   -0.643697
     39          6           0       -1.756035    2.179773    1.149796
     40          6           0       -1.085598    2.978246    2.065240
     41          6           0       -0.331503    4.061985    1.636435
     42          6           0       -0.248688    4.343060    0.279037
     43          1           0       -2.349189    1.340691    1.489751
     44          1           0       -1.158824    2.752804    3.122539
     45          1           0       -0.807060    3.738704   -1.704488
     46          1           0        0.189543    4.682609    2.354782
     47          1           0        0.338284    5.185363   -0.067230
     48          1           0       -2.915542   -1.821566    1.985550
     49          1           0       -2.590482   -3.421894    1.342418
     50          1           0       -4.723736   -2.289514    0.523494
     51          1           0       -4.587563   -0.269903   -0.840407
 ---------------------------------------------------------------------

 SCF Done:  E(RHF) =  -1375.46180421     A.U. after    3 cycles
 E2 =    -0.3650556450D+01 EUMP2 =    -0.13791123606610D+04

 Alpha  occ. eigenvalues --  -91.95991 -15.55209 -11.27379 -11.26604 -11.26084
 Alpha  occ. eigenvalues --  -11.26032 -11.25386 -11.24654 -11.24626 -11.24437
 Alpha  occ. eigenvalues --  -11.24307 -11.24282 -11.24173 -11.24098 -11.23624
 Alpha  occ. eigenvalues --  -11.23582 -11.23522 -11.23426 -11.23371 -11.23103
 Alpha  occ. eigenvalues --  -11.22962 -11.22870 -11.22804 -11.22774 -11.22282
 Alpha  occ. eigenvalues --  -11.21925  -8.96143  -6.64353  -6.64206  -6.64018
 Alpha  occ. eigenvalues --   -1.25551  -1.17322  -1.15998  -1.15193  -1.08226
 Alpha  occ. eigenvalues --   -1.07796  -1.05357  -1.04317  -1.02739  -1.02380
 Alpha  occ. eigenvalues --   -0.99425  -0.97613  -0.93599  -0.93163  -0.88743
 Alpha  occ. eigenvalues --   -0.86202  -0.84339  -0.83791  -0.82369  -0.80931
 Alpha  occ. eigenvalues --   -0.79073  -0.76619  -0.74278  -0.70456  -0.69223
 Alpha  occ. eigenvalues --   -0.67293  -0.66255  -0.65281  -0.64512  -0.63630
 Alpha  occ. eigenvalues --   -0.63274  -0.61919  -0.61616  -0.61292  -0.59943
 Alpha  occ. eigenvalues --   -0.59390  -0.59248  -0.58329  -0.57410  -0.57124
 Alpha  occ. eigenvalues --   -0.56084  -0.55337  -0.54300  -0.53391  -0.52502
 Alpha  occ. eigenvalues --   -0.52011  -0.51936  -0.51167  -0.50748  -0.50104
 Alpha  occ. eigenvalues --   -0.49846  -0.49125  -0.47913  -0.47369  -0.47155
 Alpha  occ. eigenvalues --   -0.45751  -0.44621  -0.43055  -0.41944  -0.38228
 Alpha  occ. eigenvalues --   -0.35689  -0.34473  -0.32327  -0.31660  -0.31421
 Alpha  occ. eigenvalues --   -0.29166
 Alpha virt. eigenvalues --    0.02941   0.03342   0.03592   0.03854   0.04367
 Alpha virt. eigenvalues --    0.04684   0.04920   0.05196   0.05382   0.05882
 Alpha virt. eigenvalues --    0.06175   0.06415   0.06578   0.07127   0.07379

 Mulliken charges:
               1
     1  C    0.340711
     2  N   -0.787391
     3  C   -1.509898
     4  C    0.194719
     5  H    0.006562
     6  H   -0.021118
     7  C   -0.616791
     8  C    1.015488
     9  C    0.607653
    10  C   -0.574972
    11  C    0.881314
    12  C    0.839000
    13  H   -0.019793
    14  H   -0.090131
    15  H   -0.117281
    16  H    0.108321
    17  C   -0.078207
    18  H   -0.095921
    19  S    0.223288
    20  C    1.027465
    21  C    0.562239
    22  H   -0.239598
    23  C   -0.278820
    24  C    0.573633
    25  H   -0.034147
    26  H    0.080960
    27  H   -0.306122
    28  H   -0.168764
    29  C    0.866207
    30  C    0.630438
    31  C    0.210872
    32  C    0.014837
    33  H   -0.571000
    34  H   -0.509606
    35  H   -0.649479
    36  H   -0.477505
    37  C   -0.247081
    38  C    0.811740
    39  C    1.025721
    40  C    0.085162
    41  C    0.720353
    42  C    0.325366
    43  H   -0.577566
    44  H   -0.626392
    45  H   -0.632243
    46  H   -0.532544
    47  H   -0.526963
    48  H   -0.049489
    49  H   -0.122911
    50  H   -0.130960
    51  H   -0.559357
 Sum of Mulliken charges =  -0.00000

 Dipole moment (field-independent basis, Debye):
    X=             -0.0125    Y=             -1.2964    Z=              2.2107  Tot=              2.5629
 Unable to Open any file for archive entry.
 1\1\GINC-SE145\SP\RMP2-FC\Aug-CC-pVDZ\C24H25N1S1\OHZDE\20-Sep-2024\0\\
 #t symm=none mp2 aug-cc-pvdz geom=allcheck guess=(read,tcheck) int=(gr
 id=ultrafine)\\title\\0,1\C,0,-0.102494,-2.590145,1.067154\N,0,1.11923
 9,-2.169892,0.414155\C,0,-1.320783,-1.870288,0.5751\C,0,0.09707,-0.278
 243,-0.665035\H,0,0.345638,-0.644576,-1.665733\H,0,0.075197,0.805568,-
 0.72551\C,0,-2.499782,-0.145241,-0.648672\C,0,-2.654481,-2.365031,1.06
 7303\C,0,-3.678031,-0.761293,-0.514771\C,0,-3.757652,-2.164718,0.02685
 2\C,0,-1.242037,-0.803207,-0.226688\C,0,-3.673768,-3.185044,-1.115259\
 H,0,-2.713804,-3.108463,-1.629908\H,0,-3.779714,-4.203402,-0.73233\H,0

 Normal termination of Gaussian 16 at Fri Sep 20 16:21:27 2024.
