 Gaussian 16, Revision C.01,

 ----------------------------------------------------------------------
 #t hf aug-cc-pvdz symm=none int=(grid=ultrafine) guess=(read,tcheck) s
 table=(opt,rrhf)
 ----------------------------------------------------------------------
 -----
 title
 -----
 Symbolic Z-matrix:
 Charge =  0 Multiplicity = 1

 SCF Done:  E(RHF) =  -1155.49654080     A.U. after   17 cycles
 Normal termination of Gaussian 16 at Fri Sep 20 13:44:13 2024.
 Gaussian 16:  ES64L-G16RevC.01  3-Jul-2019

 ----------------------------------------------------------------------
 #t symm=none mp2 aug-cc-pvdz geom=allcheck guess=(read,tcheck) int=(gr
 id=ultrafine)
 ----------------------------------------------------------------------
 Structure from the checkpoint file:  "02_93TS.chk"
 -----
 title
 -----
 Charge =  0 Multiplicity = 1

                          Input orientation:
 ---------------------------------------------------------------------
 Center     Atomic      Atomic             Coordinates (Angstroms)
 Number     Number       Type             X           Y           Z
 ---------------------------------------------------------------------
      1          6           0       -0.072733   -2.364039   -0.954229
      2          1           0       -0.144263   -3.451906   -0.965247
      3          1           0        0.226554   -2.050967   -1.963374
      4          6           0        1.009081   -1.910167    0.031016
      5          6           0       -0.347302    0.120673    0.461314
      6          1           0       -0.762434   -0.080606    1.454435
      7          1           0       -0.280802    1.202029    0.388628
      8          6           0       -1.349433   -0.371905   -0.603647
      9          1           0       -1.003818   -0.008859   -1.577953
     10          7           0       -1.392107   -1.826935   -0.695906
     11          6           0        2.185726    0.237434    0.245491
     12          6           0        2.043650   -2.787263    0.334780
     13          1           0        2.319651   -2.908822    1.365892
     14          1           0        2.103448   -3.715502   -0.232686
     15          6           0        3.427974   -0.342797   -0.044551
     16          1           0        4.059376    0.175341   -0.764657
     17          6           0        3.870553   -1.588655    0.384798
     18          6           0        1.010934   -0.541567    0.358621
     19          6           0        5.068774   -2.245401   -0.247191
     20          1           0        5.039548   -3.328531   -0.114759
     21          1           0        5.116129   -2.040069   -1.317885
     22          1           0        5.997790   -1.890054    0.210903
     23          1           0        3.775084   -1.769885    1.442754
     24          6           0       -2.721687    0.203873   -0.340338
     25          6           0       -2.069863   -2.436053    0.438444
     26          1           0       -1.630116   -2.137119    1.403391
     27          1           0       -1.955427   -3.518978    0.362402
     28          6           0       -3.542438   -2.064317    0.394164
     29          1           0       -4.017131   -2.609842   -0.427367
     30          6           0       -3.747990   -0.586593    0.174610
     31          1           0       -4.038457   -2.376371    1.317203
     32          6           0       -4.981287    0.000689    0.451942
     33          1           0       -5.778167   -0.615467    0.855411
     34          6           0       -2.953992    1.557236   -0.576369
     35          1           0       -2.159030    2.169022   -0.989089
     36          6           0       -5.204237    1.347130    0.220023
     37          1           0       -6.170175    1.784308    0.442659
     38          6           0       -4.183286    2.131605   -0.302392
     39          1           0       -4.346459    3.184751   -0.496762
     40         14           0        2.137563    2.129861    0.083823
     41          6           0        3.891286    2.766226   -0.152913
     42          1           0        4.325008    2.451097   -1.104626
     43          1           0        3.884618    3.859726   -0.145819
     44          1           0        4.556313    2.431321    0.645855
     45          6           0        1.151369    2.707114   -1.414465
     46          1           0        0.089380    2.467697   -1.358780
     47          1           0        1.544870    2.245962   -2.323982
     48          1           0        1.240167    3.791086   -1.529072
     49          6           0        1.476569    2.910729    1.662438
     50          1           0        2.075500    2.592309    2.519422
     51          1           0        1.544205    4.000357    1.598375
     52          1           0        0.437490    2.654738    1.873283
 ---------------------------------------------------------------------

 SCF Done:  E(RHF) =  -1155.49654080     A.U. after    3 cycles
 E2 =    -0.3295691338D+01 EUMP2 =    -0.11587922321331D+04

 Alpha  occ. eigenvalues --  -68.76029 -15.55040 -11.26207 -11.25413 -11.25103
 Alpha  occ. eigenvalues --  -11.25025 -11.23843 -11.23729 -11.23592 -11.23527
 Alpha  occ. eigenvalues --  -11.23306 -11.23234 -11.23133 -11.23025 -11.22896
 Alpha  occ. eigenvalues --  -11.22811 -11.22772 -11.22403 -11.22335 -11.21789
 Alpha  occ. eigenvalues --  -11.20103 -11.19893 -11.19809  -6.10680  -4.21320
 Alpha  occ. eigenvalues --   -4.21306  -4.21298  -1.25203  -1.15684  -1.12577
 Alpha  occ. eigenvalues --   -1.07151  -1.05950  -1.04898  -1.01352  -0.99511
 Alpha  occ. eigenvalues --   -0.97350  -0.96041  -0.92866  -0.92164  -0.91810
 Alpha  occ. eigenvalues --   -0.88515  -0.86137  -0.83383  -0.82174  -0.81179
 Alpha  occ. eigenvalues --   -0.77521  -0.73332  -0.69369  -0.67348  -0.65900
 Alpha  occ. eigenvalues --   -0.65715  -0.64774  -0.63020  -0.62362  -0.61145
 Alpha  occ. eigenvalues --   -0.59507  -0.59201  -0.58813  -0.57970  -0.57422
 Alpha  occ. eigenvalues --   -0.56652  -0.56324  -0.55894  -0.55643  -0.54984
 Alpha  occ. eigenvalues --   -0.54317  -0.53855  -0.53689  -0.53070  -0.52948
 Alpha  occ. eigenvalues --   -0.52526  -0.52054  -0.51088  -0.49679  -0.49236
 Alpha  occ. eigenvalues --   -0.48566  -0.47372  -0.46040  -0.45615  -0.43998
 Alpha  occ. eigenvalues --   -0.42263  -0.42096  -0.41085  -0.35920  -0.32736
 Alpha  occ. eigenvalues --   -0.31884  -0.29863  -0.27359
 Alpha virt. eigenvalues --    0.02863   0.03464   0.03566   0.03968   0.04297
 Alpha virt. eigenvalues --    0.04484   0.05218   0.05288   0.05399   0.05630
 Alpha virt. eigenvalues --    0.05775   0.06778   0.07040   0.07189   0.07268

 Mulliken charges:
               1
     1  C    0.714962
     2  H   -0.257439
     3  H   -0.171762
     4  C   -0.352569
     5  C    0.045020
     6  H   -0.117435
     7  H   -0.861874
     8  C    0.262889
     9  H   -0.366584
    10  N   -0.890504
    11  C   -2.079825
    12  C    1.279127
    13  H   -0.118269
    14  H   -0.558595
    15  C    1.712003
    16  H   -0.702333
    17  C   -0.492111
    18  C    0.514703
    19  C    0.689667
    20  H   -0.081271
    21  H   -0.096961
    22  H    0.037562
    23  H   -0.261003
    24  C    0.696221
    25  C    1.121674
    26  H   -0.049136
    27  H   -0.335809
    28  C    0.302989
    29  H    0.108947
    30  C   -0.381873
    31  H   -0.015683
    32  C    0.676912
    33  H   -0.685833
    34  C    1.295390
    35  H   -0.542204
    36  C    0.183243
    37  H   -0.479202
    38  C   -0.144047
    39  H   -0.597538
    40  Si   1.715159
    41  C    0.724810
    42  H   -0.327610
    43  H   -0.504501
    44  H   -0.293027
    45  C    1.198269
    46  H   -0.993528
    47  H   -0.259952
    48  H   -0.264446
    49  C    0.977346
    50  H   -0.376239
    51  H   -0.293550
    52  H   -0.304181
 Sum of Mulliken charges =  -0.00000

 Dipole moment (field-independent basis, Debye):
    X=              1.0338    Y=             -0.9558    Z=              0.5673  Tot=              1.5179
 Unable to Open any file for archive entry.
 1\1\GINC-SE129\SP\RMP2-FC\Aug-CC-pVDZ\C21H29N1Si1\OHZDE\20-Sep-2024\0\
 \#t symm=none mp2 aug-cc-pvdz geom=allcheck guess=(read,tcheck) int=(g
 rid=ultrafine)\\title\\0,1\C,0,-0.072733,-2.364039,-0.954229\H,0,-0.14
 4263,-3.451906,-0.965247\H,0,0.226554,-2.050967,-1.963374\C,0,1.009081
 ,-1.910167,0.031016\C,0,-0.347302,0.120673,0.461314\H,0,-0.762434,-0.0
 80606,1.454435\H,0,-0.280802,1.202029,0.388628\C,0,-1.349433,-0.371905
 ,-0.603647\H,0,-1.003818,-0.008859,-1.577953\N,0,-1.392107,-1.826935,-
 0.695906\C,0,2.185726,0.237434,0.245491\C,0,2.04365,-2.787263,0.33478\
 H,0,2.319651,-2.908822,1.365892\H,0,2.103448,-3.715502,-0.232686\C,0,3

 Normal termination of Gaussian 16 at Fri Sep 20 15:46:55 2024.
