 Gaussian 16, Revision C.01,

 ----------------------------------------------------------------------
 #t hf aug-cc-pvdz symm=none int=(grid=ultrafine) guess=(read,tcheck) s
 table=(opt,rrhf)
 ----------------------------------------------------------------------
 -----
 title
 -----
 Symbolic Z-matrix:
 Charge =  1 Multiplicity = 1

 SCF Done:  E(RHF) =  -1147.69166616     A.U. after   23 cycles
 Normal termination of Gaussian 16 at Fri Sep 20 23:21:44 2024.
 Gaussian 16:  ES64L-G16RevC.01  3-Jul-2019

 ----------------------------------------------------------------------
 #t symm=none mp2 aug-cc-pvdz geom=allcheck guess=(read,tcheck) int=(gr
 id=ultrafine)
 ----------------------------------------------------------------------
 Structure from the checkpoint file:  "05_26TS.chk"
 -----
 title
 -----
 Charge =  1 Multiplicity = 1

                          Input orientation:
 ---------------------------------------------------------------------
 Center     Atomic      Atomic             Coordinates (Angstroms)
 Number     Number       Type             X           Y           Z
 ---------------------------------------------------------------------
      1          6           0       -0.832411   -2.201727   -0.795017
      2          6           0       -0.483970   -1.140193    1.620924
      3          6           0        1.006999   -1.090909    1.278893
      4          6           0        1.450751   -2.221999    0.354752
      5          6           0        0.684987   -2.118125   -0.960571
      6          1           0        1.245939   -0.138819    0.802123
      7          1           0        1.562894   -1.133594    2.217568
      8          1           0        1.226650   -3.180671    0.826314
      9          1           0        0.954895   -1.175524   -1.435374
     10          1           0        0.989456   -2.920004   -1.636148
     11          7           0       -1.271333   -1.322608    0.347254
     12          8           0       -2.506592   -1.098229    0.406384
     13          6           0       -1.509367   -1.715378   -2.074216
     14          1           0       -1.159268   -2.332226   -2.901836
     15          1           0       -2.593133   -1.809420   -2.020354
     16          1           0       -1.241999   -0.683796   -2.299027
     17          6           0       -1.308104   -3.635148   -0.507134
     18          1           0       -2.370813   -3.644699   -0.263810
     19          1           0       -1.157423   -4.236796   -1.404274
     20          1           0       -0.760838   -4.108591    0.304743
     21          6           0       -0.902976    0.155086    2.304753
     22          1           0       -0.618997    1.021112    1.713537
     23          1           0       -1.974154    0.178380    2.501419
     24          1           0       -0.384548    0.217214    3.261686
     25          6           0       -0.833822   -2.314415    2.552286
     26          1           0       -0.356605   -2.144995    3.517988
     27          1           0       -1.911726   -2.364983    2.708827
     28          1           0       -0.493818   -3.276549    2.177389
     29          6           0       -3.114278    1.145477   -0.697494
     30          1           0       -3.113531    0.788339   -1.734407
     31          1           0       -2.851148    0.048636   -0.120105
     32          8           0       -4.319503    1.548467   -0.230796
     33          6           0       -5.443920    0.813000   -0.709278
     34          1           0       -5.481346    0.841001   -1.801481
     35          1           0       -6.325244    1.298660   -0.300339
     36          6           0       -2.004293    1.949162   -0.275279
     37          1           0       -2.190891    2.568312    0.594491
     38          6           0       -0.774431    1.887907   -0.840153
     39          1           0       -0.636697    1.265905   -1.718814
     40          1           0       -5.400787   -0.222137   -0.361583
     41          6           0        0.400530    2.614356   -0.404480
     42          6           0        1.619631    2.349053   -1.036283
     43          6           0        0.367192    3.559017    0.635083
     44          6           0        2.777232    2.995346   -0.637846
     45          1           0        1.670971    1.606550   -1.821196
     46          6           0        1.519737    4.210060    1.021430
     47          1           0       -0.564306    3.798592    1.132152
     48          6           0        2.728962    3.927671    0.386877
     49          1           0        3.714057    2.759554   -1.124744
     50          1           0        1.484126    4.944529    1.816053
     51          1           0        3.631235    4.440681    0.696530
     52          7           0        2.894215   -2.236531    0.149650
     53          1           0        3.409956   -3.013133    0.528388
     54          6           0        3.594189   -1.262869   -0.494398
     55          6           0        5.085092   -1.464262   -0.575216
     56          1           0        5.573881   -0.649585   -0.039306
     57          1           0        5.422979   -2.414427   -0.162038
     58          1           0        5.388591   -1.398301   -1.619964
     59          8           0        3.049230   -0.282975   -0.975406
 ---------------------------------------------------------------------

 SCF Done:  E(RHF) =  -1147.69166616     A.U. after    1 cycles
 E2 =    -0.4023202587D+01 EUMP2 =    -0.11517148687493D+04

 Alpha  occ. eigenvalues --  -20.82760 -20.70984 -20.62621 -15.85380 -15.69893
 Alpha  occ. eigenvalues --  -11.45911 -11.44398 -11.42632 -11.42337 -11.39752
 Alpha  occ. eigenvalues --  -11.39379 -11.38641 -11.36680 -11.35334 -11.35198
 Alpha  occ. eigenvalues --  -11.35002 -11.34959 -11.34867 -11.34798 -11.34109
 Alpha  occ. eigenvalues --  -11.33999 -11.33749 -11.33629 -11.33200 -11.33085
 Alpha  occ. eigenvalues --  -11.32631  -1.66817  -1.53268  -1.48986  -1.35091
 Alpha  occ. eigenvalues --   -1.31392  -1.26753  -1.24242  -1.21694  -1.17471
 Alpha  occ. eigenvalues --   -1.14132  -1.12498  -1.11619  -1.09065  -1.07781
 Alpha  occ. eigenvalues --   -1.07320  -1.06362  -1.06084  -1.00765  -0.97692
 Alpha  occ. eigenvalues --   -0.96233  -0.94846  -0.92295  -0.90911  -0.88463
 Alpha  occ. eigenvalues --   -0.87755  -0.83825  -0.82175  -0.82008  -0.81361
 Alpha  occ. eigenvalues --   -0.80303  -0.79054  -0.78450  -0.76581  -0.75893
 Alpha  occ. eigenvalues --   -0.74491  -0.74150  -0.73812  -0.72375  -0.71573
 Alpha  occ. eigenvalues --   -0.71370  -0.71291  -0.69841  -0.69516  -0.69254
 Alpha  occ. eigenvalues --   -0.69089  -0.68616  -0.67875  -0.67588  -0.66913
 Alpha  occ. eigenvalues --   -0.65785  -0.65320  -0.65203  -0.64913  -0.64391
 Alpha  occ. eigenvalues --   -0.63832  -0.63016  -0.62018  -0.61649  -0.61376
 Alpha  occ. eigenvalues --   -0.60521  -0.60268  -0.59807  -0.59623  -0.58675
 Alpha  occ. eigenvalues --   -0.58273  -0.58040  -0.53060  -0.51909  -0.49806
 Alpha  occ. eigenvalues --   -0.47704  -0.43072  -0.39682
 Alpha virt. eigenvalues --   -0.14477  -0.05350  -0.04641  -0.04231  -0.03833
 Alpha virt. eigenvalues --   -0.03131  -0.02968  -0.02766  -0.02539  -0.02393
 Alpha virt. eigenvalues --   -0.02014  -0.01347  -0.01095  -0.00954  -0.00777

 Mulliken charges:
               1
     1  C   -3.744567
     2  C   -3.264098
     3  C    1.276477
     4  C    0.268737
     5  C    1.365717
     6  H   -0.079766
     7  H   -0.164289
     8  H   -0.368480
     9  H   -0.174559
    10  H   -0.137876
    11  N    0.927868
    12  O   -1.245246
    13  C    2.012677
    14  H   -0.031996
    15  H    0.005769
    16  H   -0.387659
    17  C    1.545623
    18  H   -0.013851
    19  H   -0.018308
    20  H   -0.072673
    21  C    1.683308
    22  H   -0.275283
    23  H    0.011165
    24  H   -0.086022
    25  C    1.579780
    26  H   -0.030927
    27  H    0.046006
    28  H   -0.154884
    29  C    1.007041
    30  H   -0.093056
    31  H    0.068461
    32  O   -1.029570
    33  C    0.904798
    34  H   -0.059510
    35  H   -0.285567
    36  C    0.741509
    37  H   -0.767269
    38  C    0.735621
    39  H   -0.885306
    40  H   -0.059176
    41  C    0.683471
    42  C    0.982801
    43  C    1.333023
    44  C    0.056891
    45  H   -0.799511
    46  C   -0.033471
    47  H   -0.799223
    48  C    0.751037
    49  H   -0.554701
    50  H   -0.553408
    51  H   -0.468314
    52  N   -0.240329
    53  H   -0.132324
    54  C    0.111593
    55  C    0.771286
    56  H    0.044681
    57  H   -0.171574
    58  H    0.030959
    59  O   -0.763511
 Sum of Mulliken charges =   1.00000

 Dipole moment (field-independent basis, Debye):
    X=             -1.4704    Y=             -5.2017    Z=              0.8703  Tot=              5.4751
 Unable to Open any file for archive entry.
 1\1\GINC-SE309\SP\RMP2-FC\Aug-CC-pVDZ\C21H33N2O3\OHZDE\21-Sep-2024\0\\
 #t symm=none mp2 aug-cc-pvdz geom=allcheck guess=(read,tcheck) int=(gr
 id=ultrafine)\\title\\1,1\C,0,-0.832411,-2.201727,-0.795017\C,0,-0.483
 97,-1.140193,1.620924\C,0,1.006999,-1.090909,1.278893\C,0,1.450751,-2.
 221999,0.354752\C,0,0.684987,-2.118125,-0.960571\H,0,1.245939,-0.13881
 9,0.802123\H,0,1.562894,-1.133594,2.217568\H,0,1.22665,-3.180671,0.826
 314\H,0,0.954895,-1.175524,-1.435374\H,0,0.989456,-2.920004,-1.636148\
 N,0,-1.271333,-1.322608,0.347254\O,0,-2.506592,-1.098229,0.406384\C,0,
 -1.509367,-1.715378,-2.074216\H,0,-1.159268,-2.332226,-2.901836\H,0,-2

 Normal termination of Gaussian 16 at Sat Sep 21 02:41:06 2024.
