 Gaussian 16, Revision C.01,

 ----------------------------------------------------------------------
 #t hf aug-cc-pvdz symm=none int=(grid=ultrafine) guess=(read,tcheck) s
 table=(opt,rrhf)
 ----------------------------------------------------------------------
 -----
 title
 -----
 Symbolic Z-matrix:
 Charge =  0 Multiplicity = 1

 SCF Done:  E(RHF) =  -1155.50155955     A.U. after   17 cycles
 Normal termination of Gaussian 16 at Fri Sep 20 13:41:38 2024.
 Gaussian 16:  ES64L-G16RevC.01  3-Jul-2019

 ----------------------------------------------------------------------
 #t symm=none mp2 aug-cc-pvdz geom=allcheck guess=(read,tcheck) int=(gr
 id=ultrafine)
 ----------------------------------------------------------------------
 Structure from the checkpoint file:  "02_92TS.chk"
 -----
 title
 -----
 Charge =  0 Multiplicity = 1

                          Input orientation:
 ---------------------------------------------------------------------
 Center     Atomic      Atomic             Coordinates (Angstroms)
 Number     Number       Type             X           Y           Z
 ---------------------------------------------------------------------
      1          6           0        0.042101   -2.587548    0.080725
      2          1           0       -0.342214   -3.365581   -0.604927
      3          6           0        1.209212   -1.865766   -0.567011
      4          6           0       -0.252545    0.130975   -0.872163
      5          1           0       -0.433107    0.962437   -0.194101
      6          1           0       -0.298884    0.538236   -1.886670
      7          6           0       -1.389281   -0.874823   -0.672618
      8          1           0       -1.466923   -1.516964   -1.571687
      9          7           0       -1.029808   -1.698491    0.474422
     10          6           0        2.168392    0.374131   -0.212731
     11          6           0        2.344053   -2.627079   -0.819169
     12          1           0        2.803882   -2.593054   -1.788499
     13          1           0        2.390339   -3.615829   -0.360766
     14          6           0        3.430399   -0.138298    0.115077
     15          6           0        4.043953   -1.206936   -0.513844
     16          6           0        1.122059   -0.461696   -0.657160
     17          1           0        3.991809   -1.196159   -1.590511
     18          1           0        3.924453    0.265913    0.996970
     19          6           0        5.274645   -1.860390    0.050219
     20          1           0        5.355032   -2.899025   -0.275958
     21          1           0        6.180007   -1.345683   -0.288317
     22          1           0        5.264757   -1.850936    1.141284
     23          6           0       -2.150903   -2.416299    1.047555
     24          1           0       -2.652134   -3.052360    0.294600
     25          1           0       -1.770881   -3.078249    1.828873
     26          6           0       -2.716980   -0.166065   -0.504762
     27          6           0       -3.540590   -0.406332    0.593714
     28          6           0       -3.138104   -1.422685    1.629167
     29          1           0       -2.670966   -0.920356    2.481815
     30          1           0       -4.024323   -1.942146    2.002371
     31          1           0        0.421964   -3.106687    0.967859
     32          6           0       -4.744233    0.287209    0.708812
     33          1           0       -5.382166    0.093197    1.564738
     34          6           0       -3.129291    0.746401   -1.475976
     35          1           0       -2.503531    0.922632   -2.343352
     36          6           0       -5.138059    1.204520   -0.249319
     37          1           0       -6.077576    1.733337   -0.143208
     38          6           0       -4.326001    1.430623   -1.354078
     39          1           0       -4.626987    2.136036   -2.119177
     40         14           0        1.855281    2.160866    0.358359
     41          6           0        0.744917    2.231245    1.877027
     42          1           0        1.187514    1.649126    2.689333
     43          1           0        0.646193    3.263884    2.223817
     44          1           0       -0.258577    1.839919    1.705567
     45          6           0        3.501642    2.931500    0.842634
     46          1           0        4.229459    2.874396    0.030261
     47          1           0        3.352601    3.987388    1.084873
     48          1           0        3.943426    2.456626    1.721360
     49          6           0        1.147778    3.209809   -1.034737
     50          1           0        0.114282    2.960100   -1.276460
     51          1           0        1.175539    4.265742   -0.751651
     52          1           0        1.742745    3.096400   -1.944585
 ---------------------------------------------------------------------

 SCF Done:  E(RHF) =  -1155.50155955     A.U. after    3 cycles
 E2 =    -0.3292921139D+01 EUMP2 =    -0.11587944806875D+04

 Alpha  occ. eigenvalues --  -68.75610 -15.55195 -11.26321 -11.25611 -11.25362
 Alpha  occ. eigenvalues --  -11.24876 -11.23928 -11.23816 -11.23808 -11.23459
 Alpha  occ. eigenvalues --  -11.23391 -11.23376 -11.23287 -11.23205 -11.23169
 Alpha  occ. eigenvalues --  -11.22905 -11.22715 -11.22395 -11.21897 -11.21383
 Alpha  occ. eigenvalues --  -11.19570 -11.19459 -11.19353  -6.10259  -4.20897
 Alpha  occ. eigenvalues --   -4.20886  -4.20874  -1.25675  -1.15897  -1.12602
 Alpha  occ. eigenvalues --   -1.07523  -1.06130  -1.04888  -1.01511  -0.99711
 Alpha  occ. eigenvalues --   -0.96938  -0.95631  -0.92600  -0.91612  -0.91389
 Alpha  occ. eigenvalues --   -0.88684  -0.85812  -0.83722  -0.81909  -0.81006
 Alpha  occ. eigenvalues --   -0.76576  -0.74536  -0.69499  -0.67400  -0.66723
 Alpha  occ. eigenvalues --   -0.65383  -0.64356  -0.63496  -0.62763  -0.60975
 Alpha  occ. eigenvalues --   -0.59717  -0.59207  -0.58861  -0.58115  -0.57080
 Alpha  occ. eigenvalues --   -0.56438  -0.55904  -0.55733  -0.55268  -0.54687
 Alpha  occ. eigenvalues --   -0.54254  -0.53452  -0.53104  -0.52713  -0.52262
 Alpha  occ. eigenvalues --   -0.52079  -0.51792  -0.51441  -0.50534  -0.49556
 Alpha  occ. eigenvalues --   -0.48537  -0.47403  -0.45801  -0.45234  -0.43498
 Alpha  occ. eigenvalues --   -0.41855  -0.41668  -0.40860  -0.35961  -0.32752
 Alpha  occ. eigenvalues --   -0.32073  -0.29621  -0.27799
 Alpha virt. eigenvalues --    0.02927   0.03498   0.03623   0.03865   0.04329
 Alpha virt. eigenvalues --    0.04702   0.04978   0.05199   0.05347   0.05856
 Alpha virt. eigenvalues --    0.06096   0.06533   0.06706   0.06994   0.07314

 Mulliken charges:
               1
     1  C    0.350626
     2  H    0.057108
     3  C   -0.339651
     4  C   -0.077359
     5  H   -0.446973
     6  H   -0.018910
     7  C    0.273015
     8  H   -0.126675
     9  N   -0.684036
    10  C   -1.688781
    11  C    0.900288
    12  H   -0.137653
    13  H   -0.480498
    14  C    1.368825
    15  C   -0.415827
    16  C    0.282007
    17  H   -0.233195
    18  H   -0.703201
    19  C    0.686613
    20  H   -0.067406
    21  H    0.044906
    22  H   -0.091203
    23  C    1.169039
    24  H   -0.170254
    25  H   -0.326567
    26  C    0.601892
    27  C   -0.264781
    28  C    0.480003
    29  H    0.067154
    30  H   -0.046953
    31  H   -0.264895
    32  C    0.946866
    33  H   -0.672338
    34  C    0.766132
    35  H   -0.750052
    36  C    0.222223
    37  H   -0.486445
    38  C   -0.108769
    39  H   -0.552840
    40  Si   1.391088
    41  C    0.932603
    42  H   -0.362197
    43  H   -0.310864
    44  H   -0.350446
    45  C    0.707421
    46  H   -0.298081
    47  H   -0.501180
    48  H   -0.324281
    49  C    0.994676
    50  H   -0.352654
    51  H   -0.292268
    52  H   -0.295249
 Sum of Mulliken charges =  -0.00000

 Dipole moment (field-independent basis, Debye):
    X=              0.2312    Y=             -1.2172    Z=             -0.0640  Tot=              1.2406
 Unable to Open any file for archive entry.
 1\1\GINC-SE257\SP\RMP2-FC\Aug-CC-pVDZ\C21H29N1Si1\OHZDE\20-Sep-2024\0\
 \#t symm=none mp2 aug-cc-pvdz geom=allcheck guess=(read,tcheck) int=(g
 rid=ultrafine)\\title\\0,1\C,0,0.042101,-2.587548,0.080725\H,0,-0.3422
 14,-3.365581,-0.604927\C,0,1.209212,-1.865766,-0.567011\C,0,-0.252545,
 0.130975,-0.872163\H,0,-0.433107,0.962437,-0.194101\H,0,-0.298884,0.53
 8236,-1.88667\C,0,-1.389281,-0.874823,-0.672618\H,0,-1.466923,-1.51696
 4,-1.571687\N,0,-1.029808,-1.698491,0.474422\C,0,2.168392,0.374131,-0.
 212731\C,0,2.344053,-2.627079,-0.819169\H,0,2.803882,-2.593054,-1.7884
 99\H,0,2.390339,-3.615829,-0.360766\C,0,3.430399,-0.138298,0.115077\C,

 Normal termination of Gaussian 16 at Fri Sep 20 15:54:28 2024.
