 Gaussian 16, Revision C.01,

 ----------------------------------------------------------------------
 #t hf aug-cc-pvdz symm=none int=(grid=ultrafine) guess=(read,tcheck) s
 table=(opt,rrhf)
 ----------------------------------------------------------------------
 -----
 title
 -----
 Symbolic Z-matrix:
 Charge =  1 Multiplicity = 1

 SCF Done:  E(RHF) =  -1224.59304173     A.U. after   28 cycles
 Normal termination of Gaussian 16 at Sat Sep 21 00:07:25 2024.
 Gaussian 16:  ES64L-G16RevC.01  3-Jul-2019

 ----------------------------------------------------------------------
 #t symm=none mp2 aug-cc-pvdz geom=allcheck guess=(read,tcheck) int=(gr
 id=ultrafine)
 ----------------------------------------------------------------------
 Structure from the checkpoint file:  "05_33TS.chk"
 -----
 title
 -----
 Charge =  1 Multiplicity = 1

                          Input orientation:
 ---------------------------------------------------------------------
 Center     Atomic      Atomic             Coordinates (Angstroms)
 Number     Number       Type             X           Y           Z
 ---------------------------------------------------------------------
      1          6           0        2.427515    1.540605   -0.782071
      2          6           0        1.639374    0.819252    1.649642
      3          6           0        0.285492    1.437714    1.294681
      4          6           0        0.395118    2.621904    0.337691
      5          6           0        1.042265    2.161702   -0.964671
      6          1           0       -0.355261    0.681045    0.839093
      7          1           0       -0.191037    1.752080    2.225403
      8          1           0        1.014271    3.397280    0.792870
      9          1           0        0.376085    1.440961   -1.436227
     10          1           0        1.143675    3.005480   -1.650269
     11          7           0        2.408654    0.580485    0.377577
     12          8           0        3.375366   -0.217984    0.434736
     13          6           0        2.803528    0.771181   -2.046139
     14          1           0        2.090201   -0.025488   -2.253738
     15          1           0        2.777113    1.463165   -2.887934
     16          1           0        3.807343    0.353899   -1.982890
     17          6           0        3.510954    2.598294   -0.515292
     18          1           0        4.455306    2.120977   -0.252287
     19          1           0        3.662857    3.176312   -1.427666
     20          1           0        3.239829    3.293844    0.275561
     21          6           0        1.434140   -0.501515    2.380580
     22          1           0        2.382055   -0.986773    2.608645
     23          1           0        0.924930   -0.294499    3.321997
     24          1           0        0.812553   -1.177370    1.799740
     25          6           0        2.487940    1.737735    2.547394
     26          1           0        2.603896    2.742259    2.148593
     27          1           0        2.000272    1.819125    3.519373
     28          1           0        3.478708    1.308286    2.698635
     29          6           0        2.745067   -2.483177   -0.652134
     30          1           0        2.899769   -2.177576   -1.694617
     31          1           0        3.085829   -1.425594   -0.084403
     32          8           0        3.590477   -3.456210   -0.215742
     33          6           0        4.931059   -3.348744   -0.683086
     34          1           0        5.461556   -4.217174   -0.302682
     35          1           0        4.957744   -3.352846   -1.776521
     36          6           0        1.389522   -2.635309   -0.215676
     37          1           0        1.245093   -3.286346    0.641270
     38          6           0        0.322128   -1.971678   -0.740770
     39          1           0        0.455199   -1.337547   -1.612187
     40          1           0        5.400341   -2.437585   -0.302495
     41          7           0       -0.896876    3.261343    0.109494
     42          1           0       -1.034882    4.180230    0.496005
     43          6           0       -1.942453    2.685985   -0.540240
     44          6           0       -3.202911    3.506336   -0.627354
     45          1           0       -4.006621    2.953756   -0.138834
     46          1           0       -3.118655    4.491993   -0.170373
     47          1           0       -3.472128    3.620916   -1.677603
     48          8           0       -1.871260    1.567725   -1.027127
     49          6           0       -0.997705   -2.100403   -0.222264
     50          1           0       -1.131325   -2.763748    0.625915
     51          6           0       -2.046682   -1.422089   -0.739468
     52          1           0       -1.854914   -0.739017   -1.559385
     53          6           0       -3.422565   -1.467283   -0.286137
     54          6           0       -4.336984   -0.574385   -0.858296
     55          6           0       -3.876017   -2.362535    0.692683
     56          6           0       -5.663321   -0.571596   -0.461384
     57          1           0       -3.983025    0.128203   -1.602084
     58          6           0       -5.200147   -2.358115    1.086301
     59          1           0       -3.195198   -3.076905    1.138143
     60          6           0       -6.097074   -1.462153    0.511361
     61          1           0       -6.362501    0.120936   -0.913345
     62          1           0       -5.542362   -3.058353    1.837901
     63          1           0       -7.135278   -1.465325    0.819845
 ---------------------------------------------------------------------

 SCF Done:  E(RHF) =  -1224.59304173     A.U. after    2 cycles
 E2 =    -0.4295452248D+01 EUMP2 =    -0.12288884939782D+04

 Alpha  occ. eigenvalues --  -20.82467 -20.69768 -20.63000 -15.85903 -15.70243
 Alpha  occ. eigenvalues --  -11.46339 -11.42994 -11.42673 -11.42417 -11.39944
 Alpha  occ. eigenvalues --  -11.38572 -11.37912 -11.35877 -11.35659 -11.35259
 Alpha  occ. eigenvalues --  -11.35190 -11.35091 -11.35066 -11.35021 -11.34008
 Alpha  occ. eigenvalues --  -11.33553 -11.33519 -11.33058 -11.32640 -11.32348
 Alpha  occ. eigenvalues --  -11.32324 -11.31805 -11.31711  -1.66745  -1.51975
 Alpha  occ. eigenvalues --   -1.49363  -1.35397  -1.31509  -1.25198  -1.24329
 Alpha  occ. eigenvalues --   -1.22674  -1.17672  -1.16920  -1.12709  -1.11178
 Alpha  occ. eigenvalues --   -1.10282  -1.09346  -1.07759  -1.06404  -1.06205
 Alpha  occ. eigenvalues --   -1.05894  -1.00217  -0.97791  -0.96357  -0.94296
 Alpha  occ. eigenvalues --   -0.91864  -0.90704  -0.89151  -0.87963  -0.86101
 Alpha  occ. eigenvalues --   -0.83529  -0.82162  -0.81873  -0.80325  -0.80146
 Alpha  occ. eigenvalues --   -0.78881  -0.77086  -0.76360  -0.75906  -0.74523
 Alpha  occ. eigenvalues --   -0.74341  -0.73842  -0.72110  -0.71670  -0.71495
 Alpha  occ. eigenvalues --   -0.71232  -0.70384  -0.69802  -0.69292  -0.69097
 Alpha  occ. eigenvalues --   -0.68666  -0.68016  -0.67000  -0.66787  -0.66323
 Alpha  occ. eigenvalues --   -0.65758  -0.65272  -0.65166  -0.64841  -0.64388
 Alpha  occ. eigenvalues --   -0.64020  -0.62913  -0.62138  -0.61837  -0.61205
 Alpha  occ. eigenvalues --   -0.60843  -0.60380  -0.59808  -0.59428  -0.58593
 Alpha  occ. eigenvalues --   -0.58311  -0.58156  -0.56993  -0.55065  -0.52336
 Alpha  occ. eigenvalues --   -0.50228  -0.49863  -0.44615  -0.41969  -0.36912
 Alpha virt. eigenvalues --   -0.14301  -0.05383  -0.04508  -0.04217  -0.03763
 Alpha virt. eigenvalues --   -0.03088  -0.02910  -0.02621  -0.02561  -0.02273
 Alpha virt. eigenvalues --   -0.02153  -0.01283  -0.01112  -0.01060  -0.00956

 Mulliken charges:
               1
     1  C   -3.695738
     2  C   -3.763084
     3  C    1.398406
     4  C    0.340401
     5  C    1.376849
     6  H   -0.190871
     7  H   -0.124534
     8  H   -0.358860
     9  H   -0.097102
    10  H   -0.154819
    11  N    0.867813
    12  O   -1.208341
    13  C    1.945574
    14  H   -0.416169
    15  H   -0.039069
    16  H    0.038142
    17  C    1.536124
    18  H   -0.004053
    19  H   -0.012691
    20  H   -0.057755
    21  C    1.872241
    22  H    0.043079
    23  H   -0.068559
    24  H   -0.231477
    25  C    1.643023
    26  H   -0.137979
    27  H   -0.009804
    28  H    0.042199
    29  C    1.210887
    30  H   -0.092641
    31  H    0.010193
    32  O   -1.017264
    33  C    0.885071
    34  H   -0.295789
    35  H   -0.057581
    36  C   -0.044029
    37  H   -0.706637
    38  C    1.465585
    39  H   -0.760561
    40  H   -0.060227
    41  N   -0.308341
    42  H   -0.132982
    43  C   -0.024033
    44  C    0.882946
    45  H    0.037404
    46  H   -0.178831
    47  H    0.031416
    48  O   -0.789798
    49  C    1.076579
    50  H   -0.784707
    51  C    0.423085
    52  H   -0.886061
    53  C    0.501697
    54  C    0.911447
    55  C    1.320806
    56  C   -0.066983
    57  H   -0.713152
    58  C    0.053971
    59  H   -0.648837
    60  C    0.712131
    61  H   -0.495474
    62  H   -0.535428
    63  H   -0.456808
 Sum of Mulliken charges =   1.00000

 Dipole moment (field-independent basis, Debye):
    X=              4.8126    Y=              4.9021    Z=              0.9771  Tot=              6.9388
 Unable to Open any file for archive entry.
 1\1\GINC-SE125\SP\RMP2-FC\Aug-CC-pVDZ\C23H35N2O3\OHZDE\21-Sep-2024\0\\
 #t symm=none mp2 aug-cc-pvdz geom=allcheck guess=(read,tcheck) int=(gr
 id=ultrafine)\\title\\1,1\C,0,2.427515,1.540605,-0.782071\C,0,1.639374
 ,0.819252,1.649642\C,0,0.285492,1.437714,1.294681\C,0,0.395118,2.62190
 4,0.337691\C,0,1.042265,2.161702,-0.964671\H,0,-0.355261,0.681045,0.83
 9093\H,0,-0.191037,1.75208,2.225403\H,0,1.014271,3.39728,0.79287\H,0,0
 .376085,1.440961,-1.436227\H,0,1.143675,3.00548,-1.650269\N,0,2.408654
 ,0.580485,0.377577\O,0,3.375366,-0.217984,0.434736\C,0,2.803528,0.7711
 81,-2.046139\H,0,2.090201,-0.025488,-2.253738\H,0,2.777113,1.463165,-2

 Normal termination of Gaussian 16 at Sat Sep 21 04:20:25 2024.
