 Gaussian 16, Revision C.01,

 ----------------------------------------------------------------------
 #t hf aug-cc-pvdz symm=none int=(grid=ultrafine) guess=(read,tcheck) s
 table=(opt,rrhf)
 ----------------------------------------------------------------------
 -----
 title
 -----
 Symbolic Z-matrix:
 Charge =  0 Multiplicity = 1

 SCF Done:  E(RHF) =  -1203.95427893     A.U. after   16 cycles
 Normal termination of Gaussian 16 at Fri Sep 20 10:33:22 2024.
 Gaussian 16:  ES64L-G16RevC.01  3-Jul-2019

 ----------------------------------------------------------------------
 #t symm=none mp2 aug-cc-pvdz geom=allcheck guess=(read,tcheck) int=(gr
 id=ultrafine)
 ----------------------------------------------------------------------
 Structure from the checkpoint file:  "02_122P.chk"
 -----
 title
 -----
 Charge =  0 Multiplicity = 1

                          Input orientation:
 ---------------------------------------------------------------------
 Center     Atomic      Atomic             Coordinates (Angstroms)
 Number     Number       Type             X           Y           Z
 ---------------------------------------------------------------------
      1          6           0        0.650121   -1.104639   -0.227312
      2          6           0        1.683642   -1.477653    0.520384
      3          6           0       -0.083305    0.199908   -0.038708
      4          6           0       -1.401901    0.153312   -0.845386
      5          6           0       -2.120964    1.508508   -0.929202
      6          6           0       -2.452694   -0.770666   -0.222084
      7          1           0       -1.152056   -0.206564   -1.846034
      8          6           0        3.180837    0.709432   -0.733819
      9          6           0        2.212958    1.419551   -0.156085
     10          1           0        2.963670    0.150895   -1.638480
     11          6           0        4.547801    0.446600   -0.192176
     12          6           0        0.810962    1.322097   -0.727138
     13          6           0        0.068075    2.635849   -0.744928
     14          6           0       -1.252938    2.718706   -0.808839
     15          6           0       -3.283334    1.412426    0.058725
     16          1           0       -2.636039    1.576740   -1.897232
     17          7           0       -3.370511    0.113909    0.481502
     18          1           0       -1.991473   -1.493664    0.458228
     19          6           0       -3.399360   -1.546233   -1.130036
     20          6           0        2.739599   -2.388448    0.074087
     21          1           0        1.893302   -0.924560    1.429153
     22          6           0        4.554019   -0.776874    0.756558
     23          1           0        4.904515    1.292383    0.408817
     24          8           0        5.427197    0.224911   -1.278639
     25          6           0        4.029474   -2.055272    0.154684
     26          1           0        3.959780   -0.498202    1.633558
     27          8           0        5.922854   -0.917411    1.140700
     28          1           0        0.469804   -1.622204   -1.167909
     29          6           0       -0.337269    0.520676    1.438936
     30          6           0        2.442260    2.212821    1.107870
     31          1           0        6.260623   -0.083869   -0.905734
     32          1           0        6.029473   -1.722132    1.654284
     33          1           0        2.457160   -3.298916   -0.445507
     34          1           0        4.779284   -2.702860   -0.288620
     35          6           0       -4.668883   -0.535631    0.715049
     36          8           0       -4.056776    2.298651    0.345722
     37          1           0        3.353771    2.809705    1.036617
     38          1           0        2.551652    1.567643    1.984520
     39          1           0        1.614084    2.889980    1.314799
     40          1           0       -0.799108    1.499473    1.561037
     41          1           0        0.586243    0.525748    2.012478
     42          1           0       -0.995563   -0.221074    1.890083
     43          6           0       -4.601387   -1.781421   -0.202896
     44          8           0       -2.759038   -2.719825   -1.588011
     45          1           0       -3.687108   -0.913952   -1.980946
     46          1           0       -5.438076    0.164368    0.381181
     47          6           0       -4.900715   -0.864937    2.179778
     48          1           0       -4.394910   -2.677848    0.388308
     49          1           0       -5.534792   -1.942172   -0.744403
     50          1           0       -5.852217   -1.386697    2.309124
     51          1           0       -4.923978    0.048727    2.774663
     52          1           0       -4.103776   -1.507926    2.561264
     53          1           0       -3.328388   -3.176770   -2.211829
     54          1           0       -1.756847    3.678585   -0.809411
     55          1           0        0.658382    3.545363   -0.710120
     56          1           0        0.930270    0.993147   -1.765353
 ---------------------------------------------------------------------

 SCF Done:  E(RHF) =  -1203.95427893     A.U. after    2 cycles
 E2 =    -0.4097804935D+01 EUMP2 =    -0.12080520838648D+04

 Alpha  occ. eigenvalues --  -20.58565 -20.58250 -20.55975 -20.53154 -15.58350
 Alpha  occ. eigenvalues --  -11.35050 -11.30041 -11.29916 -11.28887 -11.27809
 Alpha  occ. eigenvalues --  -11.27360 -11.25760 -11.25232 -11.24835 -11.24801
 Alpha  occ. eigenvalues --  -11.24676 -11.24071 -11.23996 -11.23923 -11.23841
 Alpha  occ. eigenvalues --  -11.23669 -11.23457 -11.23366 -11.23015 -11.22572
 Alpha  occ. eigenvalues --  -11.22234 -11.21953  -1.39228  -1.38903  -1.38482
 Alpha  occ. eigenvalues --   -1.35436  -1.28094  -1.16911  -1.11940  -1.10104
 Alpha  occ. eigenvalues --   -1.08160  -1.06577  -1.05061  -1.01289  -1.00067
 Alpha  occ. eigenvalues --   -0.98236  -0.95720  -0.94109  -0.92567  -0.88691
 Alpha  occ. eigenvalues --   -0.85586  -0.84199  -0.82697  -0.81030  -0.77909
 Alpha  occ. eigenvalues --   -0.76044  -0.74012  -0.72463  -0.71815  -0.70519
 Alpha  occ. eigenvalues --   -0.70127  -0.68158  -0.68119  -0.66823  -0.65600
 Alpha  occ. eigenvalues --   -0.65374  -0.64447  -0.63335  -0.63257  -0.61863
 Alpha  occ. eigenvalues --   -0.60868  -0.60080  -0.59892  -0.59589  -0.58718
 Alpha  occ. eigenvalues --   -0.57747  -0.57093  -0.56807  -0.56116  -0.55202
 Alpha  occ. eigenvalues --   -0.55097  -0.54374  -0.53761  -0.53372  -0.52570
 Alpha  occ. eigenvalues --   -0.52265  -0.51794  -0.51252  -0.50506  -0.50270
 Alpha  occ. eigenvalues --   -0.49694  -0.48464  -0.48050  -0.47237  -0.46166
 Alpha  occ. eigenvalues --   -0.45509  -0.44813  -0.44610  -0.43537  -0.41884
 Alpha  occ. eigenvalues --   -0.40576  -0.37846  -0.35686  -0.33837  -0.31290
 Alpha virt. eigenvalues --    0.02534   0.03198   0.03711   0.03778   0.04280
 Alpha virt. eigenvalues --    0.04538   0.04667   0.05385   0.05456   0.05847
 Alpha virt. eigenvalues --    0.06025   0.06283   0.06667   0.06732   0.07520

 Mulliken charges:
               1
     1  C    0.801881
     2  C    0.492052
     3  C   -0.862504
     4  C    0.197582
     5  C   -0.094700
     6  C    0.270134
     7  H   -0.528672
     8  C    0.066123
     9  C   -0.027174
    10  H   -0.621881
    11  C    1.256210
    12  C    0.049520
    13  C    1.417597
    14  C    0.465998
    15  C    0.406234
    16  H   -0.051299
    17  N   -0.201205
    18  H   -0.624590
    19  C    0.936384
    20  C    0.560920
    21  H   -0.677591
    22  C    1.338350
    23  H   -0.208843
    24  O   -0.997872
    25  C    0.576463
    26  H   -0.249455
    27  O   -0.986282
    28  H   -0.838614
    29  C    1.628495
    30  C    1.052082
    31  H    0.193369
    32  H    0.146253
    33  H   -0.526179
    34  H   -0.545757
    35  C   -0.596689
    36  O   -0.921585
    37  H   -0.053756
    38  H    0.176477
    39  H   -0.288628
    40  H   -0.101099
    41  H   -0.365532
    42  H   -0.021012
    43  C    0.831979
    44  O   -0.906761
    45  H   -0.194687
    46  H   -0.367508
    47  C    0.912207
    48  H   -0.150697
    49  H   -0.103350
    50  H   -0.070085
    51  H   -0.060582
    52  H   -0.039580
    53  H    0.168802
    54  H   -0.586294
    55  H   -0.647883
    56  H   -0.426767
 Sum of Mulliken charges =  -0.00000

 Dipole moment (field-independent basis, Debye):
    X=             -0.8636    Y=             -4.1227    Z=              0.0176  Tot=              4.2122
 Unable to Open any file for archive entry.
 1\1\GINC-SE198\SP\RMP2-FC\Aug-CC-pVDZ\C22H29N1O4\OHZDE\20-Sep-2024\0\\
 #t symm=none mp2 aug-cc-pvdz geom=allcheck guess=(read,tcheck) int=(gr
 id=ultrafine)\\title\\0,1\C,0,0.650121,-1.104639,-0.227312\C,0,1.68364
 2,-1.477653,0.520384\C,0,-0.083305,0.199908,-0.038708\C,0,-1.401901,0.
 153312,-0.845386\C,0,-2.120964,1.508508,-0.929202\C,0,-2.452694,-0.770
 666,-0.222084\H,0,-1.152056,-0.206564,-1.846034\C,0,3.180837,0.709432,
 -0.733819\C,0,2.212958,1.419551,-0.156085\H,0,2.96367,0.150895,-1.6384
 8\C,0,4.547801,0.4466,-0.192176\C,0,0.810962,1.322097,-0.727138\C,0,0.
 068075,2.635849,-0.744928\C,0,-1.252938,2.718706,-0.808839\C,0,-3.2833

 Normal termination of Gaussian 16 at Fri Sep 20 13:50:23 2024.
