 Gaussian 16, Revision C.01,

 ----------------------------------------------------------------------
 #t hf aug-cc-pvdz symm=none int=(grid=ultrafine) guess=(read,tcheck) s
 table=(opt,rrhf)
 ----------------------------------------------------------------------
 -----
 title
 -----
 Symbolic Z-matrix:
 Charge =  0 Multiplicity = 1

 SCF Done:  E(RHF) =  -1155.56506024     A.U. after   16 cycles
 Normal termination of Gaussian 16 at Fri Sep 20 13:58:44 2024.
 Gaussian 16:  ES64L-G16RevC.01  3-Jul-2019

 ----------------------------------------------------------------------
 #t symm=none mp2 aug-cc-pvdz geom=allcheck guess=(read,tcheck) int=(gr
 id=ultrafine)
 ----------------------------------------------------------------------
 Structure from the checkpoint file:  "02_92R.chk"
 -----
 title
 -----
 Charge =  0 Multiplicity = 1

                          Input orientation:
 ---------------------------------------------------------------------
 Center     Atomic      Atomic             Coordinates (Angstroms)
 Number     Number       Type             X           Y           Z
 ---------------------------------------------------------------------
      1          6           0       -0.114498   -2.591609   -0.405885
      2          1           0       -0.581837   -3.319622   -1.091710
      3          6           0        0.929545   -1.795482   -1.152948
      4          6           0       -0.313455    0.325631   -0.823835
      5          1           0       -0.425665    1.037071   -0.005703
      6          1           0       -0.371172    0.889338   -1.759071
      7          6           0       -1.488154   -0.667728   -0.749526
      8          1           0       -1.644391   -1.111516   -1.750025
      9          7           0       -1.107792   -1.714065    0.194347
     10          6           0        2.147976    0.222862   -0.301657
     11          6           0        1.630259   -2.313245   -2.153148
     12          6           0        3.406863   -0.529183   -0.086710
     13          6           0        3.559525   -1.505675    0.800924
     14          6           0        1.026817   -0.376281   -0.730791
     15          6           0        4.832207   -2.253863    1.039887
     16          1           0        5.145018   -2.185651    2.086031
     17          1           0        4.707995   -3.318003    0.815585
     18          1           0        5.641878   -1.869960    0.416268
     19          6           0       -2.220287   -2.452407    0.753864
     20          1           0       -2.823435   -2.938203   -0.035327
     21          1           0       -1.816906   -3.247408    1.385649
     22          6           0       -2.768984    0.043506   -0.369275
     23          6           0       -3.520986   -0.337251    0.740425
     24          6           0       -3.091006   -1.517028    1.570576
     25          1           0       -2.521400   -1.174334    2.439874
     26          1           0       -3.970161   -2.047309    1.945055
     27          1           0        0.368476   -3.158673    0.397343
     28          6           0       -4.680845    0.369843    1.053536
     29          1           0       -5.264468    0.065678    1.916087
     30          6           0       -3.207194    1.110339   -1.154075
     31          1           0       -2.636870    1.397688   -2.030188
     32          6           0       -5.099759    1.438615    0.281096
     33          1           0       -6.004446    1.975572    0.539521
     34          6           0       -4.359210    1.807529   -0.835594
     35          1           0       -4.682016    2.633574   -1.457669
     36         14           0        2.237709    2.044836    0.214318
     37          6           0        1.530110    2.214180    1.946747
     38          1           0        2.073260    1.570558    2.642962
     39          1           0        1.612301    3.243510    2.306308
     40          1           0        0.476871    1.928297    1.986611
     41          6           0        4.046117    2.555237    0.244481
     42          1           0        4.505812    2.471109   -0.743757
     43          1           0        4.136918    3.597440    0.561945
     44          1           0        4.626935    1.942399    0.936579
     45          6           0        1.343035    3.202308   -0.969602
     46          1           0        1.610270    2.988212   -2.007565
     47          1           0        0.257597    3.144007   -0.882866
     48          1           0        1.635473    4.235174   -0.760631
     49          1           0        2.384393   -1.733033   -2.669198
     50          1           0        1.480445   -3.337952   -2.475913
     51          1           0        2.698433   -1.801241    1.396770
     52          1           0        4.278853   -0.207773   -0.654774
 ---------------------------------------------------------------------

 SCF Done:  E(RHF) =  -1155.56506023     A.U. after    3 cycles
 E2 =    -0.3252070205D+01 EUMP2 =    -0.11588171304385D+04

 Alpha  occ. eigenvalues --  -68.75594 -15.55536 -11.26696 -11.25944 -11.25638
 Alpha  occ. eigenvalues --  -11.24239 -11.24113 -11.23989 -11.23988 -11.23615
 Alpha  occ. eigenvalues --  -11.23534 -11.23447 -11.23365 -11.23103 -11.22892
 Alpha  occ. eigenvalues --  -11.22368 -11.22204 -11.22154 -11.21956 -11.20856
 Alpha  occ. eigenvalues --  -11.19736 -11.19590 -11.19498  -6.10276  -4.20913
 Alpha  occ. eigenvalues --   -4.20906  -4.20892  -1.25800  -1.16075  -1.12200
 Alpha  occ. eigenvalues --   -1.07447  -1.06441  -1.05350  -1.01575  -0.99800
 Alpha  occ. eigenvalues --   -0.96734  -0.95539  -0.92842  -0.91706  -0.91559
 Alpha  occ. eigenvalues --   -0.89636  -0.85975  -0.83595  -0.81385  -0.80493
 Alpha  occ. eigenvalues --   -0.75693  -0.74330  -0.69449  -0.68468  -0.66886
 Alpha  occ. eigenvalues --   -0.65545  -0.64464  -0.63420  -0.62686  -0.60836
 Alpha  occ. eigenvalues --   -0.60458  -0.59375  -0.58513  -0.58207  -0.56675
 Alpha  occ. eigenvalues --   -0.56504  -0.56007  -0.55759  -0.55354  -0.55162
 Alpha  occ. eigenvalues --   -0.54766  -0.53524  -0.53332  -0.52625  -0.52574
 Alpha  occ. eigenvalues --   -0.52267  -0.51994  -0.51610  -0.51353  -0.49197
 Alpha  occ. eigenvalues --   -0.48607  -0.47706  -0.45955  -0.45780  -0.42648
 Alpha  occ. eigenvalues --   -0.42020  -0.41578  -0.37507  -0.36537  -0.35124
 Alpha  occ. eigenvalues --   -0.32868  -0.32094  -0.29994
 Alpha virt. eigenvalues --    0.02980   0.03490   0.03557   0.03881   0.04388
 Alpha virt. eigenvalues --    0.04606   0.05079   0.05199   0.05346   0.05932
 Alpha virt. eigenvalues --    0.06022   0.06551   0.06833   0.06921   0.07340

 Mulliken charges:
               1
     1  C    0.557184
     2  H   -0.166570
     3  C   -0.587016
     4  C   -0.109804
     5  H   -0.248886
     6  H   -0.140335
     7  C    0.075395
     8  H   -0.122773
     9  N   -0.617354
    10  C   -1.071754
    11  C    1.415652
    12  C    1.627988
    13  C   -0.108419
    14  C    0.326468
    15  C    0.297667
    16  H    0.042114
    17  H    0.054568
    18  H   -0.181253
    19  C    1.106994
    20  H   -0.187368
    21  H   -0.315062
    22  C    0.832328
    23  C   -0.187688
    24  C    0.478877
    25  H    0.064671
    26  H   -0.054022
    27  H   -0.325295
    28  C    0.926388
    29  H   -0.661225
    30  C    0.682998
    31  H   -0.762314
    32  C    0.176143
    33  H   -0.484375
    34  C   -0.153420
    35  H   -0.543403
    36  Si   1.308742
    37  C    0.909197
    38  H   -0.348326
    39  H   -0.368855
    40  H   -0.289361
    41  C    0.734331
    42  H   -0.372053
    43  H   -0.505822
    44  H   -0.262039
    45  C    1.008772
    46  H   -0.264455
    47  H   -0.363454
    48  H   -0.367944
    49  H   -0.489408
    50  H   -0.627639
    51  H   -0.624448
    52  H   -0.714334
 Sum of Mulliken charges =  -0.00000

 Dipole moment (field-independent basis, Debye):
    X=             -0.5367    Y=             -0.8690    Z=             -0.0056  Tot=              1.0214
 Unable to Open any file for archive entry.
 1\1\GINC-SE190\SP\RMP2-FC\Aug-CC-pVDZ\C21H29N1Si1\OHZDE\20-Sep-2024\0\
 \#t symm=none mp2 aug-cc-pvdz geom=allcheck guess=(read,tcheck) int=(g
 rid=ultrafine)\\title\\0,1\C,0,-0.114498,-2.591609,-0.405885\H,0,-0.58
 1837,-3.319622,-1.09171\C,0,0.929545,-1.795482,-1.152948\C,0,-0.313455
 ,0.325631,-0.823835\H,0,-0.425665,1.037071,-0.005703\H,0,-0.371172,0.8
 89338,-1.759071\C,0,-1.488154,-0.667728,-0.749526\H,0,-1.644391,-1.111
 516,-1.750025\N,0,-1.107792,-1.714065,0.194347\C,0,2.147976,0.222862,-
 0.301657\C,0,1.630259,-2.313245,-2.153148\C,0,3.406863,-0.529183,-0.08
 671\C,0,3.559525,-1.505675,0.800924\C,0,1.026817,-0.376281,-0.730791\C

 Normal termination of Gaussian 16 at Fri Sep 20 16:26:08 2024.
