 Gaussian 16, Revision C.01,

 ----------------------------------------------------------------------
 #t hf aug-cc-pvdz symm=none int=(grid=ultrafine) guess=(read,tcheck) s
 table=(opt,rrhf)
 ----------------------------------------------------------------------
 -----
 title
 -----
 Symbolic Z-matrix:
 Charge =  0 Multiplicity = 1

 SCF Done:  E(RHF) =  -1112.23081252     A.U. after   15 cycles
 Normal termination of Gaussian 16 at Fri Sep 20 10:06:36 2024.
 Gaussian 16:  ES64L-G16RevC.01  3-Jul-2019

 ----------------------------------------------------------------------
 #t symm=none mp2 aug-cc-pvdz geom=allcheck guess=(read,tcheck) int=(gr
 id=ultrafine)
 ----------------------------------------------------------------------
 Structure from the checkpoint file:  "02_119P.chk"
 -----
 title
 -----
 Charge =  0 Multiplicity = 1

                          Input orientation:
 ---------------------------------------------------------------------
 Center     Atomic      Atomic             Coordinates (Angstroms)
 Number     Number       Type             X           Y           Z
 ---------------------------------------------------------------------
      1          6           0       -6.228579   -0.781604   -1.287598
      2          6           0       -5.197404   -1.374552   -0.335012
      3          6           0       -3.899083   -0.592046   -0.319907
      4          6           0       -2.753904   -1.222639    0.472423
      5          6           0       -1.515448   -0.287318    0.456261
      6          6           0       -0.284986   -0.850215   -0.221949
      7          6           0        0.902284   -0.664463    0.357879
      8          6           0        2.264981   -0.895316   -0.224033
      9          6           0        2.807917    0.347926   -1.011001
     10          6           0        2.772539    1.680477   -0.286989
     11          6           0        1.690825    2.448254   -0.131961
     12          6           0        0.367507    2.022579   -0.578461
     13          6           0       -0.751226    2.077894    0.138125
     14          6           0       -1.866440    1.131201   -0.156894
     15          6           0       -3.205113    1.590625    0.375548
     16          6           0       -3.145078   -1.570780    1.907911
     17          6           0        3.247195   -1.386552    0.852579
     18          6           0        4.610570   -1.699132    0.238521
     19          6           0        5.192326   -0.510718   -0.520438
     20          6           0        4.212236    0.030332   -1.553201
     21          6           0       -0.458235   -1.397525   -1.611321
     22          8           0       -3.409989    2.646301    0.903499
     23          8           0       -4.210291    0.704638    0.230608
     24          8           0        3.353358   -0.487860    1.945781
     25          8           0        5.518778    0.557867    0.386070
     26          1           0       -6.462407    0.246727   -1.009544
     27          1           0       -7.155377   -1.357632   -1.268952
     28          1           0       -5.859055   -0.778025   -2.316765
     29          1           0       -5.601822   -1.404634    0.678733
     30          1           0       -4.965915   -2.405974   -0.619561
     31          1           0       -3.573639   -0.447976   -1.356981
     32          1           0       -2.502695   -2.152393   -0.043268
     33          1           0        3.711530    2.025169    0.128935
     34          1           0        1.772396    3.368474    0.438411
     35          1           0       -3.493852   -0.686552    2.446239
     36          1           0       -2.279898   -1.969775    2.440788
     37          1           0       -3.934176   -2.322888    1.945704
     38          1           0        2.835375   -2.303202    1.282108
     39          1           0        4.507797   -2.540075   -0.454761
     40          1           0        5.298152   -2.017270    1.027781
     41          1           0        6.106842   -0.816773   -1.040155
     42          1           0        4.122543   -0.730280   -2.335347
     43          1           0        4.642600    0.918447   -2.020828
     44          1           0       -0.850988   -0.633309   -2.291178
     45          1           0       -1.165906   -2.229693   -1.636798
     46          1           0        0.479372   -1.754488   -2.033585
     47          1           0        3.906081    0.253764    1.670735
     48          1           0        6.251276    0.279324    0.943147
     49          1           0        2.152486    0.438511   -1.882082
     50          1           0        2.214152   -1.701180   -0.964433
     51          1           0       -1.241082   -0.084718    1.493294
     52          1           0       -1.978795    1.012581   -1.239296
     53          1           0        0.347096    1.441743   -1.495894
     54          1           0       -0.794754    2.613240    1.081004
     55          1           0        0.920520   -0.207291    1.341976
 ---------------------------------------------------------------------

 SCF Done:  E(RHF) =  -1112.23081252     A.U. after    2 cycles
 E2 =    -0.3811089429D+01 EUMP2 =    -0.11160419019542D+04

 Alpha  occ. eigenvalues --  -20.59999 -20.58684 -20.55553 -20.54010 -11.37525
 Alpha  occ. eigenvalues --  -11.30168 -11.30046 -11.28594 -11.25790 -11.25147
 Alpha  occ. eigenvalues --  -11.24745 -11.24539 -11.24211 -11.23913 -11.23865
 Alpha  occ. eigenvalues --  -11.23826 -11.23776 -11.23512 -11.23291 -11.23201
 Alpha  occ. eigenvalues --  -11.22887 -11.22810 -11.22536 -11.22530 -11.22207
 Alpha  occ. eigenvalues --   -1.45526  -1.38693  -1.35964  -1.35735  -1.15557
 Alpha  occ. eigenvalues --   -1.13084  -1.10138  -1.08820  -1.06688  -1.04175
 Alpha  occ. eigenvalues --   -1.01605  -1.01046  -0.97182  -0.94651  -0.94027
 Alpha  occ. eigenvalues --   -0.89494  -0.87155  -0.84953  -0.82787  -0.82091
 Alpha  occ. eigenvalues --   -0.80103  -0.77469  -0.74106  -0.73212  -0.72453
 Alpha  occ. eigenvalues --   -0.71938  -0.69367  -0.68237  -0.67669  -0.66447
 Alpha  occ. eigenvalues --   -0.64795  -0.64278  -0.63102  -0.62559  -0.61277
 Alpha  occ. eigenvalues --   -0.60929  -0.60086  -0.59780  -0.58826  -0.58322
 Alpha  occ. eigenvalues --   -0.58113  -0.57622  -0.57002  -0.56525  -0.55832
 Alpha  occ. eigenvalues --   -0.54782  -0.54446  -0.53340  -0.53093  -0.52690
 Alpha  occ. eigenvalues --   -0.51456  -0.51421  -0.51105  -0.49945  -0.49677
 Alpha  occ. eigenvalues --   -0.49320  -0.48974  -0.48551  -0.47283  -0.47255
 Alpha  occ. eigenvalues --   -0.46189  -0.45812  -0.43443  -0.43095  -0.42780
 Alpha  occ. eigenvalues --   -0.41175  -0.39744  -0.34261  -0.30323
 Alpha virt. eigenvalues --    0.02178   0.02774   0.03438   0.03706   0.04278
 Alpha virt. eigenvalues --    0.04411   0.04855   0.05164   0.05537   0.05583
 Alpha virt. eigenvalues --    0.06049   0.06227   0.06875   0.07070   0.07462

 Mulliken charges:
               1
     1  C    0.676386
     2  C    0.519713
     3  C    0.406493
     4  C   -0.120233
     5  C   -0.152863
     6  C   -0.535796
     7  C    1.126365
     8  C   -0.152250
     9  C   -0.028415
    10  C    0.763733
    11  C    0.349750
    12  C    0.496273
    13  C    0.927748
    14  C   -0.124219
    15  C    1.210690
    16  C    1.043280
    17  C    1.296326
    18  C    0.685945
    19  C    0.957589
    20  C    0.741749
    21  C    0.822130
    22  O   -0.885115
    23  O   -1.058208
    24  O   -0.919020
    25  O   -0.879781
    26  H   -0.023433
    27  H   -0.093015
    28  H   -0.082250
    29  H   -0.108030
    30  H   -0.125700
    31  H   -0.338571
    32  H   -0.545361
    33  H   -0.638593
    34  H   -0.545427
    35  H    0.022080
    36  H   -0.131886
    37  H   -0.180748
    38  H   -0.387057
    39  H   -0.009101
    40  H   -0.126114
    41  H   -0.225763
    42  H   -0.117492
    43  H   -0.195675
    44  H    0.041370
    45  H   -0.011372
    46  H   -0.293084
    47  H    0.263199
    48  H    0.155953
    49  H   -0.349714
    50  H   -0.289180
    51  H   -0.480257
    52  H   -0.349452
    53  H   -0.416850
    54  H   -0.626722
    55  H   -0.960024
 Sum of Mulliken charges =  -0.00000

 Dipole moment (field-independent basis, Debye):
    X=              4.2613    Y=             -5.9750    Z=             -3.4273  Tot=              8.0997
 Unable to Open any file for archive entry.
 1\1\GINC-SE407\SP\RMP2-FC\Aug-CC-pVDZ\C21H30O4\OHZDE\20-Sep-2024\0\\#t
  symm=none mp2 aug-cc-pvdz geom=allcheck guess=(read,tcheck) int=(grid
 =ultrafine)\\title\\0,1\C,0,-6.228579,-0.781604,-1.287598\C,0,-5.19740
 4,-1.374552,-0.335012\C,0,-3.899083,-0.592046,-0.319907\C,0,-2.753904,
 -1.222639,0.472423\C,0,-1.515448,-0.287318,0.456261\C,0,-0.284986,-0.8
 50215,-0.221949\C,0,0.902284,-0.664463,0.357879\C,0,2.264981,-0.895316
 ,-0.224033\C,0,2.807917,0.347926,-1.011001\C,0,2.772539,1.680477,-0.28
 6989\C,0,1.690825,2.448254,-0.131961\C,0,0.367507,2.022579,-0.578461\C
 ,0,-0.751226,2.077894,0.138125\C,0,-1.86644,1.131201,-0.156894\C,0,-3.

 Normal termination of Gaussian 16 at Fri Sep 20 15:51:01 2024.
