 Gaussian 16, Revision C.01,

 ----------------------------------------------------------------------
 #t hf aug-cc-pvdz symm=none int=(grid=ultrafine) guess=(read,tcheck) s
 table=opt
 ----------------------------------------------------------------------
 -----
 title
 -----
 Symbolic Z-matrix:
 Charge =  0 Multiplicity = 2

 SCF Done:  E(UHF) =  -1376.62176850     A.U. after   27 cycles
 Normal termination of Gaussian 16 at Fri Sep 20 22:33:48 2024.
 Gaussian 16:  ES64L-G16RevC.01  3-Jul-2019

 ----------------------------------------------------------------------
 #t symm=none mp2 aug-cc-pvdz geom=allcheck guess=(read,tcheck) int=(gr
 id=ultrafine)
 ----------------------------------------------------------------------
 Structure from the checkpoint file:  "04_89TS.chk"
 -----
 title
 -----
 Charge =  0 Multiplicity = 2

                          Input orientation:
 ---------------------------------------------------------------------
 Center     Atomic      Atomic             Coordinates (Angstroms)
 Number     Number       Type             X           Y           Z
 ---------------------------------------------------------------------
      1          6           0        4.294454   -1.248583   -0.692532
      2          6           0        3.513111   -0.094574   -0.080602
      3          6           0        3.636068    1.250655   -0.755440
      4          1           0        3.625241   -0.050505    1.001904
      5          1           0        2.254739   -0.451183   -0.221416
      6          6           0        2.910341    2.357387    0.003757
      7          1           0        3.234946    1.185596   -1.773283
      8          1           0        4.695380    1.522927   -0.864836
      9          6           0        2.963667    3.701215   -0.718437
     10          1           0        3.352756    2.463797    1.000965
     11          1           0        1.867778    2.068129    0.167527
     12          7           0        2.299113    4.811323   -0.045828
     13          1           0        2.517768    3.598011   -1.712703
     14          1           0        4.006929    3.987470   -0.884718
     15          6           0        5.773019   -1.035995   -0.388924
     16          7           0        4.019703   -1.392847   -2.108712
     17          1           0        3.993793   -2.167635   -0.182110
     18          1           0        4.445027   -0.633535   -2.629198
     19          1           0        1.314268    4.619009    0.095470
     20          1           0        2.708817    4.988423    0.863866
     21          8           0        6.590218   -0.630251   -1.170567
     22          8           0        6.073763   -1.322759    0.892032
     23          1           0        4.426774   -2.248681   -2.466622
     24          1           0        7.011731   -1.123982    1.023366
     25          7           0       -2.758569   -1.194420   -0.024426
     26          6           0       -3.773048   -0.283396    0.107150
     27          6           0       -4.460725   -0.324272   -1.095847
     28          7           0       -3.893520   -1.241464   -1.954272
     29          6           0       -2.893950   -1.739991   -1.281368
     30          6           0       -5.557183    0.543647   -1.212452
     31          7           0       -5.863878    1.334583   -0.177367
     32          6           0       -5.116930    1.273642    0.923668
     33          7           0       -4.059535    0.502623    1.154476
     34          7           0       -6.306607    0.605554   -2.326834
     35          1           0       -6.090472    0.018165   -3.113950
     36          1           0       -7.083394    1.243297   -2.360039
     37          1           0       -5.410450    1.938249    1.729197
     38          1           0       -2.204860   -2.492165   -1.629394
     39          6           0       -1.813000   -1.564830    1.027413
     40          6           0       -1.199048   -0.332462    1.703758
     41          6           0        0.216102   -0.810545    1.966400
     42          6           0        0.516383   -1.642981    0.718857
     43          8           0       -0.759015   -2.305488    0.472988
     44          1           0       -2.342633   -2.173713    1.765952
     45          6           0        0.974418   -0.863349   -0.474658
     46          1           0        1.216905   -2.450580    0.933303
     47          1           0        0.438012    0.061560   -0.673407
     48          1           0        1.114572   -1.468911   -1.365896
     49          8           0       -1.831553    0.067126    2.885227
     50          1           0       -1.162332    0.492275    0.982895
     51          1           0       -2.711101    0.397596    2.621456
     52          8           0        1.146563    0.229815    2.147329
     53          1           0        0.196883   -1.468615    2.843310
     54          1           0        0.864078    0.746604    2.908584
 ---------------------------------------------------------------------

 SCF Done:  E(UHF) =  -1376.62176850     A.U. after    1 cycles
 E2 =    -0.4446734592D+01 EUMP2 =    -0.13810685030890D+04

 Alpha  occ. eigenvalues --  -20.62773 -20.59537 -20.58694 -20.57088 -20.56557
 Alpha  occ. eigenvalues --  -15.63677 -15.59960 -15.57886 -15.57466 -15.56617
 Alpha  occ. eigenvalues --  -15.56006 -15.54382 -11.39378 -11.35190 -11.34993
 Alpha  occ. eigenvalues --  -11.32857 -11.32593 -11.32513 -11.30660 -11.30166
 Alpha  occ. eigenvalues --  -11.29882 -11.28663 -11.26062 -11.24883 -11.24560
 Alpha  occ. eigenvalues --  -11.24060 -11.22838 -11.22022  -1.47859  -1.43169
 Alpha  occ. eigenvalues --   -1.39164  -1.37714  -1.37437  -1.37063  -1.31630
 Alpha  occ. eigenvalues --   -1.26277  -1.20895  -1.20522  -1.17749  -1.16918
 Alpha  occ. eigenvalues --   -1.08603  -1.07286  -1.04742  -1.03845  -1.01002
 Alpha  occ. eigenvalues --   -0.95701  -0.93301  -0.90511  -0.88960  -0.86206
 Alpha  occ. eigenvalues --   -0.85547  -0.82264  -0.80933  -0.79715  -0.78480
 Alpha  occ. eigenvalues --   -0.77294  -0.75522  -0.74236  -0.71698  -0.71527
 Alpha  occ. eigenvalues --   -0.71183  -0.69914  -0.68989  -0.68226  -0.67681
 Alpha  occ. eigenvalues --   -0.67325  -0.66281  -0.65368  -0.65180  -0.63885
 Alpha  occ. eigenvalues --   -0.63008  -0.62327  -0.61765  -0.60918  -0.60843
 Alpha  occ. eigenvalues --   -0.60280  -0.59518  -0.58636  -0.57890  -0.57018
 Alpha  occ. eigenvalues --   -0.56775  -0.56464  -0.55634  -0.54061  -0.53638
 Alpha  occ. eigenvalues --   -0.52986  -0.51105  -0.51037  -0.50490  -0.49487
 Alpha  occ. eigenvalues --   -0.48981  -0.48827  -0.47681  -0.47108  -0.46754
 Alpha  occ. eigenvalues --   -0.46293  -0.45650  -0.45384  -0.44528  -0.42074
 Alpha  occ. eigenvalues --   -0.41466  -0.41094  -0.37986  -0.37687  -0.31677
 Alpha  occ. eigenvalues --   -0.31598
 Alpha virt. eigenvalues --    0.02778   0.03240   0.03371   0.03828   0.03985
 Alpha virt. eigenvalues --    0.04520   0.04797   0.05142   0.05319   0.05518
 Alpha virt. eigenvalues --    0.06137   0.06578   0.07179   0.07452   0.07592

  Beta  occ. eigenvalues --  -20.62761 -20.59306 -20.58699 -20.57087 -20.56535
  Beta  occ. eigenvalues --  -15.63678 -15.59960 -15.57885 -15.57467 -15.56617
  Beta  occ. eigenvalues --  -15.55992 -15.54383 -11.39280 -11.35191 -11.34999
  Beta  occ. eigenvalues --  -11.32858 -11.32594 -11.32512 -11.30822 -11.30155
  Beta  occ. eigenvalues --  -11.29881 -11.28820 -11.26061 -11.24887 -11.22994
  Beta  occ. eigenvalues --  -11.22703 -11.22078 -11.22008  -1.47800  -1.42788
  Beta  occ. eigenvalues --   -1.39130  -1.37605  -1.37380  -1.37057  -1.31621
  Beta  occ. eigenvalues --   -1.26277  -1.20647  -1.20500  -1.17750  -1.16910
  Beta  occ. eigenvalues --   -1.07078  -1.06513  -1.04711  -1.03010  -1.00287
  Beta  occ. eigenvalues --   -0.93507  -0.92280  -0.90467  -0.88935  -0.85609
  Beta  occ. eigenvalues --   -0.84533  -0.81737  -0.80866  -0.79269  -0.77265
  Beta  occ. eigenvalues --   -0.76935  -0.75372  -0.74194  -0.71546  -0.71453
  Beta  occ. eigenvalues --   -0.70826  -0.69836  -0.68929  -0.67993  -0.67489
  Beta  occ. eigenvalues --   -0.67084  -0.66180  -0.65065  -0.64050  -0.63616
  Beta  occ. eigenvalues --   -0.62808  -0.61925  -0.61479  -0.60696  -0.60529
  Beta  occ. eigenvalues --   -0.60067  -0.59195  -0.58200  -0.57666  -0.56736
  Beta  occ. eigenvalues --   -0.56327  -0.55951  -0.54156  -0.53551  -0.53011
  Beta  occ. eigenvalues --   -0.52379  -0.51068  -0.50438  -0.49406  -0.48857
  Beta  occ. eigenvalues --   -0.48637  -0.48326  -0.47463  -0.46615  -0.46475
  Beta  occ. eigenvalues --   -0.45905  -0.45307  -0.44500  -0.44328  -0.42068
  Beta  occ. eigenvalues --   -0.41103  -0.40803  -0.37939  -0.37651  -0.31612
  Beta virt. eigenvalues --    0.02781   0.03242   0.03363   0.03828   0.03982
  Beta virt. eigenvalues --    0.04517   0.04788   0.05141   0.05325   0.05518
  Beta virt. eigenvalues --    0.06126   0.06576   0.07145   0.07454   0.07578

 Mulliken charges and spin densities:
               1          2
     1  C    1.258934  -0.122446
     2  C   -0.576850   1.091791
     3  C    0.753664  -0.176054
     4  H   -0.151294  -0.086618
     5  H   -0.833571  -0.595593
     6  C    0.433196  -0.016076
     7  H   -0.126398   0.016520
     8  H   -0.311416   0.019398
     9  C    1.057968  -0.005110
    10  H   -0.222101  -0.000909
    11  H   -0.119956  -0.007191
    12  N   -0.466328  -0.000057
    13  H   -0.183421  -0.000404
    14  H   -0.171090   0.000052
    15  C    1.543694   0.018682
    16  N   -0.482517   0.003509
    17  H   -0.139358   0.008840
    18  H    0.051850   0.000433
    19  H    0.001795   0.000048
    20  H    0.013046  -0.000009
    21  O   -0.823889   0.003834
    22  O   -0.808279   0.002423
    23  H   -0.028229  -0.001511
    24  H    0.213822  -0.000370
    25  N   -0.115511  -0.001273
    26  C   -0.073689  -0.003152
    27  C    1.369861  -0.001378
    28  N   -0.980860  -0.000800
    29  C    0.586976   0.000362
    30  C    0.428137  -0.000383
    31  N   -0.669735   0.000182
    32  C    0.508243  -0.000335
    33  N   -0.481561   0.000283
    34  N   -0.230102  -0.000044
    35  H   -0.021613   0.000007
    36  H   -0.035336   0.000001
    37  H   -0.410000   0.000028
    38  H   -0.333025   0.001153
    39  C    1.302482   0.014696
    40  C    0.573280  -0.003684
    41  C    1.154505  -0.002741
    42  C    1.418145  -0.150948
    43  O   -1.195257   0.016868
    44  H   -0.258927   0.002115
    45  C    0.030923   1.043538
    46  H   -0.380960   0.012942
    47  H   -0.129630  -0.036682
    48  H   -0.017769  -0.048278
    49  O   -0.909125  -0.000025
    50  H   -0.314005  -0.000735
    51  H    0.235280   0.000147
    52  O   -1.026186   0.006859
    53  H   -0.130172  -0.001257
    54  H    0.222357  -0.000646
 Sum of Mulliken charges =  -0.00000   1.00000

 Dipole moment (field-independent basis, Debye):
    X=             -0.1613    Y=             -1.7967    Z=              1.1855  Tot=              2.1585
 Unable to Open any file for archive entry.
 1\1\GINC-SE434\SP\UMP2-FC\Aug-CC-pVDZ\C16H26N7O5\OHZDE\21-Sep-2024\0\\
 #t symm=none mp2 aug-cc-pvdz geom=allcheck guess=(read,tcheck) int=(gr
 id=ultrafine)\\title\\0,2\C,0,4.294454,-1.248583,-0.692532\C,0,3.51311
 1,-0.094574,-0.080602\C,0,3.636068,1.250655,-0.75544\H,0,3.625241,-0.0
 50505,1.001904\H,0,2.254739,-0.451183,-0.221416\C,0,2.910341,2.357387,
 0.003757\H,0,3.234946,1.185596,-1.773283\H,0,4.69538,1.522927,-0.86483
 6\C,0,2.963667,3.701215,-0.718437\H,0,3.352756,2.463797,1.000965\H,0,1
 .867778,2.068129,0.167527\N,0,2.299113,4.811323,-0.045828\H,0,2.517768
 ,3.598011,-1.712703\H,0,4.006929,3.98747,-0.884718\C,0,5.773019,-1.035

 Normal termination of Gaussian 16 at Sat Sep 21 12:27:42 2024.
