 Gaussian 16, Revision C.01,

 ----------------------------------------------------------------------
 #t hf aug-cc-pvdz symm=none int=(grid=ultrafine) guess=(read,tcheck) s
 table=(opt,rrhf)
 ----------------------------------------------------------------------
 -----
 title
 -----
 Symbolic Z-matrix:
 Charge =  0 Multiplicity = 1

 SCF Done:  E(RHF) =  -1302.97966550     A.U. after   21 cycles
 Normal termination of Gaussian 16 at Fri Sep 20 13:39:31 2024.
 Gaussian 16:  ES64L-G16RevC.01  3-Jul-2019

 ----------------------------------------------------------------------
 #t symm=none mp2 aug-cc-pvdz geom=allcheck guess=(read,tcheck) int=(gr
 id=ultrafine)
 ----------------------------------------------------------------------
 Structure from the checkpoint file:  "02_7TS.chk"
 -----
 title
 -----
 Charge =  0 Multiplicity = 1

                          Input orientation:
 ---------------------------------------------------------------------
 Center     Atomic      Atomic             Coordinates (Angstroms)
 Number     Number       Type             X           Y           Z
 ---------------------------------------------------------------------
      1          8           0        6.560789    0.957159    1.451347
      2          6           0        6.483117    0.052362    0.348972
      3          6           0        5.421212   -0.990599    0.720955
      4          6           0        4.141645   -0.823066   -0.098642
      5          6           0        4.500675    0.952356   -0.712260
      6          6           0        5.983812    0.764802   -0.902538
      7          6           0        2.899721   -0.920453    0.552518
      8          6           0        1.651323    1.451000   -0.401930
      9          6           0        2.286027    1.439920   -1.627956
     10          6           0        3.646937    1.218985   -1.791852
     11          6           0        1.753354   -1.512492   -0.017349
     12          6           0        0.587907   -1.763019    0.631991
     13          6           0        0.232697    1.446736   -0.275878
     14          6           0       -0.402170    1.239319    0.892294
     15          6           0       -1.864035    1.273027    1.076025
     16          8           0       -2.527928    1.524775   -0.059117
     17          6           0       -3.969647    1.729975   -0.029985
     18          6           0       -4.216717    3.191328   -0.371344
     19          6           0       -3.549258    4.168791    0.587649
     20          6           0       -0.550529   -2.320928   -0.086772
     21          6           0       -1.888509   -2.366884    0.625959
     22          6           0       -2.225517   -3.798930    1.046778
     23          8           0       -2.391381    1.099138    2.150144
     24          6           0       -4.612933    0.766994   -1.028433
     25          6           0       -5.178775   -0.529188   -0.438657
     26          6           0       -4.211552   -1.349363    0.414001
     27          6           0       -2.935340   -1.731922   -0.310558
     28          8           0       -3.265590   -2.581143   -1.397163
     29          8           0       -0.468395   -2.701158   -1.251916
     30          1           0        5.798971   -2.003552    0.569311
     31          1           0        5.208807   -0.884443    1.785211
     32          1           0        7.462335   -0.408032    0.187768
     33          1           0        6.498246    1.720092   -1.040939
     34          1           0        6.178015    0.155708   -1.791054
     35          1           0        4.269835    1.459852    0.219113
     36          1           0        2.227982    1.518845    0.510505
     37          1           0       -0.361215    1.556769   -1.177607
     38          1           0        0.149188    1.099129    1.813765
     39          1           0       -4.303279    1.526044    0.988183
     40          1           0       -3.877241    0.546594   -1.805855
     41          1           0       -5.429561    1.292585   -1.530912
     42          1           0       -6.052495   -0.284140    0.174717
     43          1           0       -5.539489   -1.149142   -1.262448
     44          1           0       -3.940707   -0.790623    1.314003
     45          1           0       -4.718872   -2.260123    0.743708
     46          1           0       -2.481271   -0.818359   -0.708787
     47          1           0       -1.823976   -1.738660    1.518508
     48          1           0        1.795061   -1.791724   -1.067241
     49          1           0        2.852320   -0.629533    1.599488
     50          1           0        4.174299   -1.336510   -1.056306
     51          1           0       -3.878831    3.372581   -1.397098
     52          1           0       -5.299965    3.345461   -0.366070
     53          1           0       -2.462391    4.072643    0.557881
     54          1           0       -3.871720    3.994303    1.616832
     55          1           0       -3.796775    5.199457    0.326892
     56          1           0       -1.449419   -4.203543    1.700350
     57          1           0       -2.314742   -4.444774    0.173942
     58          1           0       -3.170720   -3.828883    1.590539
     59          1           0       -2.423506   -2.822654   -1.809619
     60          1           0        7.263718    1.592672    1.290447
     61          1           0        0.469890   -1.531887    1.683834
     62          1           0        4.023191    1.064960   -2.798779
     63          1           0        1.663681    1.486224   -2.516578
 ---------------------------------------------------------------------

 SCF Done:  E(RHF) =  -1302.97966550     A.U. after    3 cycles
 E2 =    -0.4461695810D+01 EUMP2 =    -0.13074413613077D+04

 Alpha  occ. eigenvalues --  -20.59999 -20.58686 -20.54749 -20.53205 -20.53004
 Alpha  occ. eigenvalues --  -11.38561 -11.31710 -11.30736 -11.28695 -11.27466
 Alpha  occ. eigenvalues --  -11.27428 -11.26804 -11.26606 -11.26182 -11.26074
 Alpha  occ. eigenvalues --  -11.25900 -11.25771 -11.25692 -11.25568 -11.25527
 Alpha  occ. eigenvalues --  -11.25292 -11.22746 -11.22250 -11.22121 -11.21883
 Alpha  occ. eigenvalues --  -11.21694 -11.21199 -11.21173 -11.20468  -1.45759
 Alpha  occ. eigenvalues --   -1.38597  -1.36985  -1.35813  -1.33356  -1.16310
 Alpha  occ. eigenvalues --   -1.12843  -1.10527  -1.09680  -1.07458  -1.07035
 Alpha  occ. eigenvalues --   -1.04053  -1.02880  -1.00349  -0.97691  -0.96065
 Alpha  occ. eigenvalues --   -0.92399  -0.90590  -0.88843  -0.85448  -0.83755
 Alpha  occ. eigenvalues --   -0.82657  -0.80967  -0.79364  -0.77426  -0.76760
 Alpha  occ. eigenvalues --   -0.76149  -0.74949  -0.72271  -0.71568  -0.70816
 Alpha  occ. eigenvalues --   -0.68243  -0.68175  -0.67393  -0.66571  -0.65785
 Alpha  occ. eigenvalues --   -0.65370  -0.64606  -0.64268  -0.61671  -0.61386
 Alpha  occ. eigenvalues --   -0.60701  -0.60242  -0.59263  -0.58849  -0.58410
 Alpha  occ. eigenvalues --   -0.57756  -0.56631  -0.56080  -0.55846  -0.55027
 Alpha  occ. eigenvalues --   -0.54564  -0.54329  -0.53749  -0.53266  -0.53015
 Alpha  occ. eigenvalues --   -0.52547  -0.51860  -0.51668  -0.51381  -0.50841
 Alpha  occ. eigenvalues --   -0.50727  -0.50353  -0.49368  -0.49003  -0.48791
 Alpha  occ. eigenvalues --   -0.48094  -0.47486  -0.45920  -0.45779  -0.45521
 Alpha  occ. eigenvalues --   -0.44872  -0.44356  -0.43192  -0.42869  -0.40507
 Alpha  occ. eigenvalues --   -0.40284  -0.38435  -0.33309  -0.25257
 Alpha virt. eigenvalues --   -0.00099   0.02087   0.03207   0.03377   0.03688
 Alpha virt. eigenvalues --    0.03985   0.04487   0.04648   0.05206   0.05379
 Alpha virt. eigenvalues --    0.05428   0.05667   0.05856   0.06494   0.06641

 Mulliken charges:
               1
     1  O   -0.784048
     2  C    0.877818
     3  C    0.619125
     4  C   -0.025952
     5  C    0.392324
     6  C    0.778357
     7  C    1.700859
     8  C    1.206840
     9  C    0.021832
    10  C    0.558368
    11  C    0.525513
    12  C    0.976844
    13  C    0.709744
    14  C    1.389108
    15  C    0.618769
    16  O   -0.967691
    17  C    0.084494
    18  C    0.402132
    19  C    0.769498
    20  C    0.528698
    21  C   -1.132568
    22  C    1.479704
    23  O   -0.963333
    24  C    0.853140
    25  C    0.410621
    26  C    0.283973
    27  C    1.915249
    28  O   -1.024074
    29  O   -1.171882
    30  H   -0.072720
    31  H   -0.141395
    32  H   -0.207046
    33  H   -0.146343
    34  H   -0.104367
    35  H   -0.449442
    36  H   -0.773604
    37  H   -0.997790
    38  H   -0.986014
    39  H   -0.347344
    40  H   -0.070886
    41  H   -0.346138
    42  H   -0.081855
    43  H   -0.066260
    44  H   -0.193942
    45  H   -0.198235
    46  H   -0.720839
    47  H   -0.437340
    48  H   -0.809634
    49  H   -0.725096
    50  H   -0.679625
    51  H   -0.138552
    52  H   -0.097725
    53  H   -0.031910
    54  H   -0.061959
    55  H   -0.158803
    56  H   -0.087571
    57  H    0.046310
    58  H   -0.114314
    59  H    0.205261
    60  H    0.132702
    61  H   -0.870824
    62  H   -0.580578
    63  H   -0.719584
 Sum of Mulliken charges =  -0.00000

 Dipole moment (field-independent basis, Debye):
    X=              7.3706    Y=              3.4234    Z=             -0.9538  Tot=              8.1827
 Unable to Open any file for archive entry.
 1\1\GINC-SE369\SP\RMP2-FC\Aug-CC-pVDZ\C24H34O5\OHZDE\20-Sep-2024\0\\#t
  symm=none mp2 aug-cc-pvdz geom=allcheck guess=(read,tcheck) int=(grid
 =ultrafine)\\title\\0,1\O,0,6.560789,0.957159,1.451347\C,0,6.483117,0.
 052362,0.348972\C,0,5.421212,-0.990599,0.720955\C,0,4.141645,-0.823066
 ,-0.098642\C,0,4.500675,0.952356,-0.71226\C,0,5.983812,0.764802,-0.902
 538\C,0,2.899721,-0.920453,0.552518\C,0,1.651323,1.451,-0.40193\C,0,2.
 286027,1.43992,-1.627956\C,0,3.646937,1.218985,-1.791852\C,0,1.753354,
 -1.512492,-0.017349\C,0,0.587907,-1.763019,0.631991\C,0,0.232697,1.446
 736,-0.275878\C,0,-0.40217,1.239319,0.892294\C,0,-1.864035,1.273027,1.

 Normal termination of Gaussian 16 at Fri Sep 20 19:09:58 2024.
