 Gaussian 16, Revision C.01,

 ----------------------------------------------------------------------
 #t hf aug-cc-pvdz symm=none int=(grid=ultrafine) guess=(read,tcheck) s
 table=(opt,rrhf)
 ----------------------------------------------------------------------
 -----
 title
 -----
 Symbolic Z-matrix:
 Charge =  0 Multiplicity = 1

 SCF Done:  E(RHF) =  -1203.96517718     A.U. after   16 cycles
 Normal termination of Gaussian 16 at Fri Sep 20 10:38:50 2024.
 Gaussian 16:  ES64L-G16RevC.01  3-Jul-2019

 ----------------------------------------------------------------------
 #t symm=none mp2 aug-cc-pvdz geom=allcheck guess=(read,tcheck) int=(gr
 id=ultrafine)
 ----------------------------------------------------------------------
 Structure from the checkpoint file:  "02_123P.chk"
 -----
 title
 -----
 Charge =  0 Multiplicity = 1

                          Input orientation:
 ---------------------------------------------------------------------
 Center     Atomic      Atomic             Coordinates (Angstroms)
 Number     Number       Type             X           Y           Z
 ---------------------------------------------------------------------
      1          6           0       -0.916771    1.072096   -0.183760
      2          6           0       -2.325535    1.105516    0.337380
      3          6           0        0.179636    0.696391    0.480191
      4          6           0        1.406863    0.311880   -0.311615
      5          6           0        1.528974   -1.205403   -0.721660
      6          6           0        2.777902    0.610567    0.303046
      7          1           0        1.367913    0.846238   -1.266282
      8          6           0       -3.028420   -0.242926   -0.049739
      9          6           0       -2.318915   -1.384448    0.641631
     10          6           0       -4.518777   -0.139054    0.226626
     11          6           0       -1.258159   -1.892471    0.005723
     12          6           0       -0.122324   -2.609123    0.579729
     13          6           0        1.134268   -2.270143    0.278472
     14          6           0        3.021834   -1.315713   -1.046748
     15          1           0        0.973340   -1.369232   -1.646281
     16          7           0        3.659125   -0.351258   -0.338803
     17          1           0        2.781725    0.480862    1.389770
     18          6           0        3.456918    1.943792   -0.019092
     19          6           0       -3.110712    2.279976   -0.184893
     20          6           0       -5.161001    0.945796   -0.639152
     21          1           0       -4.689398    0.112866    1.280478
     22          8           0       -5.203939   -1.352332   -0.075057
     23          6           0       -4.361523    2.213283   -0.620042
     24          1           0       -6.165137    1.145016   -0.241989
     25          8           0       -5.271902    0.512225   -1.986007
     26          6           0        0.250551    0.528399    1.971313
     27          6           0       -2.651205   -1.664801    2.079986
     28          1           0       -4.576367   -2.081357   -0.066978
     29          1           0       -5.668914   -0.366981   -1.951770
     30          1           0       -2.592741    3.234396   -0.193374
     31          1           0       -4.852967    3.099775   -1.004946
     32          6           0        5.016010    0.152135   -0.571217
     33          8           0        3.544930   -2.116292   -1.793068
     34          1           0       -3.679179   -2.020460    2.191527
     35          1           0       -2.570417   -0.760125    2.690067
     36          1           0       -1.988820   -2.413395    2.511396
     37          1           0        0.575495   -0.479424    2.236792
     38          1           0       -0.702085    0.717002    2.459335
     39          1           0        0.979581    1.222875    2.397467
     40          6           0        4.937975    1.575052    0.010472
     41          8           0        3.189506    2.972941    0.911730
     42          1           0        3.166855    2.258583   -1.030221
     43          1           0        5.177705    0.182720   -1.653478
     44          6           0        6.083290   -0.725621    0.059846
     45          1           0        5.261615    1.575611    1.055360
     46          1           0        5.559614    2.286208   -0.532564
     47          1           0        7.074927   -0.298689   -0.108049
     48          1           0        6.057788   -1.724032   -0.377221
     49          1           0        5.921733   -0.809132    1.137182
     50          1           0        2.302836    3.312311    0.762911
     51          1           0        1.946191   -2.794660    0.772317
     52          1           0       -0.290076   -3.377193    1.327180
     53          1           0       -1.113253   -1.566267   -1.019423
     54          1           0       -2.912868   -0.358645   -1.131405
     55          1           0       -2.312372    1.177692    1.428745
     56          1           0       -0.840634    1.182828   -1.264687
 ---------------------------------------------------------------------

 SCF Done:  E(RHF) =  -1203.96517718     A.U. after    2 cycles
 E2 =    -0.4090944874D+01 EUMP2 =    -0.12080561220535D+04

 Alpha  occ. eigenvalues --  -20.58546 -20.58114 -20.56155 -20.52991 -15.58811
 Alpha  occ. eigenvalues --  -11.35108 -11.30187 -11.29394 -11.29036 -11.27997
 Alpha  occ. eigenvalues --  -11.27848 -11.26257 -11.26122 -11.25803 -11.25662
 Alpha  occ. eigenvalues --  -11.25240 -11.25193 -11.25005 -11.24987 -11.24583
 Alpha  occ. eigenvalues --  -11.24287 -11.24230 -11.23980 -11.23920 -11.23839
 Alpha  occ. eigenvalues --  -11.23633 -11.22389  -1.39109  -1.39072  -1.38441
 Alpha  occ. eigenvalues --   -1.35402  -1.28363  -1.16786  -1.13552  -1.11659
 Alpha  occ. eigenvalues --   -1.09097  -1.07012  -1.04991  -1.01374  -1.01246
 Alpha  occ. eigenvalues --   -0.99458  -0.96281  -0.94582  -0.94090  -0.88706
 Alpha  occ. eigenvalues --   -0.86508  -0.85326  -0.83225  -0.81720  -0.77998
 Alpha  occ. eigenvalues --   -0.75378  -0.73972  -0.73242  -0.72287  -0.71971
 Alpha  occ. eigenvalues --   -0.70239  -0.69197  -0.68359  -0.67912  -0.66881
 Alpha  occ. eigenvalues --   -0.65956  -0.64523  -0.63215  -0.62718  -0.61791
 Alpha  occ. eigenvalues --   -0.61510  -0.61117  -0.59887  -0.59590  -0.59006
 Alpha  occ. eigenvalues --   -0.57899  -0.57633  -0.57115  -0.56889  -0.56030
 Alpha  occ. eigenvalues --   -0.55698  -0.55067  -0.54743  -0.54163  -0.53851
 Alpha  occ. eigenvalues --   -0.53247  -0.52037  -0.51559  -0.51011  -0.50482
 Alpha  occ. eigenvalues --   -0.50343  -0.48935  -0.48738  -0.47971  -0.47174
 Alpha  occ. eigenvalues --   -0.46552  -0.45587  -0.44801  -0.43216  -0.41900
 Alpha  occ. eigenvalues --   -0.40520  -0.37688  -0.37403  -0.35195  -0.31353
 Alpha virt. eigenvalues --    0.02658   0.03017   0.03494   0.03736   0.04173
 Alpha virt. eigenvalues --    0.04377   0.04900   0.04912   0.05497   0.05674
 Alpha virt. eigenvalues --    0.05839   0.06324   0.06756   0.06844   0.07220

 Mulliken charges:
               1
     1  C   -0.042177
     2  C    0.390208
     3  C    0.417634
     4  C   -0.997561
     5  C    0.272298
     6  C    0.620283
     7  H   -0.553878
     8  C    0.061860
     9  C   -0.546052
    10  C    0.816336
    11  C    0.271140
    12  C    0.361129
    13  C    0.986982
    14  C    1.035758
    15  H   -0.365532
    16  N   -0.156500
    17  H   -0.675162
    18  C    1.180187
    19  C    1.205007
    20  C    1.426774
    21  H   -0.316386
    22  O   -0.939162
    23  C    0.297056
    24  H   -0.086243
    25  O   -0.880475
    26  C    1.130875
    27  C    1.219767
    28  H    0.229114
    29  H    0.175283
    30  H   -0.658293
    31  H   -0.463113
    32  C   -0.482892
    33  O   -0.977958
    34  H    0.001441
    35  H   -0.008774
    36  H   -0.221631
    37  H    0.182444
    38  H   -0.418723
    39  H   -0.055454
    40  C    0.821992
    41  O   -0.844488
    42  H   -0.182657
    43  H   -0.372195
    44  C    0.813661
    45  H   -0.148362
    46  H   -0.069335
    47  H   -0.054874
    48  H   -0.038049
    49  H   -0.070733
    50  H    0.172486
    51  H   -0.669869
    52  H   -0.569450
    53  H   -0.549737
    54  H   -0.531308
    55  H   -0.292187
    56  H   -0.850504
 Sum of Mulliken charges =  -0.00000

 Dipole moment (field-independent basis, Debye):
    X=             -0.3083    Y=              2.1225    Z=              3.5164  Tot=              4.1189
 Unable to Open any file for archive entry.
 1\1\GINC-SE134\SP\RMP2-FC\Aug-CC-pVDZ\C22H29N1O4\OHZDE\20-Sep-2024\0\\
 #t symm=none mp2 aug-cc-pvdz geom=allcheck guess=(read,tcheck) int=(gr
 id=ultrafine)\\title\\0,1\C,0,-0.916771,1.072096,-0.18376\C,0,-2.32553
 5,1.105516,0.33738\C,0,0.179636,0.696391,0.480191\C,0,1.406863,0.31188
 ,-0.311615\C,0,1.528974,-1.205403,-0.72166\C,0,2.777902,0.610567,0.303
 046\H,0,1.367913,0.846238,-1.266282\C,0,-3.02842,-0.242926,-0.049739\C
 ,0,-2.318915,-1.384448,0.641631\C,0,-4.518777,-0.139054,0.226626\C,0,-
 1.258159,-1.892471,0.005723\C,0,-0.122324,-2.609123,0.579729\C,0,1.134
 268,-2.270143,0.278472\C,0,3.021834,-1.315713,-1.046748\H,0,0.97334,-1

 Normal termination of Gaussian 16 at Fri Sep 20 13:47:23 2024.
