 Gaussian 16, Revision C.01,

 ----------------------------------------------------------------------
 #t hf aug-cc-pvdz symm=none int=(grid=ultrafine) guess=(read,tcheck) s
 table=(opt,rrhf)
 ----------------------------------------------------------------------
 -----
 title
 -----
 Symbolic Z-matrix:
 Charge =  0 Multiplicity = 1

 SCF Done:  E(RHF) =  -1125.27612025     A.U. after   15 cycles
 Normal termination of Gaussian 16 at Sat Sep 21 00:09:23 2024.
 Gaussian 16:  ES64L-G16RevC.01  3-Jul-2019

 ----------------------------------------------------------------------
 #t symm=none mp2 aug-cc-pvdz geom=allcheck guess=(read,tcheck) int=(gr
 id=ultrafine)
 ----------------------------------------------------------------------
 Structure from the checkpoint file:  "06_27P.chk"
 -----
 title
 -----
 Charge =  0 Multiplicity = 1

                          Input orientation:
 ---------------------------------------------------------------------
 Center     Atomic      Atomic             Coordinates (Angstroms)
 Number     Number       Type             X           Y           Z
 ---------------------------------------------------------------------
      1          6           0       -0.108499   -2.759245    0.227597
      2          6           0        0.663781   -1.813588    1.192889
      3          6           0        1.510873   -0.503658   -1.489653
      4          1           0       -1.029150   -3.078417    0.722265
      5          6           0        2.181618   -2.094358    1.221262
      6          1           0        2.690648   -1.300294    1.779086
      7          1           0        2.341165   -3.010996    1.800325
      8          1           0        1.741064    0.142004   -2.342302
      9          1           0        0.308556   -2.036506    2.204783
     10          6           0        2.868003   -2.281015   -0.127497
     11          1           0        3.907401   -2.571377    0.056155
     12          1           0        2.418295   -3.132192   -0.645747
     13          6           0        2.873036   -1.073144   -1.057316
     14          1           0        3.470837   -0.277790   -0.603301
     15          1           0        3.411172   -1.361409   -1.967040
     16          6           0        0.568654   -1.602266   -2.045798
     17          1           0        0.051548   -1.195471   -2.920011
     18          6           0       -0.523083   -2.145216   -1.116593
     19          1           0       -1.237502   -1.338130   -0.923018
     20          1           0       -1.088692   -2.898513   -1.674196
     21          1           0        1.176074   -2.431502   -2.424028
     22          1           0        0.472912   -3.671516    0.060750
     23          6           0        0.817963    0.386187   -0.432338
     24          1           0       -0.066185    0.853761   -0.892794
     25         14           0        1.801795    1.956827    0.030537
     26          6           0        2.977721    1.695735    1.479919
     27          1           0        3.763153    0.969787    1.262893
     28          1           0        3.463674    2.639687    1.742247
     29          1           0        2.443372    1.348959    2.368886
     30          6           0        0.623817    3.342974    0.508503
     31          1           0        1.163297    4.294045    0.531313
     32          1           0       -0.195951    3.439838   -0.207144
     33          1           0        0.185238    3.193289    1.496577
     34          6           0        2.784378    2.536699   -1.464493
     35          1           0        2.124819    2.734309   -2.313510
     36          1           0        3.305556    3.468416   -1.228079
     37          1           0        3.532878    1.810517   -1.786287
     38          5           0        0.260908   -0.331206    0.823558
     39          6           0       -3.137885   -0.500676    1.327349
     40          6           0       -3.421731    0.294421    0.125203
     41          8           0       -2.646835    0.998814   -0.480589
     42          8           0       -4.700343    0.132320   -0.264566
     43          6           0       -5.085587    0.845019   -1.440499
     44          1           0       -4.475759    0.537325   -2.290134
     45          1           0       -6.129518    0.593332   -1.608002
     46          1           0       -4.969517    1.918648   -1.292010
     47          6           0       -1.994906   -0.437922    2.017772
     48          6           0       -0.809212    0.419923    1.741304
     49          1           0       -0.303256    0.625688    2.694488
     50          1           0       -1.115565    1.361847    1.295061
     51          1           0       -3.929498   -1.167632    1.643000
     52          1           0       -1.916964   -1.107529    2.870041
 ---------------------------------------------------------------------

 SCF Done:  E(RHF) =  -1125.27612025     A.U. after    2 cycles
 E2 =    -0.3076966344D+01 EUMP2 =    -0.11283530865925D+04

 Alpha  occ. eigenvalues --  -68.75665 -20.60788 -20.54712 -11.38380 -11.28893
 Alpha  occ. eigenvalues --  -11.27126 -11.23579 -11.22097 -11.21873 -11.21690
 Alpha  occ. eigenvalues --  -11.21459 -11.21327 -11.21259 -11.21205 -11.20559
 Alpha  occ. eigenvalues --  -11.19952 -11.19624 -11.19499 -11.19353 -11.17518
 Alpha  occ. eigenvalues --   -7.57826  -6.10307  -4.20933  -4.20927  -4.20920
 Alpha  occ. eigenvalues --   -1.46278  -1.35851  -1.11267  -1.09503  -1.04318
 Alpha  occ. eigenvalues --   -1.03983  -1.00119  -0.97483  -0.95042  -0.93288
 Alpha  occ. eigenvalues --   -0.91972  -0.91638  -0.91173  -0.87350  -0.82807
 Alpha  occ. eigenvalues --   -0.79250  -0.78135  -0.75509  -0.71137  -0.69356
 Alpha  occ. eigenvalues --   -0.66929  -0.66445  -0.65458  -0.64410  -0.63891
 Alpha  occ. eigenvalues --   -0.61509  -0.60871  -0.59440  -0.58342  -0.57611
 Alpha  occ. eigenvalues --   -0.56855  -0.56696  -0.56270  -0.55822  -0.55215
 Alpha  occ. eigenvalues --   -0.54776  -0.54335  -0.53547  -0.52923  -0.52815
 Alpha  occ. eigenvalues --   -0.52714  -0.52285  -0.51649  -0.51417  -0.48634
 Alpha  occ. eigenvalues --   -0.48010  -0.47133  -0.45991  -0.45821  -0.44652
 Alpha  occ. eigenvalues --   -0.44224  -0.43495  -0.42562  -0.42505  -0.41049
 Alpha  occ. eigenvalues --   -0.40780  -0.39956  -0.37443  -0.35776
 Alpha virt. eigenvalues --    0.02837   0.03540   0.03612   0.03812   0.04640
 Alpha virt. eigenvalues --    0.04831   0.04995   0.05205   0.05313   0.06207
 Alpha virt. eigenvalues --    0.06483   0.06744   0.06860   0.07088   0.07231

 Mulliken charges:
               1
     1  C    0.533178
     2  C    0.294902
     3  C    0.130909
     4  H   -0.258995
     5  C    0.572915
     6  H   -0.147094
     7  H   -0.229738
     8  H   -0.366667
     9  H   -0.486787
    10  C    0.402460
    11  H   -0.279703
    12  H   -0.036213
    13  C    0.655435
    14  H   -0.218964
    15  H   -0.235726
    16  C    0.339049
    17  H   -0.216609
    18  C    0.908081
    19  H    0.213031
    20  H   -0.340830
    21  H   -0.205786
    22  H   -0.219431
    23  C   -0.289776
    24  H   -0.465014
    25  Si   0.559952
    26  C    1.062215
    27  H   -0.320687
    28  H   -0.525917
    29  H   -0.271783
    30  C    0.968868
    31  H   -0.552860
    32  H   -0.232618
    33  H   -0.311223
    34  C    0.998553
    35  H   -0.387845
    36  H   -0.524616
    37  H   -0.311280
    38  B   -0.272689
    39  C    1.053094
    40  C    0.837147
    41  O   -0.683906
    42  O   -0.993997
    43  C    0.890111
    44  H   -0.090391
    45  H   -0.286601
    46  H   -0.095694
    47  C    0.747192
    48  C    0.427865
    49  H    0.048777
    50  H   -0.446488
    51  H   -0.671766
    52  H   -0.666038
 Sum of Mulliken charges =   0.00000

 Dipole moment (field-independent basis, Debye):
    X=             -0.5532    Y=             -0.6397    Z=              0.4263  Tot=              0.9471
 Unable to Open any file for archive entry.
 1\1\GINC-SE005\SP\RMP2-FC\Aug-CC-pVDZ\C17H31B1O2Si1\OHZDE\21-Sep-2024\
 0\\#t symm=none mp2 aug-cc-pvdz geom=allcheck guess=(read,tcheck) int=
 (grid=ultrafine)\\title\\0,1\C,0,-0.108499,-2.759245,0.227597\C,0,0.66
 3781,-1.813588,1.192889\C,0,1.510873,-0.503658,-1.489653\H,0,-1.02915,
 -3.078417,0.722265\C,0,2.181618,-2.094358,1.221262\H,0,2.690648,-1.300
 294,1.779086\H,0,2.341165,-3.010996,1.800325\H,0,1.741064,0.142004,-2.
 342302\H,0,0.308556,-2.036506,2.204783\C,0,2.868003,-2.281015,-0.12749
 7\H,0,3.907401,-2.571377,0.056155\H,0,2.418295,-3.132192,-0.645747\C,0
 ,2.873036,-1.073144,-1.057316\H,0,3.470837,-0.27779,-0.603301\H,0,3.41

 Normal termination of Gaussian 16 at Sat Sep 21 02:33:46 2024.
