 Gaussian 16, Revision C.01,

 ----------------------------------------------------------------------
 #t hf aug-cc-pvdz symm=none int=(grid=ultrafine) guess=(read,tcheck) s
 table=opt
 ----------------------------------------------------------------------
 -----
 title
 -----
 Symbolic Z-matrix:
 Charge =  0 Multiplicity = 2

 SCF Done:  E(UHF) =  -1785.60931515     A.U. after   18 cycles
 Normal termination of Gaussian 16 at Sat Sep 21 02:37:45 2024.
 Gaussian 16:  ES64L-G16RevC.01  3-Jul-2019

 ----------------------------------------------------------------------
 #t symm=none mp2 aug-cc-pvdz geom=allcheck guess=(read,tcheck) int=(gr
 id=ultrafine)
 ----------------------------------------------------------------------
 Structure from the checkpoint file:  "06_35P.chk"
 -----
 title
 -----
 Charge =  0 Multiplicity = 2

                          Input orientation:
 ---------------------------------------------------------------------
 Center     Atomic      Atomic             Coordinates (Angstroms)
 Number     Number       Type             X           Y           Z
 ---------------------------------------------------------------------
      1          6           0       -2.267841    0.574779   -0.228636
      2          6           0       -1.095685    0.420139   -1.134783
      3          1           0       -2.167725    1.290195    0.585681
      4         14           0        0.495082    0.029012   -0.113388
      5         14           0        1.330895    1.971463    0.917684
      6         14           0        2.158571   -0.861795   -1.520572
      7         14           0        0.013316   -1.565376    1.546232
      8          6           0       -1.041309   -2.958856    0.840686
      9          1           0       -1.237853   -3.716658    1.604676
     10          1           0       -2.003441   -2.586560    0.486383
     11          1           0       -0.544995   -3.451229    0.001728
     12          6           0       -0.899831   -0.787821    3.000754
     13          1           0       -1.132201   -1.543402    3.756934
     14          1           0       -0.299020   -0.012512    3.481874
     15          1           0       -1.838774   -0.333241    2.680336
     16          6           0        1.615537   -2.319930    2.198605
     17          1           0        2.294382   -1.559296    2.589717
     18          1           0        1.399115   -3.020555    3.010285
     19          1           0        2.147139   -2.872614    1.420819
     20          6           0       -0.051506    2.988461    1.700253
     21          1           0       -0.611489    2.403233    2.433080
     22          1           0        0.363179    3.859823    2.215504
     23          1           0       -0.760446    3.351755    0.953284
     24          6           0        2.544191    1.486584    2.278051
     25          1           0        2.986926    2.380170    2.727402
     26          1           0        2.051325    0.926264    3.075560
     27          1           0        3.359054    0.870116    1.892845
     28          6           0        2.247305    3.061145   -0.320168
     29          1           0        2.635951    3.957417    0.172049
     30          1           0        3.095102    2.533855   -0.763596
     31          1           0        1.595618    3.384044   -1.134700
     32          6           0        3.830276   -0.830544   -0.647663
     33          1           0        4.592137   -1.310284   -1.268852
     34          1           0        4.160435    0.192550   -0.453558
     35          1           0        3.800467   -1.357272    0.308146
     36          6           0        2.324830    0.104423   -3.132080
     37          1           0        2.530865    1.162071   -2.953905
     38          1           0        3.148977   -0.300116   -3.727102
     39          1           0        1.418269    0.037152   -3.737695
     40          6           0        1.745037   -2.648924   -1.962509
     41          1           0        2.484081   -3.054319   -2.659603
     42          1           0        1.736156   -3.290722   -1.078933
     43          1           0        0.763993   -2.726468   -2.437904
     44          6           0       -0.900813    1.655083   -2.042860
     45          1           0       -1.755030    1.787077   -2.711945
     46          1           0       -0.810985    2.565974   -1.447232
     47          1           0       -0.003712    1.568939   -2.658462
     48          6           0       -3.756191   -0.954794   -1.584633
     49          6           0       -3.682559    0.138600   -0.515863
     50          1           0       -3.378278   -0.602533   -2.546937
     51          1           0       -3.180013   -1.837437   -1.299024
     52          1           0       -4.793238   -1.266127   -1.731461
     53          6           0       -4.322675   -0.374689    0.783614
     54          6           0       -4.490521    1.361496   -0.999835
     55          1           0       -4.272077    0.385082    1.567795
     56          1           0       -5.375617   -0.623679    0.624887
     57          1           0       -3.813703   -1.268266    1.149937
     58          1           0       -5.535825    1.087537   -1.172662
     59          1           0       -4.469230    2.161234   -0.255839
     60          1           0       -4.085334    1.758031   -1.932833
     61          1           0       -1.253763   -0.446410   -1.783673
 ---------------------------------------------------------------------

 SCF Done:  E(UHF) =  -1785.60931515     A.U. after    2 cycles
 E2 =    -0.2867581718D+01 EUMP2 =    -0.17884768968679D+04

 Alpha  occ. eigenvalues --  -68.75396 -68.75386 -68.75219 -68.72984 -11.23703
 Alpha  occ. eigenvalues --  -11.22413 -11.22298 -11.21725 -11.21679 -11.21622
 Alpha  occ. eigenvalues --  -11.21584 -11.20245 -11.20211 -11.20197 -11.20194
 Alpha  occ. eigenvalues --  -11.20186 -11.20161 -11.20032 -11.19953 -11.19948
 Alpha  occ. eigenvalues --   -6.10148  -6.10146  -6.09971  -6.08152  -4.20753
 Alpha  occ. eigenvalues --   -4.20748  -4.20747  -4.20744  -4.20743  -4.20740
 Alpha  occ. eigenvalues --   -4.20576  -4.20570  -4.20562  -4.18711  -4.18673
 Alpha  occ. eigenvalues --   -4.18671  -1.11992  -1.04008  -0.96889  -0.96283
 Alpha  occ. eigenvalues --   -0.96164  -0.93426  -0.93179  -0.92685  -0.92387
 Alpha  occ. eigenvalues --   -0.92150  -0.92083  -0.91946  -0.91799  -0.91783
 Alpha  occ. eigenvalues --   -0.81207  -0.72263  -0.70135  -0.63694  -0.62382
 Alpha  occ. eigenvalues --   -0.62338  -0.61410  -0.60552  -0.58954  -0.57771
 Alpha  occ. eigenvalues --   -0.57492  -0.57231  -0.57075  -0.56265  -0.56223
 Alpha  occ. eigenvalues --   -0.55815  -0.55542  -0.55264  -0.54935  -0.54754
 Alpha  occ. eigenvalues --   -0.54169  -0.53932  -0.53643  -0.53366  -0.53225
 Alpha  occ. eigenvalues --   -0.53185  -0.52964  -0.52667  -0.52601  -0.52443
 Alpha  occ. eigenvalues --   -0.52317  -0.51294  -0.51038  -0.49099  -0.47666
 Alpha  occ. eigenvalues --   -0.46682  -0.45176  -0.43225  -0.42866  -0.42781
 Alpha  occ. eigenvalues --   -0.42301  -0.42106  -0.41965  -0.38533  -0.33604
 Alpha  occ. eigenvalues --   -0.33242  -0.30537
 Alpha virt. eigenvalues --    0.02900   0.03453   0.03498   0.03558   0.04650
 Alpha virt. eigenvalues --    0.04676   0.04842   0.04904   0.05064   0.06207
 Alpha virt. eigenvalues --    0.06284   0.06419   0.06522   0.06562   0.06914

  Beta  occ. eigenvalues --  -68.75397 -68.75379 -68.75220 -68.72952 -11.23998
  Beta  occ. eigenvalues --  -11.22060 -11.22006 -11.21594 -11.21479 -11.21474
  Beta  occ. eigenvalues --  -11.20247 -11.20211 -11.20198 -11.20188 -11.20186
  Beta  occ. eigenvalues --  -11.20160 -11.20033 -11.19950 -11.19940 -11.19909
  Beta  occ. eigenvalues --   -6.10149  -6.10135  -6.09972  -6.08099  -4.20753
  Beta  occ. eigenvalues --   -4.20749  -4.20744  -4.20743  -4.20738  -4.20718
  Beta  occ. eigenvalues --   -4.20577  -4.20571  -4.20565  -4.18654  -4.18646
  Beta  occ. eigenvalues --   -4.18605  -1.10334  -1.02967  -0.96868  -0.96278
  Beta  occ. eigenvalues --   -0.96138  -0.93208  -0.92635  -0.92370  -0.92232
  Beta  occ. eigenvalues --   -0.92129  -0.91957  -0.91807  -0.91778  -0.88910
  Beta  occ. eigenvalues --   -0.80242  -0.70974  -0.69718  -0.63450  -0.62353
  Beta  occ. eigenvalues --   -0.62257  -0.60876  -0.59782  -0.58866  -0.57588
  Beta  occ. eigenvalues --   -0.57343  -0.57192  -0.56713  -0.56237  -0.56108
  Beta  occ. eigenvalues --   -0.55683  -0.55244  -0.55084  -0.54854  -0.54304
  Beta  occ. eigenvalues --   -0.53957  -0.53642  -0.53560  -0.53237  -0.53179
  Beta  occ. eigenvalues --   -0.53161  -0.52903  -0.52638  -0.52498  -0.52344
  Beta  occ. eigenvalues --   -0.51881  -0.51035  -0.50483  -0.48674  -0.46436
  Beta  occ. eigenvalues --   -0.45695  -0.44954  -0.43164  -0.42854  -0.42768
  Beta  occ. eigenvalues --   -0.42280  -0.42092  -0.41962  -0.37232  -0.33229
  Beta  occ. eigenvalues --   -0.33131
  Beta virt. eigenvalues --    0.02901   0.03449   0.03498   0.03538   0.04652
  Beta virt. eigenvalues --    0.04679   0.04844   0.04884   0.05052   0.06208
  Beta virt. eigenvalues --    0.06286   0.06421   0.06524   0.06560   0.06913

 Mulliken charges and spin densities:
               1          2
     1  C    1.790675   1.719166
     2  C   -0.094871  -0.307906
     3  H   -0.797377  -0.197588
     4  Si   2.133101   0.034593
     5  Si  -0.133505  -0.003936
     6  Si   0.140456   0.013445
     7  Si   0.084291  -0.048569
     8  C    1.337288   0.006900
     9  H   -0.491823  -0.001746
    10  H   -0.740253   0.004747
    11  H   -0.440172  -0.001094
    12  C    1.224316   0.009237
    13  H   -0.501541  -0.001222
    14  H   -0.456605   0.001154
    15  H   -0.631038   0.004342
    16  C    1.279543   0.001306
    17  H   -0.449709   0.000431
    18  H   -0.553668  -0.000552
    19  H   -0.506241   0.000099
    20  C    1.161864  -0.004949
    21  H   -0.398733   0.000687
    22  H   -0.610964  -0.000446
    23  H   -0.407001   0.004021
    24  C    1.195811  -0.001387
    25  H   -0.552176   0.000298
    26  H   -0.461025  -0.000425
    27  H   -0.452464  -0.000819
    28  C    1.104621  -0.000705
    29  H   -0.529159  -0.000006
    30  H   -0.467107   0.000317
    31  H   -0.436300   0.000207
    32  C    1.225846   0.003068
    33  H   -0.492742   0.000697
    34  H   -0.477534  -0.000081
    35  H   -0.463703  -0.000765
    36  C    1.048621  -0.001242
    37  H   -0.417590   0.000182
    38  H   -0.587338  -0.000157
    39  H   -0.386172   0.000276
    40  C    1.078072  -0.003850
    41  H   -0.519449  -0.000211
    42  H   -0.469788   0.000291
    43  H   -0.446927   0.000040
    44  C    1.215619   0.045133
    45  H   -0.237994  -0.006283
    46  H   -0.227145  -0.013478
    47  H   -0.417518   0.003284
    48  C    1.215733   0.034403
    49  C   -2.962038  -0.395974
    50  H   -0.079689  -0.002340
    51  H   -0.201945  -0.001627
    52  H   -0.168908  -0.000642
    53  C    1.264995   0.058968
    54  C    1.288680   0.061862
    55  H   -0.129596   0.003884
    56  H   -0.132095   0.003159
    57  H   -0.220782  -0.000178
    58  H   -0.068964   0.008637
    59  H   -0.130101  -0.000251
    60  H   -0.136847  -0.013861
    61  H   -0.302936  -0.012543
 Sum of Mulliken charges =  -0.00000   1.00000

 Dipole moment (field-independent basis, Debye):
    X=             -0.2275    Y=              0.0945    Z=             -0.3032  Tot=              0.3907
 Unable to Open any file for archive entry.
 1\1\GINC-SE058\SP\UMP2-FC\Aug-CC-pVDZ\C16H41Si4\OHZDE\21-Sep-2024\0\\#
 t symm=none mp2 aug-cc-pvdz geom=allcheck guess=(read,tcheck) int=(gri
 d=ultrafine)\\title\\0,2\C,0,-2.267841,0.574779,-0.228636\C,0,-1.09568
 5,0.420139,-1.134783\H,0,-2.167725,1.290195,0.585681\Si,0,0.495082,0.0
 29012,-0.113388\Si,0,1.330895,1.971463,0.917684\Si,0,2.158571,-0.86179
 5,-1.520572\Si,0,0.013316,-1.565376,1.546232\C,0,-1.041309,-2.958856,0
 .840686\H,0,-1.237853,-3.716658,1.604676\H,0,-2.003441,-2.58656,0.4863
 83\H,0,-0.544995,-3.451229,0.001728\C,0,-0.899831,-0.787821,3.000754\H
 ,0,-1.132201,-1.543402,3.756934\H,0,-0.29902,-0.012512,3.481874\H,0,-1

 Normal termination of Gaussian 16 at Sat Sep 21 08:24:14 2024.
