 Gaussian 16, Revision C.01,

 ----------------------------------------------------------------------
 #t hf aug-cc-pvdz symm=none int=(grid=ultrafine) guess=(read,tcheck) s
 table=(opt,rrhf)
 ----------------------------------------------------------------------
 -----
 title
 -----
 Symbolic Z-matrix:
 Charge =  0 Multiplicity = 1

 SCF Done:  E(RHF) =  -1375.42388410     A.U. after   17 cycles
 Normal termination of Gaussian 16 at Fri Sep 20 13:35:42 2024.
 Gaussian 16:  ES64L-G16RevC.01  3-Jul-2019

 ----------------------------------------------------------------------
 #t symm=none mp2 aug-cc-pvdz geom=allcheck guess=(read,tcheck) int=(gr
 id=ultrafine)
 ----------------------------------------------------------------------
 Structure from the checkpoint file:  "02_86R.chk"
 -----
 title
 -----
 Charge =  0 Multiplicity = 1

                          Input orientation:
 ---------------------------------------------------------------------
 Center     Atomic      Atomic             Coordinates (Angstroms)
 Number     Number       Type             X           Y           Z
 ---------------------------------------------------------------------
      1          6           0        0.695059   -2.829518    1.049688
      2          7           0        1.656478   -2.080577    0.259680
      3          6           0       -0.620455   -2.091440    1.180080
      4          6           0        0.344572   -0.069065    0.075508
      5          1           0        0.497568    0.173524   -0.978521
      6          1           0        0.123442    0.872769    0.584127
      7          6           0       -1.972827   -0.846476   -0.492898
      8          6           0       -1.477795   -2.374312    2.156759
      9          6           0       -3.066456   -1.821045   -0.504203
     10          6           0       -4.305915   -1.616639   -0.948355
     11          6           0       -0.829613   -1.003095    0.204740
     12          6           0       -5.373163   -2.662723   -0.964445
     13          1           0       -5.015486   -3.609540   -0.555810
     14          1           0       -6.242927   -2.344788   -0.381610
     15          1           0       -5.728418   -2.844094   -1.983362
     16          1           0        1.087230   -3.044294    2.059302
     17          6           0        1.633762   -0.673441    0.644910
     18          1           0        0.521960   -3.790558    0.554876
     19         16           0       -2.174513    0.573443   -1.567594
     20          6           0        2.970627   -2.688853    0.290913
     21          6           0        2.843056    0.099873    0.164546
     22          1           0        1.611715   -0.593041    1.748190
     23          6           0        3.897511   -0.523271   -0.499675
     24          6           0        3.869384   -2.011357   -0.725444
     25          1           0        4.882743   -2.415775   -0.663048
     26          1           0        3.492409   -2.228470   -1.729527
     27          1           0        2.860348   -3.750013    0.054923
     28          1           0        3.422147   -2.624226    1.298218
     29          6           0        2.901851    1.474064    0.397577
     30          6           0        4.978911    0.242598   -0.932187
     31          6           0        5.024079    1.607770   -0.711336
     32          6           0        3.978683    2.226780   -0.036485
     33          1           0        4.005213    3.293022    0.153252
     34          1           0        2.090827    1.962254    0.925811
     35          1           0        5.799004   -0.248886   -1.445035
     36          1           0        5.873191    2.186727   -1.054052
     37          6           0       -2.022001    1.935534   -0.428467
     38          6           0       -2.601310    1.899900    0.836978
     39          6           0       -1.332582    3.071164   -0.839726
     40          6           0       -1.226195    4.165285    0.008635
     41          6           0       -1.788862    4.125020    1.275973
     42          6           0       -2.473293    2.987077    1.686809
     43          1           0       -0.864817    3.089456   -1.816614
     44          1           0       -0.686374    5.045426   -0.319705
     45          1           0       -3.141325    1.017189    1.155653
     46          1           0       -1.695349    4.974213    1.941642
     47          1           0       -2.919226    2.948948    2.673596
     48          1           0       -2.415416   -1.843535    2.256823
     49          1           0       -1.259522   -3.142932    2.890261
     50          1           0       -4.574216   -0.635941   -1.328840
     51          1           0       -2.810005   -2.801457   -0.116185
 ---------------------------------------------------------------------

 SCF Done:  E(RHF) =  -1375.42388410     A.U. after    3 cycles
 E2 =    -0.3643849698D+01 EUMP2 =    -0.13790677337934D+04

 Alpha  occ. eigenvalues --  -91.95490 -15.55661 -11.27109 -11.26624 -11.26405
 Alpha  occ. eigenvalues --  -11.26380 -11.25687 -11.25175 -11.25098 -11.24469
 Alpha  occ. eigenvalues --  -11.24447 -11.24233 -11.24188 -11.24113 -11.23966
 Alpha  occ. eigenvalues --  -11.23845 -11.23441 -11.23349 -11.23246 -11.23204
 Alpha  occ. eigenvalues --  -11.23170 -11.23089 -11.23046 -11.22974 -11.22596
 Alpha  occ. eigenvalues --  -11.22590  -8.95672  -6.63881  -6.63731  -6.63554
 Alpha  occ. eigenvalues --   -1.25981  -1.16980  -1.15978  -1.13997  -1.08791
 Alpha  occ. eigenvalues --   -1.06800  -1.05831  -1.05196  -1.02425  -1.01977
 Alpha  occ. eigenvalues --   -1.00116  -0.97366  -0.93565  -0.92873  -0.90169
 Alpha  occ. eigenvalues --   -0.86093  -0.83732  -0.83491  -0.81872  -0.81075
 Alpha  occ. eigenvalues --   -0.79146  -0.75697  -0.74187  -0.70623  -0.69510
 Alpha  occ. eigenvalues --   -0.68312  -0.67163  -0.66009  -0.64928  -0.63608
 Alpha  occ. eigenvalues --   -0.63235  -0.62877  -0.61645  -0.60799  -0.59700
 Alpha  occ. eigenvalues --   -0.59456  -0.59157  -0.58545  -0.56970  -0.56535
 Alpha  occ. eigenvalues --   -0.56255  -0.55606  -0.55268  -0.53886  -0.53000
 Alpha  occ. eigenvalues --   -0.52647  -0.52251  -0.52088  -0.51053  -0.50558
 Alpha  occ. eigenvalues --   -0.49999  -0.48957  -0.48074  -0.47496  -0.45929
 Alpha  occ. eigenvalues --   -0.45750  -0.44265  -0.41704  -0.38826  -0.37539
 Alpha  occ. eigenvalues --   -0.35845  -0.34308  -0.32691  -0.31987  -0.31716
 Alpha  occ. eigenvalues --   -0.28248
 Alpha virt. eigenvalues --    0.02959   0.03337   0.03485   0.03948   0.04361
 Alpha virt. eigenvalues --    0.04427   0.05027   0.05131   0.05519   0.05682
 Alpha virt. eigenvalues --    0.05954   0.06456   0.06702   0.07073   0.07152

 Mulliken charges:
               1
     1  C    0.337050
     2  N   -0.736038
     3  C   -0.491993
     4  C   -0.337025
     5  H   -0.045633
     6  H   -0.000344
     7  C   -0.484915
     8  C    1.569682
     9  C    1.522106
    10  C   -0.116118
    11  C   -0.058097
    12  C    0.241922
    13  H   -0.197719
    14  H    0.090991
    15  H    0.099899
    16  H   -0.077886
    17  C    0.462153
    18  H   -0.284205
    19  S    0.096843
    20  C    1.029650
    21  C    0.601778
    22  H   -0.076130
    23  C   -0.479211
    24  C    0.524049
    25  H   -0.040615
    26  H    0.066600
    27  H   -0.290483
    28  H   -0.188465
    29  C    1.004282
    30  C    1.072118
    31  C    0.141373
    32  C   -0.054684
    33  H   -0.558149
    34  H   -0.717820
    35  H   -0.659454
    36  H   -0.482042
    37  C    0.239211
    38  C    0.673891
    39  C    0.647451
    40  C    0.252622
    41  C    0.694095
    42  C    0.156349
    43  H   -0.669129
    44  H   -0.521382
    45  H   -0.597575
    46  H   -0.495444
    47  H   -0.560617
    48  H   -0.442436
    49  H   -0.601338
    50  H   -0.613825
    51  H   -0.645344
 Sum of Mulliken charges =  -0.00000

 Dipole moment (field-independent basis, Debye):
    X=              0.6722    Y=             -0.6684    Z=              1.9648  Tot=              2.1815
 Unable to Open any file for archive entry.
 1\1\GINC-SE288\SP\RMP2-FC\Aug-CC-pVDZ\C24H25N1S1\OHZDE\20-Sep-2024\0\\
 #t symm=none mp2 aug-cc-pvdz geom=allcheck guess=(read,tcheck) int=(gr
 id=ultrafine)\\title\\0,1\C,0,0.695059,-2.829518,1.049688\N,0,1.656478
 ,-2.080577,0.25968\C,0,-0.620455,-2.09144,1.18008\C,0,0.344572,-0.0690
 65,0.075508\H,0,0.497568,0.173524,-0.978521\H,0,0.123442,0.872769,0.58
 4127\C,0,-1.972827,-0.846476,-0.492898\C,0,-1.477795,-2.374312,2.15675
 9\C,0,-3.066456,-1.821045,-0.504203\C,0,-4.305915,-1.616639,-0.948355\
 C,0,-0.829613,-1.003095,0.20474\C,0,-5.373163,-2.662723,-0.964445\H,0,
 -5.015486,-3.60954,-0.55581\H,0,-6.242927,-2.344788,-0.38161\H,0,-5.72

 Normal termination of Gaussian 16 at Fri Sep 20 16:51:39 2024.
