 Gaussian 16, Revision C.01,

 ----------------------------------------------------------------------
 #t hf aug-cc-pvdz symm=none int=(grid=ultrafine) guess=(read,tcheck) s
 table=(opt,rrhf)
 ----------------------------------------------------------------------
 -----
 title
 -----
 Symbolic Z-matrix:
 Charge =  0 Multiplicity = 1

 SCF Done:  E(RHF) =  -1112.12773664     A.U. after   19 cycles
 Normal termination of Gaussian 16 at Fri Sep 20 10:10:13 2024.
 Gaussian 16:  ES64L-G16RevC.01  3-Jul-2019

 ----------------------------------------------------------------------
 #t symm=none mp2 aug-cc-pvdz geom=allcheck guess=(read,tcheck) int=(gr
 id=ultrafine)
 ----------------------------------------------------------------------
 Structure from the checkpoint file:  "02_118TS.chk"
 -----
 title
 -----
 Charge =  0 Multiplicity = 1

                          Input orientation:
 ---------------------------------------------------------------------
 Center     Atomic      Atomic             Coordinates (Angstroms)
 Number     Number       Type             X           Y           Z
 ---------------------------------------------------------------------
      1          6           0       -5.961577   -0.290354   -1.684356
      2          6           0       -5.175191   -1.123597   -0.679918
      3          6           0       -3.814518   -0.522167   -0.365464
      4          6           0       -2.904200   -1.447048    0.473355
      5          6           0       -1.520474   -0.891050    0.699988
      6          6           0       -0.395052   -1.130689   -0.020913
      7          6           0        0.860615   -0.656219    0.481460
      8          6           0        2.119075   -0.996406   -0.012385
      9          6           0        2.931046    0.516619   -1.218701
     10          6           0        2.883680    1.720130   -0.505395
     11          6           0        1.691092    2.326799   -0.131374
     12          6           0        0.453970    1.848351   -0.511117
     13          6           0       -0.779043    2.192869    0.087556
     14          6           0       -1.920350    1.573936   -0.289415
     15          6           0       -3.161797    1.693462    0.481423
     16          6           0       -3.533738   -1.799188    1.824138
     17          6           0        3.239444   -1.225347    1.000741
     18          6           0        4.572789   -1.592144    0.348326
     19          6           0        5.188365   -0.529508   -0.553115
     20          6           0        4.253344   -0.069804   -1.665073
     21          6           0       -0.419175   -1.854879   -1.341184
     22          8           0       -3.401658    2.579504    1.259625
     23          8           0       -4.086764    0.711989    0.313955
     24          8           0        3.357459   -0.172600    1.936047
     25          8           0        5.578640    0.627633    0.195885
     26          1           0       -5.426909   -0.207868   -2.634891
     27          1           0       -6.127005    0.717158   -1.301003
     28          1           0       -6.935134   -0.739506   -1.888748
     29          1           0       -5.743260   -1.216506    0.247538
     30          1           0       -5.019591   -2.135685   -1.066691
     31          1           0       -3.316500   -0.314608   -1.316180
     32          1           0       -2.819042   -2.365189   -0.115728
     33          1           0       -1.392020   -0.356222    1.635696
     34          1           0        0.837566   -0.163480    1.446767
     35          1           0        2.129904   -1.726089   -0.819194
     36          1           0        2.129293    0.344136   -1.925745
     37          1           0        0.395938    1.176613   -1.358640
     38          1           0       -0.793108    2.841972    0.957748
     39          1           0       -1.910860    0.961736   -1.176854
     40          1           0       -4.470559   -2.344090    1.705585
     41          1           0       -3.738198   -0.894247    2.399419
     42          1           0       -2.853373   -2.425184    2.403861
     43          1           0        2.941407   -2.088633    1.603802
     44          1           0        4.432432   -2.504216   -0.241434
     45          1           0        5.281827   -1.843309    1.143572
     46          1           0        6.079417   -0.955081   -1.029877
     47          1           0        4.066661   -0.933486   -2.308749
     48          1           0        4.786542    0.665507   -2.274735
     49          1           0        0.166795   -2.777003   -1.302540
     50          1           0        0.013562   -1.235366   -2.132466
     51          1           0       -1.429259   -2.116584   -1.649954
     52          1           0        3.739239    0.587867    1.482628
     53          1           0        6.203028    0.361896    0.877094
     54          1           0        3.810168    2.112082   -0.104853
     55          1           0        1.729809    3.138574    0.589001
 ---------------------------------------------------------------------

 SCF Done:  E(RHF) =  -1112.12773664     A.U. after    2 cycles
 E2 =    -0.3856556850D+01 EUMP2 =    -0.11159842934938D+04

 Alpha  occ. eigenvalues --  -20.59183 -20.58539 -20.56156 -20.52687 -11.37168
 Alpha  occ. eigenvalues --  -11.30507 -11.29990 -11.29603 -11.26864 -11.24942
 Alpha  occ. eigenvalues --  -11.24936 -11.24895 -11.24829 -11.24790 -11.24701
 Alpha  occ. eigenvalues --  -11.24327 -11.24268 -11.24208 -11.24152 -11.24118
 Alpha  occ. eigenvalues --  -11.23628 -11.23202 -11.22674 -11.22243 -11.22001
 Alpha  occ. eigenvalues --   -1.44215  -1.38708  -1.36421  -1.34646  -1.14323
 Alpha  occ. eigenvalues --   -1.12513  -1.10636  -1.09327  -1.06754  -1.04973
 Alpha  occ. eigenvalues --   -1.02613  -1.00701  -0.96307  -0.95118  -0.93779
 Alpha  occ. eigenvalues --   -0.90691  -0.88071  -0.84704  -0.83209  -0.81761
 Alpha  occ. eigenvalues --   -0.79009  -0.78706  -0.74335  -0.73843  -0.72585
 Alpha  occ. eigenvalues --   -0.72026  -0.69512  -0.68518  -0.67498  -0.66321
 Alpha  occ. eigenvalues --   -0.65490  -0.64432  -0.64069  -0.63090  -0.62074
 Alpha  occ. eigenvalues --   -0.61336  -0.60452  -0.59613  -0.58920  -0.58660
 Alpha  occ. eigenvalues --   -0.57985  -0.57662  -0.56779  -0.56148  -0.55724
 Alpha  occ. eigenvalues --   -0.54397  -0.54039  -0.53724  -0.53143  -0.52786
 Alpha  occ. eigenvalues --   -0.52183  -0.51340  -0.51137  -0.50487  -0.49590
 Alpha  occ. eigenvalues --   -0.49493  -0.48981  -0.48607  -0.47922  -0.47570
 Alpha  occ. eigenvalues --   -0.46541  -0.45224  -0.44047  -0.43064  -0.42457
 Alpha  occ. eigenvalues --   -0.40401  -0.38630  -0.29335  -0.25349
 Alpha virt. eigenvalues --    0.02030   0.02768   0.03390   0.03638   0.04123
 Alpha virt. eigenvalues --    0.04242   0.04443   0.04814   0.05053   0.05581
 Alpha virt. eigenvalues --    0.05773   0.06026   0.06092   0.06918   0.07052

 Mulliken charges:
               1
     1  C    0.715028
     2  C    0.454157
     3  C    0.514566
     4  C   -0.632712
     5  C    0.922623
     6  C   -0.933924
     7  C    0.966733
     8  C    0.657240
     9  C    0.450807
    10  C   -0.236009
    11  C    0.517993
    12  C    0.968917
    13  C    0.520431
    14  C    1.302386
    15  C    0.731007
    16  C    1.286129
    17  C    1.005406
    18  C    0.526813
    19  C    0.871375
    20  C    0.826998
    21  C    0.767666
    22  O   -0.907450
    23  O   -1.194956
    24  O   -0.888301
    25  O   -0.886462
    26  H   -0.078310
    27  H   -0.017077
    28  H   -0.104504
    29  H   -0.143911
    30  H   -0.104372
    31  H   -0.349156
    32  H   -0.341184
    33  H   -0.798601
    34  H   -0.922834
    35  H   -0.795348
    36  H   -0.523344
    37  H   -0.745415
    38  H   -0.679592
    39  H   -0.671140
    40  H   -0.105161
    41  H    0.016650
    42  H   -0.123646
    43  H   -0.323986
    44  H   -0.004575
    45  H   -0.105721
    46  H   -0.223008
    47  H   -0.122807
    48  H   -0.144674
    49  H    0.135603
    50  H    0.134125
    51  H   -0.444376
    52  H    0.255734
    53  H    0.158860
    54  H   -0.518540
    55  H   -0.636151
 Sum of Mulliken charges =  -0.00000

 Dipole moment (field-independent basis, Debye):
    X=              4.9404    Y=             -6.2174    Z=             -3.8690  Tot=              8.8336
 Unable to Open any file for archive entry.
 1\1\GINC-SE407\SP\RMP2-FC\Aug-CC-pVDZ\C21H30O4\OHZDE\20-Sep-2024\0\\#t
  symm=none mp2 aug-cc-pvdz geom=allcheck guess=(read,tcheck) int=(grid
 =ultrafine)\\title\\0,1\C,0,-5.961577,-0.290354,-1.684356\C,0,-5.17519
 1,-1.123597,-0.679918\C,0,-3.814518,-0.522167,-0.365464\C,0,-2.9042,-1
 .447048,0.473355\C,0,-1.520474,-0.89105,0.699988\C,0,-0.395052,-1.1306
 89,-0.020913\C,0,0.860615,-0.656219,0.48146\C,0,2.119075,-0.996406,-0.
 012385\C,0,2.931046,0.516619,-1.218701\C,0,2.88368,1.72013,-0.505395\C
 ,0,1.691092,2.326799,-0.131374\C,0,0.45397,1.848351,-0.511117\C,0,-0.7
 79043,2.192869,0.087556\C,0,-1.92035,1.573936,-0.289415\C,0,-3.161797,

 Normal termination of Gaussian 16 at Fri Sep 20 15:47:42 2024.
