 Gaussian 16, Revision C.01,

 ----------------------------------------------------------------------
 #t hf aug-cc-pvdz symm=none int=(grid=ultrafine) guess=(read,tcheck) s
 table=(opt,rrhf)
 ----------------------------------------------------------------------
 -----
 title
 -----
 Symbolic Z-matrix:
 Charge = -1 Multiplicity = 1

 SCF Done:  E(RHF) =  -998.871145155     A.U. after   17 cycles
 Normal termination of Gaussian 16 at Fri Sep 20 13:02:42 2024.
 Gaussian 16:  ES64L-G16RevC.01  3-Jul-2019

 ----------------------------------------------------------------------
 #t symm=none mp2 aug-cc-pvdz geom=allcheck guess=(read,tcheck) int=(gr
 id=ultrafine)
 ----------------------------------------------------------------------
 Structure from the checkpoint file:  "02_83R.chk"
 -----
 title
 -----
 Charge = -1 Multiplicity = 1

                          Input orientation:
 ---------------------------------------------------------------------
 Center     Atomic      Atomic             Coordinates (Angstroms)
 Number     Number       Type             X           Y           Z
 ---------------------------------------------------------------------
      1          6           0        4.224638   -0.615837   -1.396711
      2          6           0        3.311126    0.616171   -1.275779
      3          6           0        2.370415    0.397899   -0.141078
      4          6           0        2.480222   -0.535471    0.796927
      5          6           0        3.567803   -1.556587    0.888570
      6          6           0        4.720054   -1.115788   -0.030893
      7          1           0        3.899589    1.525065   -1.100886
      8          1           0        2.768983    0.783555   -2.214048
      9          1           0        3.662397   -1.424004   -1.879996
     10          1           0        5.082210   -0.400454   -2.043913
     11          1           0        3.930151   -1.669538    1.917453
     12          1           0        3.199721   -2.548512    0.586788
     13          1           0        5.263434   -0.301308    0.461309
     14          1           0        5.433811   -1.935068   -0.171386
     15          6           0       -0.568647   -0.922788   -0.008601
     16          6           0       -0.167668    0.528146   -0.429515
     17          6           0        1.062938    1.018931    0.420362
     18          6           0        1.215127   -0.170745    1.542775
     19          6           0        0.030843   -1.118911    1.412146
     20          1           0        0.108211    0.537260   -1.490136
     21          1           0       -0.722914   -0.849708    2.156673
     22          1           0        0.294174   -2.170286    1.589360
     23          8           0        1.094392    2.292671    0.758546
     24          6           0       -1.485748    1.321661   -0.382622
     25          6           0       -2.141456   -0.929532   -0.000529
     26          1           0       -2.453066   -0.697756    1.023762
     27          6           0       -2.512239    0.295491   -0.833125
     28          1           0       -2.379022    0.109736   -1.904485
     29          1           0       -3.522773    0.668375   -0.661900
     30          6           0        0.016259   -1.932133   -1.003369
     31          1           0        1.096252   -1.800187   -1.065330
     32          1           0       -0.177048   -2.968269   -0.712233
     33          1           0       -0.395046   -1.780719   -2.006219
     34          6           0       -2.849654   -2.233394   -0.385233
     35          1           0       -2.446456   -2.586220   -1.340790
     36          6           0       -4.353759   -2.023808   -0.571554
     37          1           0       -4.570143   -1.342336   -1.395737
     38          1           0       -4.856133   -2.973974   -0.778569
     39          1           0       -4.799148   -1.600583    0.334774
     40          6           0       -2.618535   -3.319305    0.667219
     41          1           0       -1.558769   -3.495432    0.849875
     42          1           0       -3.066993   -3.019877    1.619985
     43          1           0       -3.075533   -4.266894    0.365025
     44          8           0       -1.856344    1.761931    0.916550
     45          8           0       -1.530757    2.470271   -1.196478
     46          6           0       -1.176840    3.586137   -0.381306
     47          1           0       -0.099387    3.745637   -0.415256
     48          1           0       -1.741731    4.447710   -0.747313
     49          6           0       -1.571420    3.151778    1.035140
     50          1           0       -0.729281    3.291026    1.711220
     51          1           0       -2.481492    3.645527    1.395895
     52          1           0        1.356926    0.226756    2.550186
 ---------------------------------------------------------------------

 SCF Done:  E(RHF) =  -998.871145156     A.U. after    2 cycles
 E2 =    -0.3518551330D+01 EUMP2 =    -0.10023896964857D+04

 Alpha  occ. eigenvalues --  -20.43062 -20.42397 -20.26130 -11.19255 -11.13358
 Alpha  occ. eigenvalues --  -11.13296 -11.12627 -11.12436 -11.12111 -11.11833
 Alpha  occ. eigenvalues --  -11.11673 -11.11116 -11.10754 -11.10342 -11.10290
 Alpha  occ. eigenvalues --  -11.10190 -11.09686 -11.09455 -11.08203 -11.06772
 Alpha  occ. eigenvalues --  -11.06631 -11.06210 -11.06016  -1.29619  -1.18832
 Alpha  occ. eigenvalues --   -1.08676  -1.02491  -1.00555  -0.96529  -0.93716
 Alpha  occ. eigenvalues --   -0.90373  -0.88359  -0.85310  -0.83390  -0.82863
 Alpha  occ. eigenvalues --   -0.81195  -0.76516  -0.75682  -0.70759  -0.69835
 Alpha  occ. eigenvalues --   -0.68364  -0.66122  -0.63530  -0.60967  -0.59251
 Alpha  occ. eigenvalues --   -0.54969  -0.54381  -0.52738  -0.52533  -0.51900
 Alpha  occ. eigenvalues --   -0.50335  -0.49868  -0.47761  -0.47462  -0.46830
 Alpha  occ. eigenvalues --   -0.46199  -0.45843  -0.45095  -0.44319  -0.44016
 Alpha  occ. eigenvalues --   -0.43914  -0.43082  -0.42044  -0.41593  -0.40570
 Alpha  occ. eigenvalues --   -0.40290  -0.39378  -0.38475  -0.38246  -0.37632
 Alpha  occ. eigenvalues --   -0.36745  -0.35310  -0.35213  -0.34861  -0.34410
 Alpha  occ. eigenvalues --   -0.33848  -0.32625  -0.32483  -0.30865  -0.30307
 Alpha  occ. eigenvalues --   -0.29395  -0.28301  -0.27871  -0.24996  -0.18122
 Alpha  occ. eigenvalues --   -0.15631  -0.14067
 Alpha virt. eigenvalues --    0.09920   0.10350   0.11138   0.11536   0.11829
 Alpha virt. eigenvalues --    0.11952   0.12515   0.12776   0.13149   0.13614
 Alpha virt. eigenvalues --    0.13753   0.14075   0.14454   0.14706   0.15122

 Mulliken charges:
               1
     1  C    0.603160
     2  C    0.696296
     3  C   -0.913813
     4  C   -1.061616
     5  C    0.629165
     6  C    0.523490
     7  H    0.017817
     8  H   -0.082859
     9  H   -0.179874
    10  H   -0.145530
    11  H   -0.101695
    12  H   -0.013158
    13  H   -0.189722
    14  H   -0.138738
    15  C   -1.759849
    16  C    0.486180
    17  C    1.317026
    18  C    0.319712
    19  C    0.966103
    20  H   -0.624718
    21  H   -0.270191
    22  H   -0.363558
    23  O   -1.646611
    24  C    1.509320
    25  C    0.293314
    26  H   -0.458327
    27  C    1.272197
    28  H   -0.017669
    29  H   -0.173243
    30  C    1.422507
    31  H   -0.477392
    32  H   -0.102649
    33  H   -0.012359
    34  C   -1.527086
    35  H   -0.369005
    36  C    1.157115
    37  H   -0.012712
    38  H   -0.113372
    39  H   -0.032829
    40  C    1.172245
    41  H   -0.174935
    42  H    0.002434
    43  H   -0.150872
    44  O   -1.324312
    45  O   -1.309877
    46  C    1.036744
    47  H   -0.130937
    48  H   -0.382548
    49  C    0.951984
    50  H   -0.167934
    51  H   -0.425103
    52  H   -0.521720
 Sum of Mulliken charges =  -1.00000

 Dipole moment (field-independent basis, Debye):
    X=             -2.1614    Y=             -5.8312    Z=             -2.0736  Tot=              6.5555
 Unable to Open any file for archive entry.
 1\1\GINC-SE420\SP\RMP2-FC\Aug-CC-pVDZ\C20H29O3\OHZDE\20-Sep-2024\0\\#t
  symm=none mp2 aug-cc-pvdz geom=allcheck guess=(read,tcheck) int=(grid
 =ultrafine)\\title\\-1,1\C,0,4.224638,-0.615837,-1.396711\C,0,3.311126
 ,0.616171,-1.275779\C,0,2.370415,0.397899,-0.141078\C,0,2.480222,-0.53
 5471,0.796927\C,0,3.567803,-1.556587,0.88857\C,0,4.720054,-1.115788,-0
 .030893\H,0,3.899589,1.525065,-1.100886\H,0,2.768983,0.783555,-2.21404
 8\H,0,3.662397,-1.424004,-1.879996\H,0,5.08221,-0.400454,-2.043913\H,0
 ,3.930151,-1.669538,1.917453\H,0,3.199721,-2.548512,0.586788\H,0,5.263
 434,-0.301308,0.461309\H,0,5.433811,-1.935068,-0.171386\C,0,-0.568647,

 Normal termination of Gaussian 16 at Fri Sep 20 16:47:10 2024.
