 Gaussian 16, Revision C.01,

 ----------------------------------------------------------------------
 #t hf aug-cc-pvdz symm=none int=(grid=ultrafine) guess=(read,tcheck) s
 table=(opt,rrhf)
 ----------------------------------------------------------------------
 -----
 title
 -----
 Symbolic Z-matrix:
 Charge =  1 Multiplicity = 1

 SCF Done:  E(RHF) =  -1261.31979502     A.U. after   19 cycles
 Normal termination of Gaussian 16 at Fri Sep 20 23:41:00 2024.
 Gaussian 16:  ES64L-G16RevC.01  3-Jul-2019

 ----------------------------------------------------------------------
 #t symm=none mp2 aug-cc-pvdz geom=allcheck guess=(read,tcheck) int=(gr
 id=ultrafine)
 ----------------------------------------------------------------------
 Structure from the checkpoint file:  "05_31TS.chk"
 -----
 title
 -----
 Charge =  1 Multiplicity = 1

                          Input orientation:
 ---------------------------------------------------------------------
 Center     Atomic      Atomic             Coordinates (Angstroms)
 Number     Number       Type             X           Y           Z
 ---------------------------------------------------------------------
      1          6           0       -1.311997   -0.251047   -0.887417
      2          6           0       -1.780696   -1.117702    1.576842
      3          6           0       -3.237657   -1.324383    1.143524
      4          6           0       -3.678605   -0.367264    0.051566
      5          6           0       -2.785659   -0.555813   -1.169604
      6          1           0       -3.353812   -2.353665    0.787683
      7          1           0       -3.866658   -1.213440    2.029208
      8          1           0       -3.599016    0.665333    0.394581
      9          1           0       -2.882782   -1.586849   -1.523446
     10          1           0       -3.120177    0.104997   -1.969349
     11          7           0       -0.926442   -0.970557    0.361842
     12          8           0        0.302591   -1.265431    0.506133
     13          6           0       -0.443967   -0.779014   -2.026687
     14          1           0       -0.813307   -0.360659   -2.963287
     15          1           0        0.599170   -0.486626   -1.914004
     16          1           0       -0.499336   -1.866544   -2.091540
     17          6           0       -1.082519    1.261371   -0.728990
     18          1           0       -0.046598    1.475465   -0.472081
     19          1           0       -1.299215    1.738839   -1.685172
     20          1           0       -1.732971    1.715796    0.014361
     21          6           0       -1.301234   -2.344677    2.350356
     22          1           0       -0.310163   -2.200051    2.777313
     23          1           0       -1.998857   -2.534855    3.166691
     24          1           0       -1.274745   -3.225584    1.708082
     25          6           0       -1.630648    0.136024    2.454231
     26          1           0       -2.122326   -0.046707    3.410471
     27          1           0       -0.580703    0.345555    2.662885
     28          1           0       -2.077969    1.020725    2.006918
     29          6           0        2.145280    0.104021    1.499821
     30          1           0        1.794386    0.162285    2.529011
     31          1           0        1.005349   -0.414412    0.963008
     32          6           0        2.237249    1.395472    0.817611
     33          6           0        2.713668    1.596391   -0.487265
     34          6           0        1.726305    2.490222    1.532525
     35          6           0        2.707575    2.866110   -1.033179
     36          1           0        3.080230    0.770093   -1.076240
     37          6           0        1.724008    3.756451    0.977486
     38          1           0        1.348905    2.345698    2.538257
     39          6           0        2.217506    3.946546   -0.306608
     40          1           0        3.083337    3.015913   -2.037234
     41          1           0        1.342521    4.594899    1.545764
     42          8           0        2.993689   -0.925117    1.403819
     43          1           0        2.216638    4.936607   -0.745248
     44          6           0        3.794352   -1.144436    0.272436
     45          6           0        3.284073   -1.880309   -0.780795
     46          6           0        5.090328   -0.667050    0.286988
     47          6           0        4.100430   -2.110425   -1.879931
     48          1           0        2.272221   -2.260160   -0.733284
     49          6           0        5.894811   -0.907377   -0.818412
     50          1           0        5.455610   -0.116695    1.144282
     51          6           0        5.399971   -1.620494   -1.902419
     52          1           0        3.721692   -2.684102   -2.716419
     53          1           0        6.912942   -0.539711   -0.827914
     54          1           0        6.032822   -1.806993   -2.760564
     55          7           0       -5.075795   -0.565191   -0.272606
     56          6           0       -5.781388    0.431601   -0.886485
     57          6           0       -7.223685    0.136845   -1.200640
     58          1           0       -7.541781   -0.858539   -0.890000
     59          1           0       -7.845770    0.882694   -0.705263
     60          1           0       -7.376878    0.244910   -2.274709
     61          8           0       -5.254226    1.495556   -1.151805
     62          1           0       -5.508529   -1.460422   -0.112310
 ---------------------------------------------------------------------

 SCF Done:  E(RHF) =  -1261.31979502     A.U. after    3 cycles
 E2 =    -0.4397255128D+01 EUMP2 =    -0.12657170501503D+04

 Alpha  occ. eigenvalues --  -20.81868 -20.75746 -20.60882 -15.80678 -15.68078
 Alpha  occ. eigenvalues --  -11.50056 -11.43983 -11.41797 -11.41383 -11.40614
 Alpha  occ. eigenvalues --  -11.39095 -11.38230 -11.37604 -11.37581 -11.37339
 Alpha  occ. eigenvalues --  -11.36309 -11.36243 -11.35114 -11.35038 -11.35028
 Alpha  occ. eigenvalues --  -11.34951 -11.34819 -11.34789 -11.34286 -11.33813
 Alpha  occ. eigenvalues --  -11.33595 -11.33523 -11.33361 -11.31690  -1.64699
 Alpha  occ. eigenvalues --   -1.58231  -1.47262  -1.33690  -1.30438  -1.29799
 Alpha  occ. eigenvalues --   -1.27225  -1.22983  -1.19610  -1.16188  -1.15246
 Alpha  occ. eigenvalues --   -1.13946  -1.13472  -1.11657  -1.07680  -1.06835
 Alpha  occ. eigenvalues --   -1.05832  -1.05437  -1.05065  -0.97076  -0.96442
 Alpha  occ. eigenvalues --   -0.95932  -0.95080  -0.94694  -0.91903  -0.90005
 Alpha  occ. eigenvalues --   -0.88398  -0.85746  -0.83139  -0.81861  -0.81035
 Alpha  occ. eigenvalues --   -0.80822  -0.80650  -0.78963  -0.77934  -0.77227
 Alpha  occ. eigenvalues --   -0.75914  -0.75245  -0.74460  -0.73399  -0.72373
 Alpha  occ. eigenvalues --   -0.72256  -0.71925  -0.71159  -0.70754  -0.70375
 Alpha  occ. eigenvalues --   -0.69815  -0.69414  -0.68571  -0.68291  -0.68223
 Alpha  occ. eigenvalues --   -0.67366  -0.66265  -0.65564  -0.64891  -0.64387
 Alpha  occ. eigenvalues --   -0.63995  -0.63765  -0.63339  -0.63000  -0.62740
 Alpha  occ. eigenvalues --   -0.62207  -0.61844  -0.60860  -0.60367  -0.60043
 Alpha  occ. eigenvalues --   -0.59755  -0.59665  -0.58755  -0.57375  -0.56777
 Alpha  occ. eigenvalues --   -0.50730  -0.50426  -0.48000  -0.46930  -0.44860
 Alpha  occ. eigenvalues --   -0.44449  -0.43281
 Alpha virt. eigenvalues --   -0.14631  -0.05164  -0.04435  -0.04210  -0.03656
 Alpha virt. eigenvalues --   -0.03100  -0.02967  -0.02731  -0.02487  -0.01802
 Alpha virt. eigenvalues --   -0.01614  -0.01378  -0.01238  -0.01136  -0.00969

 Mulliken charges:
               1
     1  C   -2.998955
     2  C   -3.940883
     3  C    1.836924
     4  C   -0.125020
     5  C    1.413499
     6  H   -0.084033
     7  H   -0.124850
     8  H   -0.366975
     9  H   -0.036950
    10  H   -0.171005
    11  N   -0.157184
    12  O   -0.975327
    13  C    1.732847
    14  H   -0.037919
    15  H    0.000775
    16  H   -0.052009
    17  C    1.556958
    18  H   -0.490649
    19  H   -0.013956
    20  H   -0.052490
    21  C    1.752460
    22  H    0.057991
    23  H    0.002029
    24  H   -0.035597
    25  C    1.604471
    26  H   -0.044695
    27  H   -0.281105
    28  H    0.014503
    29  C    1.430429
    30  H   -0.472059
    31  H    0.382673
    32  C    0.283956
    33  C    1.600296
    34  C    0.609522
    35  C    0.111528
    36  H   -0.688564
    37  C    0.255964
    38  H   -0.822034
    39  C    0.708287
    40  H   -0.626395
    41  H   -0.526897
    42  O   -1.357298
    43  H   -0.476957
    44  C   -0.133868
    45  C    1.471422
    46  C    0.955732
    47  C    0.242909
    48  H   -0.514362
    49  C    0.378607
    50  H   -0.630029
    51  C    0.737996
    52  H   -0.555989
    53  H   -0.472624
    54  H   -0.465931
    55  N   -0.191005
    56  C    0.327504
    57  C    0.493905
    58  H   -0.178072
    59  H    0.056344
    60  H    0.056921
    61  O   -0.867404
    62  H   -0.107358
 Sum of Mulliken charges =   1.00000

 Dipole moment (field-independent basis, Debye):
    X=              1.5647    Y=             -0.7929    Z=              1.6633  Tot=              2.4173
 Unable to Open any file for archive entry.
 1\1\GINC-SE397\SP\RMP2-FC\Aug-CC-pVDZ\C24H33N2O3\OHZDE\21-Sep-2024\0\\
 #t symm=none mp2 aug-cc-pvdz geom=allcheck guess=(read,tcheck) int=(gr
 id=ultrafine)\\title\\1,1\C,0,-1.311997,-0.251047,-0.887417\C,0,-1.780
 696,-1.117702,1.576842\C,0,-3.237657,-1.324383,1.143524\C,0,-3.678605,
 -0.367264,0.051566\C,0,-2.785659,-0.555813,-1.169604\H,0,-3.353812,-2.
 353665,0.787683\H,0,-3.866658,-1.21344,2.029208\H,0,-3.599016,0.665333
 ,0.394581\H,0,-2.882782,-1.586849,-1.523446\H,0,-3.120177,0.104997,-1.
 969349\N,0,-0.926442,-0.970557,0.361842\O,0,0.302591,-1.265431,0.50613
 3\C,0,-0.443967,-0.779014,-2.026687\H,0,-0.813307,-0.360659,-2.963287\

 Normal termination of Gaussian 16 at Sat Sep 21 06:04:59 2024.
