 Gaussian 16, Revision C.01,

 ----------------------------------------------------------------------
 #t hf aug-cc-pvdz symm=none int=(grid=ultrafine) guess=(read,tcheck) s
 table=(opt,rrhf)
 ----------------------------------------------------------------------
 -----
 title
 -----
 Symbolic Z-matrix:
 Charge = -1 Multiplicity = 1

 SCF Done:  E(RHF) =  -1052.90609619     A.U. after   15 cycles
 Normal termination of Gaussian 16 at Fri Sep 20 11:14:12 2024.
 Gaussian 16:  ES64L-G16RevC.01  3-Jul-2019

 ----------------------------------------------------------------------
 #t symm=none mp2 aug-cc-pvdz geom=allcheck guess=(read,tcheck) int=(gr
 id=ultrafine)
 ----------------------------------------------------------------------
 Structure from the checkpoint file:  "02_13P.chk"
 -----
 title
 -----
 Charge = -1 Multiplicity = 1

                          Input orientation:
 ---------------------------------------------------------------------
 Center     Atomic      Atomic             Coordinates (Angstroms)
 Number     Number       Type             X           Y           Z
 ---------------------------------------------------------------------
      1          6           0        4.639485   -1.711255   -0.278448
      2          6           0        3.138557   -1.489059   -0.465383
      3          1           0        2.578319   -2.285959    0.020528
      4          1           0        2.890397   -1.518068   -1.534928
      5          1           0        4.940395   -2.666287   -0.721301
      6          1           0        4.850103   -1.786201    0.795253
      7          6           0        2.704981   -0.138062    0.107249
      8          6           0        1.208083    0.144211   -0.028402
      9          6           0        3.504908    0.976759   -0.581238
     10          6           0        3.027163    2.339496   -0.174120
     11          6           0        1.833184    2.557307    0.361781
     12          6           0        0.817719    1.485893    0.644259
     13          6           0        0.583987    1.387893    2.158520
     14          1           0        1.467047    0.999111    2.670000
     15          1           0       -0.250684    0.725494    2.389576
     16          1           0        0.362551    2.377662    2.569849
     17          6           0        0.326170   -0.968614    0.547868
     18          6           0       -1.025622   -1.052265    0.055185
     19          8           0        0.785052   -1.694841    1.424493
     20          6           0       -2.054894   -1.924840    0.619494
     21          6           0       -1.599034   -0.306406   -1.007331
     22          8           0       -1.146583    0.571525   -1.752442
     23          8           0       -2.053023   -2.639507    1.607851
     24          6           0       -3.071809   -0.728510   -1.144061
     25          1           0       -3.221433   -1.081952   -2.171653
     26          6           0       -4.015446    0.461545   -0.908230
     27          6           0       -3.840333    1.067100    0.487992
     28          1           0       -4.148305    0.336962    1.243653
     29          1           0       -2.776480    1.244807    0.659025
     30          6           0       -4.598659    2.374634    0.696531
     31          1           0       -4.317737    3.112462   -0.060907
     32          1           0       -4.372178    2.803202    1.675966
     33          1           0       -5.681720    2.238076    0.642789
     34          7           0       -3.186942   -1.811200   -0.195659
     35          1           0       -4.065914   -2.074977    0.219977
     36          6           0       -5.465137    0.070600   -1.195126
     37          1           0       -6.134270    0.933124   -1.161815
     38          1           0       -5.833096   -0.655387   -0.462077
     39          1           0       -5.556076   -0.381666   -2.186216
     40          1           0       -3.703432    1.212706   -1.642717
     41          6           0        5.005694    0.785945   -0.351373
     42          1           0        5.565460    1.591929   -0.839766
     43          1           0        5.213194    0.863475    0.723039
     44          6           0        5.469618   -0.573205   -0.872320
     45          1           0        6.533300   -0.722089   -0.657753
     46          1           0        5.364977   -0.585942   -1.964443
     47          1           0        3.700627    3.176166   -0.351702
     48          1           0        1.550239    3.571152    0.638555
     49          1           0       -0.123008    1.796515    0.179573
     50          1           0        0.963036    0.258634   -1.087264
     51          1           0        2.963788   -0.133860    1.173146
     52          1           0        3.334241    0.876915   -1.665070
 ---------------------------------------------------------------------

 SCF Done:  E(RHF) =  -1052.90609619     A.U. after    2 cycles
 E2 =    -0.3638457662D+01 EUMP2 =    -0.10565445538505D+04

 Alpha  occ. eigenvalues --  -20.38508 -20.38100 -20.37446 -15.44097 -11.20405
 Alpha  occ. eigenvalues --  -11.18319 -11.17877 -11.14592 -11.13256 -11.13177
 Alpha  occ. eigenvalues --  -11.13147 -11.13005 -11.12956 -11.12451 -11.12420
 Alpha  occ. eigenvalues --  -11.12328 -11.12204 -11.12171 -11.11770 -11.10845
 Alpha  occ. eigenvalues --  -11.10365 -11.10362 -11.09753 -11.05955  -1.23571
 Alpha  occ. eigenvalues --   -1.21872  -1.21728  -1.10869  -1.04324  -0.98915
 Alpha  occ. eigenvalues --   -0.98739  -0.93602  -0.90956  -0.90484  -0.89799
 Alpha  occ. eigenvalues --   -0.87587  -0.83445  -0.81666  -0.76825  -0.74395
 Alpha  occ. eigenvalues --   -0.72960  -0.71498  -0.67907  -0.66856  -0.65859
 Alpha  occ. eigenvalues --   -0.62201  -0.59533  -0.57270  -0.55252  -0.54098
 Alpha  occ. eigenvalues --   -0.53530  -0.53276  -0.52276  -0.51731  -0.51121
 Alpha  occ. eigenvalues --   -0.49839  -0.48686  -0.48209  -0.47658  -0.47498
 Alpha  occ. eigenvalues --   -0.46496  -0.46286  -0.45330  -0.44714  -0.43586
 Alpha  occ. eigenvalues --   -0.42348  -0.42063  -0.41912  -0.41118  -0.40982
 Alpha  occ. eigenvalues --   -0.40589  -0.39829  -0.38737  -0.37954  -0.37600
 Alpha  occ. eigenvalues --   -0.37360  -0.36585  -0.36511  -0.36234  -0.35441
 Alpha  occ. eigenvalues --   -0.34272  -0.33597  -0.31637  -0.30406  -0.29064
 Alpha  occ. eigenvalues --   -0.25708  -0.24593  -0.23971  -0.23702  -0.17410
 Alpha virt. eigenvalues --    0.09847   0.09959   0.10631   0.11051   0.11558
 Alpha virt. eigenvalues --    0.11643   0.12181   0.12338   0.12845   0.13039
 Alpha virt. eigenvalues --    0.13610   0.13999   0.14226   0.14540   0.14739

 Mulliken charges:
               1
     1  C    0.464998
     2  C    0.840165
     3  H   -0.213318
     4  H   -0.164674
     5  H   -0.130248
     6  H   -0.120085
     7  C   -0.644719
     8  C    0.391578
     9  C    0.383041
    10  C    0.926415
    11  C    0.343023
    12  C   -0.603925
    13  C    0.699487
    14  H   -0.051642
    15  H   -0.114282
    16  H   -0.173343
    17  C    0.795613
    18  C    0.425528
    19  O   -1.113853
    20  C    0.822747
    21  C    0.505663
    22  O   -1.188881
    23  O   -1.024174
    24  C    0.822453
    25  H   -0.303376
    26  C   -1.058141
    27  C    0.666395
    28  H   -0.187716
    29  H   -0.343074
    30  C    0.733846
    31  H   -0.060224
    32  H   -0.081378
    33  H   -0.120016
    34  N   -0.590781
    35  H   -0.129225
    36  C    0.965111
    37  H   -0.085119
    38  H   -0.085267
    39  H   -0.073923
    40  H   -0.337445
    41  C    0.669907
    42  H   -0.242642
    43  H   -0.107586
    44  C    0.466123
    45  H   -0.170217
    46  H   -0.119306
    47  H   -0.640835
    48  H   -0.563282
    49  H   -0.250926
    50  H   -0.232872
    51  H   -0.389392
    52  H   -0.206207
 Sum of Mulliken charges =  -1.00000

 Dipole moment (field-independent basis, Debye):
    X=              1.1195    Y=              5.3859    Z=             -2.5735  Tot=              6.0733
 Unable to Open any file for archive entry.
 1\1\GINC-SE136\SP\RMP2-FC\Aug-CC-pVDZ\C20H28N1O3\OHZDE\20-Sep-2024\0\\
 #t symm=none mp2 aug-cc-pvdz geom=allcheck guess=(read,tcheck) int=(gr
 id=ultrafine)\\title\\-1,1\C,0,4.639485,-1.711255,-0.278448\C,0,3.1385
 57,-1.489059,-0.465383\H,0,2.578319,-2.285959,0.020528\H,0,2.890397,-1
 .518068,-1.534928\H,0,4.940395,-2.666287,-0.721301\H,0,4.850103,-1.786
 201,0.795253\C,0,2.704981,-0.138062,0.107249\C,0,1.208083,0.144211,-0.
 028402\C,0,3.504908,0.976759,-0.581238\C,0,3.027163,2.339496,-0.17412\
 C,0,1.833184,2.557307,0.361781\C,0,0.817719,1.485893,0.644259\C,0,0.58
 3987,1.387893,2.15852\H,0,1.467047,0.999111,2.67\H,0,-0.250684,0.72549

 Normal termination of Gaussian 16 at Fri Sep 20 14:07:49 2024.
