 Gaussian 16, Revision C.01,

 ----------------------------------------------------------------------
 #t hf aug-cc-pvdz symm=none int=(grid=ultrafine) guess=(read,tcheck) s
 table=(opt,rrhf)
 ----------------------------------------------------------------------
 -----
 title
 -----
 Symbolic Z-matrix:
 Charge =  0 Multiplicity = 1

 SCF Done:  E(RHF) =  -1112.22099784     A.U. after   15 cycles
 Normal termination of Gaussian 16 at Fri Sep 20 10:36:34 2024.
 Gaussian 16:  ES64L-G16RevC.01  3-Jul-2019

 ----------------------------------------------------------------------
 #t symm=none mp2 aug-cc-pvdz geom=allcheck guess=(read,tcheck) int=(gr
 id=ultrafine)
 ----------------------------------------------------------------------
 Structure from the checkpoint file:  "02_120P.chk"
 -----
 title
 -----
 Charge =  0 Multiplicity = 1

                          Input orientation:
 ---------------------------------------------------------------------
 Center     Atomic      Atomic             Coordinates (Angstroms)
 Number     Number       Type             X           Y           Z
 ---------------------------------------------------------------------
      1          6           0       -3.061080   -1.319760   -0.635470
      2          6           0       -4.366533   -1.678086    0.074902
      3          6           0       -5.149506   -0.450467    0.522385
      4          6           0       -4.286503    0.503363    1.344282
      5          6           0       -3.007237    0.883901    0.605547
      6          6           0       -2.212322   -0.388174    0.238285
      7          1           0       -4.990263   -2.285525   -0.584126
      8          1           0       -4.135778   -2.280876    0.957927
      9          1           0       -2.491971   -2.236992   -0.811130
     10          1           0       -4.864146    1.400509    1.594431
     11          1           0       -4.037999    0.018579    2.295320
     12          1           0       -6.016192   -0.767957    1.112140
     13          8           0       -5.617940    0.186616   -0.677995
     14          1           0       -6.108625    0.982033   -0.453569
     15          8           0       -3.291686   -0.763309   -1.922681
     16          1           0       -4.100305   -0.236726   -1.880730
     17          6           0       -0.836425   -0.104865   -0.402248
     18          6           0       -2.122216    1.837864    1.354491
     19          1           0       -2.463718    2.276823    2.286607
     20          6           0        0.325537   -0.831817    0.251561
     21          6           0        0.381317   -0.907549    1.753534
     22          1           0       -0.431522   -1.514174    2.159586
     23          1           0        0.276555    0.084298    2.201663
     24          1           0        1.312407   -1.346433    2.106747
     25          6           0        1.344402   -1.220681   -0.516665
     26          6           0        1.895920    1.667624   -0.314715
     27          6           0        2.711174   -1.691340   -0.078316
     28          1           0        1.232411   -1.098152   -1.591618
     29          1           0        1.856478    1.557265    0.761337
     30          6           0        3.569233   -0.522044    0.460904
     31          1           0        2.599208   -2.371047    0.772524
     32          1           0        2.991713    0.003160    1.222747
     33          6           0       -0.927257    2.111235    0.843404
     34          1           0       -0.231085    2.790558    1.322253
     35          6           0        3.405146   -2.448753   -1.209861
     36          1           0        2.758958   -3.248021   -1.577181
     37          1           0        3.624140   -1.777560   -2.042572
     38          1           0        4.343136   -2.900084   -0.885413
     39          6           0        4.881095   -0.968410    1.087351
     40          1           0        4.662436   -1.774882    1.794135
     41          1           0        5.519971   -1.388670    0.308029
     42          6           0        5.609093    0.167884    1.794385
     43          1           0        4.998682    0.588672    2.598687
     44          1           0        6.544373   -0.180672    2.235980
     45          1           0        5.845393    0.969313    1.093319
     46          8           0        3.940852    0.409505   -0.579149
     47          6           0        3.185883    1.450767   -1.009511
     48          8           0        3.565423    2.081763   -1.956612
     49          6           0        0.777799    1.737093   -1.025868
     50          1           0        0.865378    1.781964   -2.107522
     51          6           0       -0.580696    1.471274   -0.471173
     52          1           0       -3.297347    1.368944   -0.335409
     53          1           0       -2.055948   -0.916896    1.181848
     54          1           0       -0.882666   -0.424902   -1.444073
     55          1           0       -1.317800    1.816493   -1.203670
 ---------------------------------------------------------------------

 SCF Done:  E(RHF) =  -1112.22099784     A.U. after    2 cycles
 E2 =    -0.3814180487D+01 EUMP2 =    -0.11160351783277D+04

 Alpha  occ. eigenvalues --  -20.59452 -20.58972 -20.55262 -20.53476 -11.37892
 Alpha  occ. eigenvalues --  -11.30353 -11.30018 -11.28372 -11.25327 -11.25067
 Alpha  occ. eigenvalues --  -11.24469 -11.24436 -11.24380 -11.24244 -11.24151
 Alpha  occ. eigenvalues --  -11.23899 -11.23810 -11.23660 -11.23636 -11.23536
 Alpha  occ. eigenvalues --  -11.23221 -11.23181 -11.22550 -11.22102 -11.21964
 Alpha  occ. eigenvalues --   -1.44560  -1.38954  -1.35437  -1.35158  -1.16898
 Alpha  occ. eigenvalues --   -1.12396  -1.11067  -1.07873  -1.07009  -1.04247
 Alpha  occ. eigenvalues --   -1.01727  -1.00825  -0.97858  -0.94421  -0.93641
 Alpha  occ. eigenvalues --   -0.89204  -0.86440  -0.85589  -0.83319  -0.82104
 Alpha  occ. eigenvalues --   -0.79932  -0.78044  -0.74059  -0.73818  -0.72282
 Alpha  occ. eigenvalues --   -0.71160  -0.70071  -0.68098  -0.66754  -0.65967
 Alpha  occ. eigenvalues --   -0.65231  -0.64961  -0.64369  -0.62205  -0.61794
 Alpha  occ. eigenvalues --   -0.61036  -0.60885  -0.60281  -0.59083  -0.58409
 Alpha  occ. eigenvalues --   -0.58225  -0.57001  -0.56536  -0.55863  -0.55182
 Alpha  occ. eigenvalues --   -0.54052  -0.53982  -0.53384  -0.52775  -0.52417
 Alpha  occ. eigenvalues --   -0.51923  -0.51103  -0.50538  -0.50264  -0.49523
 Alpha  occ. eigenvalues --   -0.49192  -0.49063  -0.48497  -0.47587  -0.46716
 Alpha  occ. eigenvalues --   -0.45873  -0.44828  -0.43876  -0.43195  -0.42553
 Alpha  occ. eigenvalues --   -0.41758  -0.37819  -0.35169  -0.32507
 Alpha virt. eigenvalues --    0.02092   0.02812   0.03293   0.03685   0.04137
 Alpha virt. eigenvalues --    0.04444   0.04695   0.05269   0.05517   0.05741
 Alpha virt. eigenvalues --    0.05830   0.06138   0.07086   0.07116   0.07416

 Mulliken charges:
               1
     1  C    0.870608
     2  C    0.619297
     3  C    1.073746
     4  C    0.775341
     5  C   -0.375993
     6  C    0.106858
     7  H   -0.117517
     8  H   -0.026082
     9  H   -0.359343
    10  H   -0.240477
    11  H   -0.054547
    12  H   -0.231903
    13  O   -0.917547
    14  H    0.177066
    15  O   -0.965014
    16  H    0.231281
    17  C    0.432154
    18  C    0.968919
    19  H   -0.646640
    20  C   -1.042059
    21  C    1.108808
    22  H   -0.009873
    23  H    0.097030
    24  H   -0.334016
    25  C    0.051931
    26  C    1.031931
    27  C   -0.670356
    28  H   -0.780688
    29  H   -0.548357
    30  C    0.548446
    31  H   -0.272002
    32  H   -0.462240
    33  C    0.796123
    34  H   -0.511593
    35  C    1.232722
    36  H   -0.085101
    37  H    0.012649
    38  H   -0.099595
    39  C    0.419022
    40  H   -0.096947
    41  H   -0.138621
    42  C    0.738552
    43  H   -0.062142
    44  H   -0.120205
    45  H    0.002469
    46  O   -1.145659
    47  C    0.957518
    48  O   -0.916397
    49  C    1.203125
    50  H   -0.622701
    51  C   -0.299002
    52  H   -0.136791
    53  H   -0.526534
    54  H   -0.386556
    55  H   -0.253097
 Sum of Mulliken charges =  -0.00000

 Dipole moment (field-independent basis, Debye):
    X=             -4.9850    Y=             -2.0154    Z=              6.2454  Tot=              8.2412
 Unable to Open any file for archive entry.
 1\1\GINC-SE183\SP\RMP2-FC\Aug-CC-pVDZ\C21H30O4\OHZDE\20-Sep-2024\0\\#t
  symm=none mp2 aug-cc-pvdz geom=allcheck guess=(read,tcheck) int=(grid
 =ultrafine)\\title\\0,1\C,0,-3.06108,-1.31976,-0.63547\C,0,-4.366533,-
 1.678086,0.074902\C,0,-5.149506,-0.450467,0.522385\C,0,-4.286503,0.503
 363,1.344282\C,0,-3.007237,0.883901,0.605547\C,0,-2.212322,-0.388174,0
 .238285\H,0,-4.990263,-2.285525,-0.584126\H,0,-4.135778,-2.280876,0.95
 7927\H,0,-2.491971,-2.236992,-0.81113\H,0,-4.864146,1.400509,1.594431\
 H,0,-4.037999,0.018579,2.29532\H,0,-6.016192,-0.767957,1.11214\O,0,-5.
 61794,0.186616,-0.677995\H,0,-6.108625,0.982033,-0.453569\O,0,-3.29168

 Normal termination of Gaussian 16 at Fri Sep 20 13:24:36 2024.
