 Gaussian 16, Revision C.01,

 ----------------------------------------------------------------------
 #t hf aug-cc-pvdz symm=none int=(grid=ultrafine) guess=(read,tcheck) s
 table=(opt,rrhf)
 ----------------------------------------------------------------------
 -----
 title
 -----
 Symbolic Z-matrix:
 Charge =  0 Multiplicity = 1

 SCF Done:  E(RHF) =  -904.395178348     A.U. after   17 cycles
 Normal termination of Gaussian 16 at Fri Sep 20 13:47:23 2024.
 Gaussian 16:  ES64L-G16RevC.01  3-Jul-2019

 ----------------------------------------------------------------------
 #t symm=none mp2 aug-cc-pvdz geom=allcheck guess=(read,tcheck) int=(gr
 id=ultrafine)
 ----------------------------------------------------------------------
 Structure from the checkpoint file:  "02_95TS.chk"
 -----
 title
 -----
 Charge =  0 Multiplicity = 1

                          Input orientation:
 ---------------------------------------------------------------------
 Center     Atomic      Atomic             Coordinates (Angstroms)
 Number     Number       Type             X           Y           Z
 ---------------------------------------------------------------------
      1          6           0        0.026652   -2.396407    0.057016
      2          1           0       -0.008158   -3.377518    0.533356
      3          1           0        0.184947   -2.567838   -1.028576
      4          6           0        1.195562   -1.603886    0.594284
      5          6           0       -0.201458    0.432629    0.568515
      6          1           0       -0.578765    0.505625    1.592933
      7          1           0       -0.177157    1.433637    0.164263
      8          6           0       -1.214143   -0.382602   -0.240105
      9          1           0       -0.865368   -0.406740   -1.292780
     10          7           0       -1.241550   -1.737491    0.289287
     11          6           0        2.347186    0.524060    0.236949
     12          6           0        2.354108   -2.263847    0.955767
     13          1           0        2.903366   -1.846609    1.783596
     14          1           0        2.412526   -3.345252    0.870880
     15          6           0        3.433252   -0.117136   -0.394276
     16          1           0        3.802655    0.426810   -1.264018
     17          6           0        3.968223   -1.390595   -0.239430
     18          6           0        1.175906   -0.205069    0.556837
     19          6           0        4.627098   -2.070459   -1.413660
     20          1           0        4.455828   -3.148517   -1.377206
     21          1           0        4.233085   -1.705750   -2.363601
     22          1           0        5.711900   -1.919835   -1.406306
     23          1           0        4.413955   -1.652455    0.703865
     24          6           0       -2.587305    0.266417   -0.237601
     25          6           0       -2.361257   -2.516005   -0.201077
     26          1           0       -2.234974   -3.548408    0.131558
     27          1           0       -2.391317   -2.529498   -1.306450
     28          6           0       -3.648577   -1.936919    0.352035
     29          1           0       -3.670971   -2.099769    1.433802
     30          6           0       -3.739452   -0.463774    0.054832
     31          1           0       -4.512724   -2.453457   -0.073753
     32          6           0       -4.977895    0.175366    0.041878
     33          1           0       -5.867793   -0.401858    0.270273
     34          6           0       -2.713534    1.615022   -0.572287
     35          1           0       -1.833231    2.188761   -0.835823
     36          6           0       -5.089840    1.519306   -0.266976
     37          1           0       -6.061433    1.998455   -0.273099
     38          6           0       -3.947402    2.242047   -0.585626
     39          1           0       -4.018082    3.290924   -0.847297
     40          6           0        2.394541    2.075321    0.205154
     41          6           0        1.773094    2.646449   -1.081010
     42          1           0        0.718835    2.398961   -1.196670
     43          1           0        2.295689    2.260789   -1.959459
     44          1           0        1.862946    3.736214   -1.091390
     45          6           0        3.857864    2.559754    0.252231
     46          1           0        4.420765    2.291921   -0.641523
     47          1           0        4.380717    2.143681    1.115419
     48          1           0        3.877001    3.649153    0.334989
     49          6           0        1.738579    2.676231    1.461659
     50          1           0        0.666046    2.520413    1.525713
     51          1           0        1.913809    3.754845    1.480712
     52          1           0        2.189532    2.250335    2.360931
 ---------------------------------------------------------------------

 SCF Done:  E(RHF) =  -904.395178344     A.U. after    3 cycles
 E2 =    -0.3343389109D+01 EUMP2 =    -0.90773856745319D+03

 Alpha  occ. eigenvalues --  -15.55076 -11.26208 -11.25274 -11.25190 -11.24558
 Alpha  occ. eigenvalues --  -11.24445 -11.24230 -11.23789 -11.23667 -11.23317
 Alpha  occ. eigenvalues --  -11.23298 -11.23247 -11.23140 -11.23037 -11.22860
 Alpha  occ. eigenvalues --  -11.22724 -11.22470 -11.22440 -11.22140 -11.22038
 Alpha  occ. eigenvalues --  -11.21892 -11.21292 -11.21255  -1.25385  -1.15738
 Alpha  occ. eigenvalues --   -1.14300  -1.09264  -1.07133  -1.05608  -1.04832
 Alpha  occ. eigenvalues --   -1.00480  -0.99401  -0.96752  -0.93459  -0.92979
 Alpha  occ. eigenvalues --   -0.92143  -0.88922  -0.85833  -0.83817  -0.82782
 Alpha  occ. eigenvalues --   -0.80658  -0.76996  -0.75174  -0.73815  -0.69296
 Alpha  occ. eigenvalues --   -0.66577  -0.66231  -0.65499  -0.63929  -0.63596
 Alpha  occ. eigenvalues --   -0.62049  -0.61092  -0.60641  -0.59960  -0.59294
 Alpha  occ. eigenvalues --   -0.58705  -0.57905  -0.57004  -0.56348  -0.55987
 Alpha  occ. eigenvalues --   -0.55282  -0.54440  -0.53987  -0.53269  -0.53000
 Alpha  occ. eigenvalues --   -0.52324  -0.51705  -0.51404  -0.50889  -0.50013
 Alpha  occ. eigenvalues --   -0.49660  -0.48680  -0.47667  -0.47093  -0.46137
 Alpha  occ. eigenvalues --   -0.45509  -0.44266  -0.43710  -0.41508  -0.35738
 Alpha  occ. eigenvalues --   -0.32588  -0.31874  -0.29486  -0.27434
 Alpha virt. eigenvalues --    0.03098   0.03491   0.03614   0.04080   0.04373
 Alpha virt. eigenvalues --    0.04545   0.05362   0.05411   0.05464   0.05605
 Alpha virt. eigenvalues --    0.05888   0.06857   0.07062   0.07330   0.07424

 Mulliken charges:
               1
     1  C    0.326141
     2  H   -0.272999
     3  H    0.033542
     4  C   -0.577427
     5  C    0.422579
     6  H   -0.034708
     7  H   -0.413325
     8  C   -0.677244
     9  H   -0.194607
    10  N   -0.882807
    11  C   -0.465461
    12  C    1.284108
    13  H   -0.175027
    14  H   -0.593542
    15  C    1.719293
    16  H   -0.681997
    17  C   -0.415992
    18  C    0.252369
    19  C    0.624508
    20  H   -0.056675
    21  H   -0.140084
    22  H    0.013182
    23  H   -0.250395
    24  C    0.681741
    25  C    1.014819
    26  H   -0.296247
    27  H   -0.161125
    28  C    0.539673
    29  H    0.093150
    30  C   -0.399237
    31  H   -0.037116
    32  C    0.821201
    33  H   -0.654952
    34  C    1.354957
    35  H   -0.538182
    36  C    0.217458
    37  H   -0.468439
    38  C   -0.197151
    39  H   -0.594979
    40  C   -3.738405
    41  C    1.380281
    42  H   -0.527524
    43  H   -0.030514
    44  H   -0.070882
    45  C    1.802496
    46  H    0.027085
    47  H    0.011909
    48  H   -0.072475
    49  C    1.413719
    50  H   -0.251070
    51  H   -0.092993
    52  H   -0.070633
 Sum of Mulliken charges =  -0.00000

 Dipole moment (field-independent basis, Debye):
    X=              0.6790    Y=             -0.7357    Z=             -0.7936  Tot=              1.2775
 Unable to Open any file for archive entry.
 1\1\GINC-SE270\SP\RMP2-FC\Aug-CC-pVDZ\C22H29N1\OHZDE\20-Sep-2024\0\\#t
  symm=none mp2 aug-cc-pvdz geom=allcheck guess=(read,tcheck) int=(grid
 =ultrafine)\\title\\0,1\C,0,0.026652,-2.396407,0.057016\H,0,-0.008158,
 -3.377518,0.533356\H,0,0.184947,-2.567838,-1.028576\C,0,1.195562,-1.60
 3886,0.594284\C,0,-0.201458,0.432629,0.568515\H,0,-0.578765,0.505625,1
 .592933\H,0,-0.177157,1.433637,0.164263\C,0,-1.214143,-0.382602,-0.240
 105\H,0,-0.865368,-0.40674,-1.29278\N,0,-1.24155,-1.737491,0.289287\C,
 0,2.347186,0.52406,0.236949\C,0,2.354108,-2.263847,0.955767\H,0,2.9033
 66,-1.846609,1.783596\H,0,2.412526,-3.345252,0.87088\C,0,3.433252,-0.1

 Normal termination of Gaussian 16 at Fri Sep 20 15:34:09 2024.
