 Gaussian 16, Revision C.01,

 ----------------------------------------------------------------------
 #t hf aug-cc-pvdz symm=none int=(grid=ultrafine) guess=(read,tcheck) s
 table=(opt,rrhf)
 ----------------------------------------------------------------------
 -----
 title
 -----
 Symbolic Z-matrix:
 Charge =  1 Multiplicity = 1

 SCF Done:  E(RHF) =  -1226.92381131     A.U. after   19 cycles
 Normal termination of Gaussian 16 at Sat Sep 21 00:38:39 2024.
 Gaussian 16:  ES64L-G16RevC.01  3-Jul-2019

 ----------------------------------------------------------------------
 #t symm=none mp2 aug-cc-pvdz geom=allcheck guess=(read,tcheck) int=(gr
 id=ultrafine)
 ----------------------------------------------------------------------
 Structure from the checkpoint file:  "05_41TS.chk"
 -----
 title
 -----
 Charge =  1 Multiplicity = 1

                          Input orientation:
 ---------------------------------------------------------------------
 Center     Atomic      Atomic             Coordinates (Angstroms)
 Number     Number       Type             X           Y           Z
 ---------------------------------------------------------------------
      1          6           0        1.260663   -2.027901   -0.717309
      2          6           0        1.190829   -0.941871    1.675253
      3          6           0        2.365146   -0.059592    1.244855
      4          6           0        3.265643   -0.689327    0.186005
      5          6           0        2.448368   -1.112866   -1.030822
      6          1           0        1.978600    0.880276    0.852445
      7          1           0        2.953957    0.172104    2.134979
      8          1           0        3.764955   -1.563396    0.609240
      9          1           0        2.084568   -0.209133   -1.519519
     10          1           0        3.092551   -1.631808   -1.743762
     11          7           0        0.498748   -1.447767    0.442032
     12          8           0       -0.745097   -1.708906    0.512727
     13          6           0        0.358593   -2.078799   -1.941522
     14          1           0        0.944077   -2.458244   -2.778830
     15          1           0       -0.493595   -2.739723   -1.797830
     16          1           0        0.009349   -1.087468   -2.216352
     17          6           0        1.694007   -3.465184   -0.385167
     18          1           0        2.504853   -3.517477    0.335775
     19          1           0        0.850977   -4.043911   -0.005569
     20          1           0        2.041620   -3.938752   -1.304404
     21          6           0        0.232697   -0.112105    2.514481
     22          1           0        0.797052    0.311946    3.345122
     23          1           0       -0.193463    0.710320    1.944639
     24          1           0       -0.560959   -0.727765    2.930548
     25          6           0        1.644605   -2.137379    2.533674
     26          1           0        2.493780   -2.671538    2.117689
     27          1           0        1.941989   -1.761410    3.513447
     28          1           0        0.825173   -2.842909    2.676412
     29          6           0       -2.632382   -0.045641   -0.013417
     30          1           0       -1.526996   -0.872335    0.060195
     31          6           0       -1.951419    1.263686    0.134131
     32          6           0       -0.717338    1.474200   -0.489704
     33          6           0       -2.525670    2.303643    0.872213
     34          6           0       -0.053385    2.684210   -0.361845
     35          1           0       -0.265093    0.687753   -1.077305
     36          6           0       -1.874700    3.520206    0.975823
     37          1           0       -3.495398    2.172395    1.334568
     38          6           0       -0.635049    3.707894    0.372184
     39          1           0        0.916815    2.811503   -0.825605
     40          1           0       -2.337660    4.329462    1.526573
     41          1           0       -0.127548    4.659690    0.467837
     42          8           0       -3.396053   -0.516986    0.981577
     43          6           0       -3.184227   -0.293943    2.378368
     44          1           0       -4.136552    0.035069    2.791955
     45          1           0       -2.420206    0.451481    2.566435
     46          1           0       -2.908148   -1.249031    2.823042
     47          6           0       -3.336309   -0.392701   -1.350325
     48          6           0       -2.600997    0.115032   -2.589221
     49          1           0       -1.640349   -0.369397   -2.740446
     50          1           0       -3.211199   -0.112799   -3.464279
     51          1           0       -2.449106    1.193746   -2.565191
     52          6           0       -3.571768   -1.902419   -1.449013
     53          1           0       -4.135220   -2.273810   -0.594289
     54          1           0       -4.140966   -2.122734   -2.353150
     55          1           0       -2.631031   -2.451195   -1.505249
     56          6           0       -4.698137    0.335790   -1.288773
     57          1           0       -5.232496    0.151464   -2.222005
     58          1           0       -5.307949   -0.028311   -0.463757
     59          1           0       -4.567992    1.415038   -1.187338
     60          7           0        4.341395    0.220718   -0.198255
     61          1           0        5.288999   -0.072389   -0.028929
     62          6           0        4.145117    1.438484   -0.773667
     63          6           0        5.387489    2.226553   -1.096076
     64          1           0        5.397539    2.435215   -2.166253
     65          1           0        5.335796    3.183896   -0.576775
     66          1           0        6.312199    1.719571   -0.821190
     67          8           0        3.028077    1.870158   -1.016813
 ---------------------------------------------------------------------

 SCF Done:  E(RHF) =  -1226.92381131     A.U. after    3 cycles
 E2 =    -0.4381622301D+01 EUMP2 =    -0.12313054336094D+04

 Alpha  occ. eigenvalues --  -20.81718 -20.73347 -20.62304 -15.80400 -15.69364
 Alpha  occ. eigenvalues --  -11.48322 -11.45596 -11.40824 -11.40746 -11.40498
 Alpha  occ. eigenvalues --  -11.38798 -11.37215 -11.36910 -11.36036 -11.35977
 Alpha  occ. eigenvalues --  -11.35160 -11.34999 -11.34216 -11.33817 -11.33768
 Alpha  occ. eigenvalues --  -11.33714 -11.33643 -11.33640 -11.33380 -11.32813
 Alpha  occ. eigenvalues --  -11.32281 -11.32180 -11.31973  -1.63759  -1.55782
 Alpha  occ. eigenvalues --   -1.48572  -1.34377  -1.30177  -1.28271  -1.23020
 Alpha  occ. eigenvalues --   -1.22666  -1.16562  -1.15701  -1.13575  -1.11729
 Alpha  occ. eigenvalues --   -1.10669  -1.08461  -1.06528  -1.05214  -1.04976
 Alpha  occ. eigenvalues --   -1.04081  -1.03815  -1.00641  -0.96910  -0.94779
 Alpha  occ. eigenvalues --   -0.94138  -0.92574  -0.90662  -0.87488  -0.86551
 Alpha  occ. eigenvalues --   -0.83144  -0.82389  -0.80903  -0.80900  -0.79361
 Alpha  occ. eigenvalues --   -0.78732  -0.78009  -0.77249  -0.75401  -0.73775
 Alpha  occ. eigenvalues --   -0.73746  -0.73041  -0.72879  -0.71459  -0.70875
 Alpha  occ. eigenvalues --   -0.70546  -0.70477  -0.70088  -0.69762  -0.69332
 Alpha  occ. eigenvalues --   -0.68644  -0.68548  -0.67972  -0.67548  -0.66685
 Alpha  occ. eigenvalues --   -0.65161  -0.64772  -0.64558  -0.64413  -0.63974
 Alpha  occ. eigenvalues --   -0.63795  -0.63522  -0.63164  -0.62523  -0.62003
 Alpha  occ. eigenvalues --   -0.61746  -0.61067  -0.60824  -0.60341  -0.59591
 Alpha  occ. eigenvalues --   -0.59324  -0.58412  -0.58309  -0.57447  -0.57184
 Alpha  occ. eigenvalues --   -0.57012  -0.56319  -0.51502  -0.49224  -0.47281
 Alpha  occ. eigenvalues --   -0.45063  -0.42860
 Alpha virt. eigenvalues --   -0.13448  -0.04954  -0.04308  -0.03924  -0.03715
 Alpha virt. eigenvalues --   -0.03009  -0.02782  -0.02636  -0.02487  -0.02193
 Alpha virt. eigenvalues --   -0.01412  -0.01239  -0.01141  -0.00979  -0.00781

 Mulliken charges:
               1
     1  C   -2.987249
     2  C   -3.366746
     3  C    1.332020
     4  C    0.264031
     5  C    1.320267
     6  H    0.003875
     7  H   -0.204898
     8  H   -0.273321
     9  H   -0.003375
    10  H   -0.160162
    11  N   -0.018313
    12  O   -1.092000
    13  C    1.973235
    14  H   -0.086468
    15  H   -0.054597
    16  H   -0.454585
    17  C    1.401039
    18  H   -0.058492
    19  H    0.025640
    20  H   -0.012871
    21  C    1.814043
    22  H   -0.111027
    23  H   -0.276811
    24  H    0.010500
    25  C    1.567021
    26  H   -0.093389
    27  H   -0.016610
    28  H    0.038589
    29  C   -0.908713
    30  H    0.660274
    31  C    2.224111
    32  C    0.864042
    33  C    0.123507
    34  C    0.317124
    35  H   -0.995720
    36  C    0.287696
    37  H   -0.757549
    38  C    0.685776
    39  H   -0.636422
    40  H   -0.550001
    41  H   -0.512775
    42  O   -1.136738
    43  C    1.524460
    44  H   -0.250398
    45  H   -0.041737
    46  H   -0.203242
    47  C   -3.503565
    48  C    1.584513
    49  H   -0.495934
    50  H   -0.026029
    51  H    0.010471
    52  C    1.414273
    53  H    0.063068
    54  H   -0.027653
    55  H   -0.354641
    56  C    1.671225
    57  H   -0.078596
    58  H   -0.005450
    59  H   -0.003326
    60  N   -0.273541
    61  H   -0.138329
    62  C    0.173971
    63  C    0.746204
    64  H    0.027325
    65  H    0.041897
    66  H   -0.156633
    67  O   -0.842292
 Sum of Mulliken charges =   1.00000

 Dipole moment (field-independent basis, Debye):
    X=              1.7170    Y=             -1.6129    Z=              2.2876  Tot=              3.2837
 Unable to Open any file for archive entry.
 1\1\GINC-SE312\SP\RMP2-FC\Aug-CC-pVDZ\C23H39N2O3\OHZDE\21-Sep-2024\0\\
 #t symm=none mp2 aug-cc-pvdz geom=allcheck guess=(read,tcheck) int=(gr
 id=ultrafine)\\title\\1,1\C,0,1.260663,-2.027901,-0.717309\C,0,1.19082
 9,-0.941871,1.675253\C,0,2.365146,-0.059592,1.244855\C,0,3.265643,-0.6
 89327,0.186005\C,0,2.448368,-1.112866,-1.030822\H,0,1.9786,0.880276,0.
 852445\H,0,2.953957,0.172104,2.134979\H,0,3.764955,-1.563396,0.60924\H
 ,0,2.084568,-0.209133,-1.519519\H,0,3.092551,-1.631808,-1.743762\N,0,0
 .498748,-1.447767,0.442032\O,0,-0.745097,-1.708906,0.512727\C,0,0.3585
 93,-2.078799,-1.941522\H,0,0.944077,-2.458244,-2.77883\H,0,-0.493595,-

 Normal termination of Gaussian 16 at Sat Sep 21 06:47:58 2024.
