 Gaussian 16, Revision C.01,

 ----------------------------------------------------------------------
 #t hf aug-cc-pvdz symm=none int=(grid=ultrafine) guess=(read,tcheck) s
 table=(opt,rrhf)
 ----------------------------------------------------------------------
 -----
 title
 -----
 Symbolic Z-matrix:
 Charge =  0 Multiplicity = 1

 SCF Done:  E(RHF) =  -1375.34811880     A.U. after   18 cycles
 Normal termination of Gaussian 16 at Fri Sep 20 13:41:46 2024.
 Gaussian 16:  ES64L-G16RevC.01  3-Jul-2019

 ----------------------------------------------------------------------
 #t symm=none mp2 aug-cc-pvdz geom=allcheck guess=(read,tcheck) int=(gr
 id=ultrafine)
 ----------------------------------------------------------------------
 Structure from the checkpoint file:  "02_86TS.chk"
 -----
 title
 -----
 Charge =  0 Multiplicity = 1

                          Input orientation:
 ---------------------------------------------------------------------
 Center     Atomic      Atomic             Coordinates (Angstroms)
 Number     Number       Type             X           Y           Z
 ---------------------------------------------------------------------
      1          6           0        1.173351   -2.485796    0.397896
      2          7           0       -0.116429   -1.841500    0.510709
      3          6           0        2.202120   -1.623776   -0.299314
      4          6           0        0.324611   -0.511512   -1.500483
      5          1           0       -0.139919    0.465657   -1.475480
      6          1           0        0.427163   -0.771588   -2.559113
      7          6           0        2.353500    0.779613   -0.698086
      8          6           0        3.540419   -1.957389   -0.118218
      9          1           0        4.179463   -2.075074   -0.972801
     10          1           0        3.771277   -2.658483    0.684607
     11          6           0        3.602568    0.916738   -0.091146
     12          6           0        4.621898   -0.008873   -0.230300
     13          6           0        1.714260   -0.456707   -0.915507
     14          1           0        4.794270   -0.352186   -1.237762
     15          1           0        3.721908    1.736735    0.612377
     16          6           0        5.842359    0.022270    0.645126
     17          1           0        6.308855   -0.962336    0.708789
     18          1           0        6.591536    0.708979    0.237748
     19          1           0        5.597762    0.346201    1.657636
     20          1           0        1.077427   -3.458480   -0.122920
     21          6           0       -0.613761   -1.533261   -0.822525
     22          1           0        1.552949   -2.705863    1.400770
     23         16           0        1.475228    2.333941   -0.896977
     24          6           0       -1.058556   -2.646312    1.265730
     25          6           0       -2.045435   -1.031410   -0.795713
     26          1           0       -0.608073   -2.466826   -1.420162
     27          6           0       -2.841438   -1.169440    0.339274
     28          6           0       -2.292959   -1.823151    1.578540
     29          1           0       -3.059568   -2.452966    2.037606
     30          1           0       -2.027580   -1.049238    2.303792
     31          1           0       -0.575515   -2.969236    2.190490
     32          1           0       -1.339232   -3.559199    0.707629
     33          6           0       -2.586361   -0.434561   -1.933977
     34          6           0       -4.148772   -0.687802    0.319421
     35          6           0       -4.674282   -0.083755   -0.808637
     36          6           0       -3.886748    0.038668   -1.946603
     37          1           0       -4.285227    0.502206   -2.841081
     38          1           0       -1.977765   -0.330865   -2.824554
     39          1           0       -4.760333   -0.794038    1.209513
     40          1           0       -5.693322    0.284300   -0.805333
     41          6           0        0.079869    2.176748    0.210808
     42          6           0        0.208525    1.597439    1.467551
     43          6           0       -1.150256    2.685057   -0.194289
     44          6           0       -2.243585    2.619322    0.656859
     45          6           0       -2.115661    2.043739    1.912221
     46          6           0       -0.887982    1.533234    2.312212
     47          1           0       -1.254435    3.111873   -1.184589
     48          1           0       -3.202728    2.998395    0.326595
     49          1           0        1.159859    1.183997    1.776160
     50          1           0       -2.972810    1.982468    2.571643
     51          1           0       -0.780696    1.078515    3.290044
 ---------------------------------------------------------------------

 SCF Done:  E(RHF) =  -1375.34811880     A.U. after    3 cycles
 E2 =    -0.3697576492D+01 EUMP2 =    -0.13790456952968D+04

 Alpha  occ. eigenvalues --  -91.95100 -15.55319 -11.26601 -11.26510 -11.26095
 Alpha  occ. eigenvalues --  -11.26062 -11.25958 -11.25456 -11.24725 -11.24354
 Alpha  occ. eigenvalues --  -11.23988 -11.23651 -11.23531 -11.23464 -11.23450
 Alpha  occ. eigenvalues --  -11.23330 -11.23311 -11.23270 -11.23225 -11.23180
 Alpha  occ. eigenvalues --  -11.23128 -11.23023 -11.22964 -11.22713 -11.22676
 Alpha  occ. eigenvalues --  -11.22344  -8.95229  -6.63439  -6.63277  -6.63109
 Alpha  occ. eigenvalues --   -1.25862  -1.16147  -1.15754  -1.14106  -1.08215
 Alpha  occ. eigenvalues --   -1.06732  -1.05288  -1.04838  -1.01717  -1.01368
 Alpha  occ. eigenvalues --   -0.99817  -0.97519  -0.93577  -0.92468  -0.89160
 Alpha  occ. eigenvalues --   -0.86012  -0.83853  -0.82747  -0.82123  -0.80700
 Alpha  occ. eigenvalues --   -0.78246  -0.77053  -0.74936  -0.69691  -0.69235
 Alpha  occ. eigenvalues --   -0.67261  -0.66665  -0.65891  -0.64770  -0.63076
 Alpha  occ. eigenvalues --   -0.62854  -0.62357  -0.60988  -0.60379  -0.59627
 Alpha  occ. eigenvalues --   -0.59368  -0.58681  -0.58241  -0.57686  -0.56782
 Alpha  occ. eigenvalues --   -0.56306  -0.55265  -0.54578  -0.54193  -0.52714
 Alpha  occ. eigenvalues --   -0.52336  -0.52043  -0.51082  -0.50559  -0.49731
 Alpha  occ. eigenvalues --   -0.49427  -0.49138  -0.47784  -0.47290  -0.46349
 Alpha  occ. eigenvalues --   -0.45097  -0.44469  -0.42874  -0.37784  -0.36252
 Alpha  occ. eigenvalues --   -0.33004  -0.32764  -0.31913  -0.31480  -0.29071
 Alpha  occ. eigenvalues --   -0.28796
 Alpha virt. eigenvalues --    0.02911   0.03302   0.03639   0.03973   0.04450
 Alpha virt. eigenvalues --    0.04699   0.04878   0.05377   0.05498   0.05873
 Alpha virt. eigenvalues --    0.06177   0.06351   0.06527   0.07216   0.07308

 Mulliken charges:
               1
     1  C    0.302674
     2  N   -0.573001
     3  C   -1.016469
     4  C    0.237067
     5  H   -0.188271
     6  H    0.035329
     7  C   -0.490153
     8  C    1.097460
     9  H   -0.161915
    10  H   -0.447237
    11  C    1.019065
    12  C   -0.424037
    13  C    0.781266
    14  H   -0.192875
    15  H   -0.598768
    16  C    0.708765
    17  H   -0.074359
    18  H    0.065583
    19  H   -0.079651
    20  H    0.063986
    21  C   -0.200623
    22  H   -0.371498
    23  S    0.137443
    24  C    1.063787
    25  C    1.231449
    26  H   -0.136710
    27  C   -0.215727
    28  C    0.492478
    29  H   -0.062034
    30  H    0.073974
    31  H   -0.355817
    32  H   -0.093297
    33  C    0.260687
    34  C    0.408217
    35  C    0.416343
    36  C    0.165159
    37  H   -0.558349
    38  H   -0.699882
    39  H   -0.761746
    40  H   -0.535049
    41  C   -0.255798
    42  C    0.892100
    43  C    0.792339
    44  C    0.517970
    45  C    0.596684
    46  C    0.437515
    47  H   -0.727839
    48  H   -0.622114
    49  H   -0.664984
    50  H   -0.644536
    51  H   -0.644605
 Sum of Mulliken charges =  -0.00000

 Dipole moment (field-independent basis, Debye):
    X=              0.3593    Y=             -2.6792    Z=              1.1794  Tot=              2.9492
 Unable to Open any file for archive entry.
 1\1\GINC-SE312\SP\RMP2-FC\Aug-CC-pVDZ\C24H25N1S1\OHZDE\20-Sep-2024\0\\
 #t symm=none mp2 aug-cc-pvdz geom=allcheck guess=(read,tcheck) int=(gr
 id=ultrafine)\\title\\0,1\C,0,1.173351,-2.485796,0.397896\N,0,-0.11642
 9,-1.8415,0.510709\C,0,2.20212,-1.623776,-0.299314\C,0,0.324611,-0.511
 512,-1.500483\H,0,-0.139919,0.465657,-1.47548\H,0,0.427163,-0.771588,-
 2.559113\C,0,2.3535,0.779613,-0.698086\C,0,3.540419,-1.957389,-0.11821
 8\H,0,4.179463,-2.075074,-0.972801\H,0,3.771277,-2.658483,0.684607\C,0
 ,3.602568,0.916738,-0.091146\C,0,4.621898,-0.008873,-0.2303\C,0,1.7142
 6,-0.456707,-0.915507\H,0,4.79427,-0.352186,-1.237762\H,0,3.721908,1.7

 Normal termination of Gaussian 16 at Fri Sep 20 17:44:07 2024.
