 Gaussian 16, Revision C.01,

 ----------------------------------------------------------------------
 #t hf aug-cc-pvdz symm=none int=(grid=ultrafine) guess=(read,tcheck) s
 table=(opt,rrhf)
 ----------------------------------------------------------------------
 -----
 title
 -----
 Symbolic Z-matrix:
 Charge =  0 Multiplicity = 1

 SCF Done:  E(RHF) =  -1094.34884902     A.U. after   19 cycles
 Normal termination of Gaussian 16 at Fri Sep 20 11:38:04 2024.
 Gaussian 16:  ES64L-G16RevC.01  3-Jul-2019

 ----------------------------------------------------------------------
 #t symm=none mp2 aug-cc-pvdz geom=allcheck guess=(read,tcheck) int=(gr
 id=ultrafine)
 ----------------------------------------------------------------------
 Structure from the checkpoint file:  "02_19TS.chk"
 -----
 title
 -----
 Charge =  0 Multiplicity = 1

                          Input orientation:
 ---------------------------------------------------------------------
 Center     Atomic      Atomic             Coordinates (Angstroms)
 Number     Number       Type             X           Y           Z
 ---------------------------------------------------------------------
      1          6           0        0.521404   -1.012810    0.203075
      2          6           0       -0.232487    1.607379    0.318856
      3          6           0        1.894877   -0.995841   -0.099202
      4          1           0        0.159944   -1.220074    1.201355
      5          6           0       -0.423069   -0.979384   -0.868193
      6          6           0        0.508002    1.899479   -0.816762
      7          6           0       -1.648385    1.807681    0.621284
      8          1           0        0.318067    1.299810    1.186152
      9          6           0        1.840821    1.489947   -0.898477
     10          6           0        2.637401    0.811688    0.051832
     11          6           0        4.083846    0.623179   -0.415522
     12          6           0        2.530910    1.184688    1.530854
     13          6           0        2.833828   -1.804745    0.780899
     14          1           0        2.086868   -1.131587   -1.160250
     15          1           0        1.876528    0.526411    2.103101
     16          1           0        3.510553    1.142678    2.004982
     17          1           0        2.158811    2.204431    1.640634
     18          6           0        4.921804   -0.411534    0.336125
     19          1           0        4.076356    0.357382   -1.477897
     20          1           0        4.588042    1.594674   -0.344177
     21          6           0        4.276412   -1.792254    0.291809
     22          1           0        2.774759   -1.469733    1.820818
     23          1           0        2.467982   -2.835002    0.778139
     24          6           0        6.340648   -0.447705   -0.223897
     25          1           0        4.990664   -0.111665    1.387871
     26          1           0        4.871878   -2.489676    0.888968
     27          1           0        4.303794   -2.165873   -0.739450
     28          6           0       -0.081434    2.477501   -2.082928
     29          1           0        2.279282    1.567856   -1.889660
     30          1           0       -0.682316    3.365681   -1.897980
     31          1           0        0.719748    2.760435   -2.765626
     32          1           0       -0.694237    1.733736   -2.594841
     33          1           0        6.334850   -0.743702   -1.277167
     34          1           0        6.821511    0.531227   -0.155459
     35          1           0        6.960228   -1.165182    0.319279
     36          6           0       -2.627703    2.280217   -0.420196
     37          1           0       -2.457270    3.325314   -0.684774
     38          1           0       -2.546854    1.692136   -1.332960
     39          1           0       -3.651321    2.199534   -0.061853
     40          6           0       -2.021020    1.519433    1.881273
     41          6           0       -3.376025    1.576089    2.498226
     42          1           0       -3.364086    2.217837    3.384493
     43          1           0       -4.151441    1.944084    1.828980
     44          1           0       -3.658264    0.575323    2.839621
     45          1           0       -1.248290    1.149171    2.548370
     46          6           0       -1.860371   -1.244462   -0.548662
     47          8           0       -0.110930   -0.791437   -2.050768
     48          6           0       -2.817584   -1.327724   -1.471960
     49          6           0       -2.479171   -1.514455    0.791160
     50          1           0       -2.661575   -1.191375   -2.533409
     51          6           0       -4.152150   -1.638635   -0.864838
     52          7           0       -3.819204   -1.660781    0.546182
     53          1           0       -4.436700   -1.997060    1.267177
     54          8           0       -1.958545   -1.598656    1.885945
     55          6           0       -5.243209   -0.631238   -1.211004
     56          1           0       -6.177322   -0.884589   -0.705676
     57          1           0       -5.431212   -0.628985   -2.286609
     58          1           0       -4.943771    0.371573   -0.905722
     59          1           0       -4.469060   -2.637538   -1.193626
 ---------------------------------------------------------------------

 SCF Done:  E(RHF) =  -1094.34884902     A.U. after    3 cycles
 E2 =    -0.3919382696D+01 EUMP2 =    -0.10982682317166D+04

 Alpha  occ. eigenvalues --  -20.52357 -20.49032 -15.58525 -11.35346 -11.29724
 Alpha  occ. eigenvalues --  -11.29193 -11.25982 -11.25745 -11.25236 -11.24557
 Alpha  occ. eigenvalues --  -11.24370 -11.24306 -11.24110 -11.24037 -11.23698
 Alpha  occ. eigenvalues --  -11.23355 -11.22830 -11.22698 -11.22606 -11.22460
 Alpha  occ. eigenvalues --  -11.22441 -11.22351 -11.21805 -11.21714 -11.21337
 Alpha  occ. eigenvalues --  -11.19083  -1.38312  -1.32947  -1.26206  -1.14759
 Alpha  occ. eigenvalues --   -1.12216  -1.08898  -1.07885  -1.05454  -1.04057
 Alpha  occ. eigenvalues --   -1.03564  -0.99127  -0.98058  -0.95571  -0.93843
 Alpha  occ. eigenvalues --   -0.92124  -0.90861  -0.88559  -0.87451  -0.82870
 Alpha  occ. eigenvalues --   -0.80952  -0.79974  -0.76288  -0.74448  -0.72658
 Alpha  occ. eigenvalues --   -0.71324  -0.70053  -0.68470  -0.66119  -0.64984
 Alpha  occ. eigenvalues --   -0.64707  -0.63452  -0.62892  -0.61923  -0.61215
 Alpha  occ. eigenvalues --   -0.60407  -0.59716  -0.58863  -0.58566  -0.58033
 Alpha  occ. eigenvalues --   -0.57075  -0.56837  -0.56492  -0.55974  -0.55666
 Alpha  occ. eigenvalues --   -0.55333  -0.54759  -0.54434  -0.54013  -0.53461
 Alpha  occ. eigenvalues --   -0.52707  -0.52208  -0.51782  -0.51368  -0.51014
 Alpha  occ. eigenvalues --   -0.50197  -0.49795  -0.49115  -0.48522  -0.47795
 Alpha  occ. eigenvalues --   -0.47316  -0.45770  -0.45238  -0.44094  -0.42519
 Alpha  occ. eigenvalues --   -0.41601  -0.39479  -0.38193  -0.37886  -0.36681
 Alpha  occ. eigenvalues --   -0.30640  -0.24631
 Alpha virt. eigenvalues --    0.02753   0.03163   0.03649   0.03890   0.04078
 Alpha virt. eigenvalues --    0.04479   0.04572   0.04749   0.05255   0.05504
 Alpha virt. eigenvalues --    0.05830   0.06198   0.06316   0.06634   0.06721

 Mulliken charges:
               1
     1  C    2.050821
     2  C    0.268378
     3  C   -0.219722
     4  H   -0.977262
     5  C    0.070372
     6  C   -0.645739
     7  C    0.511735
     8  H   -1.571955
     9  C    0.259196
    10  C   -1.114277
    11  C    1.071524
    12  C    1.189279
    13  C    0.686202
    14  H   -0.773670
    15  H    0.561545
    16  H   -0.628759
    17  H    0.066494
    18  C   -1.103248
    19  H   -0.167178
    20  H   -0.274250
    21  C    1.192976
    22  H   -0.090048
    23  H   -0.173341
    24  C    1.185297
    25  H   -0.298144
    26  H   -0.190929
    27  H   -0.060649
    28  C    1.029499
    29  H   -0.694064
    30  H    0.178580
    31  H   -0.341585
    32  H    0.122875
    33  H   -0.067646
    34  H   -0.067082
    35  H   -0.036067
    36  C    1.014490
    37  H    0.049688
    38  H    0.150288
    39  H   -0.437205
    40  C   -0.068625
    41  C    0.565444
    42  H    0.015387
    43  H   -0.239678
    44  H    0.114795
    45  H   -0.788800
    46  C    0.861721
    47  O   -1.208796
    48  C    0.557224
    49  C    0.312772
    50  H   -0.603289
    51  C   -0.055254
    52  N   -0.491907
    53  H   -0.212894
    54  O   -0.964191
    55  C    0.837990
    56  H    0.006051
    57  H    0.015966
    58  H   -0.237403
    59  H   -0.142931
 Sum of Mulliken charges =  -0.00000

 Dipole moment (field-independent basis, Debye):
    X=             -2.3331    Y=              1.4835    Z=              0.4365  Tot=              2.7990
 Unable to Open any file for archive entry.
 1\1\GINC-SE096\SP\RMP2-FC\Aug-CC-pVDZ\C23H33N1O2\OHZDE\20-Sep-2024\0\\
 #t symm=none mp2 aug-cc-pvdz geom=allcheck guess=(read,tcheck) int=(gr
 id=ultrafine)\\title\\0,1\C,0,0.521404,-1.01281,0.203075\C,0,-0.232487
 ,1.607379,0.318856\C,0,1.894877,-0.995841,-0.099202\H,0,0.159944,-1.22
 0074,1.201355\C,0,-0.423069,-0.979384,-0.868193\C,0,0.508002,1.899479,
 -0.816762\C,0,-1.648385,1.807681,0.621284\H,0,0.318067,1.29981,1.18615
 2\C,0,1.840821,1.489947,-0.898477\C,0,2.637401,0.811688,0.051832\C,0,4
 .083846,0.623179,-0.415522\C,0,2.53091,1.184688,1.530854\C,0,2.833828,
 -1.804745,0.780899\H,0,2.086868,-1.131587,-1.16025\H,0,1.876528,0.5264

 Normal termination of Gaussian 16 at Fri Sep 20 17:54:58 2024.
