 Gaussian 16, Revision C.01,

 ----------------------------------------------------------------------
 #t hf aug-cc-pvdz symm=none int=(grid=ultrafine) guess=(read,tcheck) s
 table=(opt,rrhf)
 ----------------------------------------------------------------------
 -----
 title
 -----
 Symbolic Z-matrix:
 Charge =  0 Multiplicity = 1

 SCF Done:  E(RHF) =  -1125.27065551     A.U. after   15 cycles
 Normal termination of Gaussian 16 at Sat Sep 21 00:06:56 2024.
 Gaussian 16:  ES64L-G16RevC.01  3-Jul-2019

 ----------------------------------------------------------------------
 #t symm=none mp2 aug-cc-pvdz geom=allcheck guess=(read,tcheck) int=(gr
 id=ultrafine)
 ----------------------------------------------------------------------
 Structure from the checkpoint file:  "06_26P.chk"
 -----
 title
 -----
 Charge =  0 Multiplicity = 1

                          Input orientation:
 ---------------------------------------------------------------------
 Center     Atomic      Atomic             Coordinates (Angstroms)
 Number     Number       Type             X           Y           Z
 ---------------------------------------------------------------------
      1          6           0       -0.995073   -2.773659   -0.480642
      2          6           0       -0.184826   -1.573462   -1.054403
      3          6           0       -2.409676    0.024917    0.401260
      4          1           0       -0.294902   -3.582805   -0.259241
      5          6           0       -0.879833   -0.906619   -2.263217
      6          1           0       -0.367776    0.029594   -2.512017
      7          1           0       -0.735834   -1.560443   -3.130220
      8          1           0       -3.023258    0.699244    1.005242
      9          1           0        0.750305   -1.986348   -1.441922
     10          6           0       -2.376507   -0.643664   -2.131389
     11          1           0       -2.743626   -0.271490   -3.093105
     12          1           0       -2.895310   -1.592828   -1.973321
     13          6           0       -2.802209    0.344880   -1.051443
     14          1           0       -2.437591    1.340327   -1.315884
     15          1           0       -3.894877    0.415920   -1.083597
     16          6           0       -2.844117   -1.404492    0.812064
     17          1           0       -3.239713   -1.361472    1.831553
     18          6           0       -1.782639   -2.508622    0.808949
     19          1           0       -1.066714   -2.302299    1.610146
     20          1           0       -2.274586   -3.441203    1.103092
     21          1           0       -3.689809   -1.704435    0.184212
     22          1           0       -1.662547   -3.164570   -1.254607
     23          6           0       -0.933527    0.341695    0.750742
     24          1           0       -0.809942    0.259525    1.843327
     25         14           0       -0.502946    2.203326    0.543278
     26          6           0        0.032678    2.685351   -1.194397
     27          1           0       -0.754455    2.564308   -1.939523
     28          1           0        0.333526    3.737128   -1.200372
     29          1           0        0.896260    2.096848   -1.508857
     30          6           0        0.895116    2.682726    1.706822
     31          1           0        0.944468    3.772874    1.780500
     32          1           0        0.745993    2.294522    2.717575
     33          1           0        1.862953    2.336455    1.341454
     34          6           0       -2.013118    3.214866    1.027156
     35          1           0       -2.337811    2.982367    2.044762
     36          1           0       -1.766467    4.279701    0.995584
     37          1           0       -2.862275    3.053032    0.361010
     38          5           0        0.138879   -0.591179    0.132686
     39          6           0        1.730952   -1.964901    1.511786
     40          6           0        1.609599   -0.647104    0.801248
     41          6           0        1.574635   -2.121606    2.818657
     42          1           0        1.366633   -1.281189    3.473134
     43          1           0        1.653746   -3.097560    3.281188
     44          6           0        2.651158   -0.507073   -0.267886
     45          8           0        3.223136   -1.400600   -0.834348
     46          8           0        2.848494    0.791310   -0.577280
     47          6           0        3.786925    1.048333   -1.625820
     48          1           0        3.467848    0.565928   -2.549588
     49          1           0        3.805505    2.128694   -1.744524
     50          1           0        4.773836    0.675840   -1.352818
     51          1           0        1.725335    0.169475    1.512025
     52          1           0        1.947669   -2.820886    0.881561
 ---------------------------------------------------------------------

 SCF Done:  E(RHF) =  -1125.27065551     A.U. after    1 cycles
 E2 =    -0.3083538054D+01 EUMP2 =    -0.11283541935659D+04

 Alpha  occ. eigenvalues --  -68.76436 -20.61252 -20.55135 -11.38426 -11.29275
 Alpha  occ. eigenvalues --  -11.24630 -11.22884 -11.22833 -11.22750 -11.22105
 Alpha  occ. eigenvalues --  -11.21958 -11.21754 -11.21735 -11.21672 -11.21628
 Alpha  occ. eigenvalues --  -11.20184 -11.20081 -11.20038 -11.19582 -11.19075
 Alpha  occ. eigenvalues --   -7.59234  -6.11059  -4.21684  -4.21678  -4.21675
 Alpha  occ. eigenvalues --   -1.46711  -1.36414  -1.11750  -1.09093  -1.04747
 Alpha  occ. eigenvalues --   -1.04302  -1.00690  -0.98085  -0.95512  -0.93535
 Alpha  occ. eigenvalues --   -0.92375  -0.92277  -0.91586  -0.87998  -0.79781
 Alpha  occ. eigenvalues --   -0.79504  -0.78877  -0.75362  -0.71873  -0.70249
 Alpha  occ. eigenvalues --   -0.67988  -0.67719  -0.66345  -0.64410  -0.62985
 Alpha  occ. eigenvalues --   -0.62226  -0.61015  -0.59987  -0.59463  -0.58247
 Alpha  occ. eigenvalues --   -0.57522  -0.57138  -0.56817  -0.56375  -0.56066
 Alpha  occ. eigenvalues --   -0.55821  -0.54976  -0.54436  -0.53606  -0.53096
 Alpha  occ. eigenvalues --   -0.52847  -0.52324  -0.51032  -0.49902  -0.48883
 Alpha  occ. eigenvalues --   -0.48411  -0.47434  -0.46391  -0.46270  -0.45540
 Alpha  occ. eigenvalues --   -0.44434  -0.44296  -0.42956  -0.42878  -0.41695
 Alpha  occ. eigenvalues --   -0.41311  -0.40499  -0.38312  -0.35267
 Alpha virt. eigenvalues --    0.02757   0.03437   0.03636   0.03839   0.04687
 Alpha virt. eigenvalues --    0.04818   0.05044   0.05152   0.05256   0.06565
 Alpha virt. eigenvalues --    0.06618   0.06771   0.06884   0.06904   0.07288

 Mulliken charges:
               1
     1  C    0.510479
     2  C   -0.129366
     3  C   -0.076745
     4  H   -0.288155
     5  C    0.656105
     6  H   -0.120894
     7  H   -0.271427
     8  H   -0.341757
     9  H   -0.132148
    10  C    0.415221
    11  H   -0.278172
    12  H   -0.037697
    13  C    0.803196
    14  H   -0.246676
    15  H   -0.227052
    16  C    0.429386
    17  H   -0.209053
    18  C    0.801884
    19  H    0.192688
    20  H   -0.342232
    21  H   -0.185706
    22  H   -0.234165
    23  C   -0.244460
    24  H   -0.434469
    25  Si   0.662711
    26  C    1.255263
    27  H   -0.323605
    28  H   -0.515785
    29  H   -0.491608
    30  C    1.064696
    31  H   -0.592016
    32  H   -0.247880
    33  H   -0.325344
    34  C    1.017072
    35  H   -0.405757
    36  H   -0.541655
    37  H   -0.310400
    38  B   -0.011796
    39  C    0.649057
    40  C    0.455857
    41  C    1.063665
    42  H   -0.413245
    43  H   -0.426592
    44  C    0.777217
    45  O   -0.811359
    46  O   -0.961628
    47  C    1.044060
    48  H    0.011782
    49  H   -0.257045
    50  H   -0.184080
    51  H   -0.653275
    52  H   -0.537095
 Sum of Mulliken charges =  -0.00000

 Dipole moment (field-independent basis, Debye):
    X=             -1.1037    Y=              1.7228    Z=              0.2953  Tot=              2.0672
 Unable to Open any file for archive entry.
 1\1\GINC-SE179\SP\RMP2-FC\Aug-CC-pVDZ\C17H31B1O2Si1\OHZDE\21-Sep-2024\
 0\\#t symm=none mp2 aug-cc-pvdz geom=allcheck guess=(read,tcheck) int=
 (grid=ultrafine)\\title\\0,1\C,0,-0.995073,-2.773659,-0.480642\C,0,-0.
 184826,-1.573462,-1.054403\C,0,-2.409676,0.024917,0.40126\H,0,-0.29490
 2,-3.582805,-0.259241\C,0,-0.879833,-0.906619,-2.263217\H,0,-0.367776,
 0.029594,-2.512017\H,0,-0.735834,-1.560443,-3.13022\H,0,-3.023258,0.69
 9244,1.005242\H,0,0.750305,-1.986348,-1.441922\C,0,-2.376507,-0.643664
 ,-2.131389\H,0,-2.743626,-0.27149,-3.093105\H,0,-2.89531,-1.592828,-1.
 973321\C,0,-2.802209,0.34488,-1.051443\H,0,-2.437591,1.340327,-1.31588

 Normal termination of Gaussian 16 at Sat Sep 21 01:47:12 2024.
