 Gaussian 16, Revision C.01,

 ----------------------------------------------------------------------
 #t hf aug-cc-pvdz symm=none int=(grid=ultrafine) guess=(read,tcheck) s
 table=(opt,rrhf)
 ----------------------------------------------------------------------
 -----
 title
 -----
 Symbolic Z-matrix:
 Charge =  0 Multiplicity = 1

 SCF Done:  E(RHF) =  -1572.15642104     A.U. after   25 cycles
 Normal termination of Gaussian 16 at Fri Sep 20 13:02:37 2024.
 Gaussian 16:  ES64L-G16RevC.01  3-Jul-2019

 ----------------------------------------------------------------------
 #t symm=none mp2 aug-cc-pvdz geom=allcheck guess=(read,tcheck) int=(gr
 id=ultrafine)
 ----------------------------------------------------------------------
 Structure from the checkpoint file:  "02_67TS.chk"
 -----
 title
 -----
 Charge =  0 Multiplicity = 1

                          Input orientation:
 ---------------------------------------------------------------------
 Center     Atomic      Atomic             Coordinates (Angstroms)
 Number     Number       Type             X           Y           Z
 ---------------------------------------------------------------------
      1          6           0       -5.681392   -2.854624    0.251423
      2          6           0       -5.256793   -1.541335    0.381386
      3          6           0       -4.005629   -1.137915   -0.089039
      4          6           0       -3.180463   -2.101011   -0.678640
      5          6           0       -3.608991   -3.411574   -0.814294
      6          6           0       -4.860949   -3.797012   -0.352129
      7          1           0       -6.657849   -3.142044    0.622882
      8          1           0       -5.905514   -0.811491    0.852988
      9          1           0       -2.185547   -1.829538   -1.007769
     10          1           0       -2.953502   -4.141631   -1.274327
     11          1           0       -5.189700   -4.823849   -0.454799
     12          6           0       -3.594101    0.266091    0.081266
     13          1           0       -4.313327    0.892309    0.590937
     14          6           0       -2.731105    0.871533   -0.828376
     15          1           0       -2.282551    0.264281   -1.602272
     16          6           0       -2.794784    3.150355    0.107272
     17          6           0       -1.429714    2.633692   -1.867312
     18          6           0       -1.562450    3.651866    0.857165
     19          1           0       -3.511562    2.710853    0.794846
     20          1           0       -3.289139    3.985570   -0.401916
     21          6           0       -0.169132    3.133481   -1.166385
     22          1           0       -1.200505    1.817009   -2.550096
     23          1           0       -1.877740    3.445858   -2.451555
     24          6           0       -0.512002    4.185783   -0.114421
     25          1           0       -1.144901    2.829355    1.444290
     26          1           0       -1.868535    4.426520    1.564176
     27          1           0        0.332310    2.287334   -0.691276
     28          1           0        0.517133    3.537993   -1.914151
     29          1           0       -0.898403    5.084723   -0.609403
     30          1           0        0.386918    4.487157    0.427207
     31          7           0       -2.419937    2.165384   -0.901682
     32          7           0       -0.733582   -0.118716    0.428586
     33          7           0       -1.357676   -0.024467    1.556074
     34          7           0       -2.471519    0.162896    1.840766
     35          6           0        0.634652   -0.253265    0.449193
     36          6           0        1.257268   -0.366645   -0.799691
     37          6           0        1.488531   -0.254497    1.556497
     38          6           0        2.620509   -0.483587   -0.936925
     39          6           0        2.857663   -0.359671    1.412699
     40          6           0        3.465811   -0.482994    0.168734
     41          9           0        0.493863   -0.336921   -1.904873
     42          9           0        3.115600   -0.550899   -2.173985
     43          9           0        3.591740   -0.373763    2.522494
     44          9           0        0.988397   -0.149275    2.792987
     45          6           0        4.948006   -0.564848    0.057121
     46          8           0        5.713668    0.087894    0.711848
     47          8           0        5.321832   -1.462176   -0.858036
     48          6           0        6.732967   -1.579665   -1.070888
     49          1           0        6.847531   -2.331661   -1.846303
     50          1           0        7.146832   -0.625150   -1.395065
     51          1           0        7.229243   -1.892248   -0.152657
 ---------------------------------------------------------------------

 SCF Done:  E(RHF) =  -1572.15642104     A.U. after    2 cycles
 E2 =    -0.4807809105D+01 EUMP2 =    -0.15769642301490D+04

 Alpha  occ. eigenvalues --  -26.34911 -26.34580 -26.34367 -26.33956 -20.61930
 Alpha  occ. eigenvalues --  -20.56284 -15.72617 -15.69160 -15.62190 -15.61228
 Alpha  occ. eigenvalues --  -11.40510 -11.37243 -11.37113 -11.35054 -11.35041
 Alpha  occ. eigenvalues --  -11.33212 -11.33053 -11.29601 -11.28870 -11.28843
 Alpha  occ. eigenvalues --  -11.28034 -11.25033 -11.24579 -11.24486 -11.24409
 Alpha  occ. eigenvalues --  -11.24348 -11.23684 -11.23652 -11.23211 -11.23062
 Alpha  occ. eigenvalues --  -11.22983  -1.66722  -1.66340  -1.64994  -1.64591
 Alpha  occ. eigenvalues --   -1.47912  -1.47707  -1.37581  -1.30996  -1.26890
 Alpha  occ. eigenvalues --   -1.19498  -1.16093  -1.11507  -1.08042  -1.06800
 Alpha  occ. eigenvalues --   -1.05552  -1.05329  -1.01532  -0.99730  -0.99342
 Alpha  occ. eigenvalues --   -0.93737  -0.92503  -0.89527  -0.88638  -0.84505
 Alpha  occ. eigenvalues --   -0.83782  -0.82616  -0.82338  -0.80724  -0.80127
 Alpha  occ. eigenvalues --   -0.77786  -0.77281  -0.76268  -0.74040  -0.73986
 Alpha  occ. eigenvalues --   -0.73229  -0.72762  -0.72449  -0.72168  -0.70674
 Alpha  occ. eigenvalues --   -0.70629  -0.70403  -0.69802  -0.68400  -0.67967
 Alpha  occ. eigenvalues --   -0.67308  -0.66864  -0.66087  -0.64871  -0.64462
 Alpha  occ. eigenvalues --   -0.64044  -0.63389  -0.63271  -0.62048  -0.61991
 Alpha  occ. eigenvalues --   -0.60337  -0.59573  -0.59281  -0.58597  -0.58186
 Alpha  occ. eigenvalues --   -0.57861  -0.55964  -0.55755  -0.54652  -0.53485
 Alpha  occ. eigenvalues --   -0.53406  -0.52024  -0.51693  -0.50579  -0.49680
 Alpha  occ. eigenvalues --   -0.48766  -0.48362  -0.47562  -0.46944  -0.46560
 Alpha  occ. eigenvalues --   -0.45855  -0.45053  -0.44306  -0.36532  -0.36036
 Alpha  occ. eigenvalues --   -0.33528  -0.32097  -0.27287
 Alpha virt. eigenvalues --    0.02443   0.03268   0.03491   0.03801   0.04107
 Alpha virt. eigenvalues --    0.04430   0.04827   0.05449   0.05665   0.05759
 Alpha virt. eigenvalues --    0.06112   0.06403   0.06503   0.06640   0.06906

 Mulliken charges:
               1
     1  C    0.338970
     2  C    0.414311
     3  C    0.614101
     4  C    1.420495
     5  C   -0.276774
     6  C    0.614804
     7  H   -0.476696
     8  H   -0.741782
     9  H   -0.893450
    10  H   -0.532848
    11  H   -0.455097
    12  C    0.919955
    13  H   -0.726529
    14  C    1.147989
    15  H   -0.664822
    16  C    0.669105
    17  C    0.544205
    18  C    0.522062
    19  H   -0.359370
    20  H   -0.217299
    21  C    0.540871
    22  H   -0.289203
    23  H   -0.250473
    24  C    0.485955
    25  H   -0.188261
    26  H   -0.180477
    27  H   -0.394714
    28  H   -0.178369
    29  H   -0.088326
    30  H   -0.166537
    31  N   -0.474412
    32  N   -0.130520
    33  N   -0.456803
    34  N   -0.061101
    35  C   -0.315183
    36  C    1.089914
    37  C    0.959377
    38  C    0.729296
    39  C    1.014968
    40  C    0.813086
    41  F   -1.007721
    42  F   -0.877663
    43  F   -0.859473
    44  F   -0.856473
    45  C    0.355655
    46  O   -0.719913
    47  O   -0.818848
    48  C    0.850092
    49  H   -0.243881
    50  H   -0.055941
    51  H   -0.086250
 Sum of Mulliken charges =   0.00000

 Dipole moment (field-independent basis, Debye):
    X=             -2.5401    Y=              2.9929    Z=             -3.2694  Tot=              5.1087
 Unable to Open any file for archive entry.
 1\1\GINC-SE454\SP\RMP2-FC\Aug-CC-pVDZ\C21H20F4N4O2\OHZDE\20-Sep-2024\0
 \\#t symm=none mp2 aug-cc-pvdz geom=allcheck guess=(read,tcheck) int=(
 grid=ultrafine)\\title\\0,1\C,0,-5.681392,-2.854624,0.251423\C,0,-5.25
 6793,-1.541335,0.381386\C,0,-4.005629,-1.137915,-0.089039\C,0,-3.18046
 3,-2.101011,-0.67864\C,0,-3.608991,-3.411574,-0.814294\C,0,-4.860949,-
 3.797012,-0.352129\H,0,-6.657849,-3.142044,0.622882\H,0,-5.905514,-0.8
 11491,0.852988\H,0,-2.185547,-1.829538,-1.007769\H,0,-2.953502,-4.1416
 31,-1.274327\H,0,-5.1897,-4.823849,-0.454799\C,0,-3.594101,0.266091,0.
 081266\H,0,-4.313327,0.892309,0.590937\C,0,-2.731105,0.871533,-0.82837

 Normal termination of Gaussian 16 at Fri Sep 20 17:00:00 2024.
