 Gaussian 16, Revision C.01,

 ----------------------------------------------------------------------
 #t hf aug-cc-pvdz symm=none int=(grid=ultrafine) guess=(read,tcheck) s
 table=(opt,rrhf)
 ----------------------------------------------------------------------
 -----
 title
 -----
 Symbolic Z-matrix:
 Charge =  0 Multiplicity = 1

 SCF Done:  E(RHF) =  -1303.05821952     A.U. after   17 cycles
 Normal termination of Gaussian 16 at Fri Sep 20 13:24:10 2024.
 Gaussian 16:  ES64L-G16RevC.01  3-Jul-2019

 ----------------------------------------------------------------------
 #t symm=none mp2 aug-cc-pvdz geom=allcheck guess=(read,tcheck) int=(gr
 id=ultrafine)
 ----------------------------------------------------------------------
 Structure from the checkpoint file:  "02_7R.chk"
 -----
 title
 -----
 Charge =  0 Multiplicity = 1

                          Input orientation:
 ---------------------------------------------------------------------
 Center     Atomic      Atomic             Coordinates (Angstroms)
 Number     Number       Type             X           Y           Z
 ---------------------------------------------------------------------
      1          8           0       -7.640871   -0.053326   -0.163933
      2          6           0       -6.243964   -0.227167   -0.368575
      3          6           0       -5.563170    0.970646    0.295709
      4          6           0       -4.235874    1.321205   -0.296601
      5          6           0       -4.311064   -1.757671    0.181709
      6          6           0       -5.794254   -1.589488    0.180894
      7          6           0       -3.097817    1.507462    0.374387
      8          6           0       -1.366487   -2.390997    0.372183
      9          6           0       -2.147899   -2.518838   -0.708340
     10          6           0       -3.605785   -2.459718   -0.704379
     11          6           0       -1.865349    1.906625   -0.272308
     12          6           0       -0.704594    2.133520    0.351112
     13          6           0        0.073526   -2.319024    0.298998
     14          6           0        0.866285   -2.131286    1.359494
     15          6           0        2.323276   -1.951889    1.268491
     16          8           0        2.789004   -2.139422    0.022382
     17          6           0        4.157110   -1.774530   -0.277854
     18          6           0        4.771743   -2.925536   -1.052883
     19          6           0        4.834131   -4.221808   -0.254807
     20          6           0        0.482227    2.612884   -0.395730
     21          6           0        1.665085    3.054643    0.447980
     22          6           0        1.290052    4.380451    1.129172
     23          8           0        3.014137   -1.642128    2.209553
     24          6           0        4.123910   -0.468713   -1.055679
     25          6           0        3.499323    0.688286   -0.283843
     26          6           0        3.408916    1.961105   -1.119451
     27          6           0        2.967510    3.204480   -0.350264
     28          8           0        4.007931    3.659765    0.517091
     29          8           0        0.481798    2.707327   -1.607184
     30          1           0       -6.241273    1.817608    0.149176
     31          1           0       -5.484902    0.812718    1.375090
     32          1           0       -6.024678   -0.197025   -1.444333
     33          1           0       -6.182050   -1.668949    1.201611
     34          1           0       -6.265165   -2.380674   -0.411805
     35          1           0        0.528868   -2.390437   -0.683426
     36          1           0        0.466620   -2.041681    2.362646
     37          1           0        4.676029   -1.639050    0.672764
     38          1           0        3.571446   -0.629876   -1.987810
     39          1           0        5.150461   -0.212365   -1.336830
     40          1           0        2.497378    0.398851    0.043007
     41          1           0        4.083387    0.853226    0.629689
     42          1           0        4.387737    2.190509   -1.551573
     43          1           0        2.719060    1.803036   -1.949904
     44          1           0        2.833969    4.016154   -1.067224
     45          1           0        1.812851    2.301664    1.231969
     46          1           0       -1.890255    2.055269   -1.349052
     47          1           0        4.198233   -3.073724   -1.973416
     48          1           0        5.778498   -2.621897   -1.354983
     49          1           0        3.834376   -4.551017    0.033013
     50          1           0        5.419869   -4.093604    0.658798
     51          1           0        5.294796   -5.020238   -0.839362
     52          1           0        0.411404    4.272615    1.766877
     53          1           0        1.071313    5.142460    0.377175
     54          1           0        2.122888    4.731693    1.735850
     55          1           0        4.260459    2.938746    1.101168
     56          1           0       -8.112650   -0.800056   -0.542718
     57          1           0       -0.615567    2.010708    1.425672
     58          1           0       -1.670891   -2.653220   -1.676091
     59          1           0       -1.816976   -2.314033    1.357565
     60          1           0       -4.123065   -2.974132   -1.510577
     61          1           0       -3.770981   -1.201619    0.939861
     62          1           0       -4.221536    1.461401   -1.375989
     63          1           0       -3.076649    1.371353    1.453388
 ---------------------------------------------------------------------

 SCF Done:  E(RHF) =  -1303.05821952     A.U. after    3 cycles
 E2 =    -0.4378154895D+01 EUMP2 =    -0.13074363744175D+04

 Alpha  occ. eigenvalues --  -20.59927 -20.58195 -20.55882 -20.54584 -20.54562
 Alpha  occ. eigenvalues --  -11.38320 -11.33186 -11.30698 -11.28829 -11.27732
 Alpha  occ. eigenvalues --  -11.26982 -11.26509 -11.26482 -11.26344 -11.25796
 Alpha  occ. eigenvalues --  -11.25322 -11.25251 -11.25177 -11.25017 -11.24862
 Alpha  occ. eigenvalues --  -11.24535 -11.23894 -11.23685 -11.22955 -11.22804
 Alpha  occ. eigenvalues --  -11.22548 -11.22358 -11.21858 -11.21438  -1.45743
 Alpha  occ. eigenvalues --   -1.38569  -1.38220  -1.35791  -1.35763  -1.14174
 Alpha  occ. eigenvalues --   -1.12885  -1.11017  -1.10050  -1.08263  -1.07516
 Alpha  occ. eigenvalues --   -1.04859  -1.04209  -1.00527  -0.98559  -0.96244
 Alpha  occ. eigenvalues --   -0.92660  -0.89822  -0.88762  -0.85610  -0.84410
 Alpha  occ. eigenvalues --   -0.82443  -0.80770  -0.80085  -0.78704  -0.77120
 Alpha  occ. eigenvalues --   -0.76574  -0.75022  -0.73274  -0.70985  -0.70694
 Alpha  occ. eigenvalues --   -0.68642  -0.67971  -0.67268  -0.66560  -0.66202
 Alpha  occ. eigenvalues --   -0.65146  -0.64593  -0.63750  -0.62936  -0.62527
 Alpha  occ. eigenvalues --   -0.61225  -0.60746  -0.59727  -0.59618  -0.58623
 Alpha  occ. eigenvalues --   -0.57998  -0.57134  -0.57059  -0.56575  -0.56356
 Alpha  occ. eigenvalues --   -0.54726  -0.54535  -0.54280  -0.53483  -0.53380
 Alpha  occ. eigenvalues --   -0.52340  -0.52251  -0.51927  -0.51354  -0.51004
 Alpha  occ. eigenvalues --   -0.50925  -0.50072  -0.49737  -0.49587  -0.48917
 Alpha  occ. eigenvalues --   -0.48573  -0.47617  -0.46983  -0.46687  -0.45882
 Alpha  occ. eigenvalues --   -0.45616  -0.44492  -0.44192  -0.43229  -0.42163
 Alpha  occ. eigenvalues --   -0.40183  -0.40020  -0.32994  -0.30949
 Alpha virt. eigenvalues --    0.02409   0.02981   0.03318   0.03881   0.04021
 Alpha virt. eigenvalues --    0.04398   0.04598   0.04743   0.05087   0.05252
 Alpha virt. eigenvalues --    0.05429   0.05658   0.06009   0.06256   0.06391

 Mulliken charges:
               1
     1  O   -0.893700
     2  C    0.901030
     3  C    0.333179
     4  C    0.506587
     5  C    1.137733
     6  C    0.449907
     7  C    1.701347
     8  C    1.369100
     9  C    0.131509
    10  C    0.284117
    11  C   -0.191947
    12  C    1.651023
    13  C    0.900115
    14  C    0.845780
    15  C    0.940965
    16  O   -1.042279
    17  C    0.257970
    18  C    0.606564
    19  C    0.770420
    20  C    0.143509
    21  C   -1.038405
    22  C    1.150667
    23  O   -0.883698
    24  C    0.495045
    25  C    0.694430
    26  C    0.370822
    27  C    1.040496
    28  O   -0.846672
    29  O   -1.027549
    30  H    0.071422
    31  H   -0.179295
    32  H   -0.336743
    33  H    0.022179
    34  H   -0.203205
    35  H   -0.846555
    36  H   -0.736814
    37  H   -0.292944
    38  H   -0.146576
    39  H   -0.223531
    40  H   -0.607072
    41  H   -0.309005
    42  H   -0.188898
    43  H   -0.152994
    44  H   -0.240666
    45  H   -0.148007
    46  H   -0.767211
    47  H   -0.149247
    48  H   -0.142789
    49  H   -0.009783
    50  H   -0.083503
    51  H   -0.130970
    52  H   -0.050898
    53  H   -0.032049
    54  H   -0.059736
    55  H    0.158446
    56  H    0.145169
    57  H   -0.957145
    58  H   -0.712760
    59  H   -0.632385
    60  H   -0.611275
    61  H   -0.789165
    62  H   -0.672632
    63  H   -0.741431
 Sum of Mulliken charges =  -0.00000

 Dipole moment (field-independent basis, Debye):
    X=             -4.3430    Y=             -3.4676    Z=             -1.1194  Tot=              5.6691
 Unable to Open any file for archive entry.
 1\1\GINC-SE206\SP\RMP2-FC\Aug-CC-pVDZ\C24H34O5\OHZDE\20-Sep-2024\0\\#t
  symm=none mp2 aug-cc-pvdz geom=allcheck guess=(read,tcheck) int=(grid
 =ultrafine)\\title\\0,1\O,0,-7.640871,-0.053326,-0.163933\C,0,-6.24396
 4,-0.227167,-0.368575\C,0,-5.56317,0.970646,0.295709\C,0,-4.235874,1.3
 21205,-0.296601\C,0,-4.311064,-1.757671,0.181709\C,0,-5.794254,-1.5894
 88,0.180894\C,0,-3.097817,1.507462,0.374387\C,0,-1.366487,-2.390997,0.
 372183\C,0,-2.147899,-2.518838,-0.70834\C,0,-3.605785,-2.459718,-0.704
 379\C,0,-1.865349,1.906625,-0.272308\C,0,-0.704594,2.13352,0.351112\C,
 0,0.073526,-2.319024,0.298998\C,0,0.866285,-2.131286,1.359494\C,0,2.32

 Normal termination of Gaussian 16 at Fri Sep 20 19:15:10 2024.
