 Gaussian 16, Revision C.01,

 ----------------------------------------------------------------------
 #t hf aug-cc-pvdz symm=none int=(grid=ultrafine) guess=(read,tcheck) s
 table=(opt,rrhf)
 ----------------------------------------------------------------------
 -----
 title
 -----
 Symbolic Z-matrix:
 Charge = -1 Multiplicity = 1

 SCF Done:  E(RHF) =  -1532.34512782     A.U. after   15 cycles
 Normal termination of Gaussian 16 at Sat Sep 21 00:43:57 2024.
 Gaussian 16:  ES64L-G16RevC.01  3-Jul-2019

 ----------------------------------------------------------------------
 #t symm=none mp2 aug-cc-pvdz geom=allcheck guess=(read,tcheck) int=(gr
 id=ultrafine)
 ----------------------------------------------------------------------
 Structure from the checkpoint file:  "08_15TS.chk"
 -----
 title
 -----
 Charge = -1 Multiplicity = 1

                          Input orientation:
 ---------------------------------------------------------------------
 Center     Atomic      Atomic             Coordinates (Angstroms)
 Number     Number       Type             X           Y           Z
 ---------------------------------------------------------------------
      1          6           0        0.961186    1.880594    1.598927
      2          6           0       -0.008952    0.822692    0.994785
      3          6           0        0.223519    0.553424   -0.452893
      4          8           0        0.463061    1.536847   -1.261677
      5          6           0        0.649956    2.838675   -0.665252
      6          6           0        1.612424    2.761561    0.510817
      7          1           0       -0.337442    3.205937   -0.373327
      8          6           0       -3.290430    0.114829   -0.630731
      9          6           0       -3.931878   -0.114647    0.758657
     10          6           0       -5.276092   -0.852813    0.681331
     11          6           0       -6.179195   -0.151243   -0.325341
     12          8           0       -5.587444   -0.111601   -1.594728
     13          6           0       -4.376625    0.668529   -1.570251
     14          1           0       -4.608835    1.697423   -1.262903
     15          8           0        1.930428    1.269761    2.404937
     16          1           0        0.340356    2.547877    2.212960
     17          1           0        1.486730    0.453371    2.705533
     18          8           0        2.876678    2.313870    0.089663
     19          1           0        1.755413    3.772789    0.900207
     20          1           0        2.811780    1.344052    0.005311
     21          8           0       -2.233094    0.953097   -0.603308
     22          1           0       -3.030799   -0.901927   -1.018303
     23          8           0       -3.080422   -0.830950    1.646455
     24          1           0       -4.078061    0.875935    1.201440
     25          1           0       -3.267816   -1.764944    1.470656
     26          8           0       -7.388136   -0.854306   -0.438425
     27          1           0       -6.370912    0.883110    0.009043
     28          1           0       -7.767797   -0.607278   -1.287321
     29          8           0        2.065631   -0.187282   -0.369073
     30          6           0        2.348935   -1.429654   -0.183287
     31          8           0        1.544612   -2.304622    0.111458
     32          6           0        3.817452   -1.803370   -0.385848
     33          6           0        4.820314   -0.656507   -0.245462
     34          1           0        3.904738   -2.247029   -1.384421
     35          1           0        4.060077   -2.587211    0.329916
     36          6           0        6.233746   -1.252593   -0.225619
     37          8           0        6.660129   -1.924207    0.674367
     38          8           0        6.937747   -0.975004   -1.323405
     39          1           0        6.329887   -0.396587   -1.849914
     40          7           0        4.730845    0.298108   -1.359907
     41          1           0        4.664727   -0.171884    0.722450
     42          1           0        4.845340    1.249123   -1.023871
     43          1           0        3.799889    0.267837   -1.760686
     44          7           0       -5.031392   -2.258196    0.362189
     45          1           0       -5.756567   -0.816285    1.663932
     46          1           0       -5.886985   -2.789432    0.467713
     47          1           0       -4.751177   -2.339968   -0.610033
     48          7           0       -0.060613   -0.370417    1.817105
     49          1           0        0.391264   -1.159760    1.359024
     50          1           0       -1.035309   -0.615460    1.971797
     51          1           0        1.057941    3.452865   -1.464149
     52          1           0       -4.000650    0.687512   -2.590931
     53          1           0       -1.016320    1.255035    0.937013
     54          1           0       -0.151012   -0.343243   -0.915949
 ---------------------------------------------------------------------

 SCF Done:  E(RHF) =  -1532.34512782     A.U. after    2 cycles
 E2 =    -0.4755124982D+01 EUMP2 =    -0.15371002527998D+04

 Alpha  occ. eigenvalues --  -20.53002 -20.51668 -20.49507 -20.47648 -20.45944
 Alpha  occ. eigenvalues --  -20.45826 -20.45483 -20.45323 -20.44290 -20.42365
 Alpha  occ. eigenvalues --  -20.31347 -15.48623 -15.46409 -15.43667 -11.29267
 Alpha  occ. eigenvalues --  -11.28719 -11.26572 -11.24755 -11.20898 -11.19985
 Alpha  occ. eigenvalues --  -11.19972 -11.19047 -11.16576 -11.16262 -11.16152
 Alpha  occ. eigenvalues --  -11.16047 -11.15571 -11.13429  -1.37215  -1.37075
 Alpha  occ. eigenvalues --   -1.33574  -1.31337  -1.27878  -1.27356  -1.25798
 Alpha  occ. eigenvalues --   -1.25336  -1.25297  -1.20875  -1.12509  -1.11829
 Alpha  occ. eigenvalues --   -1.09837  -1.08508  -0.96457  -0.94878  -0.92070
 Alpha  occ. eigenvalues --   -0.91405  -0.87514  -0.82743  -0.79740  -0.77852
 Alpha  occ. eigenvalues --   -0.77335  -0.73066  -0.71708  -0.68181  -0.66719
 Alpha  occ. eigenvalues --   -0.65397  -0.64340  -0.63502  -0.63367  -0.62123
 Alpha  occ. eigenvalues --   -0.61393  -0.59752  -0.58652  -0.58386  -0.57839
 Alpha  occ. eigenvalues --   -0.57539  -0.57282  -0.55902  -0.55315  -0.54344
 Alpha  occ. eigenvalues --   -0.54086  -0.53817  -0.53471  -0.52346  -0.52226
 Alpha  occ. eigenvalues --   -0.51518  -0.50547  -0.49288  -0.48520  -0.48096
 Alpha  occ. eigenvalues --   -0.47190  -0.47027  -0.46483  -0.45859  -0.45197
 Alpha  occ. eigenvalues --   -0.44170  -0.43636  -0.42662  -0.42520  -0.41732
 Alpha  occ. eigenvalues --   -0.41010  -0.39843  -0.39410  -0.38178  -0.38108
 Alpha  occ. eigenvalues --   -0.37254  -0.36969  -0.35735  -0.35681  -0.34608
 Alpha  occ. eigenvalues --   -0.34419  -0.34010  -0.33371  -0.33043  -0.31649
 Alpha  occ. eigenvalues --   -0.31177  -0.30210  -0.29045  -0.21630  -0.21102
 Alpha virt. eigenvalues --    0.09909   0.10037   0.10849   0.11260   0.11364
 Alpha virt. eigenvalues --    0.11865   0.11929   0.12886   0.13006   0.13150
 Alpha virt. eigenvalues --    0.13367   0.13763   0.14341   0.14829   0.15161

 Mulliken charges:
               1
     1  C    1.219503
     2  C   -0.479488
     3  C    2.443415
     4  O   -1.112723
     5  C    1.046025
     6  C    0.639603
     7  H   -0.014364
     8  C    0.534169
     9  C    0.694955
    10  C    0.418562
    11  C    1.836253
    12  O   -1.114940
    13  C    1.085466
    14  H   -0.105973
    15  O   -0.897093
    16  H   -0.164542
    17  H    0.277722
    18  O   -0.881596
    19  H   -0.270034
    20  H    0.306955
    21  O   -1.171404
    22  H   -0.193163
    23  O   -1.003314
    24  H   -0.407956
    25  H    0.244902
    26  O   -0.842177
    27  H   -0.103442
    28  H    0.126992
    29  O   -0.821207
    30  C    0.666249
    31  O   -0.933174
    32  C    0.200035
    33  C    0.465352
    34  H    0.058708
    35  H   -0.110263
    36  C    1.295253
    37  O   -0.842664
    38  O   -0.750225
    39  H    0.343797
    40  N   -0.540474
    41  H   -0.172611
    42  H    0.102731
    43  H    0.132596
    44  N   -0.575206
    45  H   -0.207839
    46  H    0.023392
    47  H    0.070015
    48  N   -0.138668
    49  H   -0.032394
    50  H    0.066255
    51  H   -0.272804
    52  H   -0.291818
    53  H   -0.192315
    54  H   -0.655035
 Sum of Mulliken charges =  -1.00000

 Dipole moment (field-independent basis, Debye):
    X=             -5.1816    Y=              4.2972    Z=             -2.6986  Tot=              7.2524
 Unable to Open any file for archive entry.
 1\1\GINC-SE085\SP\RMP2-FC\Aug-CC-pVDZ\C14H26N3O11\OHZDE\21-Sep-2024\0\
 \#t symm=none mp2 aug-cc-pvdz geom=allcheck guess=(read,tcheck) int=(g
 rid=ultrafine)\\title\\-1,1\C,0,0.961186,1.880594,1.598927\C,0,-0.0089
 52,0.822692,0.994785\C,0,0.223519,0.553424,-0.452893\O,0,0.463061,1.53
 6847,-1.261677\C,0,0.649956,2.838675,-0.665252\C,0,1.612424,2.761561,0
 .510817\H,0,-0.337442,3.205937,-0.373327\C,0,-3.29043,0.114829,-0.6307
 31\C,0,-3.931878,-0.114647,0.758657\C,0,-5.276092,-0.852813,0.681331\C
 ,0,-6.179195,-0.151243,-0.325341\O,0,-5.587444,-0.111601,-1.594728\C,0
 ,-4.376625,0.668529,-1.570251\H,0,-4.608835,1.697423,-1.262903\O,0,1.9

 Normal termination of Gaussian 16 at Sat Sep 21 04:03:24 2024.
