 Gaussian 16, Revision C.01,

 ----------------------------------------------------------------------
 #t hf aug-cc-pvdz symm=none int=(grid=ultrafine) guess=(read,tcheck) s
 table=(opt,rrhf)
 ----------------------------------------------------------------------
 -----
 title
 -----
 Symbolic Z-matrix:
 Charge =  0 Multiplicity = 1

 SCF Done:  E(RHF) =  -1125.27562688     A.U. after   14 cycles
 Normal termination of Gaussian 16 at Fri Sep 20 23:55:06 2024.
 Gaussian 16:  ES64L-G16RevC.01  3-Jul-2019

 ----------------------------------------------------------------------
 #t symm=none mp2 aug-cc-pvdz geom=allcheck guess=(read,tcheck) int=(gr
 id=ultrafine)
 ----------------------------------------------------------------------
 Structure from the checkpoint file:  "06_25P.chk"
 -----
 title
 -----
 Charge =  0 Multiplicity = 1

                          Input orientation:
 ---------------------------------------------------------------------
 Center     Atomic      Atomic             Coordinates (Angstroms)
 Number     Number       Type             X           Y           Z
 ---------------------------------------------------------------------
      1          6           0        0.322445   -2.872942   -0.358443
      2          6           0       -0.252025   -1.572739    0.276385
      3          6           0        2.695845   -0.667203    0.020463
      4          1           0       -0.451653   -3.320028   -0.988516
      5          6           0        0.110365   -1.412687    1.765860
      6          1           0        3.653170   -0.172450   -0.169040
      7          1           0       -1.338087   -1.672116    0.252102
      8          6           0        1.560040   -1.678036    2.152277
      9          1           0        1.640938   -1.622450    3.242586
     10          1           0        1.821425   -2.708755    1.896297
     11          6           0        2.594407   -0.732795    1.554500
     12          1           0        2.423613    0.272322    1.949316
     13          1           0        3.577275   -1.034283    1.933319
     14          6           0        2.823634   -2.074798   -0.617978
     15          1           0        3.569121   -2.021025   -1.417409
     16          6           0        1.566756   -2.694817   -1.240529
     17          1           0        1.286929   -2.097124   -2.117198
     18          1           0        1.844061   -3.673606   -1.644419
     19          1           0        3.240269   -2.764300    0.123646
     20          1           0        0.525391   -3.607049    0.427502
     21          6           0        1.610774    0.195652   -0.667965
     22          1           0        1.905336    0.318508   -1.721729
     23         14           0        1.616284    2.030789   -0.120978
     24          6           0        0.476143    2.378345    1.330708
     25          1           0        0.811162    1.887485    2.246528
     26          1           0        0.445170    3.453855    1.527738
     27          1           0       -0.546477    2.048332    1.130628
     28          6           0        1.074691    3.106802   -1.567705
     29          1           0        1.190269    4.161984   -1.304777
     30          1           0        1.687907    2.919893   -2.453239
     31          1           0        0.031130    2.953498   -1.845860
     32          6           0        3.373703    2.548258    0.309695
     33          1           0        4.050965    2.385916   -0.532946
     34          1           0        3.395116    3.615473    0.547223
     35          1           0        3.776810    2.010588    1.169413
     36          5           0        0.169055   -0.397737   -0.681975
     37          6           0       -2.079815   -0.613886   -2.038192
     38          6           0       -3.215753   -0.637021   -1.333110
     39          6           0       -0.854460    0.177983   -1.766870
     40          6           0       -3.439390    0.165798   -0.124781
     41          8           0       -2.641433    0.896527    0.418860
     42          8           0       -4.686956   -0.010240    0.348148
     43          6           0       -5.008460    0.716115    1.535178
     44          1           0       -6.033669    0.447163    1.775541
     45          1           0       -4.337424    0.435850    2.347256
     46          1           0       -4.924407    1.788877    1.361110
     47          1           0       -4.039952   -1.268762   -1.637192
     48          1           0       -0.514604   -2.110040    2.335604
     49          1           0       -0.182632   -0.412696    2.100637
     50          1           0       -1.136595    1.143845   -1.335566
     51          1           0       -0.327112    0.384281   -2.701851
     52          1           0       -2.042967   -1.268006   -2.906163
 ---------------------------------------------------------------------

 SCF Done:  E(RHF) =  -1125.27562688     A.U. after    2 cycles
 E2 =    -0.3077766993D+01 EUMP2 =    -0.11283533938682D+04

 Alpha  occ. eigenvalues --  -68.75524 -20.60801 -20.54737 -11.38380 -11.28870
 Alpha  occ. eigenvalues --  -11.26863 -11.23466 -11.22384 -11.22165 -11.22024
 Alpha  occ. eigenvalues --  -11.21603 -11.21229 -11.21043 -11.20973 -11.20667
 Alpha  occ. eigenvalues --  -11.19583 -11.19524 -11.18893 -11.18767 -11.18065
 Alpha  occ. eigenvalues --   -7.57906  -6.10169  -4.20797  -4.20788  -4.20783
 Alpha  occ. eigenvalues --   -1.46299  -1.35858  -1.11304  -1.09471  -1.04292
 Alpha  occ. eigenvalues --   -1.04016  -1.00097  -0.97433  -0.94888  -0.93432
 Alpha  occ. eigenvalues --   -0.91703  -0.91380  -0.91141  -0.87337  -0.82878
 Alpha  occ. eigenvalues --   -0.79319  -0.78065  -0.75559  -0.71253  -0.69539
 Alpha  occ. eigenvalues --   -0.66944  -0.66314  -0.65768  -0.64407  -0.63671
 Alpha  occ. eigenvalues --   -0.61463  -0.60795  -0.59583  -0.58361  -0.57405
 Alpha  occ. eigenvalues --   -0.56958  -0.56452  -0.56149  -0.55765  -0.55215
 Alpha  occ. eigenvalues --   -0.54601  -0.53982  -0.53590  -0.53021  -0.52811
 Alpha  occ. eigenvalues --   -0.52366  -0.51837  -0.51710  -0.51495  -0.48604
 Alpha  occ. eigenvalues --   -0.48001  -0.47242  -0.45917  -0.45862  -0.44550
 Alpha  occ. eigenvalues --   -0.44133  -0.43571  -0.42409  -0.42174  -0.41042
 Alpha  occ. eigenvalues --   -0.40662  -0.40003  -0.37586  -0.35778
 Alpha virt. eigenvalues --    0.02809   0.03497   0.03646   0.03839   0.04582
 Alpha virt. eigenvalues --    0.04839   0.05018   0.05183   0.05352   0.06171
 Alpha virt. eigenvalues --    0.06477   0.06912   0.06985   0.07050   0.07126

 Mulliken charges:
               1
     1  C    0.533866
     2  C    0.378400
     3  C   -0.129503
     4  H   -0.320165
     5  C    0.429974
     6  H   -0.323700
     7  H   -0.423563
     8  C    0.342550
     9  H   -0.271947
    10  H   -0.041978
    11  C    0.656545
    12  H   -0.204254
    13  H   -0.240461
    14  C    0.510891
    15  H   -0.194823
    16  C    0.647408
    17  H    0.175303
    18  H   -0.305090
    19  H   -0.170842
    20  H   -0.187691
    21  C   -0.619473
    22  H   -0.570366
    23  Si   0.610654
    24  C    1.287978
    25  H   -0.331820
    26  H   -0.487730
    27  H   -0.552615
    28  C    0.951169
    29  H   -0.439784
    30  H   -0.279848
    31  H   -0.351712
    32  C    0.971607
    33  H   -0.377357
    34  H   -0.545672
    35  H   -0.306836
    36  B    0.217357
    37  C    0.850135
    38  C    0.929254
    39  C    0.157573
    40  C    1.032627
    41  O   -0.703640
    42  O   -1.022654
    43  C    0.907964
    44  H   -0.290191
    45  H   -0.091542
    46  H   -0.091793
    47  H   -0.683256
    48  H   -0.280508
    49  H   -0.219306
    50  H    0.052122
    51  H    0.084895
    52  H   -0.668151
 Sum of Mulliken charges =  -0.00000

 Dipole moment (field-independent basis, Debye):
    X=             -0.3870    Y=             -0.8214    Z=             -0.6703  Tot=              1.1286
 Unable to Open any file for archive entry.
 1\1\GINC-SE374\SP\RMP2-FC\Aug-CC-pVDZ\C17H31B1O2Si1\OHZDE\21-Sep-2024\
 0\\#t symm=none mp2 aug-cc-pvdz geom=allcheck guess=(read,tcheck) int=
 (grid=ultrafine)\\title\\0,1\C,0,0.322445,-2.872942,-0.358443\C,0,-0.2
 52025,-1.572739,0.276385\C,0,2.695845,-0.667203,0.020463\H,0,-0.451653
 ,-3.320028,-0.988516\C,0,0.110365,-1.412687,1.76586\H,0,3.65317,-0.172
 45,-0.16904\H,0,-1.338087,-1.672116,0.252102\C,0,1.56004,-1.678036,2.1
 52277\H,0,1.640938,-1.62245,3.242586\H,0,1.821425,-2.708755,1.896297\C
 ,0,2.594407,-0.732795,1.5545\H,0,2.423613,0.272322,1.949316\H,0,3.5772
 75,-1.034283,1.933319\C,0,2.823634,-2.074798,-0.617978\H,0,3.569121,-2

 Normal termination of Gaussian 16 at Sat Sep 21 02:15:52 2024.
