 Gaussian 16, Revision C.01,

 ----------------------------------------------------------------------
 #t hf aug-cc-pvdz symm=none int=(grid=ultrafine) guess=(read,tcheck) s
 table=(opt,rrhf)
 ----------------------------------------------------------------------
 -----
 title
 -----
 Symbolic Z-matrix:
 Charge =  0 Multiplicity = 1

 SCF Done:  E(RHF) =  -1375.42845775     A.U. after   17 cycles
 Normal termination of Gaussian 16 at Fri Sep 20 13:28:20 2024.
 Gaussian 16:  ES64L-G16RevC.01  3-Jul-2019

 ----------------------------------------------------------------------
 #t symm=none mp2 aug-cc-pvdz geom=allcheck guess=(read,tcheck) int=(gr
 id=ultrafine)
 ----------------------------------------------------------------------
 Structure from the checkpoint file:  "02_87R.chk"
 -----
 title
 -----
 Charge =  0 Multiplicity = 1

                          Input orientation:
 ---------------------------------------------------------------------
 Center     Atomic      Atomic             Coordinates (Angstroms)
 Number     Number       Type             X           Y           Z
 ---------------------------------------------------------------------
      1          6           0       -1.304497    2.521784    0.958721
      2          1           0       -1.729347    3.502140    1.178283
      3          1           0       -0.852581    2.137083    1.894699
      4          6           0       -0.220092    2.658602   -0.080101
      5          6           0       -0.870717    0.449484   -0.990657
      6          1           0       -1.428384    0.855550   -1.839926
      7          1           0       -0.481412   -0.521547   -1.277261
      8          6           0       -1.849566    0.317601    0.184964
      9          1           0       -1.278986   -0.071567    1.052776
     10          7           0       -2.368571    1.642136    0.504593
     11          6           0        1.570903    1.054357   -0.722588
     12          6           0        0.202464    3.845444   -0.501077
     13          6           0        2.649780    1.889815   -0.181926
     14          6           0        3.950510    1.758414   -0.430376
     15          6           0        0.262747    1.370995   -0.628473
     16          6           0        5.012148    2.606667    0.189559
     17          1           0        4.588545    3.358826    0.857433
     18          1           0        5.712111    1.993457    0.765188
     19          1           0        5.600865    3.120326   -0.576314
     20          6           0       -2.955456   -0.681163   -0.102761
     21          6           0       -3.483343    1.597454    1.431675
     22          1           0       -3.726540    2.619406    1.729372
     23          1           0       -3.223098    1.041030    2.350794
     24          6           0       -4.671890    0.952589    0.745054
     25          1           0       -5.024837    1.620644   -0.046349
     26          6           0       -4.292503   -0.380441    0.156162
     27          1           0       -5.494536    0.822932    1.453011
     28          6           0       -5.272289   -1.334455   -0.112050
     29          1           0       -6.310033   -1.092324    0.092091
     30          6           0       -2.629157   -1.946859   -0.590181
     31          1           0       -1.591678   -2.206128   -0.763016
     32          6           0       -4.942496   -2.578813   -0.619102
     33          1           0       -5.717898   -3.308098   -0.820360
     34          6           0       -3.608695   -2.889212   -0.851178
     35          1           0       -3.331557   -3.864852   -1.231579
     36         16           0        2.046897   -0.449311   -1.570195
     37          6           0        2.742540   -1.426413   -0.251819
     38          6           0        2.350696   -1.282854    1.074620
     39          6           0        2.894580   -2.105983    2.049222
     40          6           0        3.818480   -3.085332    1.710192
     41          6           0        4.202582   -3.231944    0.384353
     42          6           0        3.674380   -2.402312   -0.593806
     43          1           0        1.627352   -0.524008    1.343999
     44          1           0        2.588218   -1.983013    3.081301
     45          1           0        4.237819   -3.728098    2.474262
     46          1           0        4.926113   -3.989614    0.108048
     47          1           0        3.989845   -2.506841   -1.625340
     48          1           0        0.970775    3.936220   -1.258424
     49          1           0       -0.219340    4.762616   -0.105979
     50          1           0        2.329926    2.665113    0.505819
     51          1           0        4.281640    0.990240   -1.122114
 ---------------------------------------------------------------------

 SCF Done:  E(RHF) =  -1375.42845775     A.U. after    3 cycles
 E2 =    -0.3640820097D+01 EUMP2 =    -0.13790692778424D+04

 Alpha  occ. eigenvalues --  -91.95786 -15.55948 -11.27170 -11.27040 -11.27032
 Alpha  occ. eigenvalues --  -11.26539 -11.25818 -11.25641 -11.24989 -11.24343
 Alpha  occ. eigenvalues --  -11.24309 -11.24132 -11.24034 -11.23964 -11.23912
 Alpha  occ. eigenvalues --  -11.23825 -11.23425 -11.23326 -11.23303 -11.23254
 Alpha  occ. eigenvalues --  -11.23207 -11.23173 -11.23124 -11.22869 -11.22825
 Alpha  occ. eigenvalues --  -11.22617  -8.95975  -6.64186  -6.64033  -6.63858
 Alpha  occ. eigenvalues --   -1.26122  -1.16901  -1.15974  -1.14280  -1.08996
 Alpha  occ. eigenvalues --   -1.06922  -1.05818  -1.05215  -1.02362  -1.02048
 Alpha  occ. eigenvalues --   -1.00161  -0.97427  -0.93728  -0.93070  -0.90403
 Alpha  occ. eigenvalues --   -0.86128  -0.83882  -0.83496  -0.81985  -0.80994
 Alpha  occ. eigenvalues --   -0.78933  -0.75810  -0.74841  -0.70647  -0.69666
 Alpha  occ. eigenvalues --   -0.68821  -0.66395  -0.66028  -0.64343  -0.63973
 Alpha  occ. eigenvalues --   -0.63198  -0.62737  -0.62177  -0.60738  -0.60348
 Alpha  occ. eigenvalues --   -0.59351  -0.59161  -0.58862  -0.57261  -0.56631
 Alpha  occ. eigenvalues --   -0.56363  -0.56042  -0.54972  -0.53733  -0.53218
 Alpha  occ. eigenvalues --   -0.52526  -0.52224  -0.51445  -0.51416  -0.50868
 Alpha  occ. eigenvalues --   -0.49884  -0.49278  -0.48265  -0.47504  -0.46255
 Alpha  occ. eigenvalues --   -0.45715  -0.44531  -0.41272  -0.39550  -0.37570
 Alpha  occ. eigenvalues --   -0.36321  -0.34119  -0.32728  -0.32089  -0.30649
 Alpha  occ. eigenvalues --   -0.29537
 Alpha virt. eigenvalues --    0.02984   0.03359   0.03580   0.03859   0.04219
 Alpha virt. eigenvalues --    0.04550   0.04769   0.05134   0.05528   0.05692
 Alpha virt. eigenvalues --    0.06006   0.06387   0.06527   0.06845   0.07340

 Mulliken charges:
               1
     1  C    0.458075
     2  H   -0.468077
     3  H   -0.019597
     4  C   -0.685116
     5  C    0.245164
     6  H   -0.021994
     7  H   -0.166131
     8  C   -0.477956
     9  H   -0.190572
    10  N   -0.904655
    11  C   -0.329130
    12  C    1.706126
    13  C    1.434882
    14  C   -0.177585
    15  C    0.530040
    16  C    0.301255
    17  H   -0.208327
    18  H    0.077874
    19  H    0.083299
    20  C    0.761963
    21  C    1.015418
    22  H   -0.291094
    23  H   -0.144459
    24  C    0.506949
    25  H    0.092173
    26  C   -0.454493
    27  H   -0.027833
    28  C    0.770254
    29  H   -0.653038
    30  C    1.378634
    31  H   -0.691306
    32  C    0.312137
    33  H   -0.466137
    34  C   -0.495409
    35  H   -0.552967
    36  S   -0.003165
    37  C    0.657692
    38  C    0.718921
    39  C    0.257855
    40  C    0.682519
    41  C    0.338625
    42  C    0.227664
    43  H   -0.755568
    44  H   -0.561381
    45  H   -0.480566
    46  H   -0.481458
    47  H   -0.622183
    48  H   -0.426499
    49  H   -0.515299
    50  H   -0.715527
    51  H   -0.569998
 Sum of Mulliken charges =  -0.00000

 Dipole moment (field-independent basis, Debye):
    X=              0.0050    Y=              0.7793    Z=              2.1545  Tot=              2.2912
 Unable to Open any file for archive entry.
 1\1\GINC-SE359\SP\RMP2-FC\Aug-CC-pVDZ\C24H25N1S1\OHZDE\20-Sep-2024\0\\
 #t symm=none mp2 aug-cc-pvdz geom=allcheck guess=(read,tcheck) int=(gr
 id=ultrafine)\\title\\0,1\C,0,-1.304497,2.521784,0.958721\H,0,-1.72934
 7,3.50214,1.178283\H,0,-0.852581,2.137083,1.894699\C,0,-0.220092,2.658
 602,-0.080101\C,0,-0.870717,0.449484,-0.990657\H,0,-1.428384,0.85555,-
 1.839926\H,0,-0.481412,-0.521547,-1.277261\C,0,-1.849566,0.317601,0.18
 4964\H,0,-1.278986,-0.071567,1.052776\N,0,-2.368571,1.642136,0.504593\
 C,0,1.570903,1.054357,-0.722588\C,0,0.202464,3.845444,-0.501077\C,0,2.
 64978,1.889815,-0.181926\C,0,3.95051,1.758414,-0.430376\C,0,0.262747,1

 Normal termination of Gaussian 16 at Fri Sep 20 17:42:40 2024.
