 Gaussian 16, Revision C.01,

 ----------------------------------------------------------------------
 #t hf aug-cc-pvdz symm=none int=(grid=ultrafine) guess=(read,tcheck) s
 table=(opt,rrhf)
 ----------------------------------------------------------------------
 -----
 title
 -----
 Symbolic Z-matrix:
 Charge =  0 Multiplicity = 1

 SCF Done:  E(RHF) =  -1112.24452176     A.U. after   16 cycles
 Normal termination of Gaussian 16 at Fri Sep 20 10:27:47 2024.
 Gaussian 16:  ES64L-G16RevC.01  3-Jul-2019

 ----------------------------------------------------------------------
 #t symm=none mp2 aug-cc-pvdz geom=allcheck guess=(read,tcheck) int=(gr
 id=ultrafine)
 ----------------------------------------------------------------------
 Structure from the checkpoint file:  "02_121P.chk"
 -----
 title
 -----
 Charge =  0 Multiplicity = 1

                          Input orientation:
 ---------------------------------------------------------------------
 Center     Atomic      Atomic             Coordinates (Angstroms)
 Number     Number       Type             X           Y           Z
 ---------------------------------------------------------------------
      1          6           0       -3.359688   -1.579835   -0.509409
      2          6           0       -4.744073   -1.553826    0.133322
      3          6           0       -5.226808   -0.138362    0.412397
      4          6           0       -4.208077    0.644910    1.228615
      5          6           0       -2.803620    0.642538    0.615928
      6          6           0       -2.328458   -0.819619    0.348173
      7          1           0       -5.458446   -2.063323   -0.516699
      8          1           0       -4.711577   -2.099902    1.080597
      9          1           0       -3.023642   -2.617236   -0.585479
     10          1           0       -4.553810    1.675932    1.362110
     11          1           0       -4.165671    0.205515    2.232180
     12          1           0       -6.178426   -0.177948    0.953722
     13          8           0       -5.453012    0.478998   -0.865831
     14          1           0       -5.713815    1.395565   -0.740613
     15          8           0       -3.395621   -1.092778   -1.842447
     16          1           0       -4.055251   -0.388154   -1.886610
     17          6           0       -0.991817   -0.789864   -0.322774
     18          6           0       -1.847465    1.377961    1.510645
     19          1           0       -2.006507    1.249262    2.579588
     20          6           0        0.211860   -0.839453    0.244308
     21          6           0        0.452824   -1.127070    1.700353
     22          1           0        1.123081   -1.980909    1.831214
     23          1           0       -0.469036   -1.351708    2.231756
     24          1           0        0.915622   -0.275939    2.207817
     25          6           0        1.407901   -0.424881   -0.583125
     26          6           0        1.724905    1.083610   -0.268959
     27          6           0        2.665301   -1.317291   -0.429905
     28          6           0        3.721319   -0.583396    0.394987
     29          1           0        2.391633   -2.212271    0.133841
     30          1           0        3.286792   -0.300616    1.360661
     31          6           0       -0.800968    2.099647    1.119281
     32          1           0       -0.157505    2.522208    1.888176
     33          6           0        3.187690   -1.762014   -1.795796
     34          1           0        2.391328   -2.260740   -2.351234
     35          1           0        3.529085   -0.910831   -2.388904
     36          1           0        4.018468   -2.463023   -1.705984
     37          6           0        5.004238   -1.347495    0.655955
     38          1           0        4.734457   -2.329026    1.058495
     39          1           0        5.512549   -1.518942   -0.294993
     40          6           0        5.935544   -0.619233    1.617613
     41          1           0        5.459621   -0.470531    2.590837
     42          1           0        6.853275   -1.187296    1.779424
     43          1           0        6.207800    0.359977    1.222001
     44          8           0        4.100361    0.628082   -0.292387
     45          6           0        3.125080    1.450656   -0.720906
     46          8           0        3.400263    2.399292   -1.399801
     47          6           0        0.700643    1.992702   -0.874633
     48          6           0       -0.422702    2.384244   -0.281933
     49          1           0       -2.274196   -1.334662    1.313045
     50          1           0       -2.836665    1.143498   -0.355757
     51          1           0        1.102800   -0.455099   -1.630601
     52          1           0        1.724509    1.199405    0.819710
     53          1           0        0.889979    2.289243   -1.900177
     54          1           0       -1.125634    2.973104   -0.865902
     55          1           0       -1.048512   -0.567889   -1.383303
 ---------------------------------------------------------------------

 SCF Done:  E(RHF) =  -1112.24452177     A.U. after    2 cycles
 E2 =    -0.3807815455D+01 EUMP2 =    -0.11160523372197D+04

 Alpha  occ. eigenvalues --  -20.60030 -20.58860 -20.54900 -20.54115 -11.37671
 Alpha  occ. eigenvalues --  -11.30148 -11.30016 -11.28309 -11.25802 -11.24994
 Alpha  occ. eigenvalues --  -11.24427 -11.24424 -11.24275 -11.24004 -11.23855
 Alpha  occ. eigenvalues --  -11.23795 -11.23642 -11.23565 -11.23512 -11.23491
 Alpha  occ. eigenvalues --  -11.23463 -11.23220 -11.22493 -11.22216 -11.21904
 Alpha  occ. eigenvalues --   -1.45640  -1.38877  -1.36049  -1.35182  -1.15590
 Alpha  occ. eigenvalues --   -1.13284  -1.10144  -1.08687  -1.06800  -1.04163
 Alpha  occ. eigenvalues --   -1.01414  -1.01057  -0.97566  -0.94441  -0.93873
 Alpha  occ. eigenvalues --   -0.89755  -0.87092  -0.85370  -0.82845  -0.82122
 Alpha  occ. eigenvalues --   -0.80077  -0.77188  -0.73932  -0.73423  -0.72364
 Alpha  occ. eigenvalues --   -0.71100  -0.70295  -0.68092  -0.67320  -0.65762
 Alpha  occ. eigenvalues --   -0.65645  -0.64433  -0.63403  -0.62538  -0.61729
 Alpha  occ. eigenvalues --   -0.61175  -0.60414  -0.60089  -0.59202  -0.58673
 Alpha  occ. eigenvalues --   -0.58139  -0.57397  -0.57096  -0.56663  -0.54980
 Alpha  occ. eigenvalues --   -0.54489  -0.53931  -0.53597  -0.53106  -0.52802
 Alpha  occ. eigenvalues --   -0.51633  -0.51214  -0.50446  -0.49835  -0.49634
 Alpha  occ. eigenvalues --   -0.49582  -0.48867  -0.48288  -0.47611  -0.46555
 Alpha  occ. eigenvalues --   -0.46002  -0.45819  -0.43830  -0.43197  -0.42780
 Alpha  occ. eigenvalues --   -0.41247  -0.38108  -0.33600  -0.33283
 Alpha virt. eigenvalues --    0.02292   0.02801   0.03430   0.03578   0.04125
 Alpha virt. eigenvalues --    0.04520   0.04734   0.05126   0.05442   0.05911
 Alpha virt. eigenvalues --    0.05951   0.06127   0.06828   0.06948   0.07515

 Mulliken charges:
               1
     1  C    1.280516
     2  C    0.811777
     3  C    0.983212
     4  C    0.394685
     5  C    0.363614
     6  C   -0.389674
     7  H   -0.108492
     8  H   -0.032793
     9  H   -0.420753
    10  H   -0.256302
    11  H   -0.128486
    12  H   -0.201600
    13  O   -0.931575
    14  H    0.180679
    15  O   -0.905201
    16  H    0.257270
    17  C    1.125716
    18  C    0.739472
    19  H   -0.709134
    20  C   -1.052111
    21  C    0.879218
    22  H   -0.001025
    23  H   -0.391764
    24  H    0.086605
    25  C   -0.196642
    26  C    0.552723
    27  C   -0.237970
    28  C    0.667562
    29  H   -0.601189
    30  H   -0.392527
    31  C    0.593075
    32  H   -0.444423
    33  C    1.141118
    34  H   -0.126320
    35  H   -0.001903
    36  H   -0.142531
    37  C    0.527413
    38  H   -0.115587
    39  H   -0.108335
    40  C    0.700528
    41  H   -0.085081
    42  H   -0.110215
    43  H   -0.019637
    44  O   -1.046304
    45  C    0.952506
    46  O   -0.881153
    47  C    0.873301
    48  C    0.661306
    49  H   -0.415095
    50  H   -0.381031
    51  H   -0.452656
    52  H   -0.327284
    53  H   -0.688232
    54  H   -0.453793
    55  H   -1.015476
 Sum of Mulliken charges =  -0.00000

 Dipole moment (field-independent basis, Debye):
    X=             -3.9092    Y=             -2.6772    Z=              5.0107  Tot=              6.8962
 Unable to Open any file for archive entry.
 1\1\GINC-SE125\SP\RMP2-FC\Aug-CC-pVDZ\C21H30O4\OHZDE\20-Sep-2024\0\\#t
  symm=none mp2 aug-cc-pvdz geom=allcheck guess=(read,tcheck) int=(grid
 =ultrafine)\\title\\0,1\C,0,-3.359688,-1.579835,-0.509409\C,0,-4.74407
 3,-1.553826,0.133322\C,0,-5.226808,-0.138362,0.412397\C,0,-4.208077,0.
 64491,1.228615\C,0,-2.80362,0.642538,0.615928\C,0,-2.328458,-0.819619,
 0.348173\H,0,-5.458446,-2.063323,-0.516699\H,0,-4.711577,-2.099902,1.0
 80597\H,0,-3.023642,-2.617236,-0.585479\H,0,-4.55381,1.675932,1.36211\
 H,0,-4.165671,0.205515,2.23218\H,0,-6.178426,-0.177948,0.953722\O,0,-5
 .453012,0.478998,-0.865831\H,0,-5.713815,1.395565,-0.740613\O,0,-3.395

 Normal termination of Gaussian 16 at Fri Sep 20 13:32:55 2024.
