 Gaussian 16, Revision C.01,

 ----------------------------------------------------------------------
 #t hf aug-cc-pvdz symm=none int=(grid=ultrafine) guess=(read,tcheck) s
 table=(opt,rrhf)
 ----------------------------------------------------------------------
 -----
 title
 -----
 Symbolic Z-matrix:
 Charge =  0 Multiplicity = 1

 SCF Done:  E(RHF) =  -904.507215239     A.U. after   15 cycles
 Normal termination of Gaussian 16 at Fri Sep 20 14:01:10 2024.
 Gaussian 16:  ES64L-G16RevC.01  3-Jul-2019

 ----------------------------------------------------------------------
 #t symm=none mp2 aug-cc-pvdz geom=allcheck guess=(read,tcheck) int=(gr
 id=ultrafine)
 ----------------------------------------------------------------------
 Structure from the checkpoint file:  "02_94P.chk"
 -----
 title
 -----
 Charge =  0 Multiplicity = 1

                          Input orientation:
 ---------------------------------------------------------------------
 Center     Atomic      Atomic             Coordinates (Angstroms)
 Number     Number       Type             X           Y           Z
 ---------------------------------------------------------------------
      1          6           0       -0.031107   -2.303322   -0.695531
      2          1           0       -0.171949   -2.533942   -1.772709
      3          6           0        1.222524   -1.497332   -0.540921
      4          6           0       -0.098567    0.461391    0.114504
      5          1           0       -0.279110    0.508781    1.193212
      6          1           0       -0.093417    1.485107   -0.243700
      7          6           0       -1.270249   -0.270980   -0.535949
      8          1           0       -1.149529   -0.195303   -1.635380
      9          7           0       -1.201929   -1.666774   -0.134221
     10          6           0        2.536622    0.487411    0.022653
     11          6           0        2.512645   -2.216549   -0.820579
     12          6           0        3.623546   -0.274570    0.196639
     13          6           0        3.584616   -1.779671    0.171181
     14          6           0        1.225199   -0.212086   -0.164479
     15          6           0        3.355905   -2.349600    1.576034
     16          1           0        3.369858   -3.442932    1.561010
     17          1           0        4.134006   -2.011077    2.263407
     18          1           0        2.392264   -2.022880    1.972392
     19          6           0       -2.415284   -2.408856   -0.407954
     20          1           0       -2.697603   -2.343461   -1.475171
     21          1           0       -2.231066   -3.462712   -0.187203
     22          6           0       -2.599969    0.369252   -0.183692
     23          6           0       -3.668961   -0.383341    0.302284
     24          6           0       -3.534680   -1.874394    0.464042
     25          1           0       -3.313558   -2.116197    1.508070
     26          1           0       -4.480260   -2.360343    0.210044
     27          1           0        0.105806   -3.267827   -0.195335
     28          6           0       -4.869490    0.253361    0.612208
     29          1           0       -5.696095   -0.340516    0.988098
     30          6           0       -2.773835    1.739907   -0.377517
     31          1           0       -1.962062    2.331599   -0.783946
     32          6           0       -5.025044    1.617125    0.438526
     33          1           0       -5.966247    2.094069    0.684028
     34          6           0       -3.969643    2.364515   -0.068629
     35          1           0       -4.079784    3.430633   -0.226299
     36          6           0        2.649086    2.019513   -0.013585
     37          6           0        2.104148    2.543375   -1.355400
     38          1           0        1.073100    2.251865   -1.547670
     39          1           0        2.709470    2.159473   -2.179710
     40          1           0        2.152659    3.635192   -1.380686
     41          6           0        4.109406    2.486123    0.069562
     42          1           0        4.570552    2.216738    1.021752
     43          1           0        4.140928    3.574670   -0.013111
     44          1           0        4.715500    2.072978   -0.738599
     45          6           0        1.924567    2.676642    1.176863
     46          1           0        2.322895    2.290137    2.117772
     47          1           0        0.850243    2.515912    1.181129
     48          1           0        2.094656    3.756446    1.159355
     49          1           0        2.846332   -1.982567   -1.839776
     50          1           0        2.366208   -3.299672   -0.776859
     51          1           0        4.552892   -2.141686   -0.186864
     52          1           0        4.588205    0.177445    0.380722
 ---------------------------------------------------------------------

 SCF Done:  E(RHF) =  -904.507215235     A.U. after    3 cycles
 E2 =    -0.3308077413D+01 EUMP2 =    -0.90781529264754D+03

 Alpha  occ. eigenvalues --  -15.55095 -11.26211 -11.25589 -11.25326 -11.24252
 Alpha  occ. eigenvalues --  -11.23843 -11.23724 -11.23378 -11.23305 -11.23204
 Alpha  occ. eigenvalues --  -11.23108 -11.23098 -11.22916 -11.22830 -11.22733
 Alpha  occ. eigenvalues --  -11.22570 -11.22307 -11.22237 -11.21583 -11.21555
 Alpha  occ. eigenvalues --  -11.21374 -11.21311 -11.21280  -1.25551  -1.15919
 Alpha  occ. eigenvalues --   -1.14972  -1.09885  -1.07780  -1.05617  -1.03880
 Alpha  occ. eigenvalues --   -1.00504  -0.99299  -0.97147  -0.93245  -0.92937
 Alpha  occ. eigenvalues --   -0.92422  -0.88136  -0.86166  -0.84276  -0.82760
 Alpha  occ. eigenvalues --   -0.81035  -0.76781  -0.75196  -0.72741  -0.69268
 Alpha  occ. eigenvalues --   -0.67176  -0.66013  -0.64818  -0.64248  -0.63199
 Alpha  occ. eigenvalues --   -0.61775  -0.60964  -0.60461  -0.59788  -0.59716
 Alpha  occ. eigenvalues --   -0.58880  -0.58633  -0.57273  -0.56360  -0.55878
 Alpha  occ. eigenvalues --   -0.54875  -0.54116  -0.53355  -0.52606  -0.52313
 Alpha  occ. eigenvalues --   -0.52137  -0.51437  -0.50857  -0.50768  -0.49787
 Alpha  occ. eigenvalues --   -0.49034  -0.48259  -0.47624  -0.46843  -0.46804
 Alpha  occ. eigenvalues --   -0.46284  -0.44593  -0.43460  -0.41763  -0.38543
 Alpha  occ. eigenvalues --   -0.35650  -0.32625  -0.31916  -0.28907
 Alpha virt. eigenvalues --    0.03103   0.03450   0.03569   0.04129   0.04403
 Alpha virt. eigenvalues --    0.04605   0.05244   0.05359   0.05468   0.05764
 Alpha virt. eigenvalues --    0.05931   0.06882   0.06965   0.07328   0.07354

 Mulliken charges:
               1
     1  C    0.373950
     2  H    0.151685
     3  C   -1.709767
     4  C    0.001686
     5  H   -0.038830
     6  H   -0.250688
     7  C    0.116160
     8  H   -0.191015
     9  N   -0.798257
    10  C    0.010140
    11  C    1.030270
    12  C    0.937714
    13  C   -0.605674
    14  C    0.071455
    15  C    0.904214
    16  H   -0.101486
    17  H   -0.135596
    18  H    0.006578
    19  C    1.036083
    20  H   -0.153016
    21  H   -0.298817
    22  C    0.809332
    23  C   -0.393373
    24  C    0.574369
    25  H    0.096777
    26  H   -0.041143
    27  H   -0.120865
    28  C    0.839892
    29  H   -0.652113
    30  C    0.943099
    31  H   -0.618357
    32  C    0.212684
    33  H   -0.473964
    34  C   -0.054893
    35  H   -0.563119
    36  C   -2.985447
    37  C    1.368718
    38  H   -0.273354
    39  H   -0.086555
    40  H   -0.092340
    41  C    1.531042
    42  H    0.077953
    43  H   -0.144308
    44  H    0.083281
    45  C    1.283383
    46  H   -0.080379
    47  H   -0.322107
    48  H   -0.101495
    49  H   -0.033904
    50  H   -0.151555
    51  H   -0.164416
    52  H   -0.823635
 Sum of Mulliken charges =  -0.00000

 Dipole moment (field-independent basis, Debye):
    X=              0.1862    Y=             -0.6325    Z=             -0.5618  Tot=              0.8662
 Unable to Open any file for archive entry.
 1\1\GINC-SE397\SP\RMP2-FC\Aug-CC-pVDZ\C22H29N1\OHZDE\20-Sep-2024\0\\#t
  symm=none mp2 aug-cc-pvdz geom=allcheck guess=(read,tcheck) int=(grid
 =ultrafine)\\title\\0,1\C,0,-0.031107,-2.303322,-0.695531\H,0,-0.17194
 9,-2.533942,-1.772709\C,0,1.222524,-1.497332,-0.540921\C,0,-0.098567,0
 .461391,0.114504\H,0,-0.27911,0.508781,1.193212\H,0,-0.093417,1.485107
 ,-0.2437\C,0,-1.270249,-0.27098,-0.535949\H,0,-1.149529,-0.195303,-1.6
 3538\N,0,-1.201929,-1.666774,-0.134221\C,0,2.536622,0.487411,0.022653\
 C,0,2.512645,-2.216549,-0.820579\C,0,3.623546,-0.27457,0.196639\C,0,3.
 584616,-1.779671,0.171181\C,0,1.225199,-0.212086,-0.164479\C,0,3.35590

 Normal termination of Gaussian 16 at Fri Sep 20 18:43:14 2024.
