 Gaussian 16, Revision C.01,

 ----------------------------------------------------------------------
 #t hf aug-cc-pvdz symm=none int=(grid=ultrafine) guess=(read,tcheck) s
 table=(opt,rrhf)
 ----------------------------------------------------------------------
 -----
 title
 -----
 Symbolic Z-matrix:
 Charge =  0 Multiplicity = 1

 SCF Done:  E(RHF) =  -1112.19881931     A.U. after   16 cycles
 Normal termination of Gaussian 16 at Fri Sep 20 10:07:37 2024.
 Gaussian 16:  ES64L-G16RevC.01  3-Jul-2019

 ----------------------------------------------------------------------
 #t symm=none mp2 aug-cc-pvdz geom=allcheck guess=(read,tcheck) int=(gr
 id=ultrafine)
 ----------------------------------------------------------------------
 Structure from the checkpoint file:  "02_119R.chk"
 -----
 title
 -----
 Charge =  0 Multiplicity = 1

                          Input orientation:
 ---------------------------------------------------------------------
 Center     Atomic      Atomic             Coordinates (Angstroms)
 Number     Number       Type             X           Y           Z
 ---------------------------------------------------------------------
      1          6           0        5.531255    0.560168    1.988364
      2          6           0        5.125053   -0.554207    1.032454
      3          6           0        3.750817   -0.326989    0.419226
      4          6           0        3.263395   -1.509867   -0.447106
      5          6           0        1.797404   -1.397537   -0.755749
      6          6           0        0.769275   -1.983793   -0.127513
      7          6           0       -0.590049   -1.641936   -0.562438
      8          6           0       -1.725759   -2.092154   -0.030702
      9          6           0       -3.614693    1.482497    0.947669
     10          6           0       -3.251873    2.401229    0.049456
     11          6           0       -1.869842    2.799880   -0.222773
     12          6           0       -0.786684    2.104079    0.152870
     13          6           0        0.569611    2.419205   -0.226395
     14          6           0        1.592272    1.615695    0.086907
     15          6           0        2.937611    1.854790   -0.472579
     16          6           0        4.070369   -1.655631   -1.739262
     17          6           0       -3.096293   -1.649912   -0.467591
     18          6           0       -4.019625   -1.448268    0.759533
     19          6           0       -5.221684   -0.494571    0.563077
     20          6           0       -4.985911    0.927658    1.145869
     21          6           0        0.911221   -2.931058    1.030120
     22          8           0        3.236396    2.856795   -1.067238
     23          8           0        3.866516    0.878581   -0.360120
     24          8           0       -3.038042   -0.527470   -1.343750
     25          8           0       -5.670679   -0.449600   -0.775240
     26          1           0        5.576631    1.517863    1.468601
     27          1           0        6.513773    0.364113    2.421078
     28          1           0        4.817922    0.654159    2.812193
     29          1           0        5.861398   -0.641730    0.230835
     30          1           0        5.104854   -1.513710    1.558182
     31          1           0        3.041276   -0.168576    1.234581
     32          1           0        3.431939   -2.398252    0.165826
     33          1           0        1.554722   -0.729080   -1.578877
     34          1           0        0.757294    3.296259   -0.838562
     35          1           0        1.402539    0.729618    0.672314
     36          1           0        3.976154   -0.761046   -2.356448
     37          1           0        3.705418   -2.508623   -2.313606
     38          1           0        5.130623   -1.813909   -1.538998
     39          1           0       -3.543701   -2.428794   -1.090177
     40          1           0       -3.427920   -1.108274    1.613525
     41          1           0       -4.391463   -2.440109    1.027826
     42          1           0       -6.067675   -0.902251    1.119118
     43          1           0       -5.188169    0.878902    2.221245
     44          1           0       -5.739958    1.578905    0.700097
     45          1           0        0.410230   -3.878748    0.816464
     46          1           0        0.442862   -2.517802    1.928278
     47          1           0        1.949747   -3.149713    1.267481
     48          1           0       -2.644925    0.224516   -0.885489
     49          1           0       -4.900257   -0.279412   -1.337378
     50          1           0       -0.908421    1.188706    0.725517
     51          1           0       -1.728980    3.690526   -0.828253
     52          1           0       -2.841766    1.061874    1.586465
     53          1           0       -4.018279    2.864158   -0.565893
     54          1           0       -1.710224   -2.813652    0.780883
     55          1           0       -0.654398   -0.938032   -1.386662
 ---------------------------------------------------------------------

 SCF Done:  E(RHF) =  -1112.19881931     A.U. after    2 cycles
 E2 =    -0.3781534229D+01 EUMP2 =    -0.11159803535422D+04

 Alpha  occ. eigenvalues --  -20.59984 -20.58121 -20.55171 -20.53657 -11.38395
 Alpha  occ. eigenvalues --  -11.30695 -11.30517 -11.29446 -11.27216 -11.26960
 Alpha  occ. eigenvalues --  -11.26014 -11.25840 -11.25564 -11.25354 -11.25016
 Alpha  occ. eigenvalues --  -11.24757 -11.24633 -11.24460 -11.24229 -11.24218
 Alpha  occ. eigenvalues --  -11.24170 -11.24051 -11.23632 -11.22513 -11.22347
 Alpha  occ. eigenvalues --   -1.45181  -1.38877  -1.35577  -1.35371  -1.14253
 Alpha  occ. eigenvalues --   -1.14006  -1.10542  -1.10348  -1.07288  -1.05612
 Alpha  occ. eigenvalues --   -1.03585  -1.00866  -0.97328  -0.95345  -0.94417
 Alpha  occ. eigenvalues --   -0.90923  -0.88901  -0.85128  -0.83945  -0.82354
 Alpha  occ. eigenvalues --   -0.79856  -0.78531  -0.75401  -0.74739  -0.72889
 Alpha  occ. eigenvalues --   -0.71256  -0.70525  -0.68508  -0.67672  -0.67434
 Alpha  occ. eigenvalues --   -0.65932  -0.65397  -0.64431  -0.63717  -0.62985
 Alpha  occ. eigenvalues --   -0.61810  -0.60965  -0.60711  -0.59766  -0.58808
 Alpha  occ. eigenvalues --   -0.58446  -0.57919  -0.57303  -0.56570  -0.56340
 Alpha  occ. eigenvalues --   -0.54756  -0.54134  -0.53853  -0.53177  -0.52881
 Alpha  occ. eigenvalues --   -0.52444  -0.51845  -0.51157  -0.50512  -0.50127
 Alpha  occ. eigenvalues --   -0.49773  -0.49312  -0.48388  -0.48185  -0.47792
 Alpha  occ. eigenvalues --   -0.46859  -0.44552  -0.44419  -0.43920  -0.43550
 Alpha  occ. eigenvalues --   -0.41786  -0.39940  -0.32250  -0.30847
 Alpha virt. eigenvalues --    0.02303   0.03065   0.03497   0.03632   0.03981
 Alpha virt. eigenvalues --    0.04274   0.04532   0.04687   0.05142   0.05591
 Alpha virt. eigenvalues --    0.05828   0.05992   0.06121   0.06683   0.06976

 Mulliken charges:
               1
     1  C    0.741420
     2  C    0.477364
     3  C    0.343338
     4  C   -0.637843
     5  C    1.215601
     6  C   -0.970235
     7  C    0.594483
     8  C    0.731822
     9  C    1.071377
    10  C    0.487232
    11  C    0.361660
    12  C    1.147950
    13  C    0.942098
    14  C    1.038297
    15  C    0.567282
    16  C    1.176606
    17  C    1.145549
    18  C    0.524600
    19  C    0.842565
    20  C    0.154898
    21  C    0.735162
    22  O   -0.878631
    23  O   -1.128763
    24  O   -0.894137
    25  O   -0.846079
    26  H   -0.014016
    27  H   -0.121221
    28  H   -0.078843
    29  H   -0.118067
    30  H   -0.114562
    31  H   -0.277050
    32  H   -0.241980
    33  H   -0.828089
    34  H   -0.737591
    35  H   -0.922341
    36  H   -0.020811
    37  H   -0.110995
    38  H   -0.145490
    39  H   -0.239941
    40  H   -0.255561
    41  H   -0.181977
    42  H   -0.248002
    43  H    0.047732
    44  H   -0.153711
    45  H    0.158781
    46  H    0.236451
    47  H   -0.456112
    48  H    0.294276
    49  H    0.200525
    50  H   -1.083847
    51  H   -0.602617
    52  H   -0.568445
    53  H   -0.627545
    54  H   -0.853376
    55  H   -0.879191
 Sum of Mulliken charges =  -0.00000

 Dipole moment (field-independent basis, Debye):
    X=             -0.8279    Y=             -3.4314    Z=              4.3802  Tot=              5.6255
 Unable to Open any file for archive entry.
 1\1\GINC-SE112\SP\RMP2-FC\Aug-CC-pVDZ\C21H30O4\OHZDE\20-Sep-2024\0\\#t
  symm=none mp2 aug-cc-pvdz geom=allcheck guess=(read,tcheck) int=(grid
 =ultrafine)\\title\\0,1\C,0,5.531255,0.560168,1.988364\C,0,5.125053,-0
 .554207,1.032454\C,0,3.750817,-0.326989,0.419226\C,0,3.263395,-1.50986
 7,-0.447106\C,0,1.797404,-1.397537,-0.755749\C,0,0.769275,-1.983793,-0
 .127513\C,0,-0.590049,-1.641936,-0.562438\C,0,-1.725759,-2.092154,-0.0
 30702\C,0,-3.614693,1.482497,0.947669\C,0,-3.251873,2.401229,0.049456\
 C,0,-1.869842,2.79988,-0.222773\C,0,-0.786684,2.104079,0.15287\C,0,0.5
 69611,2.419205,-0.226395\C,0,1.592272,1.615695,0.086907\C,0,2.937611,1

 Normal termination of Gaussian 16 at Fri Sep 20 13:46:53 2024.
