 Gaussian 16, Revision C.01,

 ----------------------------------------------------------------------
 #t hf aug-cc-pvdz symm=none int=(grid=ultrafine) guess=(read,tcheck) s
 table=(opt,rrhf)
 ----------------------------------------------------------------------
 -----
 title
 -----
 Symbolic Z-matrix:
 Charge =  1 Multiplicity = 1

 SCF Done:  E(RHF) =  -1418.02824414     A.U. after   20 cycles
 Normal termination of Gaussian 16 at Fri Sep 20 23:33:00 2024.
 Gaussian 16:  ES64L-G16RevC.01  3-Jul-2019

 ----------------------------------------------------------------------
 #t symm=none mp2 aug-cc-pvdz geom=allcheck guess=(read,tcheck) int=(gr
 id=ultrafine)
 ----------------------------------------------------------------------
 Structure from the checkpoint file:  "05_37TS.chk"
 -----
 title
 -----
 Charge =  1 Multiplicity = 1

                          Input orientation:
 ---------------------------------------------------------------------
 Center     Atomic      Atomic             Coordinates (Angstroms)
 Number     Number       Type             X           Y           Z
 ---------------------------------------------------------------------
      1          6           0       -1.496114    2.726775   -0.014690
      2          6           0       -1.585617    4.108166   -0.038923
      3          6           0       -2.831524    4.716361   -0.119314
      4          6           0       -3.990114    3.948381   -0.176223
      5          6           0       -3.909896    2.568343   -0.153390
      6          6           0       -2.655930    1.957252   -0.071988
      7          1           0       -0.528760    2.244618    0.046166
      8          1           0       -0.688326    4.711979    0.003636
      9          1           0       -2.902207    5.796772   -0.138400
     10          1           0       -4.957415    4.430323   -0.239114
     11          1           0       -4.801289    1.956074   -0.197595
     12          6           0       -2.574884    0.500399   -0.049336
     13          1           0       -1.338955    0.112252    0.043802
     14          7           0       -3.333449   -0.431443   -0.092892
     15         14           0       -3.757805   -2.174933   -0.112590
     16          6           0       -2.912695   -2.874918   -1.614889
     17          1           0       -1.827988   -2.800643   -1.520766
     18          1           0       -3.170624   -3.930099   -1.736339
     19          1           0       -3.218103   -2.355323   -2.525377
     20          6           0       -3.109570   -2.865782    1.488990
     21          1           0       -3.522660   -2.336800    2.350278
     22          1           0       -3.386714   -3.918632    1.585889
     23          1           0       -2.021166   -2.797041    1.528944
     24          6           0       -5.609699   -2.228646   -0.228695
     25          1           0       -5.966793   -1.742654   -1.138835
     26          1           0       -5.958579   -3.264349   -0.247390
     27          1           0       -6.077937   -1.737021    0.626377
     28          6           0        1.483092   -0.516070   -1.129136
     29          6           0        1.340603   -0.463457    1.545994
     30          6           0        2.671407    0.294904    1.504771
     31          6           0        3.535936   -0.083668    0.316472
     32          6           0        2.787962    0.261625   -0.965996
     33          1           0        2.470822    1.371664    1.469884
     34          1           0        3.194979    0.093407    2.441662
     35          1           0        3.751500   -1.153647    0.326973
     36          1           0        2.580645    1.336851   -0.969619
     37          1           0        3.421659    0.043486   -1.825502
     38          7           0        0.741786   -0.517816    0.173835
     39          8           0       -0.483516   -0.816443    0.118704
     40          6           0        0.604863    0.159785   -2.179888
     41          1           0        1.170544    0.222216   -3.109694
     42          1           0       -0.304466   -0.406950   -2.376755
     43          1           0        0.336787    1.176534   -1.887699
     44          6           0        1.740026   -1.975383   -1.529076
     45          1           0        0.802577   -2.532261   -1.558186
     46          1           0        2.186752   -1.997293   -2.523767
     47          1           0        2.426454   -2.478086   -0.849934
     48          6           0        0.364892    0.263684    2.469465
     49          1           0       -0.567229   -0.286803    2.588903
     50          1           0        0.826198    0.360750    3.452660
     51          1           0        0.141702    1.268721    2.107513
     52          6           0        1.531554   -1.907784    2.029038
     53          1           0        1.864961   -1.897957    3.067829
     54          1           0        0.587584   -2.451317    1.978113
     55          1           0        2.273470   -2.445563    1.440765
     56          7           0        4.818327    0.586332    0.381995
     57          6           0        5.875493    0.111911   -0.343239
     58          8           0        5.752377   -0.866901   -1.054457
     59          1           0        4.927636    1.412938    0.946443
     60          6           0        7.174694    0.859536   -0.203660
     61          1           0        7.497204    1.188085   -1.191831
     62          1           0        7.111326    1.722081    0.460157
     63          1           0        7.931252    0.171523    0.174806
 ---------------------------------------------------------------------

 SCF Done:  E(RHF) =  -1418.02824414     A.U. after    3 cycles
 E2 =    -0.4119967971D+01 EUMP2 =    -0.14221482121130D+04

 Alpha  occ. eigenvalues --  -68.90354 -20.82668 -20.61126 -15.82295 -15.70679
 Alpha  occ. eigenvalues --  -15.68435 -11.46552 -11.44230 -11.42030 -11.41296
 Alpha  occ. eigenvalues --  -11.38515 -11.38114 -11.37511 -11.36938 -11.36377
 Alpha  occ. eigenvalues --  -11.35784 -11.35632 -11.35526 -11.34783 -11.34358
 Alpha  occ. eigenvalues --  -11.34243 -11.34079 -11.33618 -11.31917 -11.31028
 Alpha  occ. eigenvalues --  -11.30972 -11.30336  -6.24741  -4.35496  -4.35315
 Alpha  occ. eigenvalues --   -4.35298  -1.65741  -1.47541  -1.37803  -1.34023
 Alpha  occ. eigenvalues --   -1.30498  -1.28503  -1.23651  -1.16745  -1.16208
 Alpha  occ. eigenvalues --   -1.14610  -1.11885  -1.07980  -1.07920  -1.07011
 Alpha  occ. eigenvalues --   -1.05938  -1.05559  -1.03323  -1.02876  -1.00013
 Alpha  occ. eigenvalues --   -0.96497  -0.95609  -0.95453  -0.91847  -0.89408
 Alpha  occ. eigenvalues --   -0.88622  -0.84504  -0.82760  -0.81386  -0.80688
 Alpha  occ. eigenvalues --   -0.79058  -0.77795  -0.76221  -0.76015  -0.73796
 Alpha  occ. eigenvalues --   -0.73082  -0.72679  -0.72108  -0.71468  -0.71251
 Alpha  occ. eigenvalues --   -0.70210  -0.69482  -0.68783  -0.68532  -0.68057
 Alpha  occ. eigenvalues --   -0.67801  -0.67715  -0.67020  -0.66172  -0.66023
 Alpha  occ. eigenvalues --   -0.65764  -0.65086  -0.64523  -0.64237  -0.64145
 Alpha  occ. eigenvalues --   -0.63872  -0.63808  -0.63460  -0.63135  -0.62913
 Alpha  occ. eigenvalues --   -0.62266  -0.61548  -0.61082  -0.60603  -0.60157
 Alpha  occ. eigenvalues --   -0.59899  -0.59321  -0.57745  -0.57100  -0.54109
 Alpha  occ. eigenvalues --   -0.53956  -0.50768  -0.48372  -0.46064  -0.45729
 Alpha  occ. eigenvalues --   -0.42947
 Alpha virt. eigenvalues --   -0.13653  -0.05308  -0.05182  -0.04377  -0.03997
 Alpha virt. eigenvalues --   -0.03633  -0.02991  -0.02884  -0.02702  -0.02445
 Alpha virt. eigenvalues --   -0.01933  -0.01669  -0.01251  -0.01158  -0.00902

 Mulliken charges:
               1
     1  C    1.084656
     2  C    0.145122
     3  C    0.745413
     4  C   -0.027870
     5  C    1.108963
     6  C    1.439028
     7  H   -0.617729
     8  H   -0.597193
     9  H   -0.463709
    10  H   -0.468295
    11  H   -0.703557
    12  C   -0.586239
    13  H   -0.168780
    14  N   -1.249637
    15  Si   2.497322
    16  C    0.755572
    17  H   -0.752771
    18  H   -0.293586
    19  H   -0.224134
    20  C    0.746480
    21  H   -0.226308
    22  H   -0.296707
    23  H   -0.735819
    24  C    0.477645
    25  H   -0.252180
    26  H   -0.329466
    27  H   -0.253982
    28  C   -2.810751
    29  C   -3.494267
    30  C    1.274387
    31  C   -0.149367
    32  C    1.262096
    33  H   -0.021296
    34  H   -0.115522
    35  H   -0.324496
    36  H   -0.020161
    37  H   -0.144102
    38  N    0.730020
    39  O   -1.072312
    40  C    1.668227
    41  H   -0.129499
    42  H   -0.063808
    43  H   -0.115956
    44  C    1.355836
    45  H   -0.171968
    46  H   -0.022172
    47  H   -0.022192
    48  C    1.962972
    49  H   -0.034465
    50  H   -0.131950
    51  H   -0.080683
    52  C    1.422524
    53  H   -0.045066
    54  H   -0.141147
    55  H    0.021796
    56  N   -0.185177
    57  C    0.405473
    58  O   -0.858171
    59  H   -0.116396
    60  C    0.481960
    61  H    0.057248
    62  H   -0.181053
    63  H    0.057198
 Sum of Mulliken charges =   1.00000

 Dipole moment (field-independent basis, Debye):
    X=             -2.7701    Y=              3.5416    Z=              2.4837  Tot=              5.1366
 Unable to Open any file for archive entry.
 1\1\GINC-SE298\SP\RMP2-FC\Aug-CC-pVDZ\C21H36N3O2Si1\OHZDE\21-Sep-2024\
 0\\#t symm=none mp2 aug-cc-pvdz geom=allcheck guess=(read,tcheck) int=
 (grid=ultrafine)\\title\\1,1\C,0,-1.496114,2.726775,-0.01469\C,0,-1.58
 5617,4.108166,-0.038923\C,0,-2.831524,4.716361,-0.119314\C,0,-3.990114
 ,3.948381,-0.176223\C,0,-3.909896,2.568343,-0.15339\C,0,-2.65593,1.957
 252,-0.071988\H,0,-0.52876,2.244618,0.046166\H,0,-0.688326,4.711979,0.
 003636\H,0,-2.902207,5.796772,-0.1384\H,0,-4.957415,4.430323,-0.239114
 \H,0,-4.801289,1.956074,-0.197595\C,0,-2.574884,0.500399,-0.049336\H,0
 ,-1.338955,0.112252,0.043802\N,0,-3.333449,-0.431443,-0.092892\Si,0,-3

 Normal termination of Gaussian 16 at Sat Sep 21 04:22:59 2024.
