 Gaussian 16, Revision C.01,

 ----------------------------------------------------------------------
 #t hf aug-cc-pvdz symm=none int=(grid=ultrafine) guess=(read,tcheck) s
 table=(opt,rrhf)
 ----------------------------------------------------------------------
 -----
 title
 -----
 Symbolic Z-matrix:
 Charge = -1 Multiplicity = 1

 SCF Done:  E(RHF) =  -998.840878300     A.U. after   19 cycles
 Normal termination of Gaussian 16 at Fri Sep 20 13:02:00 2024.
 Gaussian 16:  ES64L-G16RevC.01  3-Jul-2019

 ----------------------------------------------------------------------
 #t symm=none mp2 aug-cc-pvdz geom=allcheck guess=(read,tcheck) int=(gr
 id=ultrafine)
 ----------------------------------------------------------------------
 Structure from the checkpoint file:  "02_83TS.chk"
 -----
 title
 -----
 Charge = -1 Multiplicity = 1

                          Input orientation:
 ---------------------------------------------------------------------
 Center     Atomic      Atomic             Coordinates (Angstroms)
 Number     Number       Type             X           Y           Z
 ---------------------------------------------------------------------
      1          6           0        4.279344   -0.802370   -1.306051
      2          6           0        3.189759    0.264833   -1.454669
      3          6           0        2.293261    0.251688   -0.254669
      4          6           0        2.455273   -0.472185    0.860192
      5          6           0        3.739623   -1.222430    1.118484
      6          6           0        4.833037   -0.829406    0.119822
      7          1           0        3.647395    1.258764   -1.567124
      8          1           0        2.627653    0.092934   -2.384234
      9          1           0        3.851905   -1.786838   -1.532833
     10          1           0        5.084258   -0.630376   -2.029350
     11          1           0        4.063128   -1.028440    2.147979
     12          1           0        3.545738   -2.303148    1.064799
     13          1           0        5.205562    0.170515    0.370844
     14          1           0        5.685138   -1.515369    0.186948
     15          6           0       -0.579073   -0.900461   -0.042829
     16          6           0       -0.259843    0.551428   -0.517870
     17          6           0        1.081795    1.137461   -0.107022
     18          6           0        1.293230   -0.435627    1.739358
     19          6           0        0.062886   -1.220365    1.345805
     20          1           0       -0.187640    0.515623   -1.615728
     21          1           0       -0.688568   -1.033899    2.118686
     22          1           0        0.212408   -2.322683    1.351079
     23          1           0        1.502550   -0.517894    2.810349
     24          8           0        1.221693    2.355048    0.025373
     25          6           0       -1.547873    1.353706   -0.277968
     26          6           0       -2.159632   -0.924063    0.048591
     27          1           0       -2.409021   -0.777371    1.104173
     28          6           0       -2.614760    0.349506   -0.665202
     29          1           0       -2.603717    0.232766   -1.753905
     30          1           0       -3.599928    0.703498   -0.359677
     31          6           0       -0.043871   -1.873448   -1.102896
     32          1           0        1.033447   -1.735791   -1.203688
     33          1           0       -0.217574   -2.916321   -0.829529
     34          1           0       -0.501212   -1.695521   -2.082111
     35          6           0       -2.884490   -2.201998   -0.395435
     36          1           0       -2.517394   -2.488290   -1.386977
     37          6           0       -4.394822   -1.981888   -0.512166
     38          1           0       -4.644681   -1.249810   -1.281918
     39          1           0       -4.903593   -2.918241   -0.761208
     40          1           0       -4.806436   -1.621409    0.436362
     41          6           0       -2.623161   -3.358520    0.570614
     42          1           0       -1.559114   -3.537692    0.720223
     43          1           0       -3.052382   -3.130970    1.551763
     44          1           0       -3.083116   -4.284043    0.209807
     45          8           0       -1.771483    1.728106    1.066680
     46          8           0       -1.652900    2.549858   -1.025257
     47          6           0       -1.354784    3.652899   -0.176700
     48          1           0       -0.389313    4.079133   -0.447635
     49          1           0       -2.153385    4.391098   -0.298956
     50          6           0       -1.306743    3.057224    1.238477
     51          1           0       -0.288884    3.054745    1.626015
     52          1           0       -1.986642    3.555018    1.934280
 ---------------------------------------------------------------------

 SCF Done:  E(RHF) =  -998.840878300     A.U. after    2 cycles
 E2 =    -0.3520129309D+01 EUMP2 =    -0.10023610076088D+04

 Alpha  occ. eigenvalues --  -20.44645 -20.44319 -20.37512 -11.21045 -11.18146
 Alpha  occ. eigenvalues --  -11.15825 -11.15336 -11.12574 -11.12463 -11.11623
 Alpha  occ. eigenvalues --  -11.11079 -11.10716 -11.10584 -11.10514 -11.10328
 Alpha  occ. eigenvalues --  -11.10250 -11.09443 -11.09426 -11.09283 -11.07440
 Alpha  occ. eigenvalues --  -11.06729 -11.05055 -10.98722  -1.31567  -1.21005
 Alpha  occ. eigenvalues --   -1.20737  -1.02884  -0.99648  -0.96586  -0.92657
 Alpha  occ. eigenvalues --   -0.89563  -0.87902  -0.86208  -0.83989  -0.82969
 Alpha  occ. eigenvalues --   -0.80990  -0.76583  -0.73642  -0.72854  -0.70960
 Alpha  occ. eigenvalues --   -0.68155  -0.67024  -0.63294  -0.62574  -0.59040
 Alpha  occ. eigenvalues --   -0.56457  -0.55475  -0.53672  -0.53169  -0.52106
 Alpha  occ. eigenvalues --   -0.50698  -0.49369  -0.49083  -0.48826  -0.47016
 Alpha  occ. eigenvalues --   -0.46552  -0.45867  -0.45581  -0.45005  -0.44256
 Alpha  occ. eigenvalues --   -0.43855  -0.43377  -0.42279  -0.41984  -0.41591
 Alpha  occ. eigenvalues --   -0.40276  -0.39870  -0.38643  -0.38477  -0.38282
 Alpha  occ. eigenvalues --   -0.37331  -0.36775  -0.35951  -0.35667  -0.34965
 Alpha  occ. eigenvalues --   -0.34580  -0.33948  -0.33510  -0.32604  -0.31605
 Alpha  occ. eigenvalues --   -0.29517  -0.28992  -0.28259  -0.26820  -0.23240
 Alpha  occ. eigenvalues --   -0.18482  -0.05763
 Alpha virt. eigenvalues --    0.09998   0.10728   0.11151   0.11526   0.11841
 Alpha virt. eigenvalues --    0.12102   0.12563   0.12942   0.13132   0.13674
 Alpha virt. eigenvalues --    0.13807   0.14078   0.14474   0.14682   0.15175

 Mulliken charges:
               1
     1  C    0.680280
     2  C    0.546625
     3  C   -0.048385
     4  C   -0.981800
     5  C    0.345936
     6  C    0.636943
     7  H   -0.074017
     8  H   -0.095715
     9  H   -0.158331
    10  H   -0.154894
    11  H   -0.002007
    12  H    0.038926
    13  H   -0.170206
    14  H   -0.134162
    15  C   -2.043394
    16  C    0.803369
    17  C    0.225319
    18  C    0.247302
    19  C    0.855379
    20  H   -0.318150
    21  H   -0.323212
    22  H   -0.262786
    23  H   -0.671377
    24  O   -1.210029
    25  C    1.597765
    26  C    0.541629
    27  H   -0.535817
    28  C    1.164032
    29  H   -0.074566
    30  H   -0.171968
    31  C    1.434174
    32  H   -0.538154
    33  H   -0.112799
    34  H    0.008048
    35  C   -1.527903
    36  H   -0.464666
    37  C    1.179514
    38  H   -0.003149
    39  H   -0.119117
    40  H   -0.039357
    41  C    1.167218
    42  H   -0.193699
    43  H    0.003500
    44  H   -0.132293
    45  O   -1.350557
    46  O   -1.335448
    47  C    0.990558
    48  H   -0.192698
    49  H   -0.375622
    50  C    0.984838
    51  H   -0.225378
    52  H   -0.409695
 Sum of Mulliken charges =  -1.00000

 Dipole moment (field-independent basis, Debye):
    X=             -3.4820    Y=             -2.3566    Z=             -3.0492  Tot=              5.1938
 Unable to Open any file for archive entry.
 1\1\GINC-SE322\SP\RMP2-FC\Aug-CC-pVDZ\C20H29O3\OHZDE\20-Sep-2024\0\\#t
  symm=none mp2 aug-cc-pvdz geom=allcheck guess=(read,tcheck) int=(grid
 =ultrafine)\\title\\-1,1\C,0,4.279344,-0.80237,-1.306051\C,0,3.189759,
 0.264833,-1.454669\C,0,2.293261,0.251688,-0.254669\C,0,2.455273,-0.472
 185,0.860192\C,0,3.739623,-1.22243,1.118484\C,0,4.833037,-0.829406,0.1
 19822\H,0,3.647395,1.258764,-1.567124\H,0,2.627653,0.092934,-2.384234\
 H,0,3.851905,-1.786838,-1.532833\H,0,5.084258,-0.630376,-2.02935\H,0,4
 .063128,-1.02844,2.147979\H,0,3.545738,-2.303148,1.064799\H,0,5.205562
 ,0.170515,0.370844\H,0,5.685138,-1.515369,0.186948\C,0,-0.579073,-0.90

 Normal termination of Gaussian 16 at Fri Sep 20 15:48:05 2024.
