 Gaussian 16, Revision C.01,

 ----------------------------------------------------------------------
 #t hf aug-cc-pvdz symm=none int=(grid=ultrafine) guess=(read,tcheck) s
 table=(opt,rrhf)
 ----------------------------------------------------------------------
 -----
 title
 -----
 Symbolic Z-matrix:
 Charge =  1 Multiplicity = 1

 SCF Done:  E(RHF) =  -882.997084737     A.U. after   16 cycles
 Normal termination of Gaussian 16 at Fri Sep 20 12:48:21 2024.
 Gaussian 16:  ES64L-G16RevC.01  3-Jul-2019

 ----------------------------------------------------------------------
 #t symm=none mp2 aug-cc-pvdz geom=allcheck guess=(read,tcheck) int=(gr
 id=ultrafine)
 ----------------------------------------------------------------------
 Structure from the checkpoint file:  "02_80R.chk"
 -----
 title
 -----
 Charge =  1 Multiplicity = 1

                          Input orientation:
 ---------------------------------------------------------------------
 Center     Atomic      Atomic             Coordinates (Angstroms)
 Number     Number       Type             X           Y           Z
 ---------------------------------------------------------------------
      1          6           0        4.058588   -1.873412    0.211846
      2          6           0        3.300113   -1.713039   -1.112218
      3          6           0        2.320947   -0.196495    0.172472
      4          6           0        3.355778   -0.823003    1.120101
      5          1           0        3.975463   -2.889140    0.593584
      6          1           0        5.115488   -1.646378    0.075342
      7          1           0        2.888251   -1.258524    2.002685
      8          1           0        4.039834   -0.044885    1.457866
      9          6           0        3.042148   -0.202247   -1.172326
     10          1           0        2.413859    0.114061   -2.005044
     11          1           0        3.952084    0.394553   -1.148516
     12          1           0        3.742268   -2.195634   -1.979035
     13          1           0        1.818038    0.704071    0.504660
     14          7           0        1.316660   -1.272681   -0.095439
     15          7           0        1.935332   -2.259154   -0.880289
     16          6           0       -1.677357    1.566388   -0.889477
     17          6           0       -0.482262    2.156934   -0.265537
     18          6           0       -0.333085    2.276504    1.121078
     19          6           0        0.548616    2.633389   -1.079683
     20          6           0        0.793261    2.873327    1.668040
     21          1           0       -1.113817    1.917188    1.781713
     22          6           0        1.674276    3.235247   -0.534368
     23          1           0        0.446578    2.561053   -2.157010
     24          6           0        1.802060    3.358686    0.842785
     25          1           0        0.880591    2.969721    2.743552
     26          1           0        2.446974    3.622366   -1.187774
     27          1           0        2.672996    3.838975    1.270969
     28          6           0       -2.874347    1.432265   -0.321625
     29          6           0        0.126987   -1.363311    0.358765
     30          6           0       -4.082010    0.864689   -0.995790
     31          1           0       -4.840255    1.651985   -1.064519
     32          1           0       -3.828935    0.585041   -2.022928
     33          6           0       -0.748029   -2.528947    0.097815
     34          1           0       -0.117401   -3.423050    0.062116
     35          1           0       -1.168793   -2.418305   -0.909912
     36          6           0       -1.874578   -2.673992    1.127354
     37          1           0       -2.366665   -3.632924    0.947873
     38          1           0       -1.433572   -2.743033    2.125782
     39          6           0       -2.910343   -1.551685    1.088635
     40          1           0       -3.557108   -1.648082    1.964588
     41          1           0       -2.417085   -0.580976    1.193903
     42          6           0       -4.710123   -0.340893   -0.280673
     43          1           0       -5.607504   -0.620144   -0.836490
     44          1           0       -5.053835   -0.043715    0.715836
     45          6           0       -3.784362   -1.556232   -0.165705
     46          1           0       -4.380917   -2.472871   -0.161611
     47          1           0       -3.165035   -1.605251   -1.068872
     48          1           0        1.407063   -2.390119   -1.738964
     49          1           0       -0.203990   -0.518405    0.952968
     50          1           0       -1.562750    1.266872   -1.929223
     51          1           0       -3.023440    1.783338    0.697619
 ---------------------------------------------------------------------

 SCF Done:  E(RHF) =  -882.997084737     A.U. after    2 cycles
 E2 =    -0.3179268035D+01 EUMP2 =    -0.88617635277231D+03

 Alpha  occ. eigenvalues --  -15.83729 -15.75875 -11.48061 -11.42441 -11.41058
 Alpha  occ. eigenvalues --  -11.38528 -11.36997 -11.36482 -11.35832 -11.35545
 Alpha  occ. eigenvalues --  -11.35425 -11.34846 -11.34718 -11.34626 -11.34448
 Alpha  occ. eigenvalues --  -11.34394 -11.34283 -11.33789 -11.33487 -11.32623
 Alpha  occ. eigenvalues --  -11.32557 -11.32099  -1.54397  -1.33264  -1.27221
 Alpha  occ. eigenvalues --   -1.26197  -1.22382  -1.20079  -1.16656  -1.13406
 Alpha  occ. eigenvalues --   -1.12670  -1.11368  -1.09795  -1.07120  -1.02210
 Alpha  occ. eigenvalues --   -0.98636  -0.96864  -0.95323  -0.93720  -0.91746
 Alpha  occ. eigenvalues --   -0.90431  -0.89233  -0.87212  -0.85695  -0.82884
 Alpha  occ. eigenvalues --   -0.80876  -0.79891  -0.78074  -0.76004  -0.75888
 Alpha  occ. eigenvalues --   -0.75034  -0.74563  -0.73974  -0.73023  -0.71200
 Alpha  occ. eigenvalues --   -0.70544  -0.69682  -0.69044  -0.67955  -0.67685
 Alpha  occ. eigenvalues --   -0.66541  -0.65545  -0.64904  -0.64098  -0.63597
 Alpha  occ. eigenvalues --   -0.62502  -0.62122  -0.61372  -0.61218  -0.60480
 Alpha  occ. eigenvalues --   -0.59837  -0.59456  -0.59115  -0.58349  -0.57151
 Alpha  occ. eigenvalues --   -0.56436  -0.55320  -0.52672  -0.50200  -0.44899
 Alpha  occ. eigenvalues --   -0.40746
 Alpha virt. eigenvalues --   -0.06314  -0.05672  -0.04765  -0.04196  -0.03981
 Alpha virt. eigenvalues --   -0.03450  -0.03368  -0.03064  -0.02795  -0.02454
 Alpha virt. eigenvalues --   -0.01895  -0.01454  -0.01348  -0.01160  -0.01026

 Mulliken charges:
               1
     1  C    0.570529
     2  C    0.496749
     3  C    0.641942
     4  C    1.040417
     5  H   -0.186055
     6  H   -0.143701
     7  H   -0.276970
     8  H   -0.205269
     9  C    0.824740
    10  H   -0.233946
    11  H   -0.271599
    12  H   -0.326405
    13  H   -0.260028
    14  N   -0.284923
    15  N   -0.155384
    16  C    0.744250
    17  C   -0.436016
    18  C    1.249090
    19  C    1.029987
    20  C    0.302304
    21  H   -0.796699
    22  C    0.200036
    23  H   -0.728034
    24  C    0.730725
    25  H   -0.609341
    26  H   -0.607677
    27  H   -0.540462
    28  C    0.751306
    29  C   -0.012245
    30  C    0.489581
    31  H   -0.041699
    32  H   -0.220139
    33  C    0.563874
    34  H   -0.123391
    35  H   -0.012006
    36  C    0.461661
    37  H   -0.122120
    38  H   -0.116998
    39  C    0.537983
    40  H   -0.108898
    41  H   -0.534233
    42  C    0.509740
    43  H   -0.121036
    44  H   -0.202897
    45  C    0.505825
    46  H   -0.182243
    47  H   -0.370785
    48  H    0.016863
    49  H   -0.842468
    50  H   -0.929942
    51  H   -0.663991
 Sum of Mulliken charges =   1.00000

 Dipole moment (field-independent basis, Debye):
    X=              3.5251    Y=             -3.8139    Z=             -0.6730  Tot=              5.2369
 Unable to Open any file for archive entry.
 1\1\GINC-SE124\SP\RMP2-FC\Aug-CC-pVDZ\C20H29N2\OHZDE\20-Sep-2024\0\\#t
  symm=none mp2 aug-cc-pvdz geom=allcheck guess=(read,tcheck) int=(grid
 =ultrafine)\\title\\1,1\C,0,4.058588,-1.873412,0.211846\C,0,3.300113,-
 1.713039,-1.112218\C,0,2.320947,-0.196495,0.172472\C,0,3.355778,-0.823
 003,1.120101\H,0,3.975463,-2.88914,0.593584\H,0,5.115488,-1.646378,0.0
 75342\H,0,2.888251,-1.258524,2.002685\H,0,4.039834,-0.044885,1.457866\
 C,0,3.042148,-0.202247,-1.172326\H,0,2.413859,0.114061,-2.005044\H,0,3
 .952084,0.394553,-1.148516\H,0,3.742268,-2.195634,-1.979035\H,0,1.8180
 38,0.704071,0.50466\N,0,1.31666,-1.272681,-0.095439\N,0,1.935332,-2.25

 Normal termination of Gaussian 16 at Fri Sep 20 14:36:20 2024.
