 Gaussian 16, Revision C.01,

 ----------------------------------------------------------------------
 #t hf aug-cc-pvdz symm=none int=(grid=ultrafine) guess=(read,tcheck) s
 table=(opt,rrhf)
 ----------------------------------------------------------------------
 -----
 title
 -----
 Symbolic Z-matrix:
 Charge =  1 Multiplicity = 1

 SCF Done:  E(RHF) =  -1261.59239626     A.U. after   26 cycles
 Normal termination of Gaussian 16 at Fri Sep 20 23:57:16 2024.
 Gaussian 16:  ES64L-G16RevC.01  3-Jul-2019

 ----------------------------------------------------------------------
 #t symm=none mp2 aug-cc-pvdz geom=allcheck guess=(read,tcheck) int=(gr
 id=ultrafine)
 ----------------------------------------------------------------------
 Structure from the checkpoint file:  "05_35TS.chk"
 -----
 title
 -----
 Charge =  1 Multiplicity = 1

                          Input orientation:
 ---------------------------------------------------------------------
 Center     Atomic      Atomic             Coordinates (Angstroms)
 Number     Number       Type             X           Y           Z
 ---------------------------------------------------------------------
      1          6           0        2.957383    0.999820   -0.757541
      2          6           0        1.881306    0.398584    1.586807
      3          6           0        0.821031    1.460400    1.282395
      4          6           0        1.343988    2.604937    0.417246
      5          6           0        1.860322    2.055469   -0.909415
      6          1           0       -0.024298    0.996620    0.772290
      7          1           0        0.453599    1.851327    2.233417
      8          1           0        2.161357    3.104510    0.940959
      9          1           0        1.016024    1.630287   -1.451230
     10          1           0        2.259369    2.869303   -1.518362
     11          7           0        2.558345    0.019256    0.305712
     12          8           0        3.139457   -1.101754    0.271547
     13          6           0        3.122385    0.252426   -2.079400
     14          1           0        3.361997    0.979797   -2.855180
     15          1           0        3.932578   -0.473704   -2.034977
     16          1           0        2.201692   -0.248837   -2.375969
     17          6           0        4.312781    1.617708   -0.378113
     18          1           0        5.035643    0.836025   -0.142066
     19          1           0        4.689498    2.184123   -1.230924
     20          1           0        4.248304    2.297599    0.468266
     21          6           0        1.224060   -0.833944    2.197072
     22          1           0        1.956872   -1.600919    2.442586
     23          1           0        0.723167   -0.533883    3.117763
     24          1           0        0.479180   -1.253741    1.524942
     25          6           0        2.949475    0.906736    2.572653
     26          1           0        2.486261    1.039653    3.551023
     27          1           0        3.751186    0.174333    2.672452
     28          1           0        3.385464    1.858566    2.279616
     29          6           0        1.667411   -2.805006   -0.967822
     30          1           0        2.257922   -2.860624   -1.891116
     31          1           0        2.429415   -1.996055   -0.344079
     32          8           0        1.641913   -3.953079   -0.242297
     33          6           0        2.846194   -4.714485   -0.263757
     34          1           0        3.661182   -4.156628    0.204348
     35          1           0        2.650178   -5.619324    0.304841
     36          6           0        0.439321   -2.069226   -1.038357
     37          1           0        0.411525   -1.219697   -1.707089
     38          6           0       -0.661443   -2.426656   -0.316013
     39          1           0       -0.579906   -3.344341    0.259569
     40          1           0        3.115241   -4.977393   -1.290213
     41          6           0       -1.921539   -1.758607   -0.259179
     42          6           0       -2.992681   -2.391386    0.392734
     43          6           0       -2.142332   -0.476540   -0.806016
     44          6           0       -4.235468   -1.801511    0.482764
     45          1           0       -2.840251   -3.372572    0.827625
     46          6           0       -3.364637    0.128032   -0.709105
     47          1           0       -1.342293    0.074713   -1.279548
     48          6           0       -4.429377   -0.531410   -0.072530
     49          1           0       -5.040255   -2.320446    0.982266
     50          1           0       -3.520752    1.122363   -1.103946
     51          7           0        0.337865    3.643277    0.216698
     52          1           0        0.520181    4.550858    0.611096
     53          6           0       -0.829308    3.469934   -0.458585
     54          6           0       -1.731036    4.674197   -0.541848
     55          1           0       -1.928394    4.888041   -1.592488
     56          1           0       -2.683982    4.426793   -0.072626
     57          1           0       -1.320142    5.564297   -0.065892
     58          8           0       -1.135326    2.403084   -0.968280
     59          8           0       -5.583941    0.136847   -0.034560
     60          6           0       -6.721354   -0.461061    0.578265
     61          1           0       -6.537867   -0.651260    1.638129
     62          1           0       -7.526017    0.260649    0.471741
     63          1           0       -6.992863   -1.389406    0.071090
 ---------------------------------------------------------------------

 SCF Done:  E(RHF) =  -1261.59239626     A.U. after    2 cycles
 E2 =    -0.4368085556D+01 EUMP2 =    -0.12659604818179D+04

 Alpha  occ. eigenvalues --  -20.80828 -20.70472 -20.68946 -20.62342 -15.82496
 Alpha  occ. eigenvalues --  -15.69497 -11.45644 -11.43742 -11.41368 -11.41283
 Alpha  occ. eigenvalues --  -11.41038 -11.39067 -11.38976 -11.38302 -11.37293
 Alpha  occ. eigenvalues --  -11.35310 -11.35137 -11.34218 -11.34124 -11.34111
 Alpha  occ. eigenvalues --  -11.34097 -11.34053 -11.33981 -11.33890 -11.33083
 Alpha  occ. eigenvalues --  -11.32935 -11.32809 -11.32045  -1.64457  -1.52707
 Alpha  occ. eigenvalues --   -1.51687  -1.48663  -1.34569  -1.30278  -1.26537
 Alpha  occ. eigenvalues --   -1.23037  -1.20783  -1.16617  -1.13890  -1.12503
 Alpha  occ. eigenvalues --   -1.11387  -1.08621  -1.07220  -1.06607  -1.05291
 Alpha  occ. eigenvalues --   -1.05190  -1.03931  -1.00608  -0.96832  -0.94817
 Alpha  occ. eigenvalues --   -0.93722  -0.92611  -0.89882  -0.87007  -0.86546
 Alpha  occ. eigenvalues --   -0.83108  -0.82083  -0.81022  -0.80984  -0.80408
 Alpha  occ. eigenvalues --   -0.79195  -0.78941  -0.76196  -0.75503  -0.75402
 Alpha  occ. eigenvalues --   -0.74450  -0.74424  -0.73428  -0.73179  -0.71641
 Alpha  occ. eigenvalues --   -0.70895  -0.70491  -0.70408  -0.69326  -0.68683
 Alpha  occ. eigenvalues --   -0.68329  -0.68176  -0.67775  -0.67538  -0.66359
 Alpha  occ. eigenvalues --   -0.65887  -0.65527  -0.64725  -0.64521  -0.64406
 Alpha  occ. eigenvalues --   -0.64254  -0.63234  -0.62560  -0.62336  -0.61980
 Alpha  occ. eigenvalues --   -0.61144  -0.61013  -0.60466  -0.59822  -0.59395
 Alpha  occ. eigenvalues --   -0.58995  -0.57878  -0.57421  -0.57254  -0.57012
 Alpha  occ. eigenvalues --   -0.51757  -0.51027  -0.49383  -0.45939  -0.44004
 Alpha  occ. eigenvalues --   -0.37428
 Alpha virt. eigenvalues --   -0.14154  -0.04924  -0.04264  -0.03953  -0.03538
 Alpha virt. eigenvalues --   -0.02872  -0.02740  -0.02478  -0.02413  -0.02092
 Alpha virt. eigenvalues --   -0.01266  -0.01212  -0.00951  -0.00717  -0.00688

 Mulliken charges:
               1
     1  C   -3.688088
     2  C   -3.205066
     3  C    1.250841
     4  C    0.420817
     5  C    1.322412
     6  H   -0.047755
     7  H   -0.143949
     8  H   -0.348880
     9  H   -0.111862
    10  H   -0.134059
    11  N    0.559915
    12  O   -1.204517
    13  C    1.856410
    14  H   -0.029956
    15  H    0.035235
    16  H   -0.259558
    17  C    1.532706
    18  H   -0.001618
    19  H   -0.007887
    20  H   -0.059598
    21  C    1.817997
    22  H    0.085050
    23  H   -0.046327
    24  H   -0.466029
    25  C    1.501595
    26  H   -0.025411
    27  H    0.003507
    28  H   -0.101999
    29  C    0.573444
    30  H    0.027745
    31  H    0.004204
    32  O   -1.082418
    33  C    0.735192
    34  H   -0.042759
    35  H   -0.251537
    36  C    1.486152
    37  H   -0.712198
    38  C    0.603999
    39  H   -0.732121
    40  H   -0.036453
    41  C    1.243497
    42  C    0.556663
    43  C    0.914568
    44  C    0.621293
    45  H   -0.750367
    46  C    0.246416
    47  H   -0.969653
    48  C    0.630592
    49  H   -0.776340
    50  H   -0.721303
    51  N   -0.291179
    52  H   -0.133552
    53  C    0.072272
    54  C    0.795963
    55  H    0.027994
    56  H    0.027561
    57  H   -0.171555
    58  O   -0.787175
    59  O   -1.083381
    60  C    0.927660
    61  H   -0.066507
    62  H   -0.338507
    63  H   -0.052135
 Sum of Mulliken charges =   1.00000

 Dipole moment (field-independent basis, Debye):
    X=              3.6677    Y=              0.7224    Z=              1.9491  Tot=              4.2158
 Unable to Open any file for archive entry.
 1\1\GINC-SE175\SP\RMP2-FC\Aug-CC-pVDZ\C22H35N2O4\OHZDE\21-Sep-2024\0\\
 #t symm=none mp2 aug-cc-pvdz geom=allcheck guess=(read,tcheck) int=(gr
 id=ultrafine)\\title\\1,1\C,0,2.957383,0.99982,-0.757541\C,0,1.881306,
 0.398584,1.586807\C,0,0.821031,1.4604,1.282395\C,0,1.343988,2.604937,0
 .417246\C,0,1.860322,2.055469,-0.909415\H,0,-0.024298,0.99662,0.77229\
 H,0,0.453599,1.851327,2.233417\H,0,2.161357,3.10451,0.940959\H,0,1.016
 024,1.630287,-1.45123\H,0,2.259369,2.869303,-1.518362\N,0,2.558345,0.0
 19256,0.305712\O,0,3.139457,-1.101754,0.271547\C,0,3.122385,0.252426,-
 2.0794\H,0,3.361997,0.979797,-2.85518\H,0,3.932578,-0.473704,-2.034977

 Normal termination of Gaussian 16 at Sat Sep 21 05:10:27 2024.
