 Gaussian 16, Revision C.01,

 ----------------------------------------------------------------------
 #t hf aug-cc-pvdz symm=none int=(grid=ultrafine) guess=(read,tcheck) s
 table=(opt,rrhf)
 ----------------------------------------------------------------------
 -----
 title
 -----
 Symbolic Z-matrix:
 Charge =  1 Multiplicity = 1

 SCF Done:  E(RHF) =  -1485.77435465     A.U. after   18 cycles
 Normal termination of Gaussian 16 at Sat Sep 21 01:05:02 2024.
 Gaussian 16:  ES64L-G16RevC.01  3-Jul-2019

 ----------------------------------------------------------------------
 #t symm=none mp2 aug-cc-pvdz geom=allcheck guess=(read,tcheck) int=(gr
 id=ultrafine)
 ----------------------------------------------------------------------
 Structure from the checkpoint file:  "05_40TS.chk"
 -----
 title
 -----
 Charge =  1 Multiplicity = 1

                          Input orientation:
 ---------------------------------------------------------------------
 Center     Atomic      Atomic             Coordinates (Angstroms)
 Number     Number       Type             X           Y           Z
 ---------------------------------------------------------------------
      1          7           0        0.253149   -1.280743   -0.740420
      2          6           0        1.640474   -1.032052   -0.815791
      3          6           0        2.208459    0.209076   -1.104637
      4          6           0        3.581355    0.364116   -1.121770
      5          6           0        4.426070   -0.704945   -0.829493
      6          6           0        3.866216   -1.942814   -0.520725
      7          6           0        2.488592   -2.095396   -0.520374
      8          8           0        5.748809   -0.444977   -0.864139
      9          6           0        6.658967   -1.507866   -0.626275
     10          6           0       -0.815986   -0.605333   -1.261371
     11          6           0       -2.093548   -1.398838   -1.262606
     12          6           0       -2.087670   -2.790762   -1.294301
     13          6           0       -3.284538   -3.495588   -1.309916
     14          6           0       -4.493015   -2.817173   -1.291573
     15          6           0       -4.503947   -1.427183   -1.266947
     16          6           0       -3.313636   -0.721029   -1.255861
     17          6           0       -0.601788    0.298834   -2.460367
     18          8           0       -2.564389    2.743102   -0.720121
     19          6           0       -1.550936    3.158439   -0.209872
     20          8           0       -1.148250    4.423723   -0.288555
     21          6           0       -2.007744    5.315717   -1.023812
     22          6           0       -0.650616    2.269193    0.557487
     23          6           0       -1.195929    0.953043    0.820396
     24          6           0       -0.450935    0.079052    1.695453
     25          6           0        0.829970    0.396983    2.036032
     26          7           0        1.322599    1.602808    1.623814
     27          6           0        0.625570    2.562346    0.941092
     28          6           0        1.783969   -0.441614    2.817210
     29          6           0       -1.064125   -1.215018    2.090874
     30          8           0       -2.381913   -1.108648    2.203998
     31          6           0       -3.105598   -2.322760    2.472842
     32          6           0        1.372755    3.837344    0.706311
     33          8           0       -0.453716   -2.247755    2.242307
     34          1           0        6.531411   -2.306216   -1.361953
     35          1           0       -2.760144   -2.766101    3.404884
     36          1           0       -5.444738   -0.891165   -1.258001
     37          1           0        0.022560   -2.063039   -0.142325
     38          1           0        6.540334   -1.911079    0.383250
     39          1           0        7.651695   -1.078210   -0.728288
     40          1           0       -3.267624   -4.577606   -1.349850
     41          1           0       -5.425339   -3.367736   -1.306151
     42          1           0       -2.962363   -3.023745    1.652068
     43          1           0       -4.147037   -2.026031    2.546189
     44          1           0       -0.170031    1.262431   -2.193241
     45          1           0       -1.557138    0.488996   -2.941659
     46          1           0        0.064948   -0.188428   -3.174799
     47          1           0        2.277240    1.816819    1.875370
     48          1           0       -1.134304    0.306060   -0.345552
     49          1           0       -2.277768    0.893241    0.878538
     50          1           0        2.418247    0.183973    3.447826
     51          1           0        2.422142   -0.993823    2.121289
     52          1           0        1.267088   -1.171917    3.430795
     53          1           0        2.422304    3.725719    0.980999
     54          1           0        0.941153    4.644995    1.297904
     55          1           0        1.311866    4.143332   -0.335684
     56          1           0       -1.521565    6.285568   -0.980732
     57          1           0       -2.990138    5.354239   -0.556558
     58          1           0       -2.107412    4.976115   -2.053421
     59          1           0       -1.154289   -3.337669   -1.344848
     60          1           0       -3.330906    0.363504   -1.232905
     61          1           0        1.589851    1.066565   -1.315189
     62          1           0        2.065821   -3.066162   -0.287192
     63          1           0        4.488059   -2.795922   -0.290846
     64          1           0        4.027188    1.320640   -1.363626
 ---------------------------------------------------------------------

 SCF Done:  E(RHF) =  -1485.77435465     A.U. after    3 cycles
 E2 =    -0.4975846388D+01 EUMP2 =    -0.14907502010370D+04

 Alpha  occ. eigenvalues --  -20.72004 -20.71645 -20.68419 -20.66169 -20.66151
 Alpha  occ. eigenvalues --  -15.76636 -15.71930 -11.50213 -11.50193 -11.45798
 Alpha  occ. eigenvalues --  -11.45333 -11.45228 -11.41728 -11.40345 -11.39157
 Alpha  occ. eigenvalues --  -11.38776 -11.38157 -11.37394 -11.37340 -11.37168
 Alpha  occ. eigenvalues --  -11.36610 -11.36003 -11.35529 -11.35255 -11.35043
 Alpha  occ. eigenvalues --  -11.34971 -11.34769 -11.34172 -11.34126 -11.34038
 Alpha  occ. eigenvalues --  -11.33945 -11.33829 -11.33738  -1.57913  -1.57749
 Alpha  occ. eigenvalues --   -1.50959  -1.47498  -1.47340  -1.45334  -1.40091
 Alpha  occ. eigenvalues --   -1.27451  -1.25500  -1.25041  -1.24395  -1.17901
 Alpha  occ. eigenvalues --   -1.13492  -1.12782  -1.12588  -1.12443  -1.11321
 Alpha  occ. eigenvalues --   -1.10576  -1.08493  -1.06046  -1.04078  -1.02960
 Alpha  occ. eigenvalues --   -0.98520  -0.97877  -0.95647  -0.94692  -0.93709
 Alpha  occ. eigenvalues --   -0.91840  -0.89207  -0.88644  -0.86473  -0.84693
 Alpha  occ. eigenvalues --   -0.84164  -0.82545  -0.81055  -0.80560  -0.80033
 Alpha  occ. eigenvalues --   -0.79487  -0.78683  -0.78144  -0.77804  -0.77674
 Alpha  occ. eigenvalues --   -0.76845  -0.76128  -0.75374  -0.74476  -0.74229
 Alpha  occ. eigenvalues --   -0.73123  -0.72430  -0.71556  -0.70721  -0.70499
 Alpha  occ. eigenvalues --   -0.69931  -0.69725  -0.69071  -0.68991  -0.67993
 Alpha  occ. eigenvalues --   -0.67688  -0.67463  -0.66786  -0.66621  -0.66206
 Alpha  occ. eigenvalues --   -0.65985  -0.65562  -0.64917  -0.64662  -0.64636
 Alpha  occ. eigenvalues --   -0.63068  -0.62784  -0.62323  -0.61703  -0.60468
 Alpha  occ. eigenvalues --   -0.59588  -0.59581  -0.59350  -0.57942  -0.57001
 Alpha  occ. eigenvalues --   -0.56865  -0.56568  -0.55961  -0.53811  -0.49110
 Alpha  occ. eigenvalues --   -0.46732  -0.45254  -0.43970  -0.42379  -0.38750
 Alpha virt. eigenvalues --   -0.07005  -0.05297  -0.04190  -0.03894  -0.03800
 Alpha virt. eigenvalues --   -0.03536  -0.02738  -0.02705  -0.02424  -0.02326
 Alpha virt. eigenvalues --   -0.02098  -0.01301  -0.01204  -0.00947  -0.00737

 Mulliken charges:
               1
     1  N   -0.451244
     2  C    0.640863
     3  C    0.904039
     4  C    0.145726
     5  C    0.734601
     6  C    0.832901
     7  C    0.796414
     8  O   -1.072803
     9  C    0.986317
    10  C   -1.575614
    11  C    1.759485
    12  C    0.375088
    13  C    0.093104
    14  C    0.876732
    15  C    0.033009
    16  C    0.624378
    17  C    1.858749
    18  O   -0.786953
    19  C    0.508922
    20  O   -1.044760
    21  C    0.969279
    22  C    1.140211
    23  C   -0.628419
    24  C    1.165994
    25  C   -0.013201
    26  N   -0.657038
    27  C   -0.517374
    28  C    1.026203
    29  C    0.292104
    30  O   -1.053278
    31  C    1.117055
    32  C    1.322209
    33  O   -0.895191
    34  H   -0.054555
    35  H   -0.154074
    36  H   -0.560515
    37  H    0.020958
    38  H   -0.089190
    39  H   -0.330207
    40  H   -0.549435
    41  H   -0.463288
    42  H   -0.083315
    43  H   -0.255207
    44  H   -0.066538
    45  H   -0.148950
    46  H   -0.057690
    47  H   -0.065791
    48  H   -0.612159
    49  H   -0.005481
    50  H   -0.094966
    51  H    0.110457
    52  H    0.025312
    53  H   -0.219665
    54  H    0.188961
    55  H    0.176808
    56  H   -0.293961
    57  H   -0.091856
    58  H   -0.066023
    59  H   -0.777750
    60  H   -0.739316
    61  H   -0.817060
    62  H   -0.904820
    63  H   -0.788207
    64  H   -0.739983
 Sum of Mulliken charges =   1.00000

 Dipole moment (field-independent basis, Debye):
    X=              2.1164    Y=              2.3577    Z=              1.6065  Tot=              3.5523
 Unable to Open any file for archive entry.
 1\1\GINC-SE426\SP\RMP2-FC\Aug-CC-pVDZ\C26H31N2O5\OHZDE\21-Sep-2024\0\\
 #t symm=none mp2 aug-cc-pvdz geom=allcheck guess=(read,tcheck) int=(gr
 id=ultrafine)\\title\\1,1\N,0,0.253149,-1.280743,-0.74042\C,0,1.640474
 ,-1.032052,-0.815791\C,0,2.208459,0.209076,-1.104637\C,0,3.581355,0.36
 4116,-1.12177\C,0,4.42607,-0.704945,-0.829493\C,0,3.866216,-1.942814,-
 0.520725\C,0,2.488592,-2.095396,-0.520374\O,0,5.748809,-0.444977,-0.86
 4139\C,0,6.658967,-1.507866,-0.626275\C,0,-0.815986,-0.605333,-1.26137
 1\C,0,-2.093548,-1.398838,-1.262606\C,0,-2.08767,-2.790762,-1.294301\C
 ,0,-3.284538,-3.495588,-1.309916\C,0,-4.493015,-2.817173,-1.291573\C,0

 Normal termination of Gaussian 16 at Sat Sep 21 07:36:29 2024.
