 Gaussian 16, Revision C.01,

 ----------------------------------------------------------------------
 #t hf aug-cc-pvdz symm=none int=(grid=ultrafine) guess=(read,tcheck) s
 table=(opt,rrhf)
 ----------------------------------------------------------------------
 -----
 title
 -----
 Symbolic Z-matrix:
 Charge = -1 Multiplicity = 1

 SCF Done:  E(RHF) =  -1052.78240590     A.U. after   17 cycles
 Normal termination of Gaussian 16 at Fri Sep 20 10:49:51 2024.
 Gaussian 16:  ES64L-G16RevC.01  3-Jul-2019

 ----------------------------------------------------------------------
 #t symm=none mp2 aug-cc-pvdz geom=allcheck guess=(read,tcheck) int=(gr
 id=ultrafine)
 ----------------------------------------------------------------------
 Structure from the checkpoint file:  "02_14TS.chk"
 -----
 title
 -----
 Charge = -1 Multiplicity = 1

                          Input orientation:
 ---------------------------------------------------------------------
 Center     Atomic      Atomic             Coordinates (Angstroms)
 Number     Number       Type             X           Y           Z
 ---------------------------------------------------------------------
      1          6           0       -4.202839    2.610629   -0.284739
      2          6           0       -2.901570    2.141568    0.367188
      3          1           0       -2.155174    2.936941    0.266322
      4          1           0       -3.047552    2.007262    1.446317
      5          1           0       -4.465995    3.601422    0.101080
      6          1           0       -4.024434    2.735188   -1.359493
      7          6           0       -2.343461    0.876526   -0.248158
      8          1           0       -2.500540    0.761781   -1.316359
      9          6           0       -1.162654    0.315802    0.217678
     10          1           0       -0.664071    0.720061    1.089289
     11          6           0       -3.989847   -0.414337    0.166714
     12          6           0       -3.514488   -1.669319   -0.162573
     13          1           0       -3.843688   -2.130432   -1.089107
     14          6           0       -2.417079   -2.230244    0.493665
     15          1           0       -1.960427   -3.113346    0.058211
     16          6           0       -1.727279   -1.564278    1.479735
     17          1           0       -2.241517   -0.806612    2.057975
     18          6           0       -0.492737   -2.119453    2.122238
     19          1           0        0.032165   -2.795549    1.445962
     20          1           0        0.194608   -1.321221    2.404640
     21          1           0       -0.754503   -2.674639    3.031748
     22          6           0       -0.329958   -0.443758   -0.757039
     23          6           0        1.068706   -0.638885   -0.433443
     24          8           0       -0.860200   -0.852378   -1.790694
     25          6           0        1.984454   -1.462339   -1.213297
     26          6           0        1.783667   -0.061568    0.641923
     27          8           0        1.438598    0.674684    1.579385
     28          8           0        1.785219   -2.259600   -2.114748
     29          6           0        3.252347   -0.502874    0.526782
     30          1           0        3.452692   -1.165613    1.380980
     31          6           0        4.225132    0.679355    0.598736
     32          6           0        3.969139    1.681029   -0.530080
     33          1           0        2.906438    1.934018   -0.528932
     34          1           0        4.166355    1.191016   -1.487912
     35          6           0        4.782347    2.967236   -0.417244
     36          1           0        5.856214    2.787603   -0.514753
     37          1           0        4.499172    3.676925   -1.199006
     38          1           0        4.612524    3.453675    0.548246
     39          7           0        3.282928   -1.233111   -0.722246
     40          1           0        3.918410   -2.005954   -0.847208
     41          6           0        5.669341    0.181294    0.618639
     42          1           0        5.819540   -0.545458    1.422589
     43          1           0        5.920802   -0.306636   -0.328486
     44          1           0        6.382179    0.994385    0.773317
     45          1           0        4.004715    1.176661    1.549974
     46          6           0       -5.133737    0.240691   -0.565620
     47          1           0       -6.048596   -0.348830   -0.427929
     48          1           0       -4.926024    0.241150   -1.641418
     49          1           0       -3.905620   -0.116474    1.207075
     50          6           0       -5.388018    1.668029   -0.082809
     51          1           0       -6.266352    2.076835   -0.593574
     52          1           0       -5.639559    1.635344    0.984858
 ---------------------------------------------------------------------

 SCF Done:  E(RHF) =  -1052.78240590     A.U. after    2 cycles
 E2 =    -0.3677431635D+01 EUMP2 =    -0.10564598375370D+04

 Alpha  occ. eigenvalues --  -20.38075 -20.37185 -20.37049 -15.43812 -11.20031
 Alpha  occ. eigenvalues --  -11.17905 -11.17473 -11.14292 -11.14127 -11.13736
 Alpha  occ. eigenvalues --  -11.13730 -11.13655 -11.13459 -11.13167 -11.12570
 Alpha  occ. eigenvalues --  -11.12524 -11.12341 -11.12146 -11.11486 -11.11241
 Alpha  occ. eigenvalues --  -11.10955 -11.10706 -11.09731 -11.05611  -1.23146
 Alpha  occ. eigenvalues --   -1.21378  -1.20671  -1.10416  -1.02485  -0.98455
 Alpha  occ. eigenvalues --   -0.98138  -0.94861  -0.91570  -0.90344  -0.89176
 Alpha  occ. eigenvalues --   -0.87095  -0.82970  -0.82017  -0.76574  -0.75914
 Alpha  occ. eigenvalues --   -0.72478  -0.70498  -0.68313  -0.66973  -0.63869
 Alpha  occ. eigenvalues --   -0.61516  -0.60877  -0.57247  -0.55330  -0.54216
 Alpha  occ. eigenvalues --   -0.53729  -0.52406  -0.52117  -0.51965  -0.51248
 Alpha  occ. eigenvalues --   -0.50653  -0.48754  -0.47935  -0.47230  -0.46480
 Alpha  occ. eigenvalues --   -0.46195  -0.45981  -0.45321  -0.44400  -0.44154
 Alpha  occ. eigenvalues --   -0.43440  -0.42035  -0.41634  -0.41411  -0.41077
 Alpha  occ. eigenvalues --   -0.40429  -0.40051  -0.38995  -0.38854  -0.37875
 Alpha  occ. eigenvalues --   -0.37601  -0.37165  -0.36400  -0.35975  -0.35637
 Alpha  occ. eigenvalues --   -0.35429  -0.34724  -0.31401  -0.29039  -0.25970
 Alpha  occ. eigenvalues --   -0.24591  -0.23865  -0.19309  -0.18024  -0.15907
 Alpha virt. eigenvalues --    0.09414   0.10283   0.10683   0.10966   0.11236
 Alpha virt. eigenvalues --    0.11701   0.12258   0.12457   0.12629   0.13227
 Alpha virt. eigenvalues --    0.13711   0.13894   0.14031   0.14435   0.14829

 Mulliken charges:
               1
     1  C    0.593481
     2  C    0.321309
     3  H   -0.205343
     4  H   -0.041276
     5  H   -0.148359
     6  H   -0.090958
     7  C    0.015360
     8  H   -0.753737
     9  C    1.486564
    10  H   -0.842810
    11  C    0.301625
    12  C    0.349951
    13  H   -0.581180
    14  C    0.687601
    15  H   -0.558195
    16  C   -0.098885
    17  H   -0.604548
    18  C    0.832610
    19  H   -0.021462
    20  H   -0.121449
    21  H   -0.027846
    22  C    0.922759
    23  C    0.331167
    24  O   -1.170561
    25  C    0.293375
    26  C    0.990594
    27  O   -1.275352
    28  O   -0.994267
    29  C    0.553407
    30  H   -0.259650
    31  C   -0.769652
    32  C    0.604169
    33  H   -0.194493
    34  H   -0.175617
    35  C    0.474580
    36  H   -0.117780
    37  H   -0.074471
    38  H   -0.072948
    39  N   -0.721354
    40  H   -0.117141
    41  C    0.874782
    42  H   -0.078838
    43  H   -0.053027
    44  H   -0.083385
    45  H   -0.335207
    46  C    0.383353
    47  H   -0.162815
    48  H   -0.030558
    49  H   -0.537460
    50  C    0.545060
    51  H   -0.151481
    52  H   -0.089641
 Sum of Mulliken charges =  -1.00000

 Dipole moment (field-independent basis, Debye):
    X=             -2.1443    Y=              3.8284    Z=              4.4053  Tot=              6.2179
 Unable to Open any file for archive entry.
 1\1\GINC-SE170\SP\RMP2-FC\Aug-CC-pVDZ\C20H28N1O3\OHZDE\20-Sep-2024\0\\
 #t symm=none mp2 aug-cc-pvdz geom=allcheck guess=(read,tcheck) int=(gr
 id=ultrafine)\\title\\-1,1\C,0,-4.202839,2.610629,-0.284739\C,0,-2.901
 57,2.141568,0.367188\H,0,-2.155174,2.936941,0.266322\H,0,-3.047552,2.0
 07262,1.446317\H,0,-4.465995,3.601422,0.10108\H,0,-4.024434,2.735188,-
 1.359493\C,0,-2.343461,0.876526,-0.248158\H,0,-2.50054,0.761781,-1.316
 359\C,0,-1.162654,0.315802,0.217678\H,0,-0.664071,0.720061,1.089289\C,
 0,-3.989847,-0.414337,0.166714\C,0,-3.514488,-1.669319,-0.162573\H,0,-
 3.843688,-2.130432,-1.089107\C,0,-2.417079,-2.230244,0.493665\H,0,-1.9

 Normal termination of Gaussian 16 at Fri Sep 20 13:01:22 2024.
