 Gaussian 16, Revision C.01,

 ----------------------------------------------------------------------
 #t hf aug-cc-pvdz symm=none int=(grid=ultrafine) guess=(read,tcheck) s
 table=(opt,rrhf)
 ----------------------------------------------------------------------
 -----
 title
 -----
 Symbolic Z-matrix:
 Charge =  0 Multiplicity = 1

 SCF Done:  E(RHF) =  -1112.12581873     A.U. after   19 cycles
 Normal termination of Gaussian 16 at Fri Sep 20 10:15:07 2024.
 Gaussian 16:  ES64L-G16RevC.01  3-Jul-2019

 ----------------------------------------------------------------------
 #t symm=none mp2 aug-cc-pvdz geom=allcheck guess=(read,tcheck) int=(gr
 id=ultrafine)
 ----------------------------------------------------------------------
 Structure from the checkpoint file:  "02_120TS.chk"
 -----
 title
 -----
 Charge =  0 Multiplicity = 1

                          Input orientation:
 ---------------------------------------------------------------------
 Center     Atomic      Atomic             Coordinates (Angstroms)
 Number     Number       Type             X           Y           Z
 ---------------------------------------------------------------------
      1          6           0       -3.356468   -1.233100   -0.988054
      2          6           0       -4.693918   -1.459460   -0.285765
      3          6           0       -5.238066   -0.264771    0.480156
      4          6           0       -4.269707    0.290420    1.518497
      5          6           0       -2.962064    0.758270    0.932658
      6          6           0       -2.208872   -0.960346   -0.016808
      7          1           0       -5.434553   -1.758296   -1.031180
      8          1           0       -4.582177   -2.295371    0.410680
      9          1           0       -3.111806   -2.169165   -1.501198
     10          1           0       -4.756339    1.132312    2.027530
     11          1           0       -4.098239   -0.467021    2.290161
     12          1           0       -3.052270    1.213168   -0.045269
     13          1           0       -2.246001   -1.577886    0.876250
     14          1           0       -6.162569   -0.567445    0.984088
     15          8           0       -5.557285    0.731671   -0.504555
     16          1           0       -5.903125    1.519495   -0.075782
     17          8           0       -3.430013   -0.250534   -2.008792
     18          1           0       -4.152167    0.354776   -1.796358
     19          6           0       -0.946366   -0.724444   -0.552683
     20          1           0       -0.901303   -0.406166   -1.588035
     21          6           0       -1.953801    1.248281    1.756898
     22          1           0       -2.020223    1.070094    2.826602
     23          6           0        0.289698   -1.086264    0.074237
     24          6           0        0.256168   -1.616593    1.486016
     25          1           0       -0.156941   -2.629941    1.515243
     26          1           0       -0.371451   -0.991324    2.121592
     27          1           0        1.247502   -1.650322    1.934617
     28          6           0        1.447532   -0.969518   -0.629455
     29          6           0        1.869055    1.604682   -0.139664
     30          6           0        2.807877   -1.501229   -0.252757
     31          1           0        1.364309   -0.610358   -1.649893
     32          1           0        1.843015    1.222365    0.867199
     33          6           0        3.715837   -0.451505    0.425703
     34          1           0        2.678230   -2.287538    0.496925
     35          1           0        3.191460   -0.054372    1.299028
     36          6           0       -0.767604    1.758132    1.244341
     37          1           0        0.054229    1.920851    1.934994
     38          6           0        3.469176   -2.117801   -1.488837
     39          1           0        2.790934   -2.830060   -1.961662
     40          1           0        3.714553   -1.344410   -2.219104
     41          1           0        4.387526   -2.648110   -1.235505
     42          6           0        5.049293   -1.006633    0.899885
     43          1           0        4.854365   -1.920136    1.470495
     44          1           0        5.643508   -1.290657    0.029362
     45          6           0        5.825786   -0.009091    1.750544
     46          1           0        5.263735    0.268413    2.646830
     47          1           0        6.780055   -0.429005    2.073668
     48          1           0        6.030032    0.900479    1.184506
     49          8           0        4.040940    0.621723   -0.469559
     50          6           0        3.133521    1.545989   -0.881472
     51          8           0        3.405408    2.232307   -1.831595
     52          6           0        0.741260    2.092892   -0.704186
     53          1           0        0.799635    2.432297   -1.733063
     54          6           0       -0.537991    1.959652   -0.107147
     55          1           0       -1.388400    2.066629   -0.769358
 ---------------------------------------------------------------------

 SCF Done:  E(RHF) =  -1112.12581872     A.U. after    2 cycles
 E2 =    -0.3858818313D+01 EUMP2 =    -0.11159846370376D+04

 Alpha  occ. eigenvalues --  -20.59592 -20.59049 -20.55869 -20.52649 -11.37033
 Alpha  occ. eigenvalues --  -11.31017 -11.29834 -11.29592 -11.26622 -11.25500
 Alpha  occ. eigenvalues --  -11.24690 -11.24610 -11.24594 -11.24472 -11.24361
 Alpha  occ. eigenvalues --  -11.24350 -11.24322 -11.24074 -11.24017 -11.23563
 Alpha  occ. eigenvalues --  -11.23360 -11.23088 -11.22945 -11.22090 -11.21932
 Alpha  occ. eigenvalues --   -1.44117  -1.39629  -1.36087  -1.34569  -1.14360
 Alpha  occ. eigenvalues --   -1.12377  -1.10721  -1.09117  -1.06798  -1.04906
 Alpha  occ. eigenvalues --   -1.02378  -1.00617  -0.96260  -0.94589  -0.93602
 Alpha  occ. eigenvalues --   -0.90961  -0.88106  -0.85005  -0.82877  -0.81591
 Alpha  occ. eigenvalues --   -0.79676  -0.78331  -0.74806  -0.73631  -0.72336
 Alpha  occ. eigenvalues --   -0.71462  -0.70466  -0.67940  -0.67440  -0.66119
 Alpha  occ. eigenvalues --   -0.65283  -0.64787  -0.64202  -0.63118  -0.62180
 Alpha  occ. eigenvalues --   -0.61220  -0.60776  -0.59912  -0.59245  -0.58402
 Alpha  occ. eigenvalues --   -0.58210  -0.57502  -0.57204  -0.56478  -0.54931
 Alpha  occ. eigenvalues --   -0.54794  -0.53706  -0.53490  -0.53273  -0.52502
 Alpha  occ. eigenvalues --   -0.51845  -0.51308  -0.50928  -0.50402  -0.49831
 Alpha  occ. eigenvalues --   -0.49437  -0.48871  -0.48714  -0.47460  -0.47311
 Alpha  occ. eigenvalues --   -0.46365  -0.45121  -0.43929  -0.43658  -0.42490
 Alpha  occ. eigenvalues --   -0.40281  -0.37891  -0.29278  -0.25346
 Alpha virt. eigenvalues --    0.01958   0.02724   0.03184   0.03641   0.03903
 Alpha virt. eigenvalues --    0.04130   0.04329   0.04899   0.05257   0.05620
 Alpha virt. eigenvalues --    0.05735   0.05959   0.06204   0.06919   0.07138

 Mulliken charges:
               1
     1  C    0.935883
     2  C    0.544640
     3  C    1.037530
     4  C    0.370351
     5  C    0.210208
     6  C    0.270269
     7  H   -0.080228
     8  H   -0.047740
     9  H   -0.349245
    10  H   -0.168079
    11  H   -0.062000
    12  H   -0.374071
    13  H   -0.806408
    14  H   -0.223163
    15  O   -0.918919
    16  H    0.180490
    17  O   -0.956809
    18  H    0.272634
    19  C    1.271022
    20  H   -0.926575
    21  C    0.451247
    22  H   -0.704711
    23  C   -1.065411
    24  C    0.772453
    25  H    0.165818
    26  H    0.122664
    27  H   -0.406848
    28  C    1.148380
    29  C    1.552222
    30  C   -0.521847
    31  H   -0.831365
    32  H   -0.751641
    33  C    0.444433
    34  H   -0.391642
    35  H   -0.401871
    36  C    0.384379
    37  H   -0.528441
    38  C    1.305421
    39  H   -0.126694
    40  H    0.015819
    41  H   -0.109529
    42  C    0.534354
    43  H   -0.093433
    44  H   -0.131707
    45  C    0.700397
    46  H   -0.076525
    47  H   -0.111409
    48  H   -0.014364
    49  O   -1.184671
    50  C    0.751207
    51  O   -0.915622
    52  C    0.208121
    53  H   -0.677405
    54  C    1.062973
    55  H   -0.754539
 Sum of Mulliken charges =  -0.00000

 Dipole moment (field-independent basis, Debye):
    X=             -5.6433    Y=             -4.1274    Z=              6.0035  Tot=              9.2154
 Unable to Open any file for archive entry.
 1\1\GINC-SE014\SP\RMP2-FC\Aug-CC-pVDZ\C21H30O4\OHZDE\20-Sep-2024\0\\#t
  symm=none mp2 aug-cc-pvdz geom=allcheck guess=(read,tcheck) int=(grid
 =ultrafine)\\title\\0,1\C,0,-3.356468,-1.2331,-0.988054\C,0,-4.693918,
 -1.45946,-0.285765\C,0,-5.238066,-0.264771,0.480156\C,0,-4.269707,0.29
 042,1.518497\C,0,-2.962064,0.75827,0.932658\C,0,-2.208872,-0.960346,-0
 .016808\H,0,-5.434553,-1.758296,-1.03118\H,0,-4.582177,-2.295371,0.410
 68\H,0,-3.111806,-2.169165,-1.501198\H,0,-4.756339,1.132312,2.02753\H,
 0,-4.098239,-0.467021,2.290161\H,0,-3.05227,1.213168,-0.045269\H,0,-2.
 246001,-1.577886,0.87625\H,0,-6.162569,-0.567445,0.984088\O,0,-5.55728

 Normal termination of Gaussian 16 at Fri Sep 20 13:00:06 2024.
