 Gaussian 16, Revision C.01,

 ----------------------------------------------------------------------
 #t hf aug-cc-pvdz symm=none int=(grid=ultrafine) guess=(read,tcheck) s
 table=(opt,rrhf)
 ----------------------------------------------------------------------
 -----
 title
 -----
 Symbolic Z-matrix:
 Charge =  0 Multiplicity = 1

 SCF Done:  E(RHF) =  -1125.22519297     A.U. after   15 cycles
 Normal termination of Gaussian 16 at Sat Sep 21 00:06:23 2024.
 Gaussian 16:  ES64L-G16RevC.01  3-Jul-2019

 ----------------------------------------------------------------------
 #t symm=none mp2 aug-cc-pvdz geom=allcheck guess=(read,tcheck) int=(gr
 id=ultrafine)
 ----------------------------------------------------------------------
 Structure from the checkpoint file:  "06_30TS.chk"
 -----
 title
 -----
 Charge =  0 Multiplicity = 1

                          Input orientation:
 ---------------------------------------------------------------------
 Center     Atomic      Atomic             Coordinates (Angstroms)
 Number     Number       Type             X           Y           Z
 ---------------------------------------------------------------------
      1          6           0        1.464571    2.484376    0.157466
      2          6           0        0.480151    1.860386    1.168136
      3          6           0       -0.897948    0.904185   -1.424954
      4          1           0        2.340174    1.837289    0.048701
      5          6           0       -0.812764    2.698229    1.295381
      6          1           0       -1.073186    2.780394    2.355545
      7          1           0       -0.614148    3.723006    0.963938
      8          1           0       -1.333241    0.415303   -2.299778
      9          1           0        0.992874    1.943797    2.130770
     10          6           0       -2.049641    2.147735    0.587386
     11          1           0       -2.325702    1.217499    1.085426
     12          1           0       -2.883527    2.833783    0.769630
     13          6           0       -1.980031    1.885449   -0.919628
     14          1           0       -2.959840    1.491812   -1.209431
     15          1           0       -1.884745    2.833709   -1.457889
     16          6           0        0.345617    1.616827   -1.998886
     17          1           0        1.133696    0.869543   -2.149727
     18          6           0        0.909043    2.800599   -1.223522
     19          1           0        1.709964    3.250542   -1.818958
     20          1           0        0.141067    3.574862   -1.140302
     21          1           0        0.081854    1.979349   -2.998572
     22          1           0        1.833045    3.422678    0.588893
     23          6           0       -0.556048   -0.230497   -0.420367
     24          1           0        0.173314   -0.862409   -0.950409
     25         14           0       -1.981186   -1.493611   -0.320221
     26          6           0       -3.506265   -1.002839    0.675878
     27          1           0       -4.212503   -1.838416    0.658197
     28          1           0       -3.286506   -0.787758    1.723493
     29          1           0       -4.017687   -0.134009    0.258262
     30          6           0       -1.399284   -3.147456    0.380788
     31          1           0       -1.340077   -3.156416    1.472085
     32          1           0       -2.121518   -3.919623    0.101606
     33          1           0       -0.426878   -3.443742   -0.020030
     34          6           0       -2.571852   -1.844896   -2.075039
     35          1           0       -3.270695   -2.685745   -2.070120
     36          1           0       -3.089689   -0.993014   -2.521061
     37          1           0       -1.739764   -2.111178   -2.732202
     38          5           0        0.191759    0.286732    0.903669
     39          6           0        1.846038   -0.460656    1.322886
     40          1           0        2.394551    0.330019    1.810056
     41          6           0        0.733331   -1.079473    1.909762
     42          1           0        0.456112   -2.027884    1.469864
     43          6           0       -0.242177   -0.360953    2.591643
     44          1           0        0.000456    0.464532    3.243852
     45          1           0       -1.185637   -0.854632    2.781370
     46          6           0        2.554681   -1.191811    0.264876
     47          8           0        2.162516   -2.196522   -0.280530
     48          8           0        3.698734   -0.575119   -0.072399
     49          6           0        4.435973   -1.173755   -1.141072
     50          1           0        3.837136   -1.192533   -2.051585
     51          1           0        5.315984   -0.550486   -1.275103
     52          1           0        4.722545   -2.192950   -0.882737
 ---------------------------------------------------------------------

 SCF Done:  E(RHF) =  -1125.22519297     A.U. after    1 cycles
 E2 =    -0.3114769290D+01 EUMP2 =    -0.11283399622601D+04

 Alpha  occ. eigenvalues --  -68.75114 -20.61362 -20.55123 -11.38870 -11.29872
 Alpha  occ. eigenvalues --  -11.29285 -11.25281 -11.25002 -11.21865 -11.21361
 Alpha  occ. eigenvalues --  -11.21242 -11.21178 -11.21004 -11.20953 -11.20887
 Alpha  occ. eigenvalues --  -11.20452 -11.19672 -11.19496 -11.19214 -11.17961
 Alpha  occ. eigenvalues --   -7.60264  -6.09775  -4.20405  -4.20402  -4.20371
 Alpha  occ. eigenvalues --   -1.46855  -1.36449  -1.16249  -1.10670  -1.04323
 Alpha  occ. eigenvalues --   -1.03851  -1.01712  -0.96854  -0.95116  -0.94497
 Alpha  occ. eigenvalues --   -0.91802  -0.91377  -0.91028  -0.87052  -0.82054
 Alpha  occ. eigenvalues --   -0.79666  -0.78289  -0.76132  -0.73432  -0.70436
 Alpha  occ. eigenvalues --   -0.68517  -0.67662  -0.66128  -0.64044  -0.63130
 Alpha  occ. eigenvalues --   -0.62630  -0.61655  -0.61281  -0.59318  -0.58507
 Alpha  occ. eigenvalues --   -0.57380  -0.56773  -0.56618  -0.55819  -0.55504
 Alpha  occ. eigenvalues --   -0.55210  -0.54987  -0.53933  -0.53297  -0.52977
 Alpha  occ. eigenvalues --   -0.52683  -0.52333  -0.51579  -0.49508  -0.48402
 Alpha  occ. eigenvalues --   -0.47962  -0.47021  -0.46527  -0.45774  -0.45616
 Alpha  occ. eigenvalues --   -0.44703  -0.43415  -0.42361  -0.42074  -0.41067
 Alpha  occ. eigenvalues --   -0.40015  -0.39547  -0.37919  -0.34022
 Alpha virt. eigenvalues --    0.02791   0.03509   0.03611   0.03924   0.04776
 Alpha virt. eigenvalues --    0.04878   0.05105   0.05159   0.05296   0.06531
 Alpha virt. eigenvalues --    0.06551   0.06722   0.06944   0.07009   0.07135

 Mulliken charges:
               1
     1  C    0.694322
     2  C   -0.432592
     3  C    0.252613
     4  H   -0.253670
     5  C    0.560176
     6  H   -0.227416
     7  H   -0.242097
     8  H   -0.316692
     9  H   -0.231116
    10  C    0.751554
    11  H   -0.184733
    12  H   -0.318299
    13  C    0.587177
    14  H   -0.245853
    15  H   -0.301903
    16  C    0.885228
    17  H   -0.102707
    18  C    0.294750
    19  H   -0.273855
    20  H   -0.003688
    21  H   -0.283644
    22  H   -0.226661
    23  C   -0.636788
    24  H   -0.507490
    25  Si   0.571300
    26  C    1.112350
    27  H   -0.625590
    28  H   -0.254405
    29  H   -0.264538
    30  C    0.966047
    31  H   -0.216709
    32  H   -0.592855
    33  H   -0.244331
    34  C    1.030081
    35  H   -0.543874
    36  H   -0.286761
    37  H   -0.329014
    38  B    0.499876
    39  C    0.783144
    40  H   -0.672270
    41  C    0.114090
    42  H   -0.644529
    43  C    1.270981
    44  H   -0.174259
    45  H   -0.326950
    46  C    1.006950
    47  O   -0.856036
    48  O   -1.011481
    49  C    0.931988
    50  H   -0.086659
    51  H   -0.270381
    52  H   -0.122780
 Sum of Mulliken charges =  -0.00000

 Dipole moment (field-independent basis, Debye):
    X=              0.9185    Y=              0.7353    Z=              1.1212  Tot=              1.6253
 Unable to Open any file for archive entry.
 1\1\GINC-SE223\SP\RMP2-FC\Aug-CC-pVDZ\C17H31B1O2Si1\OHZDE\21-Sep-2024\
 0\\#t symm=none mp2 aug-cc-pvdz geom=allcheck guess=(read,tcheck) int=
 (grid=ultrafine)\\title\\0,1\C,0,1.464571,2.484376,0.157466\C,0,0.4801
 51,1.860386,1.168136\C,0,-0.897948,0.904185,-1.424954\H,0,2.340174,1.8
 37289,0.048701\C,0,-0.812764,2.698229,1.295381\H,0,-1.073186,2.780394,
 2.355545\H,0,-0.614148,3.723006,0.963938\H,0,-1.333241,0.415303,-2.299
 778\H,0,0.992874,1.943797,2.13077\C,0,-2.049641,2.147735,0.587386\H,0,
 -2.325702,1.217499,1.085426\H,0,-2.883527,2.833783,0.76963\C,0,-1.9800
 31,1.885449,-0.919628\H,0,-2.95984,1.491812,-1.209431\H,0,-1.884745,2.

 Normal termination of Gaussian 16 at Sat Sep 21 01:54:02 2024.
