 Gaussian 16, Revision C.01,

 ----------------------------------------------------------------------
 #t hf aug-cc-pvdz symm=none int=(grid=ultrafine) guess=(read,tcheck) s
 table=(opt,rrhf)
 ----------------------------------------------------------------------
 -----
 title
 -----
 Symbolic Z-matrix:
 Charge =  0 Multiplicity = 1

 SCF Done:  E(RHF) =  -904.465220449     A.U. after   16 cycles
 Normal termination of Gaussian 16 at Fri Sep 20 14:04:03 2024.
 Gaussian 16:  ES64L-G16RevC.01  3-Jul-2019

 ----------------------------------------------------------------------
 #t symm=none mp2 aug-cc-pvdz geom=allcheck guess=(read,tcheck) int=(gr
 id=ultrafine)
 ----------------------------------------------------------------------
 Structure from the checkpoint file:  "02_95R.chk"
 -----
 title
 -----
 Charge =  0 Multiplicity = 1

                          Input orientation:
 ---------------------------------------------------------------------
 Center     Atomic      Atomic             Coordinates (Angstroms)
 Number     Number       Type             X           Y           Z
 ---------------------------------------------------------------------
      1          6           0        0.048625   -2.370899    0.052773
      2          1           0       -0.038888   -3.405916    0.386528
      3          1           0        0.353143   -2.386538   -1.012754
      4          6           0        1.109172   -1.660974    0.850113
      5          6           0       -0.196172    0.412419    0.727384
      6          1           0       -0.564521    0.316573    1.753486
      7          1           0       -0.195839    1.462053    0.472738
      8          6           0       -1.186528   -0.323264   -0.190541
      9          1           0       -0.792991   -0.250967   -1.225134
     10          7           0       -1.245341   -1.723891    0.206586
     11          6           0        2.318200    0.447988    0.283421
     12          6           0        1.835828   -2.295021    1.760471
     13          6           0        3.539687   -0.331110   -0.040871
     14          6           0        3.638852   -1.160017   -1.072074
     15          6           0        1.183108   -0.195207    0.607889
     16          6           0        4.856018   -1.957566   -1.414534
     17          1           0        5.189625   -1.758178   -2.437012
     18          1           0        5.681666   -1.735381   -0.735921
     19          1           0        4.646521   -3.030237   -1.353203
     20          6           0       -2.560928    0.325091   -0.190240
     21          6           0       -2.309638   -2.447315   -0.460739
     22          1           0       -2.200791   -3.509764   -0.234041
     23          1           0       -2.246783   -2.338708   -1.559331
     24          6           0       -3.644981   -1.936057    0.043829
     25          1           0       -3.760237   -2.230719    1.091223
     26          6           0       -3.724187   -0.436984   -0.074104
     27          1           0       -4.464753   -2.393951   -0.515917
     28          6           0       -4.964531    0.198050   -0.092236
     29          1           0       -5.862462   -0.404066   -0.000402
     30          6           0       -2.677274    1.704999   -0.360350
     31          1           0       -1.788113    2.309930   -0.488255
     32          6           0       -5.067974    1.570169   -0.235959
     33          1           0       -6.041358    2.045508   -0.248762
     34          6           0       -3.913312    2.327865   -0.380397
     35          1           0       -3.975234    3.401415   -0.511571
     36          6           0        2.459730    1.982838    0.148232
     37          6           0        1.746576    2.455210   -1.130300
     38          1           0        0.677653    2.246802   -1.120856
     39          1           0        2.171050    1.955708   -2.004292
     40          1           0        1.878878    3.532907   -1.261354
     41          6           0        3.936429    2.391505    0.003582
     42          1           0        4.404164    1.933174   -0.868054
     43          1           0        4.520750    2.121804    0.885993
     44          1           0        3.996863    3.476108   -0.111225
     45          6           0        1.937282    2.723258    1.390983
     46          1           0        0.875333    2.582438    1.574712
     47          1           0        2.114128    3.796817    1.282554
     48          1           0        2.471274    2.385259    2.282002
     49          1           0        2.588780   -1.777307    2.341718
     50          1           0        1.707610   -3.355831    1.943988
     51          1           0        2.769980   -1.296486   -1.712271
     52          1           0        4.418044   -0.175081    0.581303
 ---------------------------------------------------------------------

 SCF Done:  E(RHF) =  -904.465220445     A.U. after    3 cycles
 E2 =    -0.3303638958D+01 EUMP2 =    -0.90776885940350D+03

 Alpha  occ. eigenvalues --  -15.55343 -11.26621 -11.25560 -11.25393 -11.24487
 Alpha  occ. eigenvalues --  -11.23963 -11.23829 -11.23577 -11.23498 -11.23435
 Alpha  occ. eigenvalues --  -11.23375 -11.23266 -11.23254 -11.23145 -11.22864
 Alpha  occ. eigenvalues --  -11.22680 -11.22458 -11.22425 -11.22295 -11.21798
 Alpha  occ. eigenvalues --  -11.21557 -11.21474 -11.21428  -1.25516  -1.15850
 Alpha  occ. eigenvalues --   -1.14055  -1.09276  -1.06970  -1.06070  -1.05216
 Alpha  occ. eigenvalues --   -1.00895  -0.99479  -0.96492  -0.93424  -0.93252
 Alpha  occ. eigenvalues --   -0.92057  -0.89819  -0.85901  -0.83527  -0.82359
 Alpha  occ. eigenvalues --   -0.80383  -0.75598  -0.75494  -0.74256  -0.69521
 Alpha  occ. eigenvalues --   -0.67794  -0.65981  -0.65206  -0.64334  -0.63307
 Alpha  occ. eigenvalues --   -0.62123  -0.61578  -0.60538  -0.59929  -0.59385
 Alpha  occ. eigenvalues --   -0.59184  -0.58181  -0.57397  -0.56356  -0.56265
 Alpha  occ. eigenvalues --   -0.55582  -0.54501  -0.53959  -0.53384  -0.52782
 Alpha  occ. eigenvalues --   -0.52610  -0.51613  -0.51236  -0.51046  -0.50555
 Alpha  occ. eigenvalues --   -0.49807  -0.49241  -0.47702  -0.47015  -0.46321
 Alpha  occ. eigenvalues --   -0.45547  -0.44183  -0.43140  -0.37291  -0.36378
 Alpha  occ. eigenvalues --   -0.35737  -0.32703  -0.31989  -0.30084
 Alpha virt. eigenvalues --    0.03169   0.03537   0.03562   0.04057   0.04400
 Alpha virt. eigenvalues --    0.04549   0.05327   0.05368   0.05437   0.05668
 Alpha virt. eigenvalues --    0.05989   0.06741   0.07023   0.07306   0.07434

 Mulliken charges:
               1
     1  C    0.412369
     2  H   -0.515122
     3  H   -0.045286
     4  C   -0.411285
     5  C    0.290828
     6  H   -0.114730
     7  H   -0.387198
     8  C   -0.537425
     9  H   -0.145499
    10  N   -0.855174
    11  C   -0.300648
    12  C    1.376312
    13  C    2.272941
    14  C   -0.509178
    15  C    0.141525
    16  C    0.347948
    17  H    0.041701
    18  H   -0.202371
    19  H    0.056042
    20  C    0.555421
    21  C    1.024601
    22  H   -0.289159
    23  H   -0.143232
    24  C    0.507395
    25  H    0.101718
    26  C   -0.555313
    27  H   -0.021980
    28  C    0.857209
    29  H   -0.662411
    30  C    1.586846
    31  H   -0.604678
    32  C    0.238699
    33  H   -0.461353
    34  C   -0.147897
    35  H   -0.590431
    36  C   -2.490486
    37  C    1.201102
    38  H   -0.641349
    39  H   -0.026532
    40  H   -0.095279
    41  C    1.433563
    42  H    0.110779
    43  H    0.002644
    44  H   -0.159646
    45  C    1.209913
    46  H   -0.295437
    47  H   -0.081006
    48  H   -0.077741
    49  H   -0.505793
    50  H   -0.588527
    51  H   -0.650226
    52  H   -0.657162
 Sum of Mulliken charges =   0.00000

 Dipole moment (field-independent basis, Debye):
    X=              0.3392    Y=             -0.3921    Z=             -0.8902  Tot=              1.0302
 Unable to Open any file for archive entry.
 1\1\GINC-SE258\SP\RMP2-FC\Aug-CC-pVDZ\C22H29N1\OHZDE\20-Sep-2024\0\\#t
  symm=none mp2 aug-cc-pvdz geom=allcheck guess=(read,tcheck) int=(grid
 =ultrafine)\\title\\0,1\C,0,0.048625,-2.370899,0.052773\H,0,-0.038888,
 -3.405916,0.386528\H,0,0.353143,-2.386538,-1.012754\C,0,1.109172,-1.66
 0974,0.850113\C,0,-0.196172,0.412419,0.727384\H,0,-0.564521,0.316573,1
 .753486\H,0,-0.195839,1.462053,0.472738\C,0,-1.186528,-0.323264,-0.190
 541\H,0,-0.792991,-0.250967,-1.225134\N,0,-1.245341,-1.723891,0.206586
 \C,0,2.3182,0.447988,0.283421\C,0,1.835828,-2.295021,1.760471\C,0,3.53
 9687,-0.33111,-0.040871\C,0,3.638852,-1.160017,-1.072074\C,0,1.183108,

 Normal termination of Gaussian 16 at Fri Sep 20 16:40:10 2024.
