 Gaussian 16, Revision C.01,

 ----------------------------------------------------------------------
 #t hf aug-cc-pvdz symm=none int=(grid=ultrafine) guess=(read,tcheck) s
 table=(opt,rrhf)
 ----------------------------------------------------------------------
 -----
 title
 -----
 Symbolic Z-matrix:
 Charge =  0 Multiplicity = 1

 SCF Done:  E(RHF) =  -1094.35069890     A.U. after   18 cycles
 Normal termination of Gaussian 16 at Fri Sep 20 11:36:57 2024.
 Gaussian 16:  ES64L-G16RevC.01  3-Jul-2019

 ----------------------------------------------------------------------
 #t symm=none mp2 aug-cc-pvdz geom=allcheck guess=(read,tcheck) int=(gr
 id=ultrafine)
 ----------------------------------------------------------------------
 Structure from the checkpoint file:  "02_20TS.chk"
 -----
 title
 -----
 Charge =  0 Multiplicity = 1

                          Input orientation:
 ---------------------------------------------------------------------
 Center     Atomic      Atomic             Coordinates (Angstroms)
 Number     Number       Type             X           Y           Z
 ---------------------------------------------------------------------
      1          6           0       -0.345850   -0.788419   -0.293527
      2          6           0        0.011345    1.420606    0.630455
      3          6           0       -1.708560   -1.092058   -0.166318
      4          1           0        0.019356   -0.431463   -1.246394
      5          6           0        0.649269   -1.367086    0.582305
      6          6           0       -1.101128    2.009709    0.036840
      7          6           0        1.419381    1.820550    0.461986
      8          1           0       -0.161124    0.858959    1.531541
      9          6           0       -2.369453    1.462676    0.232478
     10          6           0       -2.702379    0.321664    0.979070
     11          6           0       -4.149405   -0.151825    0.897117
     12          6           0       -2.122983    0.090751    2.371361
     13          6           0       -2.512293   -1.137110   -1.449710
     14          1           0       -1.943648   -1.861584    0.565178
     15          1           0       -2.912709   -0.290223    3.022334
     16          1           0       -1.309208   -0.633411    2.399858
     17          1           0       -1.769553    1.027626    2.806631
     18          6           0       -4.750199   -0.326558   -0.495926
     19          1           0       -4.764989    0.541432    1.484262
     20          1           0       -4.219384   -1.115834    1.413804
     21          6           0       -4.002156   -1.405701   -1.274011
     22          1           0       -2.357638   -0.201676   -1.996778
     23          1           0       -2.086292   -1.924595   -2.080404
     24          6           0       -6.235476   -0.661156   -0.391586
     25          1           0       -4.659955    0.614512   -1.049954
     26          1           0       -4.460951   -1.521386   -2.260729
     27          1           0       -4.136043   -2.365709   -0.758653
     28          6           0       -0.983780    3.127132   -0.972848
     29          1           0       -3.142070    1.852463   -0.423823
     30          1           0       -0.157981    3.798077   -0.736853
     31          1           0       -0.813626    2.746902   -1.984116
     32          1           0       -1.906844    3.708117   -0.994202
     33          1           0       -6.385196   -1.593179    0.161933
     34          1           0       -6.785142    0.126706    0.129190
     35          1           0       -6.682700   -0.786841   -1.380444
     36          6           0        2.186908    1.862973    1.758699
     37          1           0        1.755973    2.603443    2.438549
     38          1           0        2.123246    0.894364    2.262492
     39          1           0        3.239187    2.104731    1.622587
     40          6           0        1.950983    2.066549   -0.739096
     41          6           0        3.355110    2.457720   -1.066912
     42          1           0        3.365954    3.381057   -1.653912
     43          1           0        3.978440    2.616100   -0.188066
     44          1           0        3.824328    1.687614   -1.686213
     45          1           0        1.314163    1.927204   -1.605014
     46          6           0        2.064997   -1.392706    0.100328
     47          8           0        0.412075   -1.823723    1.697182
     48          6           0        3.094895   -1.724242    0.877802
     49          6           0        2.589450   -1.086015   -1.272441
     50          1           0        3.018700   -1.998502    1.921120
     51          6           0        4.394638   -1.653421    0.136568
     52          7           0        3.948221   -1.217900   -1.171118
     53          1           0        4.534853   -1.172642   -1.988185
     54          8           0        1.987952   -0.789136   -2.283900
     55          6           0        5.405826   -0.704129    0.773048
     56          1           0        6.313737   -0.647004    0.169557
     57          1           0        5.683214   -1.053946    1.769396
     58          1           0        4.981023    0.296799    0.857079
     59          1           0        4.830281   -2.659370    0.075702
 ---------------------------------------------------------------------

 SCF Done:  E(RHF) =  -1094.35069890     A.U. after    3 cycles
 E2 =    -0.3918984256D+01 EUMP2 =    -0.10982696831585D+04

 Alpha  occ. eigenvalues --  -20.52847 -20.52128 -15.59032 -11.35946 -11.32245
 Alpha  occ. eigenvalues --  -11.29881 -11.27013 -11.25119 -11.24840 -11.24661
 Alpha  occ. eigenvalues --  -11.24611 -11.24490 -11.23390 -11.23099 -11.22825
 Alpha  occ. eigenvalues --  -11.22767 -11.22570 -11.22503 -11.22418 -11.22298
 Alpha  occ. eigenvalues --  -11.22085 -11.21850 -11.21783 -11.21617 -11.21003
 Alpha  occ. eigenvalues --  -11.20791  -1.38890  -1.36101  -1.26881  -1.14343
 Alpha  occ. eigenvalues --   -1.11551  -1.08957  -1.08072  -1.06065  -1.04166
 Alpha  occ. eigenvalues --   -1.03577  -0.99458  -0.98349  -0.93548  -0.93044
 Alpha  occ. eigenvalues --   -0.92178  -0.91477  -0.88627  -0.87697  -0.83489
 Alpha  occ. eigenvalues --   -0.81662  -0.78933  -0.77159  -0.76390  -0.72272
 Alpha  occ. eigenvalues --   -0.71871  -0.69537  -0.68473  -0.65671  -0.65310
 Alpha  occ. eigenvalues --   -0.65237  -0.63393  -0.62742  -0.61909  -0.61079
 Alpha  occ. eigenvalues --   -0.60716  -0.60095  -0.58629  -0.58407  -0.58282
 Alpha  occ. eigenvalues --   -0.57932  -0.56757  -0.56118  -0.55906  -0.55648
 Alpha  occ. eigenvalues --   -0.55309  -0.54714  -0.54388  -0.53676  -0.53343
 Alpha  occ. eigenvalues --   -0.53088  -0.52650  -0.52445  -0.51986  -0.51389
 Alpha  occ. eigenvalues --   -0.51221  -0.50553  -0.49454  -0.47903  -0.47681
 Alpha  occ. eigenvalues --   -0.46721  -0.46217  -0.45191  -0.43562  -0.42424
 Alpha  occ. eigenvalues --   -0.41968  -0.39972  -0.39724  -0.38135  -0.35650
 Alpha  occ. eigenvalues --   -0.29716  -0.26532
 Alpha virt. eigenvalues --    0.02606   0.03358   0.03687   0.03852   0.04357
 Alpha virt. eigenvalues --    0.04400   0.04677   0.04999   0.05377   0.05695
 Alpha virt. eigenvalues --    0.05780   0.06264   0.06474   0.06555   0.06823

 Mulliken charges:
               1
     1  C    2.598526
     2  C    0.512848
     3  C    0.062160
     4  H   -1.077476
     5  C    0.176195
     6  C   -0.348645
     7  C    0.220128
     8  H   -1.333652
     9  C   -0.430931
    10  C   -1.163148
    11  C    1.220113
    12  C    1.307836
    13  C    0.559029
    14  H   -0.812163
    15  H   -0.428634
    16  H    0.165242
    17  H    0.123063
    18  C   -1.331493
    19  H   -0.187550
    20  H   -0.126937
    21  C    0.963068
    22  H   -0.028287
    23  H   -0.128918
    24  C    1.178098
    25  H   -0.273303
    26  H   -0.180482
    27  H   -0.074956
    28  C    0.913471
    29  H   -0.850293
    30  H    0.105894
    31  H    0.131938
    32  H   -0.286938
    33  H   -0.024005
    34  H   -0.086438
    35  H   -0.048677
    36  C    0.927312
    37  H   -0.028569
    38  H    0.128320
    39  H   -0.304097
    40  C   -0.036536
    41  C    0.771604
    42  H   -0.054238
    43  H   -0.219194
    44  H    0.050804
    45  H   -0.798914
    46  C    0.628820
    47  O   -1.190476
    48  C    0.683005
    49  C    0.160712
    50  H   -0.560207
    51  C   -0.111203
    52  N   -0.382709
    53  H   -0.213465
    54  O   -0.948469
    55  C    0.831992
    56  H   -0.032286
    57  H   -0.003274
    58  H   -0.188309
    59  H   -0.125307
 Sum of Mulliken charges =  -0.00000

 Dipole moment (field-independent basis, Debye):
    X=              2.9203    Y=              0.9056    Z=              0.2586  Tot=              3.0684
 Unable to Open any file for archive entry.
 1\1\GINC-SE176\SP\RMP2-FC\Aug-CC-pVDZ\C23H33N1O2\OHZDE\20-Sep-2024\0\\
 #t symm=none mp2 aug-cc-pvdz geom=allcheck guess=(read,tcheck) int=(gr
 id=ultrafine)\\title\\0,1\C,0,-0.34585,-0.788419,-0.293527\C,0,0.01134
 5,1.420606,0.630455\C,0,-1.70856,-1.092058,-0.166318\H,0,0.019356,-0.4
 31463,-1.246394\C,0,0.649269,-1.367086,0.582305\C,0,-1.101128,2.009709
 ,0.03684\C,0,1.419381,1.82055,0.461986\H,0,-0.161124,0.858959,1.531541
 \C,0,-2.369453,1.462676,0.232478\C,0,-2.702379,0.321664,0.97907\C,0,-4
 .149405,-0.151825,0.897117\C,0,-2.122983,0.090751,2.371361\C,0,-2.5122
 93,-1.13711,-1.44971\H,0,-1.943648,-1.861584,0.565178\H,0,-2.912709,-0

 Normal termination of Gaussian 16 at Fri Sep 20 15:32:33 2024.
