 Gaussian 16, Revision C.01,

 ----------------------------------------------------------------------
 #t hf aug-cc-pvdz symm=none int=(grid=ultrafine) guess=(read,tcheck) s
 table=opt
 ----------------------------------------------------------------------
 -----
 title
 -----
 Symbolic Z-matrix:
 Charge =  0 Multiplicity = 2

 SCF Done:  E(UHF) =  -1649.86739286     A.U. after   29 cycles
 Normal termination of Gaussian 16 at Sat Sep 21 01:01:26 2024.
 Gaussian 16:  ES64L-G16RevC.01  3-Jul-2019

 ----------------------------------------------------------------------
 #t symm=none mp2 aug-cc-pvdz geom=allcheck guess=(read,tcheck) int=(gr
 id=ultrafine)
 ----------------------------------------------------------------------
 Structure from the checkpoint file:  "04_90TS.chk"
 -----
 title
 -----
 Charge =  0 Multiplicity = 2

                          Input orientation:
 ---------------------------------------------------------------------
 Center     Atomic      Atomic             Coordinates (Angstroms)
 Number     Number       Type             X           Y           Z
 ---------------------------------------------------------------------
      1          6           0        2.732351   -0.944804   -0.349568
      2          6           0        4.127128   -1.523129   -0.406304
      3          8           0        1.170071    1.419385    0.912937
      4          6           0        2.150265    2.385031    0.461355
      5          6           0        1.297984    3.537913   -0.071739
      6          6           0        0.133740    3.563111    0.938624
      7          6           0        0.039882    2.079041    1.425424
      8          6           0        3.085707    1.741243   -0.514568
      9          1           0        2.701823    2.739148    1.341141
     10          1           0        4.144969    1.886171   -0.327973
     11          1           0        2.811561    1.849496   -1.559374
     12          8           0        0.819169    3.356747   -1.378401
     13          1           0        1.852609    4.475835   -0.069589
     14          1           0        0.349409    2.493825   -1.461616
     15          8           0       -1.051476    4.067300    0.401618
     16          1           0        0.406571    4.176626    1.800476
     17          1           0       -0.941056    4.072355   -0.560693
     18          7           0       -1.151882    1.377670    0.999752
     19          1           0        0.035968    2.022616    2.516964
     20          6           0       -2.170036    0.964383    1.827460
     21          7           0       -3.145501    0.367822    1.204486
     22          6           0       -2.755894    0.381693   -0.120578
     23          6           0       -1.523109    1.004812   -0.267321
     24          7           0       -0.885394    1.182689   -1.428416
     25          6           0       -1.553844    0.685887   -2.464630
     26          7           0       -2.735077    0.074758   -2.456692
     27          6           0       -3.367017   -0.082356   -1.291144
     28          7           0       -4.572861   -0.703796   -1.280729
     29          1           0       -5.025141   -0.816435   -2.174703
     30          1           0       -5.160791   -0.568721   -0.473505
     31          1           0       -1.084645    0.800540   -3.435979
     32          1           0       -2.107753    1.117510    2.893979
     33          8           0        4.863431   -1.340367   -1.337811
     34          8           0        4.488079   -2.209913    0.679183
     35          1           0        3.686483   -2.271145    1.236403
     36          7           0        2.030764   -1.286841    0.856179
     37          6           0        0.707617   -1.754010    0.731863
     38          6           0        0.250020   -2.324258   -0.428465
     39          7           0        1.081792   -2.321454   -1.517288
     40          6           0        1.932349   -1.137221   -1.627224
     41          1           0        2.957529    0.321564   -0.352654
     42          1           0        2.624138   -1.254857   -2.458232
     43          1           0        1.317101   -0.246453   -1.792265
     44          6           0       -0.165323   -1.626400    1.841975
     45          7           0       -1.411699   -2.228378    1.627855
     46          6           0       -1.783329   -2.791805    0.449792
     47          7           0       -0.992658   -2.857690   -0.577872
     48          8           0        0.068784   -1.049898    2.900250
     49          7           0       -3.044976   -3.318761    0.385054
     50          1           0       -3.337420   -3.517751   -0.560052
     51          1           0       -3.752666   -2.860388    0.939192
     52          1           0       -2.069881   -2.141335    2.389629
     53          1           0        2.055765   -0.553856    1.559088
     54          1           0        0.632472   -2.627714   -2.368460
 ---------------------------------------------------------------------

 SCF Done:  E(UHF) =  -1649.86739286     A.U. after    1 cycles
 E2 =    -0.5243610121D+01 EUMP2 =    -0.16551110029848D+04

 Alpha  occ. eigenvalues --  -20.60027 -20.59807 -20.58453 -20.57446 -20.53884
 Alpha  occ. eigenvalues --  -20.53244 -15.64961 -15.63547 -15.61425 -15.61144
 Alpha  occ. eigenvalues --  -15.59373 -15.59001 -15.58969 -15.58148 -15.58025
 Alpha  occ. eigenvalues --  -15.56658 -11.39611 -11.37321 -11.36753 -11.36463
 Alpha  occ. eigenvalues --  -11.35958 -11.34285 -11.34284 -11.34266 -11.33368
 Alpha  occ. eigenvalues --  -11.31556 -11.31275 -11.30795 -11.29576 -11.27872
 Alpha  occ. eigenvalues --  -11.27626 -11.25996 -11.25496  -1.45151  -1.44306
 Alpha  occ. eigenvalues --   -1.40355  -1.39814  -1.39002  -1.36796  -1.35581
 Alpha  occ. eigenvalues --   -1.35197  -1.33179  -1.29946  -1.27732  -1.23545
 Alpha  occ. eigenvalues --   -1.22582  -1.21983  -1.19459  -1.18618  -1.08428
 Alpha  occ. eigenvalues --   -1.06883  -1.06439  -1.04581  -0.98488  -0.96509
 Alpha  occ. eigenvalues --   -0.93133  -0.91857  -0.90425  -0.88695  -0.86529
 Alpha  occ. eigenvalues --   -0.85732  -0.83646  -0.82619  -0.79985  -0.79907
 Alpha  occ. eigenvalues --   -0.78614  -0.76133  -0.75738  -0.74592  -0.73649
 Alpha  occ. eigenvalues --   -0.72656  -0.70956  -0.70514  -0.70283  -0.69871
 Alpha  occ. eigenvalues --   -0.69207  -0.68508  -0.68009  -0.66973  -0.65827
 Alpha  occ. eigenvalues --   -0.65768  -0.65135  -0.64674  -0.63909  -0.63769
 Alpha  occ. eigenvalues --   -0.62760  -0.62659  -0.61644  -0.61161  -0.60567
 Alpha  occ. eigenvalues --   -0.60074  -0.59355  -0.58798  -0.57669  -0.56857
 Alpha  occ. eigenvalues --   -0.56221  -0.55495  -0.54537  -0.53705  -0.52742
 Alpha  occ. eigenvalues --   -0.52584  -0.52314  -0.51243  -0.49907  -0.48059
 Alpha  occ. eigenvalues --   -0.47436  -0.47273  -0.46816  -0.46561  -0.45834
 Alpha  occ. eigenvalues --   -0.45349  -0.44466  -0.44058  -0.43334  -0.42603
 Alpha  occ. eigenvalues --   -0.42075  -0.39258  -0.39129  -0.34910  -0.33367
 Alpha  occ. eigenvalues --   -0.28044
 Alpha virt. eigenvalues --    0.01946   0.02691   0.03260   0.03901   0.04124
 Alpha virt. eigenvalues --    0.04405   0.04844   0.05488   0.05755   0.05905
 Alpha virt. eigenvalues --    0.06159   0.06707   0.07107   0.07515   0.07801

  Beta  occ. eigenvalues --  -20.59906 -20.59801 -20.58443 -20.57456 -20.53651
  Beta  occ. eigenvalues --  -20.53255 -15.64960 -15.63555 -15.61425 -15.61140
  Beta  occ. eigenvalues --  -15.59372 -15.58970 -15.58912 -15.58147 -15.58051
  Beta  occ. eigenvalues --  -15.56672 -11.39595 -11.37470 -11.36747 -11.36463
  Beta  occ. eigenvalues --  -11.35963 -11.34286 -11.34285 -11.34266 -11.33339
  Beta  occ. eigenvalues --  -11.31748 -11.31262 -11.30715 -11.28071 -11.27998
  Beta  occ. eigenvalues --  -11.27625 -11.25520 -11.23895  -1.45012  -1.44109
  Beta  occ. eigenvalues --   -1.40360  -1.39758  -1.38940  -1.36786  -1.35219
  Beta  occ. eigenvalues --   -1.35182  -1.33173  -1.29676  -1.27730  -1.23132
  Beta  occ. eigenvalues --   -1.22535  -1.21957  -1.19408  -1.18612  -1.06820
  Beta  occ. eigenvalues --   -1.06387  -1.05909  -1.03845  -0.97902  -0.94355
  Beta  occ. eigenvalues --   -0.92431  -0.91585  -0.90000  -0.88635  -0.86190
  Beta  occ. eigenvalues --   -0.85498  -0.83067  -0.81854  -0.79873  -0.79643
  Beta  occ. eigenvalues --   -0.78572  -0.75994  -0.75635  -0.74415  -0.72778
  Beta  occ. eigenvalues --   -0.72437  -0.70738  -0.70441  -0.69950  -0.69623
  Beta  occ. eigenvalues --   -0.68426  -0.68013  -0.67728  -0.66572  -0.65587
  Beta  occ. eigenvalues --   -0.65294  -0.65034  -0.64551  -0.63691  -0.63369
  Beta  occ. eigenvalues --   -0.62737  -0.62482  -0.61529  -0.61107  -0.60392
  Beta  occ. eigenvalues --   -0.59882  -0.58662  -0.58292  -0.57420  -0.56635
  Beta  occ. eigenvalues --   -0.55481  -0.54541  -0.54440  -0.53174  -0.52542
  Beta  occ. eigenvalues --   -0.52229  -0.51094  -0.49940  -0.49680  -0.47810
  Beta  occ. eigenvalues --   -0.47264  -0.46937  -0.46524  -0.45735  -0.45374
  Beta  occ. eigenvalues --   -0.44909  -0.44294  -0.43970  -0.43242  -0.42395
  Beta  occ. eigenvalues --   -0.41321  -0.39140  -0.39030  -0.33366  -0.28775
  Beta virt. eigenvalues --    0.01946   0.02688   0.03256   0.03894   0.04123
  Beta virt. eigenvalues --    0.04306   0.04852   0.05482   0.05609   0.05849
  Beta virt. eigenvalues --    0.06152   0.06593   0.06932   0.07125   0.07526

 Mulliken charges and spin densities:
               1          2
     1  C   -0.869473   0.722968
     2  C    1.219726  -0.105292
     3  O   -1.446275   0.038355
     4  C    0.368373  -0.151393
     5  C    1.105155   0.004683
     6  C    1.014787   0.002127
     7  C    0.882521   0.012732
     8  C    0.484148   1.168637
     9  H   -0.291417   0.005287
    10  H   -0.153381  -0.071957
    11  H   -0.066751  -0.073319
    12  O   -0.905298   0.001750
    13  H   -0.336277  -0.003635
    14  H    0.288011  -0.000821
    15  O   -0.887792   0.001591
    16  H   -0.156791   0.000439
    17  H    0.216976  -0.000421
    18  N    0.381661   0.002139
    19  H   -0.585119   0.001130
    20  C    0.602830   0.000799
    21  N   -1.098107  -0.000142
    22  C    0.660351  -0.000061
    23  C    1.148357  -0.001721
    24  N   -0.099747  -0.006913
    25  C    0.366578  -0.001678
    26  N   -0.754548   0.000749
    27  C    0.942817  -0.000211
    28  N   -0.319435  -0.000004
    29  H   -0.008777  -0.000009
    30  H   -0.029372   0.000003
    31  H   -0.713516  -0.000011
    32  H   -0.593123  -0.000075
    33  O   -0.839975   0.053068
    34  O   -0.705511   0.004252
    35  H    0.311264  -0.000198
    36  N   -1.119545  -0.024358
    37  C    1.455326  -0.002706
    38  C    1.311556   0.007482
    39  N   -0.739370   0.007569
    40  C    1.737632  -0.103400
    41  H    0.192576  -0.517538
    42  H   -0.294533   0.003522
    43  H   -0.333224   0.007088
    44  C    0.774363   0.012377
    45  N   -0.415183  -0.003122
    46  C    0.709613   0.005091
    47  N   -0.902748  -0.007060
    48  O   -1.129507  -0.002427
    49  N   -0.306625   0.001339
    50  H    0.053470  -0.000074
    51  H   -0.039893  -0.000021
    52  H   -0.049725   0.000374
    53  H    0.083119   0.011898
    54  H   -0.120172   0.001119
 Sum of Mulliken charges =  -0.00000   1.00000

 Dipole moment (field-independent basis, Debye):
    X=             -7.9441    Y=              2.2987    Z=              0.8842  Tot=              8.3171
 Unable to Open any file for archive entry.
 1\1\GINC-SE318\SP\UMP2-FC\Aug-CC-pVDZ\C17H21N10O6\OHZDE\21-Sep-2024\0\
 \#t symm=none mp2 aug-cc-pvdz geom=allcheck guess=(read,tcheck) int=(g
 rid=ultrafine)\\title\\0,2\C,0,2.732351,-0.944804,-0.349568\C,0,4.1271
 28,-1.523129,-0.406304\O,0,1.170071,1.419385,0.912937\C,0,2.150265,2.3
 85031,0.461355\C,0,1.297984,3.537913,-0.071739\C,0,0.13374,3.563111,0.
 938624\C,0,0.039882,2.079041,1.425424\C,0,3.085707,1.741243,-0.514568\
 H,0,2.701823,2.739148,1.341141\H,0,4.144969,1.886171,-0.327973\H,0,2.8
 11561,1.849496,-1.559374\O,0,0.819169,3.356747,-1.378401\H,0,1.852609,
 4.475835,-0.069589\H,0,0.349409,2.493825,-1.461616\O,0,-1.051476,4.067

 Normal termination of Gaussian 16 at Sat Sep 21 18:12:18 2024.
