 Gaussian 16, Revision C.01,

 ----------------------------------------------------------------------
 #t hf aug-cc-pvdz symm=none int=(grid=ultrafine) guess=(read,tcheck) s
 table=(opt,rrhf)
 ----------------------------------------------------------------------
 -----
 title
 -----
 Symbolic Z-matrix:
 Charge =  1 Multiplicity = 1

 SCF Done:  E(RHF) =  -1186.47119952     A.U. after   24 cycles
 Normal termination of Gaussian 16 at Fri Sep 20 23:37:30 2024.
 Gaussian 16:  ES64L-G16RevC.01  3-Jul-2019

 ----------------------------------------------------------------------
 #t symm=none mp2 aug-cc-pvdz geom=allcheck guess=(read,tcheck) int=(gr
 id=ultrafine)
 ----------------------------------------------------------------------
 Structure from the checkpoint file:  "05_29TS.chk"
 -----
 title
 -----
 Charge =  1 Multiplicity = 1

                          Input orientation:
 ---------------------------------------------------------------------
 Center     Atomic      Atomic             Coordinates (Angstroms)
 Number     Number       Type             X           Y           Z
 ---------------------------------------------------------------------
      1          6           0        1.086676    0.137843    1.393449
      2          6           0        1.429249   -1.111234   -0.912337
      3          6           0        2.894291   -1.288942   -0.503609
      4          6           0        3.408793   -0.179896    0.406628
      5          6           0        2.571108   -0.140884    1.671708
      6          1           0        3.008415   -2.247034    0.012714
      7          1           0        3.499076   -1.324423   -1.410214
      8          1           0        3.344780    0.773045   -0.120315
      9          1           0        2.658171   -1.099027    2.195229
     10          1           0        2.934633    0.635880    2.347340
     11          7           0        0.639008   -0.769962    0.302160
     12          8           0       -0.600075   -1.098651    0.289570
     13          6           0        0.265235   -0.173846    2.642014
     14          1           0        0.678750    0.388751    3.479629
     15          1           0       -0.778497    0.112621    2.523543
     16          1           0        0.306094   -1.236171    2.884582
     17          6           0        0.874074    1.608435    0.994873
     18          1           0       -0.163249    1.791235    0.722026
     19          1           0        1.110417    2.236228    1.855428
     20          1           0        1.510679    1.920505    0.170438
     21          6           0        0.898523   -2.426766   -1.478397
     22          1           0       -0.088272   -2.311706   -1.925015
     23          1           0        1.581032   -2.766787   -2.257673
     24          1           0        0.845245   -3.194651   -0.706191
     25          6           0        1.274228   -0.000798   -1.966359
     26          1           0        1.711289   -0.348617   -2.903056
     27          1           0        0.222620    0.223061   -2.150947
     28          1           0        1.781771    0.919644   -1.688338
     29          1           0       -1.337442   -0.382740   -0.233702
     30          6           0       -2.482887    0.088314   -0.900952
     31          6           0       -3.438934   -0.882429   -0.394965
     32          6           0       -4.566121   -0.537759    0.369860
     33          6           0       -3.229168   -2.237322   -0.712810
     34          6           0       -5.434694   -1.516609    0.809947
     35          1           0       -4.790867    0.500021    0.568448
     36          6           0       -4.093326   -3.212610   -0.256979
     37          1           0       -2.374001   -2.515540   -1.315938
     38          6           0       -5.195276   -2.854491    0.510445
     39          1           0       -6.314146   -1.238819    1.376752
     40          1           0       -3.917148   -4.251353   -0.504863
     41          1           0       -5.880704   -3.616329    0.860515
     42          6           0       -2.457569    1.510157   -0.602191
     43          6           0       -2.765432    2.026651    0.668231
     44          6           0       -2.045558    2.397625   -1.608316
     45          6           0       -2.708902    3.386573    0.901771
     46          1           0       -3.016014    1.354661    1.478239
     47          6           0       -1.997588    3.759305   -1.371700
     48          1           0       -1.788836    2.011098   -2.587776
     49          6           0       -2.333944    4.256219   -0.118555
     50          1           0       -2.946408    3.775111    1.883936
     51          1           0       -1.698259    4.435134   -2.162487
     52          1           0       -2.293005    5.322018    0.068755
     53          1           0       -2.091569   -0.163062   -1.885977
     54          7           0        4.811389   -0.357535    0.720169
     55          6           0        5.766448    0.018172   -0.182375
     56          6           0        7.197965   -0.219135    0.218697
     57          1           0        7.665864   -0.867724   -0.522388
     58          1           0        7.726258    0.734350    0.198327
     59          1           0        7.304206   -0.666711    1.207090
     60          8           0        5.456535    0.521031   -1.245979
     61          1           0        5.081497   -0.828675    1.568379
 ---------------------------------------------------------------------

 SCF Done:  E(RHF) =  -1186.47119952     A.U. after    3 cycles
 E2 =    -0.4200485885D+01 EUMP2 =    -0.11906716854046D+04

 Alpha  occ. eigenvalues --  -20.79166 -20.60330 -15.77795 -15.67459 -11.44638
 Alpha  occ. eigenvalues --  -11.43441 -11.40008 -11.39716 -11.39005 -11.38587
 Alpha  occ. eigenvalues --  -11.38220 -11.38037 -11.37644 -11.37598 -11.37416
 Alpha  occ. eigenvalues --  -11.37079 -11.36789 -11.36570 -11.36454 -11.35796
 Alpha  occ. eigenvalues --  -11.35736 -11.34015 -11.33303 -11.33037 -11.33021
 Alpha  occ. eigenvalues --  -11.32977 -11.32809 -11.31258  -1.62065  -1.46702
 Alpha  occ. eigenvalues --   -1.32964  -1.31368  -1.29243  -1.28658  -1.21888
 Alpha  occ. eigenvalues --   -1.21873  -1.15630  -1.15530  -1.15037  -1.14556
 Alpha  occ. eigenvalues --   -1.10740  -1.07112  -1.06636  -1.05742  -1.04726
 Alpha  occ. eigenvalues --   -1.04204  -0.97120  -0.96782  -0.95084  -0.94597
 Alpha  occ. eigenvalues --   -0.93306  -0.91869  -0.89021  -0.87707  -0.83890
 Alpha  occ. eigenvalues --   -0.82680  -0.80384  -0.79870  -0.79390  -0.79082
 Alpha  occ. eigenvalues --   -0.77558  -0.76654  -0.75370  -0.75160  -0.74882
 Alpha  occ. eigenvalues --   -0.72636  -0.72302  -0.71622  -0.71417  -0.71210
 Alpha  occ. eigenvalues --   -0.70530  -0.69823  -0.69463  -0.68888  -0.68059
 Alpha  occ. eigenvalues --   -0.67589  -0.67462  -0.66065  -0.65019  -0.64666
 Alpha  occ. eigenvalues --   -0.64236  -0.63977  -0.63356  -0.63328  -0.62851
 Alpha  occ. eigenvalues --   -0.62800  -0.62324  -0.61843  -0.61396  -0.61154
 Alpha  occ. eigenvalues --   -0.59897  -0.58895  -0.58595  -0.58223  -0.56365
 Alpha  occ. eigenvalues --   -0.56142  -0.53427  -0.49996  -0.47356  -0.46954
 Alpha  occ. eigenvalues --   -0.46220  -0.45529  -0.41893
 Alpha virt. eigenvalues --   -0.16015  -0.05134  -0.04477  -0.04166  -0.03869
 Alpha virt. eigenvalues --   -0.03024  -0.02851  -0.02675  -0.02553  -0.02208
 Alpha virt. eigenvalues --   -0.01663  -0.01431  -0.01244  -0.01142  -0.00906

 Mulliken charges:
               1
     1  C   -3.264371
     2  C   -3.609164
     3  C    1.733690
     4  C    0.078674
     5  C    1.459065
     6  H   -0.024004
     7  H   -0.159792
     8  H   -0.344725
     9  H   -0.083996
    10  H   -0.159907
    11  N   -0.320083
    12  O   -1.004402
    13  C    1.583713
    14  H    0.034740
    15  H   -0.054030
    16  H    0.028600
    17  C    1.607280
    18  H   -0.507192
    19  H   -0.043335
    20  H    0.010666
    21  C    1.697732
    22  H   -0.085315
    23  H    0.023687
    24  H   -0.054213
    25  C    1.624975
    26  H   -0.022485
    27  H   -0.281987
    28  H   -0.010795
    29  H    0.579837
    30  C   -0.181506
    31  C    0.515947
    32  C    1.240886
    33  C    0.768335
    34  C   -0.080058
    35  H   -0.535811
    36  C    0.003442
    37  H   -0.742283
    38  C    0.739502
    39  H   -0.519453
    40  H   -0.530135
    41  H   -0.424986
    42  C    1.575663
    43  C    1.014725
    44  C    0.389955
    45  C    0.217913
    46  H   -0.707684
    47  C    0.199482
    48  H   -0.774366
    49  C    0.849213
    50  H   -0.621906
    51  H   -0.504440
    52  H   -0.466225
    53  H   -0.476658
    54  N   -0.173506
    55  C    0.333494
    56  C    0.495478
    57  H    0.056606
    58  H    0.054101
    59  H   -0.180716
    60  O   -0.860172
    61  H   -0.107696
 Sum of Mulliken charges =   1.00000

 Dipole moment (field-independent basis, Debye):
    X=             -5.5423    Y=             -0.3084    Z=              2.4609  Tot=              6.0719
 Unable to Open any file for archive entry.
 1\1\GINC-SE269\SP\RMP2-FC\Aug-CC-pVDZ\C24H33N2O2\OHZDE\21-Sep-2024\0\\
 #t symm=none mp2 aug-cc-pvdz geom=allcheck guess=(read,tcheck) int=(gr
 id=ultrafine)\\title\\1,1\C,0,1.086676,0.137843,1.393449\C,0,1.429249,
 -1.111234,-0.912337\C,0,2.894291,-1.288942,-0.503609\C,0,3.408793,-0.1
 79896,0.406628\C,0,2.571108,-0.140884,1.671708\H,0,3.008415,-2.247034,
 0.012714\H,0,3.499076,-1.324423,-1.410214\H,0,3.34478,0.773045,-0.1203
 15\H,0,2.658171,-1.099027,2.195229\H,0,2.934633,0.63588,2.34734\N,0,0.
 639008,-0.769962,0.30216\O,0,-0.600075,-1.098651,0.28957\C,0,0.265235,
 -0.173846,2.642014\H,0,0.67875,0.388751,3.479629\H,0,-0.778497,0.11262

 Normal termination of Gaussian 16 at Sat Sep 21 04:10:46 2024.
