 Gaussian 16, Revision C.01,

 ----------------------------------------------------------------------
 #t hf aug-cc-pvdz symm=none int=(grid=ultrafine) guess=(read,tcheck) s
 table=(opt,rrhf)
 ----------------------------------------------------------------------
 -----
 title
 -----
 Symbolic Z-matrix:
 Charge =  0 Multiplicity = 1

 SCF Done:  E(RHF) =  -1125.28000437     A.U. after   15 cycles
 Normal termination of Gaussian 16 at Sat Sep 21 00:08:32 2024.
 Gaussian 16:  ES64L-G16RevC.01  3-Jul-2019

 ----------------------------------------------------------------------
 #t symm=none mp2 aug-cc-pvdz geom=allcheck guess=(read,tcheck) int=(gr
 id=ultrafine)
 ----------------------------------------------------------------------
 Structure from the checkpoint file:  "06_30P.chk"
 -----
 title
 -----
 Charge =  0 Multiplicity = 1

                          Input orientation:
 ---------------------------------------------------------------------
 Center     Atomic      Atomic             Coordinates (Angstroms)
 Number     Number       Type             X           Y           Z
 ---------------------------------------------------------------------
      1          6           0       -0.587168    2.224552   -0.220507
      2          6           0        0.206700    1.313282   -1.204048
      3          6           0        2.023799    0.956342    1.284023
      4          1           0       -1.649239    2.160316   -0.468114
      5          6           0        1.502924    1.973342   -1.717523
      6          1           0        2.095300    1.236331   -2.270226
      7          1           0        1.218629    2.734368   -2.452733
      8          1           0        2.639804    0.615755    2.121825
      9          1           0       -0.422850    1.183562   -2.090201
     10          6           0        2.385912    2.652520   -0.676870
     11          1           0        3.205110    3.156089   -1.199776
     12          1           0        1.820371    3.451606   -0.190287
     13          6           0        2.992711    1.746920    0.388040
     14          1           0        3.692677    1.055576   -0.089278
     15          1           0        3.604168    2.374837    1.045144
     16          6           0        0.934669    1.866148    1.910134
     17          1           0        0.792214    1.560352    2.951146
     18          6           0       -0.458187    1.867752    1.267528
     19          1           0       -0.915401    0.883661    1.425816
     20          1           0       -1.084911    2.560028    1.837938
     21          1           0        1.316552    2.891247    1.957283
     22          1           0       -0.305453    3.269605   -0.380859
     23          6           0        1.423904   -0.311837    0.631744
     24          1           0        0.912033   -0.888089    1.418901
     25         14           0        2.721882   -1.609487    0.092257
     26          6           0        3.341380   -1.361436   -1.667981
     27          1           0        2.517843   -1.366252   -2.387399
     28          1           0        3.887402   -0.425904   -1.797941
     29          1           0        4.015295   -2.177861   -1.942167
     30          6           0        1.966028   -3.330001    0.178147
     31          1           0        2.745420   -4.082403    0.029012
     32          1           0        1.505664   -3.522575    1.150471
     33          1           0        1.207069   -3.491444   -0.589302
     34          6           0        4.176035   -1.566057    1.281970
     35          1           0        3.848427   -1.743242    2.309645
     36          1           0        4.891070   -2.352057    1.024229
     37          1           0        4.709028   -0.614018    1.262373
     38          5           0        0.364528   -0.078402   -0.478656
     39          6           0       -3.028154   -1.057174   -0.054367
     40          6           0       -2.060601   -0.750869   -0.915531
     41          6           0       -0.659965   -1.245178   -0.843456
     42          6           0       -4.360721   -0.446971   -0.185193
     43          8           0       -4.697200    0.359351   -1.017677
     44          8           0       -5.197001   -0.900413    0.768253
     45          6           0       -6.520875   -0.365821    0.736198
     46          1           0       -7.047362   -0.833159    1.564324
     47          1           0       -6.498508    0.717222    0.858217
     48          1           0       -7.006280   -0.604533   -0.210200
     49          1           0       -0.359153   -1.596267   -1.842605
     50          1           0       -2.878983   -1.749273    0.765757
     51          1           0       -2.311582   -0.049107   -1.706089
     52          1           0       -0.590093   -2.094116   -0.161682
 ---------------------------------------------------------------------

 SCF Done:  E(RHF) =  -1125.28000437     A.U. after    2 cycles
 E2 =    -0.3070878795D+01 EUMP2 =    -0.11283508831651D+04

 Alpha  occ. eigenvalues --  -68.76675 -20.60337 -20.53910 -11.37704 -11.28499
 Alpha  occ. eigenvalues --  -11.26386 -11.23173 -11.23018 -11.22238 -11.22178
 Alpha  occ. eigenvalues --  -11.22006 -11.21951 -11.21931 -11.21738 -11.21706
 Alpha  occ. eigenvalues --  -11.20719 -11.20506 -11.20480 -11.19926 -11.18928
 Alpha  occ. eigenvalues --   -7.58567  -6.11320  -4.21946  -4.21938  -4.21936
 Alpha  occ. eigenvalues --   -1.45695  -1.35241  -1.11904  -1.09585  -1.04930
 Alpha  occ. eigenvalues --   -1.04534  -1.00252  -0.98120  -0.95693  -0.93673
 Alpha  occ. eigenvalues --   -0.92813  -0.92583  -0.91759  -0.88114  -0.81517
 Alpha  occ. eigenvalues --   -0.79742  -0.78582  -0.74843  -0.71734  -0.70966
 Alpha  occ. eigenvalues --   -0.67104  -0.66389  -0.66309  -0.64570  -0.62609
 Alpha  occ. eigenvalues --   -0.61827  -0.60614  -0.60007  -0.59034  -0.58267
 Alpha  occ. eigenvalues --   -0.57477  -0.57165  -0.56889  -0.56777  -0.55584
 Alpha  occ. eigenvalues --   -0.55257  -0.54707  -0.54250  -0.53932  -0.53374
 Alpha  occ. eigenvalues --   -0.53264  -0.52512  -0.51841  -0.51259  -0.49202
 Alpha  occ. eigenvalues --   -0.48544  -0.47636  -0.46522  -0.45548  -0.45157
 Alpha  occ. eigenvalues --   -0.44606  -0.44055  -0.43284  -0.43235  -0.41919
 Alpha  occ. eigenvalues --   -0.41541  -0.40613  -0.38420  -0.35765
 Alpha virt. eigenvalues --    0.02640   0.03493   0.03575   0.03756   0.04467
 Alpha virt. eigenvalues --    0.04817   0.05003   0.05148   0.05275   0.06022
 Alpha virt. eigenvalues --    0.06309   0.06536   0.06880   0.07106   0.07271

 Mulliken charges:
               1
     1  C    0.568549
     2  C    0.185086
     3  C    0.124647
     4  H   -0.314568
     5  C    0.581950
     6  H   -0.164362
     7  H   -0.206438
     8  H   -0.339777
     9  H   -0.474492
    10  C    0.420953
    11  H   -0.274538
    12  H   -0.034751
    13  C    0.643732
    14  H   -0.213424
    15  H   -0.230917
    16  C    0.368606
    17  H   -0.201533
    18  C    0.771048
    19  H    0.212125
    20  H   -0.361101
    21  H   -0.192146
    22  H   -0.236543
    23  C   -0.312488
    24  H   -0.508579
    25  Si   0.656326
    26  C    1.033110
    27  H   -0.271238
    28  H   -0.310517
    29  H   -0.521704
    30  C    0.932044
    31  H   -0.504096
    32  H   -0.306588
    33  H   -0.310814
    34  C    0.958981
    35  H   -0.379931
    36  H   -0.525260
    37  H   -0.306842
    38  B    0.112657
    39  C    0.983586
    40  C    1.116280
    41  C    0.073751
    42  C    0.716554
    43  O   -0.811341
    44  O   -0.872163
    45  C    0.867764
    46  H   -0.283630
    47  H   -0.069171
    48  H   -0.069408
    49  H    0.106156
    50  H   -0.729127
    51  H   -0.713424
    52  H   -0.382993
 Sum of Mulliken charges =  -0.00000

 Dipole moment (field-independent basis, Debye):
    X=              1.9107    Y=             -0.8150    Z=              1.2602  Tot=              2.4296
 Unable to Open any file for archive entry.
 1\1\GINC-SE171\SP\RMP2-FC\Aug-CC-pVDZ\C17H31B1O2Si1\OHZDE\21-Sep-2024\
 0\\#t symm=none mp2 aug-cc-pvdz geom=allcheck guess=(read,tcheck) int=
 (grid=ultrafine)\\title\\0,1\C,0,-0.587168,2.224552,-0.220507\C,0,0.20
 67,1.313282,-1.204048\C,0,2.023799,0.956342,1.284023\H,0,-1.649239,2.1
 60316,-0.468114\C,0,1.502924,1.973342,-1.717523\H,0,2.0953,1.236331,-2
 .270226\H,0,1.218629,2.734368,-2.452733\H,0,2.639804,0.615755,2.121825
 \H,0,-0.42285,1.183562,-2.090201\C,0,2.385912,2.65252,-0.67687\H,0,3.2
 0511,3.156089,-1.199776\H,0,1.820371,3.451606,-0.190287\C,0,2.992711,1
 .74692,0.38804\H,0,3.692677,1.055576,-0.089278\H,0,3.604168,2.374837,1

 Normal termination of Gaussian 16 at Sat Sep 21 01:52:26 2024.
