 Gaussian 16, Revision C.01,

 ----------------------------------------------------------------------
 #t hf aug-cc-pvdz symm=none int=(grid=ultrafine) guess=(read,tcheck) s
 table=(opt,rrhf)
 ----------------------------------------------------------------------
 -----
 title
 -----
 Symbolic Z-matrix:
 Charge =  1 Multiplicity = 1

 SCF Done:  E(RHF) =  -1187.92262051     A.U. after   20 cycles
 Normal termination of Gaussian 16 at Sat Sep 21 00:00:35 2024.
 Gaussian 16:  ES64L-G16RevC.01  3-Jul-2019

 ----------------------------------------------------------------------
 #t symm=none mp2 aug-cc-pvdz geom=allcheck guess=(read,tcheck) int=(gr
 id=ultrafine)
 ----------------------------------------------------------------------
 Structure from the checkpoint file:  "05_39TS.chk"
 -----
 title
 -----
 Charge =  1 Multiplicity = 1

                          Input orientation:
 ---------------------------------------------------------------------
 Center     Atomic      Atomic             Coordinates (Angstroms)
 Number     Number       Type             X           Y           Z
 ---------------------------------------------------------------------
      1          6           0       -1.160364    0.613105   -0.967050
      2          6           0       -1.385779   -0.695601    1.323210
      3          6           0       -2.905505   -0.616977    1.135290
      4          6           0       -3.376642    0.579042    0.312324
      5          6           0       -2.690882    0.557691   -1.051124
      6          1           0       -3.251262   -1.521604    0.634865
      7          1           0       -3.363425   -0.593579    2.126294
      8          1           0       -3.121790    1.505065    0.832774
      9          1           0       -2.995874   -0.349819   -1.572507
     10          1           0       -3.022072    1.408816   -1.649113
     11          7           0       -0.719525   -0.416108    0.018918
     12          8           0        0.404851   -0.970490   -0.175131
     13          6           0       -0.562760    0.257107   -2.325253
     14          1           0       -0.987800    0.926168   -3.073884
     15          1           0        0.519952    0.375483   -2.338602
     16          1           0       -0.806477   -0.768185   -2.604293
     17          6           0       -0.674305    2.009608   -0.547505
     18          1           0        0.406905    2.030692   -0.428459
     19          1           0       -0.938263    2.712312   -1.339084
     20          1           0       -1.131079    2.361800    0.374726
     21          6           0       -1.014697   -2.111883    1.758111
     22          1           0       -1.231479   -2.831885    0.968790
     23          1           0        0.036183   -2.196544    2.031042
     24          1           0       -1.614212   -2.371688    2.631019
     25          6           0       -0.879674    0.308652    2.370966
     26          1           0       -1.229892   -0.006933    3.354526
     27          1           0        0.211186    0.328464    2.399253
     28          1           0       -1.236084    1.321093    2.193921
     29          6           0        2.715500   -0.203016    0.409390
     30          1           0        2.802945   -0.597298    1.424296
     31          1           0        1.382666   -0.411008    0.261659
     32          6           0        2.797347    1.248743    0.267611
     33          6           0        2.538794    2.055177    1.380508
     34          6           0        3.105630    1.835888   -0.963345
     35          6           0        2.594326    3.433238    1.265127
     36          1           0        2.314894    1.600583    2.339022
     37          6           0        3.159722    3.213294   -1.070371
     38          1           0        3.314544    1.203506   -1.816093
     39          6           0        2.901953    4.012415    0.039935
     40          1           0        2.408870    4.057029    2.130151
     41          1           0        3.409496    3.670915   -2.019185
     42          8           0        3.232002   -0.933694   -0.564367
     43          6           0        3.715798   -2.313954   -0.312131
     44          1           0        2.949844    5.090554   -0.049433
     45          6           0        2.656787   -3.128841    0.412640
     46          1           0        1.715725   -3.123124   -0.136672
     47          1           0        3.003841   -4.159663    0.492138
     48          1           0        2.478844   -2.774028    1.429619
     49          6           0        5.003396   -2.198084    0.489280
     50          1           0        5.731538   -1.581542   -0.038556
     51          1           0        4.828232   -1.766405    1.477210
     52          1           0        5.433902   -3.189647    0.635320
     53          6           0        3.964757   -2.847103   -1.709409
     54          1           0        3.035425   -2.879805   -2.279151
     55          1           0        4.678579   -2.215241   -2.238635
     56          1           0        4.373010   -3.856876   -1.654104
     57          7           0       -4.828575    0.599136    0.185412
     58          6           0       -5.553508   -0.388112   -0.419601
     59          6           0       -7.046079   -0.182750   -0.454549
     60          1           0       -7.371904   -0.188475   -1.495028
     61          1           0       -7.523623   -1.028116    0.041425
     62          1           0       -7.373587    0.742916    0.018819
     63          8           0       -5.024289   -1.373303   -0.900652
     64          1           0       -5.324478    1.388947    0.562476
 ---------------------------------------------------------------------

 SCF Done:  E(RHF) =  -1187.92262051     A.U. after    2 cycles
 E2 =    -0.4199053686D+01 EUMP2 =    -0.11921216741979D+04

 Alpha  occ. eigenvalues --  -20.81447 -20.73083 -20.60913 -15.80623 -15.68262
 Alpha  occ. eigenvalues --  -11.48289 -11.44209 -11.42126 -11.40728 -11.40380
 Alpha  occ. eigenvalues --  -11.38219 -11.37905 -11.37410 -11.36695 -11.36558
 Alpha  occ. eigenvalues --  -11.35890 -11.35758 -11.34511 -11.33540 -11.33505
 Alpha  occ. eigenvalues --  -11.33408 -11.33350 -11.33203 -11.33187 -11.32946
 Alpha  occ. eigenvalues --  -11.32452 -11.31724  -1.64401  -1.55651  -1.47328
 Alpha  occ. eigenvalues --   -1.33450  -1.30114  -1.29138  -1.22558  -1.21933
 Alpha  occ. eigenvalues --   -1.16978  -1.15802  -1.14538  -1.11457  -1.07508
 Alpha  occ. eigenvalues --   -1.06787  -1.06413  -1.05772  -1.05241  -1.04376
 Alpha  occ. eigenvalues --   -1.04028  -0.96213  -0.96064  -0.94335  -0.93674
 Alpha  occ. eigenvalues --   -0.91187  -0.89083  -0.86669  -0.84013  -0.81411
 Alpha  occ. eigenvalues --   -0.80859  -0.80338  -0.79795  -0.78865  -0.78265
 Alpha  occ. eigenvalues --   -0.75989  -0.74523  -0.74198  -0.73608  -0.72751
 Alpha  occ. eigenvalues --   -0.72588  -0.71302  -0.70617  -0.70554  -0.70319
 Alpha  occ. eigenvalues --   -0.69671  -0.69126  -0.68530  -0.68397  -0.68191
 Alpha  occ. eigenvalues --   -0.67453  -0.66876  -0.65318  -0.64752  -0.64529
 Alpha  occ. eigenvalues --   -0.64306  -0.63815  -0.63553  -0.63306  -0.62839
 Alpha  occ. eigenvalues --   -0.62673  -0.62437  -0.62223  -0.61682  -0.61447
 Alpha  occ. eigenvalues --   -0.60513  -0.59516  -0.59397  -0.58422  -0.58257
 Alpha  occ. eigenvalues --   -0.58226  -0.57090  -0.56476  -0.50218  -0.49281
 Alpha  occ. eigenvalues --   -0.48081  -0.46173  -0.42534
 Alpha virt. eigenvalues --   -0.13730  -0.05339  -0.04505  -0.04133  -0.03756
 Alpha virt. eigenvalues --   -0.03016  -0.02810  -0.02777  -0.02574  -0.02119
 Alpha virt. eigenvalues --   -0.01480  -0.01402  -0.01047  -0.01002  -0.00731

 Mulliken charges:
               1
     1  C   -2.846035
     2  C   -4.130638
     3  C    1.914139
     4  C   -0.041837
     5  C    1.129560
     6  H   -0.096251
     7  H   -0.154386
     8  H   -0.358791
     9  H   -0.107324
    10  H   -0.179911
    11  N    0.165772
    12  O   -1.112102
    13  C    1.914958
    14  H   -0.038778
    15  H   -0.037078
    16  H   -0.032631
    17  C    1.477730
    18  H   -0.555060
    19  H   -0.025753
    20  H   -0.100537
    21  C    1.730797
    22  H   -0.101663
    23  H   -0.029353
    24  H    0.028346
    25  C    1.485038
    26  H   -0.038445
    27  H   -0.213234
    28  H   -0.048222
    29  C    1.617884
    30  H   -0.235959
    31  H    0.353060
    32  C    0.319420
    33  C    0.634998
    34  C    1.199165
    35  C    0.205939
    36  H   -0.754733
    37  C    0.046220
    38  H   -0.769437
    39  C    0.867465
    40  H   -0.552700
    41  H   -0.548279
    42  O   -0.936663
    43  C   -3.192488
    44  H   -0.474957
    45  C    1.595019
    46  H    0.021430
    47  H   -0.115878
    48  H   -0.128298
    49  C    1.325362
    50  H    0.050792
    51  H   -0.111943
    52  H    0.006891
    53  C    1.188469
    54  H   -0.009022
    55  H   -0.030478
    56  H    0.062820
    57  N   -0.113325
    58  C    0.344159
    59  C    0.586811
    60  H    0.050883
    61  H    0.052792
    62  H   -0.160307
    63  O   -0.850159
    64  H   -0.143264
 Sum of Mulliken charges =   1.00000

 Dipole moment (field-independent basis, Debye):
    X=              2.8041    Y=              3.3575    Z=              3.0839  Tot=              5.3522
 Unable to Open any file for archive entry.
 1\1\GINC-SE339\SP\RMP2-FC\Aug-CC-pVDZ\C22H37N2O3\OHZDE\21-Sep-2024\0\\
 #t symm=none mp2 aug-cc-pvdz geom=allcheck guess=(read,tcheck) int=(gr
 id=ultrafine)\\title\\1,1\C,0,-1.160364,0.613105,-0.96705\C,0,-1.38577
 9,-0.695601,1.32321\C,0,-2.905505,-0.616977,1.13529\C,0,-3.376642,0.57
 9042,0.312324\C,0,-2.690882,0.557691,-1.051124\H,0,-3.251262,-1.521604
 ,0.634865\H,0,-3.363425,-0.593579,2.126294\H,0,-3.12179,1.505065,0.832
 774\H,0,-2.995874,-0.349819,-1.572507\H,0,-3.022072,1.408816,-1.649113
 \N,0,-0.719525,-0.416108,0.018918\O,0,0.404851,-0.97049,-0.175131\C,0,
 -0.56276,0.257107,-2.325253\H,0,-0.9878,0.926168,-3.073884\H,0,0.51995

 Normal termination of Gaussian 16 at Sat Sep 21 04:41:54 2024.
