 Gaussian 16, Revision C.01,

 ----------------------------------------------------------------------
 #t hf aug-cc-pvdz symm=none int=(grid=ultrafine) guess=(read,tcheck) s
 table=(opt,rrhf)
 ----------------------------------------------------------------------
 -----
 title
 -----
 Symbolic Z-matrix:
 Charge =  1 Multiplicity = 1

 SCF Done:  E(RHF) =  -1070.78811644     A.U. after   19 cycles
 Normal termination of Gaussian 16 at Fri Sep 20 21:57:31 2024.
 Gaussian 16:  ES64L-G16RevC.01  3-Jul-2019

 ----------------------------------------------------------------------
 #t symm=none mp2 aug-cc-pvdz geom=allcheck guess=(read,tcheck) int=(gr
 id=ultrafine)
 ----------------------------------------------------------------------
 Structure from the checkpoint file:  "05_15TS.chk"
 -----
 title
 -----
 Charge =  1 Multiplicity = 1

                          Input orientation:
 ---------------------------------------------------------------------
 Center     Atomic      Atomic             Coordinates (Angstroms)
 Number     Number       Type             X           Y           Z
 ---------------------------------------------------------------------
      1          6           0        1.382881    1.281310    0.655214
      2          6           0        0.408797   -0.923641   -0.421549
      3          6           0        1.892145   -1.303454   -0.480792
      4          6           0        2.752059   -0.196439   -1.080822
      5          6           0        2.444702    1.189897   -0.462307
      6          1           0        2.244370   -1.546552    0.520793
      7          1           0        1.986877   -2.205136   -1.088699
      8          1           0        2.504146   -0.133680   -2.140308
      9          1           0        3.361695    1.605866   -0.048150
     10          1           0        2.142149    1.858517   -1.271107
     11          7           0        0.309067    0.271023    0.446548
     12          8           0       -0.737056    0.395490    1.174296
     13          6           0        1.969650    1.045315    2.053313
     14          1           0        2.505857    0.102410    2.111674
     15          1           0        2.685475    1.837996    2.277434
     16          1           0        1.174468    1.075833    2.799122
     17          6           0        0.749398    2.672046    0.597196
     18          1           0        0.043641    2.825367    1.413968
     19          1           0        1.536207    3.420366    0.695500
     20          1           0        0.250241    2.832993   -0.360279
     21          6           0       -0.385509   -2.070087    0.196794
     22          1           0       -0.033876   -2.288150    1.205684
     23          1           0       -1.451876   -1.856177    0.239353
     24          1           0       -0.244138   -2.959541   -0.417842
     25          6           0       -0.156320   -0.576753   -1.808915
     26          1           0       -0.015025   -1.424628   -2.481847
     27          1           0       -1.223531   -0.370849   -1.742419
     28          1           0        0.328177    0.295850   -2.247165
     29          6           0       -2.866184    1.378320    0.170640
     30          1           0       -3.037952    2.058040    1.009134
     31          1           0       -1.624077    0.907616    0.675121
     32          6           0       -3.558657    0.107201    0.167167
     33          6           0       -3.874748   -0.548375   -1.029870
     34          6           0       -3.863214   -0.493981    1.397127
     35          6           0       -4.491265   -1.784023   -0.989590
     36          1           0       -3.655466   -0.069838   -1.975037
     37          6           0       -4.474844   -1.732208    1.425964
     38          1           0       -3.615536    0.012411    2.323115
     39          6           0       -4.785667   -2.378858    0.234225
     40          1           0       -4.752330   -2.287146   -1.911822
     41          1           0       -4.714116   -2.195607    2.374264
     42          1           0       -5.268811   -3.347713    0.258607
     43          8           0       -2.581309    1.940847   -0.998622
     44          6           0       -2.478639    3.374280   -1.037317
     45          1           0       -1.951410    3.620542   -1.954296
     46          1           0       -1.925336    3.742624   -0.173259
     47          1           0       -3.481821    3.801097   -1.057205
     48          7           0        4.169312   -0.535827   -1.072721
     49          6           0        4.897103   -0.746046    0.058897
     50          1           0        4.637690   -0.611204   -1.959953
     51          8           0        4.394158   -0.661237    1.165408
     52          6           0        6.351711   -1.083899   -0.137177
     53          1           0        6.656539   -1.118298   -1.183080
     54          1           0        6.954176   -0.342475    0.388330
     55          1           0        6.548213   -2.051329    0.325739
 ---------------------------------------------------------------------

 SCF Done:  E(RHF) =  -1070.78811644     A.U. after    2 cycles
 E2 =    -0.3735561073D+01 EUMP2 =    -0.10745236775163D+04

 Alpha  occ. eigenvalues --  -20.79558 -20.77115 -20.60997 -15.77346 -15.68137
 Alpha  occ. eigenvalues --  -11.51012 -11.44188 -11.43165 -11.39600 -11.39347
 Alpha  occ. eigenvalues --  -11.39104 -11.38493 -11.38108 -11.38015 -11.37759
 Alpha  occ. eigenvalues --  -11.36541 -11.36500 -11.33538 -11.33460 -11.33445
 Alpha  occ. eigenvalues --  -11.32922 -11.32469 -11.31775 -11.30402  -1.62432
 Alpha  occ. eigenvalues --   -1.59266  -1.47417  -1.33168  -1.30409  -1.29258
 Alpha  occ. eigenvalues --   -1.21458  -1.20504  -1.15638  -1.15286  -1.11765
 Alpha  occ. eigenvalues --   -1.10349  -1.07358  -1.05572  -1.04373  -1.03986
 Alpha  occ. eigenvalues --   -1.03897  -0.96728  -0.95922  -0.94458  -0.93006
 Alpha  occ. eigenvalues --   -0.89964  -0.86322  -0.86067  -0.84349  -0.82275
 Alpha  occ. eigenvalues --   -0.80831  -0.80260  -0.79027  -0.78609  -0.77903
 Alpha  occ. eigenvalues --   -0.75615  -0.75055  -0.74206  -0.72384  -0.72217
 Alpha  occ. eigenvalues --   -0.71303  -0.70797  -0.70360  -0.69576  -0.68971
 Alpha  occ. eigenvalues --   -0.68498  -0.67169  -0.66904  -0.66630  -0.65964
 Alpha  occ. eigenvalues --   -0.65638  -0.64607  -0.63998  -0.63874  -0.63284
 Alpha  occ. eigenvalues --   -0.63236  -0.62553  -0.62368  -0.62160  -0.61027
 Alpha  occ. eigenvalues --   -0.59782  -0.58912  -0.58600  -0.57523  -0.56660
 Alpha  occ. eigenvalues --   -0.55402  -0.50387  -0.49751  -0.48046  -0.46975
 Alpha  occ. eigenvalues --   -0.42123
 Alpha virt. eigenvalues --   -0.14584  -0.05673  -0.04899  -0.04367  -0.04021
 Alpha virt. eigenvalues --   -0.03298  -0.03019  -0.02784  -0.02520  -0.02276
 Alpha virt. eigenvalues --   -0.01525  -0.01252  -0.01069  -0.00886  -0.00717

 Mulliken charges:
               1
     1  C   -3.171117
     2  C   -2.860817
     3  C    0.868724
     4  C    0.282764
     5  C    0.839696
     6  H   -0.176190
     7  H   -0.207003
     8  H   -0.276284
     9  H   -0.241115
    10  H   -0.150430
    11  N    1.053430
    12  O   -1.260482
    13  C    1.478992
    14  H   -0.023895
    15  H   -0.031647
    16  H   -0.033733
    17  C    1.527235
    18  H   -0.076218
    19  H   -0.047527
    20  H   -0.073859
    21  C    1.532739
    22  H    0.007527
    23  H   -0.211468
    24  H    0.026055
    25  C    1.720715
    26  H   -0.031481
    27  H   -0.390645
    28  H   -0.070513
    29  C    1.025518
    30  H   -0.186824
    31  H    0.368017
    32  C    0.612620
    33  C    0.894758
    34  C    0.487510
    35  C   -0.009453
    36  H   -0.648511
    37  C    0.294545
    38  H   -0.715943
    39  C    0.823887
    40  H   -0.515113
    41  H   -0.479190
    42  H   -0.459941
    43  O   -1.007242
    44  C    1.055302
    45  H   -0.202198
    46  H   -0.011417
    47  H   -0.160832
    48  N    0.019532
    49  C    0.216705
    50  H   -0.121822
    51  O   -0.847663
    52  C    0.638666
    53  H   -0.161930
    54  H    0.044439
    55  H    0.043128
 Sum of Mulliken charges =   1.00000

 Dipole moment (field-independent basis, Debye):
    X=             -5.6002    Y=              2.6036    Z=             -3.6031  Tot=              7.1501
 Unable to Open any file for archive entry.
 1\1\GINC-SE350\SP\RMP2-FC\Aug-CC-pVDZ\C19H31N2O3\OHZDE\21-Sep-2024\0\\
 #t symm=none mp2 aug-cc-pvdz geom=allcheck guess=(read,tcheck) int=(gr
 id=ultrafine)\\title\\1,1\C,0,1.382881,1.28131,0.655214\C,0,0.408797,-
 0.923641,-0.421549\C,0,1.892145,-1.303454,-0.480792\C,0,2.752059,-0.19
 6439,-1.080822\C,0,2.444702,1.189897,-0.462307\H,0,2.24437,-1.546552,0
 .520793\H,0,1.986877,-2.205136,-1.088699\H,0,2.504146,-0.13368,-2.1403
 08\H,0,3.361695,1.605866,-0.04815\H,0,2.142149,1.858517,-1.271107\N,0,
 0.309067,0.271023,0.446548\O,0,-0.737056,0.39549,1.174296\C,0,1.96965,
 1.045315,2.053313\H,0,2.505857,0.10241,2.111674\H,0,2.685475,1.837996,

 Normal termination of Gaussian 16 at Sat Sep 21 03:01:41 2024.
