 Gaussian 16, Revision C.01,

 ----------------------------------------------------------------------
 #t hf aug-cc-pvdz symm=none int=(grid=ultrafine) guess=(read,tcheck) s
 table=opt
 ----------------------------------------------------------------------
 -----
 title
 -----
 Symbolic Z-matrix:
 Charge =  0 Multiplicity = 2

 SCF Done:  E(UHF) =  -1668.49707231     A.U. after   18 cycles
 Normal termination of Gaussian 16 at Sat Sep 21 00:32:30 2024.
 Gaussian 16:  ES64L-G16RevC.01  3-Jul-2019

 ----------------------------------------------------------------------
 #t symm=none mp2 aug-cc-pvdz geom=allcheck guess=(read,tcheck) int=(gr
 id=ultrafine)
 ----------------------------------------------------------------------
 Structure from the checkpoint file:  "06_22P.chk"
 -----
 title
 -----
 Charge =  0 Multiplicity = 2

                          Input orientation:
 ---------------------------------------------------------------------
 Center     Atomic      Atomic             Coordinates (Angstroms)
 Number     Number       Type             X           Y           Z
 ---------------------------------------------------------------------
      1          6           0        0.713425    0.444763    2.026963
      2          6           0        2.080061    1.011940    1.920959
      3         14           0       -0.008486    0.021895    0.272146
      4         14           0       -1.899178   -1.373521    0.462253
      5         14           0        1.581859   -1.112906   -1.037134
      6         14           0       -0.644776    1.991487   -0.848413
      7          6           0       -3.077519   -0.812502    1.823840
      8          1           0       -3.971409   -1.443317    1.824982
      9          1           0       -2.619530   -0.889748    2.812416
     10          1           0       -3.400142    0.221425    1.683557
     11          6           0       -2.855937   -1.381308   -1.163670
     12          1           0       -3.693930   -2.082061   -1.106293
     13          1           0       -3.266792   -0.395086   -1.390998
     14          1           0       -2.228263   -1.681770   -2.004698
     15          6           0       -1.371685   -3.142829    0.851418
     16          1           0       -2.247846   -3.780706    0.999536
     17          1           0       -0.781521   -3.574619    0.040266
     18          1           0       -0.768947   -3.191214    1.761723
     19          6           0        0.740983   -1.892168   -2.535908
     20          1           0        0.206287   -1.154084   -3.136642
     21          1           0        1.487480   -2.366655   -3.179519
     22          1           0        0.026077   -2.662961   -2.239678
     23          6           0        2.907506    0.072667   -1.665203
     24          1           0        3.400636    0.598839   -0.845815
     25          1           0        3.673649   -0.467329   -2.229056
     26          1           0        2.478349    0.826430   -2.329604
     27          6           0        2.401632   -2.503292   -0.062630
     28          1           0        2.940293   -2.131529    0.809615
     29          1           0        1.663249   -3.228125    0.286669
     30          1           0        3.118149   -3.036656   -0.694313
     31          6           0        0.646420    3.351123   -0.648887
     32          1           0        1.631048    3.019849   -0.985826
     33          1           0        0.367065    4.228213   -1.240038
     34          1           0        0.741120    3.670533    0.391078
     35          6           0       -0.840124    1.638109   -2.691069
     36          1           0       -1.198474    2.532063   -3.209671
     37          1           0        0.108418    1.349748   -3.149176
     38          1           0       -1.557849    0.836565   -2.877259
     39          6           0       -2.296692    2.638156   -0.205234
     40          1           0       -2.582022    3.550998   -0.736254
     41          1           0       -3.096177    1.908168   -0.351186
     42          1           0       -2.253178    2.872451    0.860340
     43          6           0       -0.231258    1.384300    2.796879
     44          1           0       -1.253938    1.006123    2.828245
     45          1           0        0.113868    1.519172    3.825346
     46          1           0       -0.258262    2.372564    2.332304
     47          6           0        3.325259    0.268930    2.254853
     48          1           0        3.108222   -0.646720    2.810244
     49          1           0        3.904208   -0.020036    1.366814
     50          1           0        3.999306    0.878722    2.866272
     51          1           0        0.769629   -0.510645    2.561379
     52          1           0        2.176919    2.026683    1.547441
 ---------------------------------------------------------------------

 SCF Done:  E(UHF) =  -1668.49707231     A.U. after    1 cycles
 E2 =    -0.2406338624D+01 EUMP2 =    -0.16709034109349D+04

 Alpha  occ. eigenvalues --  -68.75443 -68.75426 -68.75328 -68.73176 -11.22680
 Alpha  occ. eigenvalues --  -11.22211 -11.22169 -11.21987 -11.20263 -11.20216
 Alpha  occ. eigenvalues --  -11.20201 -11.20186 -11.20185 -11.20170 -11.20115
 Alpha  occ. eigenvalues --  -11.20095 -11.19967  -6.10195  -6.10173  -6.10081
 Alpha  occ. eigenvalues --   -6.08323  -4.20803  -4.20792  -4.20790  -4.20778
 Alpha  occ. eigenvalues --   -4.20775  -4.20764  -4.20687  -4.20680  -4.20671
 Alpha  occ. eigenvalues --   -4.18909  -4.18830  -4.18819  -1.08008  -0.98920
 Alpha  occ. eigenvalues --   -0.96926  -0.96292  -0.96155  -0.92426  -0.92244
 Alpha  occ. eigenvalues --   -0.92178  -0.91969  -0.91872  -0.91801  -0.87151
 Alpha  occ. eigenvalues --   -0.77770  -0.70242  -0.62631  -0.62437  -0.61389
 Alpha  occ. eigenvalues --   -0.59930  -0.59451  -0.58441  -0.57464  -0.57267
 Alpha  occ. eigenvalues --   -0.57146  -0.56318  -0.55955  -0.55373  -0.55282
 Alpha  occ. eigenvalues --   -0.55114  -0.54694  -0.54130  -0.53723  -0.53566
 Alpha  occ. eigenvalues --   -0.53278  -0.53150  -0.53122  -0.52670  -0.52503
 Alpha  occ. eigenvalues --   -0.52467  -0.52049  -0.51459  -0.49181  -0.47987
 Alpha  occ. eigenvalues --   -0.43620  -0.42912  -0.42839  -0.42312  -0.42174
 Alpha  occ. eigenvalues --   -0.42013  -0.40451  -0.33557  -0.33334  -0.29024
 Alpha virt. eigenvalues --    0.02889   0.03468   0.03500   0.03584   0.04832
 Alpha virt. eigenvalues --    0.04900   0.04998   0.05094   0.05311   0.06523
 Alpha virt. eigenvalues --    0.06671   0.06903   0.06945   0.07128   0.07228

  Beta  occ. eigenvalues --  -68.75429 -68.75428 -68.75330 -68.73109 -11.22563
  Beta  occ. eigenvalues --  -11.22324 -11.21992 -11.20264 -11.20218 -11.20211
  Beta  occ. eigenvalues --  -11.20188 -11.20187 -11.20186 -11.20169 -11.20114
  Beta  occ. eigenvalues --  -11.20097 -11.19967  -6.10176  -6.10172  -6.10085
  Beta  occ. eigenvalues --   -6.08214  -4.20786  -4.20780  -4.20779  -4.20776
  Beta  occ. eigenvalues --   -4.20771  -4.20748  -4.20688  -4.20682  -4.20680
  Beta  occ. eigenvalues --   -4.18788  -4.18772  -4.18687  -1.05116  -0.97883
  Beta  occ. eigenvalues --   -0.96907  -0.96284  -0.96127  -0.92415  -0.92245
  Beta  occ. eigenvalues --   -0.92176  -0.91958  -0.91872  -0.91796  -0.85965
  Beta  occ. eigenvalues --   -0.74329  -0.69770  -0.62545  -0.62363  -0.60549
  Beta  occ. eigenvalues --   -0.59432  -0.58579  -0.57414  -0.57293  -0.57202
  Beta  occ. eigenvalues --   -0.56880  -0.56197  -0.55928  -0.55337  -0.55254
  Beta  occ. eigenvalues --   -0.54993  -0.54147  -0.53767  -0.53662  -0.53446
  Beta  occ. eigenvalues --   -0.53241  -0.53097  -0.52964  -0.52647  -0.52474
  Beta  occ. eigenvalues --   -0.52406  -0.51764  -0.51124  -0.48292  -0.47528
  Beta  occ. eigenvalues --   -0.43311  -0.42898  -0.42830  -0.42274  -0.42157
  Beta  occ. eigenvalues --   -0.42013  -0.37976  -0.33267  -0.33176
  Beta virt. eigenvalues --    0.02893   0.03466   0.03504   0.03578   0.04835
  Beta virt. eigenvalues --    0.04887   0.05004   0.05098   0.05307   0.06521
  Beta virt. eigenvalues --    0.06670   0.06882   0.06941   0.07137   0.07233

 Mulliken charges and spin densities:
               1          2
     1  C    0.314095  -0.343360
     2  C    0.360325   1.637587
     3  Si   3.406976   0.012416
     4  Si   0.040293   0.045685
     5  Si  -0.174456  -0.043478
     6  Si   0.024377  -0.003795
     7  C    1.018318  -0.004600
     8  H   -0.592868  -0.000417
     9  H   -0.355382  -0.000505
    10  H   -0.410662   0.000449
    11  C    1.226012   0.005922
    12  H   -0.487511   0.001635
    13  H   -0.473288  -0.001184
    14  H   -0.466515  -0.001780
    15  C    0.999662  -0.002935
    16  H   -0.534251   0.000160
    17  H   -0.462270   0.000363
    18  H   -0.400570  -0.000513
    19  C    1.278751   0.000779
    20  H   -0.440060   0.000983
    21  H   -0.551236  -0.000237
    22  H   -0.478669   0.000973
    23  C    1.179196  -0.000682
    24  H   -0.449256  -0.001949
    25  H   -0.529424  -0.001814
    26  H   -0.461314   0.001500
    27  C    1.150891   0.001444
    28  H   -0.561030   0.001642
    29  H   -0.470547  -0.000028
    30  H   -0.487669  -0.000615
    31  C    1.075993  -0.003581
    32  H   -0.415486   0.001609
    33  H   -0.586506   0.000526
    34  H   -0.388210   0.004080
    35  C    1.149138  -0.001656
    36  H   -0.544830   0.000545
    37  H   -0.478539  -0.000872
    38  H   -0.452072  -0.001434
    39  C    1.080835  -0.002032
    40  H   -0.522855   0.000079
    41  H   -0.469313   0.000126
    42  H   -0.427176  -0.000040
    43  C    0.892866   0.051475
    44  H   -0.398299   0.007855
    45  H   -0.176797  -0.002634
    46  H   -0.168287  -0.003741
    47  C    0.460364  -0.280103
    48  H   -0.166556   0.001174
    49  H   -0.094250   0.044423
    50  H   -0.173111   0.026013
    51  H   -0.699111   0.000454
    52  H   -0.709716  -0.145911
 Sum of Mulliken charges =  -0.00000   1.00000

 Dipole moment (field-independent basis, Debye):
    X=              0.0725    Y=             -0.0385    Z=              0.2116  Tot=              0.2270
 Unable to Open any file for archive entry.
 1\1\GINC-SE202\SP\UMP2-FC\Aug-CC-pVDZ\C13H35Si4\OHZDE\21-Sep-2024\0\\#
 t symm=none mp2 aug-cc-pvdz geom=allcheck guess=(read,tcheck) int=(gri
 d=ultrafine)\\title\\0,2\C,0,0.713425,0.444763,2.026963\C,0,2.080061,1
 .01194,1.920959\Si,0,-0.008486,0.021895,0.272146\Si,0,-1.899178,-1.373
 521,0.462253\Si,0,1.581859,-1.112906,-1.037134\Si,0,-0.644776,1.991487
 ,-0.848413\C,0,-3.077519,-0.812502,1.82384\H,0,-3.971409,-1.443317,1.8
 24982\H,0,-2.61953,-0.889748,2.812416\H,0,-3.400142,0.221425,1.683557\
 C,0,-2.855937,-1.381308,-1.16367\H,0,-3.69393,-2.082061,-1.106293\H,0,
 -3.266792,-0.395086,-1.390998\H,0,-2.228263,-1.68177,-2.004698\C,0,-1.

 Normal termination of Gaussian 16 at Sat Sep 21 03:41:42 2024.
