 Gaussian 16, Revision C.01,

 ----------------------------------------------------------------------
 #t hf aug-cc-pvdz symm=none int=(grid=ultrafine) guess=(read,tcheck) s
 table=(opt,rrhf)
 ----------------------------------------------------------------------
 -----
 title
 -----
 Symbolic Z-matrix:
 Charge =  0 Multiplicity = 1

 SCF Done:  E(RHF) =  -1203.94054111     A.U. after   16 cycles
 Normal termination of Gaussian 16 at Fri Sep 20 10:18:28 2024.
 Gaussian 16:  ES64L-G16RevC.01  3-Jul-2019

 ----------------------------------------------------------------------
 #t symm=none mp2 aug-cc-pvdz geom=allcheck guess=(read,tcheck) int=(gr
 id=ultrafine)
 ----------------------------------------------------------------------
 Structure from the checkpoint file:  "02_122R.chk"
 -----
 title
 -----
 Charge =  0 Multiplicity = 1

                          Input orientation:
 ---------------------------------------------------------------------
 Center     Atomic      Atomic             Coordinates (Angstroms)
 Number     Number       Type             X           Y           Z
 ---------------------------------------------------------------------
      1          6           0        0.612966   -2.042089   -0.492311
      2          6           0        1.899487   -1.983631   -0.126174
      3          6           0       -0.511754   -1.586188    0.327445
      4          6           0       -1.706875   -1.409368   -0.252967
      5          6           0       -1.582109    1.714548   -0.008302
      6          6           0       -2.943600   -0.837719    0.382807
      7          6           0        3.434494    0.911966   -0.323261
      8          6           0        2.752870    1.884617    0.300241
      9          1           0        2.925424    0.373388   -1.114786
     10          6           0        4.808654    0.411615   -0.037452
     11          6           0        1.348365    2.043753   -0.079798
     12          6           0        0.474326    2.962492    0.349461
     13          6           0       -0.939297    2.882210   -0.023465
     14          6           0       -2.957828    1.537546   -0.529477
     15          7           0       -3.510325    0.298685   -0.374945
     16          1           0       -2.754131   -0.538113    1.411273
     17          6           0       -4.095939   -1.854082    0.410445
     18          6           0        3.008364   -2.322443   -1.004657
     19          1           0        2.148863   -1.606352    0.858749
     20          6           0        4.827264   -1.095686    0.280328
     21          1           0        5.253494    0.914054    0.825609
     22          8           0        5.678474    0.555230   -1.167542
     23          6           0        4.276793   -1.939194   -0.840347
     24          1           0        4.250911   -1.245094    1.194629
     25          8           0        6.153731   -1.482705    0.594524
     26          1           0        0.367714   -2.383186   -1.495270
     27          6           0       -0.216758   -1.250438    1.764285
     28          6           0        3.296328    2.766637    1.386790
     29          1           0        0.980765    1.294396   -0.774555
     30          1           0        0.792476    3.789410    0.977436
     31          1           0        5.683491    1.474093   -1.446940
     32          1           0        6.721281   -1.140686   -0.106358
     33          1           0        2.758358   -2.897279   -1.892156
     34          1           0        5.008078   -2.222892   -1.589421
     35          6           0       -4.859715    0.034444   -0.897901
     36          8           0       -3.558665    2.436718   -1.101758
     37          1           0        3.179158    3.818370    1.113291
     38          1           0        4.351579    2.589180    1.583052
     39          1           0        2.745830    2.616152    2.318981
     40          1           0        0.457819   -0.390973    1.827470
     41          1           0        0.281531   -2.089149    2.254652
     42          1           0       -1.110082   -1.017653    2.337304
     43          6           0       -4.941687   -1.490461   -0.806744
     44          8           0       -4.784318   -1.666833    1.642065
     45          1           0       -3.705450   -2.874022    0.358154
     46          1           0       -4.890749    0.374256   -1.934558
     47          6           0       -5.948842    0.762050   -0.114398
     48          1           0       -5.967487   -1.853688   -0.721924
     49          1           0       -4.498672   -1.947646   -1.695514
     50          1           0       -6.929170    0.518297   -0.532480
     51          1           0       -5.801449    1.838034   -0.189956
     52          1           0       -5.933196    0.466668    0.934897
     53          1           0       -5.534402   -2.266600    1.676082
     54          1           0       -1.806635   -1.653137   -1.308374
     55          1           0       -1.059980    0.847571    0.359516
     56          1           0       -1.469935    3.779071   -0.329775
 ---------------------------------------------------------------------

 SCF Done:  E(RHF) =  -1203.94054111     A.U. after    2 cycles
 E2 =    -0.4066173372D+01 EUMP2 =    -0.12080067144800D+04

 Alpha  occ. eigenvalues --  -20.58377 -20.58015 -20.56681 -20.51192 -15.58229
 Alpha  occ. eigenvalues --  -11.34542 -11.30134 -11.30086 -11.29695 -11.28412
 Alpha  occ. eigenvalues --  -11.26649 -11.26311 -11.25901 -11.25633 -11.25067
 Alpha  occ. eigenvalues --  -11.24903 -11.24845 -11.24664 -11.24431 -11.24379
 Alpha  occ. eigenvalues --  -11.24240 -11.24136 -11.24060 -11.23859 -11.23730
 Alpha  occ. eigenvalues --  -11.23180 -11.20504  -1.39130  -1.38292  -1.37250
 Alpha  occ. eigenvalues --   -1.35909  -1.25370  -1.14277  -1.13653  -1.10526
 Alpha  occ. eigenvalues --   -1.09288  -1.06849  -1.05242  -1.02625  -1.00458
 Alpha  occ. eigenvalues --   -0.98427  -0.95945  -0.94827  -0.92633  -0.89416
 Alpha  occ. eigenvalues --   -0.86658  -0.84956  -0.81687  -0.80450  -0.76916
 Alpha  occ. eigenvalues --   -0.76196  -0.74730  -0.74212  -0.72448  -0.71786
 Alpha  occ. eigenvalues --   -0.70750  -0.69584  -0.67431  -0.67214  -0.66322
 Alpha  occ. eigenvalues --   -0.64768  -0.64389  -0.63960  -0.62986  -0.61727
 Alpha  occ. eigenvalues --   -0.60935  -0.60158  -0.59496  -0.58988  -0.58703
 Alpha  occ. eigenvalues --   -0.58354  -0.57583  -0.56821  -0.56157  -0.55547
 Alpha  occ. eigenvalues --   -0.55397  -0.54232  -0.54113  -0.53625  -0.53138
 Alpha  occ. eigenvalues --   -0.53032  -0.52239  -0.51490  -0.50808  -0.50221
 Alpha  occ. eigenvalues --   -0.50015  -0.49292  -0.48505  -0.47779  -0.46458
 Alpha  occ. eigenvalues --   -0.45479  -0.44459  -0.44092  -0.43860  -0.41122
 Alpha  occ. eigenvalues --   -0.38858  -0.38058  -0.36482  -0.31470  -0.29677
 Alpha virt. eigenvalues --    0.02707   0.02874   0.03443   0.03817   0.04105
 Alpha virt. eigenvalues --    0.04552   0.04693   0.05049   0.05545   0.05772
 Alpha virt. eigenvalues --    0.05878   0.06148   0.06438   0.06632   0.07066

 Mulliken charges:
               1
     1  C    0.289909
     2  C    0.607846
     3  C   -0.805785
     4  C    1.354898
     5  C    2.070116
     6  C    0.677831
     7  C    0.627218
     8  C   -0.858003
     9  H   -0.789745
    10  C    1.516184
    11  C    0.444645
    12  C    0.535556
    13  C    0.472893
    14  C   -1.008557
    15  N   -0.478213
    16  H   -0.321387
    17  C    1.583024
    18  C    0.717214
    19  H   -0.991123
    20  C    1.186866
    21  H   -0.310370
    22  O   -0.973821
    23  C    0.871167
    24  H   -0.333589
    25  O   -0.935207
    26  H   -0.709525
    27  C    0.909649
    28  C    0.834847
    29  H   -0.718646
    30  H   -0.686124
    31  H    0.163469
    32  H    0.171065
    33  H   -0.635885
    34  H   -0.533884
    35  C   -0.051507
    36  O   -0.881389
    37  H    0.198357
    38  H   -0.317655
    39  H    0.176147
    40  H    0.251965
    41  H    0.048112
    42  H   -0.533676
    43  C    0.568976
    44  O   -0.942083
    45  H   -0.262917
    46  H   -0.443394
    47  C    0.748116
    48  H   -0.215200
    49  H   -0.141845
    50  H   -0.044364
    51  H   -0.041282
    52  H   -0.021461
    53  H    0.149857
    54  H   -0.812377
    55  H   -0.784316
    56  H   -0.592601
 Sum of Mulliken charges =  -0.00000

 Dipole moment (field-independent basis, Debye):
    X=              0.0571    Y=             -1.5416    Z=              0.4761  Tot=              1.6144
 Unable to Open any file for archive entry.
 1\1\GINC-SE238\SP\RMP2-FC\Aug-CC-pVDZ\C22H29N1O4\OHZDE\20-Sep-2024\0\\
 #t symm=none mp2 aug-cc-pvdz geom=allcheck guess=(read,tcheck) int=(gr
 id=ultrafine)\\title\\0,1\C,0,0.612966,-2.042089,-0.492311\C,0,1.89948
 7,-1.983631,-0.126174\C,0,-0.511754,-1.586188,0.327445\C,0,-1.706875,-
 1.409368,-0.252967\C,0,-1.582109,1.714548,-0.008302\C,0,-2.9436,-0.837
 719,0.382807\C,0,3.434494,0.911966,-0.323261\C,0,2.75287,1.884617,0.30
 0241\H,0,2.925424,0.373388,-1.114786\C,0,4.808654,0.411615,-0.037452\C
 ,0,1.348365,2.043753,-0.079798\C,0,0.474326,2.962492,0.349461\C,0,-0.9
 39297,2.88221,-0.023465\C,0,-2.957828,1.537546,-0.529477\N,0,-3.510325

 Normal termination of Gaussian 16 at Fri Sep 20 14:49:10 2024.
