 Gaussian 16, Revision C.01,

 ----------------------------------------------------------------------
 #t hf aug-cc-pvdz symm=none int=(grid=ultrafine) guess=(read,tcheck) s
 table=(opt,rrhf)
 ----------------------------------------------------------------------
 -----
 title
 -----
 Symbolic Z-matrix:
 Charge =  0 Multiplicity = 1

 SCF Done:  E(RHF) =  -1112.22175541     A.U. after   15 cycles
 Normal termination of Gaussian 16 at Fri Sep 20 10:36:39 2024.
 Gaussian 16:  ES64L-G16RevC.01  3-Jul-2019

 ----------------------------------------------------------------------
 #t symm=none mp2 aug-cc-pvdz geom=allcheck guess=(read,tcheck) int=(gr
 id=ultrafine)
 ----------------------------------------------------------------------
 Structure from the checkpoint file:  "02_118P.chk"
 -----
 title
 -----
 Charge =  0 Multiplicity = 1

                          Input orientation:
 ---------------------------------------------------------------------
 Center     Atomic      Atomic             Coordinates (Angstroms)
 Number     Number       Type             X           Y           Z
 ---------------------------------------------------------------------
      1          6           0        5.887656   -0.075538    1.460352
      2          6           0        5.087684   -1.058372    0.614697
      3          6           0        3.691711   -0.549498    0.291804
      4          6           0        2.780142   -1.610999   -0.368341
      5          6           0        1.386299   -1.072451   -0.570642
      6          6           0        0.416216   -0.916492    0.331817
      7          6           0       -0.768654   -0.046962   -0.029704
      8          6           0       -2.146834   -0.611463    0.384062
      9          6           0       -3.003303    0.390429    1.198306
     10          6           0       -2.951945    1.763078    0.582053
     11          6           0       -1.768465    2.259545    0.249407
     12          6           0       -0.533953    1.438327    0.489929
     13          6           0        0.692237    1.943418   -0.193233
     14          6           0        1.909078    1.696402    0.276077
     15          6           0        3.079701    1.689850   -0.627909
     16          6           0        3.348715   -2.131240   -1.688313
     17          6           0       -2.880466   -1.157357   -0.856500
     18          6           0       -4.258494   -1.708050   -0.493966
     19          6           0       -5.121633   -0.678960    0.229039
     20          6           0       -4.413478   -0.145918    1.463172
     21          6           0        0.543039   -1.369999    1.759475
     22          8           0        3.317075    2.530003   -1.450413
     23          8           0        3.891448    0.602811   -0.557601
     24          8           0       -2.966159   -0.214732   -1.914398
     25          8           0       -5.411120    0.444793   -0.617628
     26          1           0        6.003273    0.875612    0.939137
     27          1           0        6.884152   -0.464902    1.676231
     28          1           0        5.392651    0.118515    2.416276
     29          1           0        5.615446   -1.256874   -0.320184
     30          1           0        4.988166   -2.014568    1.137944
     31          1           0        3.222331   -0.234523    1.225150
     32          1           0        2.750445   -2.438343    0.347914
     33          1           0        1.204468   -0.667700   -1.563525
     34          1           0       -3.871104    2.314968    0.426554
     35          1           0       -1.665827    3.244801   -0.191606
     36          1           0        0.582407    2.311655   -1.210417
     37          1           0        2.020617    1.283846    1.270049
     38          1           0        3.497301   -1.308785   -2.390911
     39          1           0        2.656184   -2.843578   -2.140237
     40          1           0        4.305368   -2.636100   -1.551360
     41          1           0       -2.271779   -1.969883   -1.261817
     42          1           0       -4.143143   -2.580612    0.157384
     43          1           0       -4.755464   -2.051836   -1.405683
     44          1           0       -6.066864   -1.140029    0.536630
     45          1           0       -4.350333   -0.968580    2.182223
     46          1           0       -5.028639    0.631348    1.922555
     47          1           0       -0.311510   -1.975419    2.070183
     48          1           0        0.579378   -0.514460    2.442627
     49          1           0        1.440075   -1.963989    1.926789
     50          1           0       -3.575906    0.482566   -1.642912
     51          1           0       -5.953612    0.147967   -1.354030
     52          1           0       -2.516364    0.473313    2.178930
     53          1           0       -0.347836    1.385705    1.570329
     54          1           0       -1.997742   -1.479952    1.032351
     55          1           0       -0.787609    0.050320   -1.115738
 ---------------------------------------------------------------------

 SCF Done:  E(RHF) =  -1112.22175541     A.U. after    2 cycles
 E2 =    -0.3812172936D+01 EUMP2 =    -0.11160339283418D+04

 Alpha  occ. eigenvalues --  -20.59433 -20.58446 -20.55349 -20.53435 -11.37886
 Alpha  occ. eigenvalues --  -11.30123 -11.29927 -11.28445 -11.25346 -11.25095
 Alpha  occ. eigenvalues --  -11.24486 -11.24398 -11.24131 -11.24040 -11.23943
 Alpha  occ. eigenvalues --  -11.23895 -11.23840 -11.23747 -11.23637 -11.23215
 Alpha  occ. eigenvalues --  -11.23058 -11.22874 -11.22747 -11.22120 -11.22046
 Alpha  occ. eigenvalues --   -1.44460  -1.38496  -1.35573  -1.35114  -1.16568
 Alpha  occ. eigenvalues --   -1.12388  -1.11026  -1.07924  -1.06842  -1.04228
 Alpha  occ. eigenvalues --   -1.01751  -1.00689  -0.97558  -0.94662  -0.93833
 Alpha  occ. eigenvalues --   -0.88944  -0.86401  -0.85296  -0.83367  -0.82014
 Alpha  occ. eigenvalues --   -0.79625  -0.77806  -0.74077  -0.73686  -0.72769
 Alpha  occ. eigenvalues --   -0.71429  -0.69072  -0.68395  -0.66917  -0.65718
 Alpha  occ. eigenvalues --   -0.65358  -0.64510  -0.62760  -0.62648  -0.61393
 Alpha  occ. eigenvalues --   -0.60973  -0.60470  -0.59729  -0.59197  -0.58166
 Alpha  occ. eigenvalues --   -0.58096  -0.57689  -0.57083  -0.56461  -0.54644
 Alpha  occ. eigenvalues --   -0.54278  -0.53868  -0.53123  -0.52823  -0.52131
 Alpha  occ. eigenvalues --   -0.51956  -0.51358  -0.50983  -0.50251  -0.49431
 Alpha  occ. eigenvalues --   -0.49307  -0.48942  -0.47594  -0.47482  -0.47301
 Alpha  occ. eigenvalues --   -0.46383  -0.44228  -0.43633  -0.43139  -0.42657
 Alpha  occ. eigenvalues --   -0.41406  -0.37506  -0.34591  -0.32956
 Alpha virt. eigenvalues --    0.02130   0.02848   0.03464   0.03666   0.04249
 Alpha virt. eigenvalues --    0.04348   0.04842   0.05135   0.05482   0.05775
 Alpha virt. eigenvalues --    0.05933   0.06226   0.06855   0.06996   0.07404

 Mulliken charges:
               1
     1  C    0.763279
     2  C    0.436351
     3  C    0.439168
     4  C   -0.455143
     5  C   -0.291267
     6  C   -0.575202
     7  C    0.069855
     8  C    0.183282
     9  C   -0.256952
    10  C    0.911502
    11  C    0.889389
    12  C   -0.371129
    13  C    1.151138
    14  C    0.827534
    15  C    1.057009
    16  C    1.264400
    17  C    0.897468
    18  C    0.652367
    19  C    0.809787
    20  C    1.075593
    21  C    0.939609
    22  O   -0.912190
    23  O   -1.145821
    24  O   -0.896097
    25  O   -0.878043
    26  H    0.001362
    27  H   -0.117850
    28  H   -0.065179
    29  H   -0.144708
    30  H   -0.108429
    31  H   -0.436159
    32  H   -0.263717
    33  H   -0.762061
    34  H   -0.611091
    35  H   -0.615154
    36  H   -0.575258
    37  H   -0.403826
    38  H    0.011980
    39  H   -0.109018
    40  H   -0.113405
    41  H   -0.330625
    42  H    0.008824
    43  H   -0.117882
    44  H   -0.232121
    45  H   -0.008203
    46  H   -0.129586
    47  H   -0.033251
    48  H    0.029080
    49  H   -0.235780
    50  H    0.274510
    51  H    0.143606
    52  H   -0.245688
    53  H   -0.355657
    54  H   -0.593209
    55  H   -0.447396
 Sum of Mulliken charges =  -0.00000

 Dipole moment (field-independent basis, Debye):
    X=             -4.3907    Y=             -5.1468    Z=              4.4538  Tot=              8.0996
 Unable to Open any file for archive entry.
 1\1\GINC-SE275\SP\RMP2-FC\Aug-CC-pVDZ\C21H30O4\OHZDE\20-Sep-2024\0\\#t
  symm=none mp2 aug-cc-pvdz geom=allcheck guess=(read,tcheck) int=(grid
 =ultrafine)\\title\\0,1\C,0,5.887656,-0.075538,1.460352\C,0,5.087684,-
 1.058372,0.614697\C,0,3.691711,-0.549498,0.291804\C,0,2.780142,-1.6109
 99,-0.368341\C,0,1.386299,-1.072451,-0.570642\C,0,0.416216,-0.916492,0
 .331817\C,0,-0.768654,-0.046962,-0.029704\C,0,-2.146834,-0.611463,0.38
 4062\C,0,-3.003303,0.390429,1.198306\C,0,-2.951945,1.763078,0.582053\C
 ,0,-1.768465,2.259545,0.249407\C,0,-0.533953,1.438327,0.489929\C,0,0.6
 92237,1.943418,-0.193233\C,0,1.909078,1.696402,0.276077\C,0,3.079701,1

 Normal termination of Gaussian 16 at Fri Sep 20 17:04:19 2024.
