 Gaussian 16, Revision C.01,

 ----------------------------------------------------------------------
 #t hf aug-cc-pvdz symm=none int=(grid=ultrafine) guess=(read,tcheck) s
 table=(opt,rrhf)
 ----------------------------------------------------------------------
 -----
 title
 -----
 Symbolic Z-matrix:
 Charge =  0 Multiplicity = 1

 SCF Done:  E(RHF) =  -1155.61047624     A.U. after   15 cycles
 Normal termination of Gaussian 16 at Fri Sep 20 13:47:34 2024.
 Gaussian 16:  ES64L-G16RevC.01  3-Jul-2019

 ----------------------------------------------------------------------
 #t symm=none mp2 aug-cc-pvdz geom=allcheck guess=(read,tcheck) int=(gr
 id=ultrafine)
 ----------------------------------------------------------------------
 Structure from the checkpoint file:  "02_93P.chk"
 -----
 title
 -----
 Charge =  0 Multiplicity = 1

                          Input orientation:
 ---------------------------------------------------------------------
 Center     Atomic      Atomic             Coordinates (Angstroms)
 Number     Number       Type             X           Y           Z
 ---------------------------------------------------------------------
      1          6           0        0.321519   -2.549670    0.399329
      2          1           0        0.265980   -3.481021   -0.173753
      3          1           0        0.428913   -2.849216    1.463297
      4          6           0       -0.963722   -1.797296    0.240716
      5          6           0        0.284683    0.286311   -0.170231
      6          1           0        0.506455    0.474981   -1.225572
      7          1           0        0.178544    1.260968    0.304854
      8          6           0        1.467662   -0.446564    0.459517
      9          1           0        1.304076   -0.471247    1.555566
     10          7           0        1.477868   -1.807378   -0.059271
     11          6           0       -2.302916    0.209790   -0.163228
     12          6           0       -2.242955   -2.562230    0.450574
     13          6           0       -3.399141   -0.537206   -0.363708
     14          6           0       -3.348690   -2.039869   -0.459323
     15          6           0       -0.998406   -0.488634   -0.029731
     16          6           0       -4.696088   -2.685401   -0.156135
     17          1           0       -4.647096   -3.771087   -0.267639
     18          1           0       -5.008811   -2.466012    0.868490
     19          1           0       -5.472153   -2.314054   -0.829705
     20          6           0        2.777110    0.278834    0.214741
     21          6           0        2.716633   -2.512301    0.201136
     22          1           0        2.593151   -3.551463   -0.111984
     23          1           0        2.956642   -2.523161    1.280585
     24          6           0        3.840346   -1.857021   -0.577963
     25          1           0        3.668977   -2.019111   -1.646484
     26          6           0        3.898023   -0.380690   -0.288277
     27          1           0        4.797772   -2.320979   -0.327159
     28          6           0        5.076113    0.334099   -0.497733
     29          1           0        5.943827   -0.187671   -0.887714
     30          6           0        2.875073    1.635794    0.523906
     31          1           0        2.020006    2.153822    0.941939
     32          6           0        5.157744    1.684587   -0.208256
     33          1           0        6.082459    2.223220   -0.376714
     34          6           0        4.048916    2.338314    0.314256
     35          1           0        4.100271    3.392022    0.560526
     36         14           0       -2.493790    2.082456   -0.033313
     37          6           0       -1.909997    2.673609    1.655770
     38          1           0       -0.855337    2.460077    1.840245
     39          1           0       -2.049749    3.753559    1.754705
     40          1           0       -2.485525    2.189273    2.448500
     41          6           0       -1.546977    2.977583   -1.389834
     42          1           0       -0.466074    2.858686   -1.303920
     43          1           0       -1.843632    2.608370   -2.374736
     44          1           0       -1.766602    4.048439   -1.357689
     45          6           0       -4.309762    2.530885   -0.207636
     46          1           0       -4.924533    2.064007    0.565029
     47          1           0       -4.428395    3.613597   -0.112820
     48          1           0       -4.711529    2.242120   -1.181577
     49          1           0       -3.072708   -2.286339   -1.496427
     50          1           0       -2.559721   -2.459285    1.499196
     51          1           0       -2.086224   -3.630498    0.276495
     52          1           0       -4.372010   -0.072280   -0.491591
 ---------------------------------------------------------------------

 SCF Done:  E(RHF) =  -1155.61047623     A.U. after    3 cycles
 E2 =    -0.3255184499D+01 EUMP2 =    -0.11588656607330D+04

 Alpha  occ. eigenvalues --  -68.75852 -15.55169 -11.26292 -11.25639 -11.25336
 Alpha  occ. eigenvalues --  -11.23837 -11.23717 -11.23372 -11.23322 -11.23299
 Alpha  occ. eigenvalues --  -11.23199 -11.23108 -11.23103 -11.22829 -11.22692
 Alpha  occ. eigenvalues --  -11.22634 -11.22470 -11.22377 -11.22153 -11.21062
 Alpha  occ. eigenvalues --  -11.19999 -11.19952 -11.19753  -6.10523  -4.21163
 Alpha  occ. eigenvalues --   -4.21155  -4.21143  -1.25478  -1.15850  -1.14194
 Alpha  occ. eigenvalues --   -1.07973  -1.05894  -1.04293  -1.01903  -0.99558
 Alpha  occ. eigenvalues --   -0.97302  -0.96031  -0.93008  -0.92042  -0.91900
 Alpha  occ. eigenvalues --   -0.87952  -0.86063  -0.84170  -0.81591  -0.81031
 Alpha  occ. eigenvalues --   -0.76367  -0.74196  -0.69425  -0.67702  -0.66846
 Alpha  occ. eigenvalues --   -0.65008  -0.64032  -0.63801  -0.62172  -0.61729
 Alpha  occ. eigenvalues --   -0.59622  -0.59245  -0.58907  -0.58157  -0.57432
 Alpha  occ. eigenvalues --   -0.56439  -0.55867  -0.55660  -0.55303  -0.54238
 Alpha  occ. eigenvalues --   -0.53759  -0.53310  -0.53268  -0.52803  -0.52484
 Alpha  occ. eigenvalues --   -0.52322  -0.51842  -0.50825  -0.49956  -0.49515
 Alpha  occ. eigenvalues --   -0.48382  -0.47748  -0.47244  -0.45412  -0.43320
 Alpha  occ. eigenvalues --   -0.43075  -0.42175  -0.40605  -0.38954  -0.35689
 Alpha  occ. eigenvalues --   -0.32624  -0.31911  -0.29101
 Alpha virt. eigenvalues --    0.02884   0.03471   0.03516   0.04021   0.04294
 Alpha virt. eigenvalues --    0.04522   0.05245   0.05287   0.05386   0.05769
 Alpha virt. eigenvalues --    0.05832   0.06701   0.06927   0.07175   0.07431

 Mulliken charges:
               1
     1  C    0.460184
     2  H   -0.084041
     3  H    0.130841
     4  C   -0.994335
     5  C    0.371415
     6  H   -0.083587
     7  H   -0.422117
     8  C   -0.059259
     9  H   -0.161863
    10  N   -0.731413
    11  C   -1.649146
    12  C    0.897426
    13  C    0.562403
    14  C   -0.346106
    15  C    0.252093
    16  C    0.990398
    17  H   -0.097206
    18  H   -0.002445
    19  H   -0.056838
    20  C    0.772200
    21  C    1.075426
    22  H   -0.299556
    23  H   -0.169987
    24  C    0.556725
    25  H    0.099371
    26  C   -0.365756
    27  H   -0.019459
    28  C    0.673832
    29  H   -0.624571
    30  C    0.798979
    31  H   -0.603085
    32  C    0.334904
    33  H   -0.467970
    34  C   -0.058011
    35  H   -0.554593
    36  Si   1.538442
    37  C    0.987904
    38  H   -0.380284
    39  H   -0.312586
    40  H   -0.371398
    41  C    1.005189
    42  H   -0.360588
    43  H   -0.339140
    44  H   -0.305059
    45  C    0.647214
    46  H   -0.292167
    47  H   -0.541166
    48  H   -0.305825
    49  H   -0.128225
    50  H    0.002028
    51  H   -0.163461
    52  H   -0.805728
 Sum of Mulliken charges =  -0.00000

 Dipole moment (field-independent basis, Debye):
    X=             -0.2672    Y=             -1.0422    Z=              0.3817  Tot=              1.1416
 Unable to Open any file for archive entry.
 1\1\GINC-SE381\SP\RMP2-FC\Aug-CC-pVDZ\C21H29N1Si1\OHZDE\20-Sep-2024\0\
 \#t symm=none mp2 aug-cc-pvdz geom=allcheck guess=(read,tcheck) int=(g
 rid=ultrafine)\\title\\0,1\C,0,0.321519,-2.54967,0.399329\H,0,0.26598,
 -3.481021,-0.173753\H,0,0.428913,-2.849216,1.463297\C,0,-0.963722,-1.7
 97296,0.240716\C,0,0.284683,0.286311,-0.170231\H,0,0.506455,0.474981,-
 1.225572\H,0,0.178544,1.260968,0.304854\C,0,1.467662,-0.446564,0.45951
 7\H,0,1.304076,-0.471247,1.555566\N,0,1.477868,-1.807378,-0.059271\C,0
 ,-2.302916,0.20979,-0.163228\C,0,-2.242955,-2.56223,0.450574\C,0,-3.39
 9141,-0.537206,-0.363708\C,0,-3.34869,-2.039869,-0.459323\C,0,-0.99840

 Normal termination of Gaussian 16 at Fri Sep 20 16:33:54 2024.
