 Gaussian 16, Revision C.01,

 ----------------------------------------------------------------------
 #t hf aug-cc-pvdz symm=none int=(grid=ultrafine) guess=(read,tcheck) s
 table=(opt,rrhf)
 ----------------------------------------------------------------------
 -----
 title
 -----
 Symbolic Z-matrix:
 Charge =  1 Multiplicity = 1

 SCF Done:  E(RHF) =  -1501.72508151     A.U. after   19 cycles
 Normal termination of Gaussian 16 at Sat Sep 21 00:33:25 2024.
 Gaussian 16:  ES64L-G16RevC.01  3-Jul-2019

 ----------------------------------------------------------------------
 #t symm=none mp2 aug-cc-pvdz geom=allcheck guess=(read,tcheck) int=(gr
 id=ultrafine)
 ----------------------------------------------------------------------
 Structure from the checkpoint file:  "05_36TS.chk"
 -----
 title
 -----
 Charge =  1 Multiplicity = 1

                          Input orientation:
 ---------------------------------------------------------------------
 Center     Atomic      Atomic             Coordinates (Angstroms)
 Number     Number       Type             X           Y           Z
 ---------------------------------------------------------------------
      1          7           0        0.464024   -0.067513   -1.397176
      2          6           0        1.813500   -0.054147   -0.976441
      3          6           0        2.651909   -1.007722   -1.545020
      4          6           0        3.989691   -1.094988   -1.194940
      5          6           0        4.511962   -0.212126   -0.253698
      6          6           0        3.672685    0.745001    0.316924
      7          6           0        2.341117    0.826045   -0.029477
      8          8           0        5.791745   -0.202861    0.164212
      9          6           0        6.694508   -1.153239   -0.377954
     10          6           0       -0.595537    0.773556   -1.154974
     11          6           0       -0.318049    2.177016   -0.693044
     12          6           0        0.422417    3.017097   -1.523288
     13          6           0        0.669586    4.326156   -1.144073
     14          6           0        0.178830    4.804709    0.064569
     15          6           0       -0.564936    3.971514    0.887452
     16          6           0       -0.817765    2.658824    0.510785
     17          6           0       -1.682649    0.669578   -2.202950
     18          8           0        1.365058   -1.952012    1.981012
     19          6           0        0.446971   -1.214363    1.728413
     20          8           0        0.290650   -0.001717    2.243264
     21          6           0        1.270025    0.397216    3.217475
     22          6           0       -0.663702   -1.563828    0.801910
     23          6           0       -2.867153   -1.114525    0.099544
     24          6           0       -2.948532   -2.325581   -0.523132
     25          7           0       -1.806552   -3.087927   -0.537685
     26          6           0       -0.677730   -2.775031    0.153084
     27          6           0       -4.154950   -2.936834   -1.154658
     28          6           0       -4.048306   -0.213476    0.172495
     29          8           0       -3.713165    0.992267    0.620183
     30          6           0       -4.783020    1.949497    0.714760
     31          6           0        0.400673   -3.803902    0.169327
     32          8           0       -5.159662   -0.530497   -0.165877
     33          1           0        6.795660   -1.027691   -1.459376
     34          1           0       -5.528703    1.604000    1.428852
     35          1           0       -0.948903    4.342990    1.829696
     36          1           0        0.278177   -0.788253   -2.080365
     37          1           0        6.374746   -2.173673   -0.149780
     38          1           0        7.651790   -0.960221    0.098349
     39          1           0        1.247904    4.973704   -1.791198
     40          1           0        0.375535    5.827229    0.361848
     41          1           0       -5.250445    2.088583   -0.258964
     42          1           0       -4.317090    2.869065    1.055594
     43          1           0       -1.354521    1.162322   -3.121527
     44          1           0       -2.584737    1.174174   -1.862003
     45          1           0       -1.929808   -0.369019   -2.438597
     46          1           0       -1.849786   -3.991371   -0.989022
     47          1           0       -1.223164    0.256431   -0.079780
     48          1           0       -4.913563   -3.147575   -0.400240
     49          1           0       -3.893183   -3.866609   -1.662348
     50          1           0       -4.615857   -2.253603   -1.865632
     51          1           0        1.362366   -3.356496   -0.078460
     52          1           0        0.174194   -4.610002   -0.530520
     53          1           0        0.512309   -4.219985    1.171077
     54          1           0        1.052616    1.438835    3.434844
     55          1           0        2.272883    0.279837    2.812875
     56          1           0        1.164624   -0.212248    4.113984
     57          1           0        0.819017    2.641940   -2.459794
     58          1           0       -1.386843    2.003870    1.157314
     59          1           0        2.260528   -1.693587   -2.290129
     60          1           0        1.722027    1.572300    0.440096
     61          1           0        4.094718    1.428464    1.042479
     62          1           0        4.609367   -1.845517   -1.663561
     63          7           0       -1.688636   -0.654276    0.665346
 ---------------------------------------------------------------------

 SCF Done:  E(RHF) =  -1501.72508151     A.U. after    3 cycles
 E2 =    -0.5025880504D+01 EUMP2 =    -0.15067509620146D+04

 Alpha  occ. eigenvalues --  -20.71983 -20.71458 -20.67584 -20.66272 -20.65724
 Alpha  occ. eigenvalues --  -15.78801 -15.76440 -15.73849 -11.50383 -11.49911
 Alpha  occ. eigenvalues --  -11.47156 -11.46390 -11.44233 -11.41362 -11.41306
 Alpha  occ. eigenvalues --  -11.39468 -11.38754 -11.38691 -11.38119 -11.36826
 Alpha  occ. eigenvalues --  -11.36703 -11.36625 -11.36015 -11.35659 -11.34723
 Alpha  occ. eigenvalues --  -11.34270 -11.33904 -11.33856 -11.33680 -11.33573
 Alpha  occ. eigenvalues --  -11.33504 -11.33389 -11.32852  -1.58105  -1.57617
 Alpha  occ. eigenvalues --   -1.50201  -1.48300  -1.47687  -1.47185  -1.40829
 Alpha  occ. eigenvalues --   -1.38487  -1.26814  -1.25707  -1.24982  -1.17914
 Alpha  occ. eigenvalues --   -1.14746  -1.14189  -1.12688  -1.12051  -1.11973
 Alpha  occ. eigenvalues --   -1.09313  -1.09218  -1.07299  -1.06386  -1.03203
 Alpha  occ. eigenvalues --   -0.99610  -0.98838  -0.95969  -0.94596  -0.93421
 Alpha  occ. eigenvalues --   -0.92545  -0.89228  -0.88881  -0.87000  -0.86750
 Alpha  occ. eigenvalues --   -0.83858  -0.83564  -0.81686  -0.81557  -0.81099
 Alpha  occ. eigenvalues --   -0.80169  -0.78259  -0.77995  -0.77895  -0.77227
 Alpha  occ. eigenvalues --   -0.77213  -0.76286  -0.74899  -0.74425  -0.73635
 Alpha  occ. eigenvalues --   -0.72864  -0.71856  -0.71443  -0.71119  -0.70382
 Alpha  occ. eigenvalues --   -0.70324  -0.69412  -0.69163  -0.68804  -0.68520
 Alpha  occ. eigenvalues --   -0.68462  -0.68018  -0.67884  -0.66872  -0.66469
 Alpha  occ. eigenvalues --   -0.66123  -0.65779  -0.65073  -0.64975  -0.64573
 Alpha  occ. eigenvalues --   -0.63235  -0.62726  -0.61703  -0.61037  -0.59864
 Alpha  occ. eigenvalues --   -0.59659  -0.59258  -0.59155  -0.57140  -0.56791
 Alpha  occ. eigenvalues --   -0.56343  -0.56230  -0.55574  -0.54302  -0.49728
 Alpha  occ. eigenvalues --   -0.44960  -0.44500  -0.43494  -0.42896  -0.37278
 Alpha virt. eigenvalues --   -0.10294  -0.06528  -0.04818  -0.04545  -0.04055
 Alpha virt. eigenvalues --   -0.03791  -0.02897  -0.02693  -0.02570  -0.02387
 Alpha virt. eigenvalues --   -0.02235  -0.01336  -0.01194  -0.00970  -0.00770

 Mulliken charges:
               1
     1  N   -0.605685
     2  C    1.037665
     3  C    0.584568
     4  C    0.697095
     5  C    0.740083
     6  C    0.081620
     7  C    1.232492
     8  O   -1.067766
     9  C    0.952752
    10  C   -1.437007
    11  C    1.109259
    12  C    0.655126
    13  C   -0.036009
    14  C    1.012756
    15  C    0.090635
    16  C    1.136812
    17  C    1.924945
    18  O   -0.842477
    19  C    0.629113
    20  O   -1.203025
    21  C    1.189459
    22  C    0.629602
    23  C    0.681839
    24  C   -0.934879
    25  N   -0.871165
    26  C   -1.028400
    27  C    1.306898
    28  C    0.521107
    29  O   -0.964680
    30  C    0.976139
    31  C    1.538684
    32  O   -0.725848
    33  H   -0.067836
    34  H   -0.069173
    35  H   -0.649780
    36  H    0.054221
    37  H   -0.077557
    38  H   -0.335997
    39  H   -0.536065
    40  H   -0.502887
    41  H   -0.020775
    42  H   -0.245320
    43  H   -0.153692
    44  H   -0.103834
    45  H   -0.124945
    46  H   -0.035434
    47  H    0.542510
    48  H    0.223106
    49  H   -0.227363
    50  H    0.235346
    51  H    0.122523
    52  H   -0.244901
    53  H    0.246166
    54  H   -0.199319
    55  H   -0.014485
    56  H   -0.111609
    57  H   -0.821036
    58  H   -0.891950
    59  H   -1.005693
    60  H   -0.957953
    61  H   -0.786163
    62  H   -0.781035
    63  N   -0.470781
 Sum of Mulliken charges =   1.00000

 Dipole moment (field-independent basis, Debye):
    X=             -2.1855    Y=             -4.5855    Z=             -3.7024  Tot=              6.2858
 Unable to Open any file for archive entry.
 1\1\GINC-SE096\SP\RMP2-FC\Aug-CC-pVDZ\C25H30N3O5\OHZDE\21-Sep-2024\0\\
 #t symm=none mp2 aug-cc-pvdz geom=allcheck guess=(read,tcheck) int=(gr
 id=ultrafine)\\title\\1,1\N,0,0.464024,-0.067513,-1.397176\C,0,1.8135,
 -0.054147,-0.976441\C,0,2.651909,-1.007722,-1.54502\C,0,3.989691,-1.09
 4988,-1.19494\C,0,4.511962,-0.212126,-0.253698\C,0,3.672685,0.745001,0
 .316924\C,0,2.341117,0.826045,-0.029477\O,0,5.791745,-0.202861,0.16421
 2\C,0,6.694508,-1.153239,-0.377954\C,0,-0.595537,0.773556,-1.154974\C,
 0,-0.318049,2.177016,-0.693044\C,0,0.422417,3.017097,-1.523288\C,0,0.6
 69586,4.326156,-1.144073\C,0,0.17883,4.804709,0.064569\C,0,-0.564936,3

 Normal termination of Gaussian 16 at Sat Sep 21 08:26:07 2024.
