 Gaussian 16, Revision C.01,

 ----------------------------------------------------------------------
 #t hf aug-cc-pvdz symm=none int=(grid=ultrafine) guess=(read,tcheck) s
 table=(opt,rrhf)
 ----------------------------------------------------------------------
 -----
 title
 -----
 Symbolic Z-matrix:
 Charge = -1 Multiplicity = 1

 SCF Done:  E(RHF) =  -1052.86276177     A.U. after   15 cycles
 Normal termination of Gaussian 16 at Fri Sep 20 10:28:44 2024.
 Gaussian 16:  ES64L-G16RevC.01  3-Jul-2019

 ----------------------------------------------------------------------
 #t symm=none mp2 aug-cc-pvdz geom=allcheck guess=(read,tcheck) int=(gr
 id=ultrafine)
 ----------------------------------------------------------------------
 Structure from the checkpoint file:  "02_13R.chk"
 -----
 title
 -----
 Charge = -1 Multiplicity = 1

                          Input orientation:
 ---------------------------------------------------------------------
 Center     Atomic      Atomic             Coordinates (Angstroms)
 Number     Number       Type             X           Y           Z
 ---------------------------------------------------------------------
      1          6           0        4.957057   -1.808000   -0.059909
      2          6           0        3.807836   -2.582513   -0.730649
      3          1           0        4.145861   -3.610392   -0.908532
      4          1           0        3.590452   -2.152577   -1.711789
      5          1           0        5.817660   -1.789882   -0.739669
      6          1           0        5.278509   -2.356885    0.832247
      7          6           0        2.559111   -2.590098    0.097418
      8          6           0        1.438756   -1.957357   -0.230943
      9          6           0        3.657433    1.848126   -0.332544
     10          6           0        2.369389    2.190200   -0.369385
     11          6           0        1.826665    3.427708    0.172042
     12          6           0        0.521347    3.691104    0.232320
     13          6           0       -0.072713    4.935246    0.811312
     14          1           0        0.699773    5.619824    1.170143
     15          1           0       -0.735291    4.698392    1.649991
     16          1           0       -0.681413    5.465698    0.071421
     17          6           0        0.258087   -1.920554    0.697073
     18          6           0       -0.758504   -0.931831    0.427523
     19          8           0        0.216256   -2.701297    1.645251
     20          6           0       -0.770328    0.021606   -0.663995
     21          6           0       -1.940888   -0.733240    1.209825
     22          8           0       -2.382569   -1.299069    2.200884
     23          8           0       -0.014114    0.174536   -1.628022
     24          6           0       -2.740270    0.420900    0.564354
     25          1           0       -2.867442    1.199172    1.326111
     26          6           0       -4.132028   -0.037457    0.109047
     27          6           0       -4.057033   -1.165705   -0.924331
     28          1           0       -3.591376   -0.790408   -1.842028
     29          1           0       -3.390501   -1.941276   -0.541436
     30          6           0       -5.407776   -1.793801   -1.255150
     31          1           0       -5.899342   -2.157828   -0.348216
     32          1           0       -5.285595   -2.645307   -1.929127
     33          1           0       -6.085444   -1.087353   -1.741328
     34          7           0       -1.859341    0.871561   -0.490215
     35          1           0       -2.198168    1.334335   -1.318912
     36          6           0       -4.963288    1.148712   -0.380600
     37          1           0       -5.998405    0.865409   -0.582925
     38          1           0       -4.553898    1.566387   -1.307029
     39          1           0       -4.977851    1.946858    0.366205
     40          1           0       -4.598415   -0.442134    1.014425
     41          6           0        4.167459    0.522466   -0.809162
     42          1           0        3.374340    0.039030   -1.381377
     43          1           0        5.019361    0.655898   -1.488982
     44          6           0        4.589097   -0.382928    0.354103
     45          1           0        3.764542   -0.422158    1.069917
     46          1           0        5.437029    0.072157    0.879064
     47          1           0       -0.176246    2.944226   -0.140939
     48          1           0        2.538795    4.153699    0.565040
     49          1           0        4.380111    2.525991    0.123218
     50          1           0        1.650588    1.501672   -0.810637
     51          1           0        2.589404   -3.104345    1.056617
     52          1           0        1.355307   -1.397999   -1.154974
 ---------------------------------------------------------------------

 SCF Done:  E(RHF) =  -1052.86276177     A.U. after    2 cycles
 E2 =    -0.3607927620D+01 EUMP2 =    -0.10564706893903D+04

 Alpha  occ. eigenvalues --  -20.38731 -20.38228 -20.37597 -15.45025 -11.21632
 Alpha  occ. eigenvalues --  -11.18091 -11.17963 -11.14634 -11.14360 -11.13531
 Alpha  occ. eigenvalues --  -11.13523 -11.13349 -11.13232 -11.13121 -11.13091
 Alpha  occ. eigenvalues --  -11.13052 -11.12778 -11.12710 -11.12575 -11.12204
 Alpha  occ. eigenvalues --  -11.12120 -11.11858 -11.09476 -11.06172  -1.24392
 Alpha  occ. eigenvalues --   -1.22120  -1.21011  -1.11615  -1.01137  -0.99410
 Alpha  occ. eigenvalues --   -0.98890  -0.96074  -0.92621  -0.90522  -0.89862
 Alpha  occ. eigenvalues --   -0.87547  -0.83657  -0.82903  -0.78258  -0.76857
 Alpha  occ. eigenvalues --   -0.73075  -0.68822  -0.67824  -0.66311  -0.65021
 Alpha  occ. eigenvalues --   -0.64006  -0.61188  -0.58265  -0.55748  -0.55249
 Alpha  occ. eigenvalues --   -0.53845  -0.53303  -0.52426  -0.52216  -0.51523
 Alpha  occ. eigenvalues --   -0.50343  -0.50042  -0.48651  -0.48026  -0.47667
 Alpha  occ. eigenvalues --   -0.46849  -0.46450  -0.45707  -0.44850  -0.44613
 Alpha  occ. eigenvalues --   -0.44223  -0.43642  -0.42957  -0.42010  -0.41405
 Alpha  occ. eigenvalues --   -0.41267  -0.40960  -0.39425  -0.39357  -0.38300
 Alpha  occ. eigenvalues --   -0.37788  -0.36790  -0.36584  -0.36282  -0.36222
 Alpha  occ. eigenvalues --   -0.35873  -0.34621  -0.32188  -0.29626  -0.27258
 Alpha  occ. eigenvalues --   -0.26074  -0.23495  -0.23212  -0.20215  -0.17244
 Alpha virt. eigenvalues --    0.09747   0.09910   0.10268   0.10767   0.11190
 Alpha virt. eigenvalues --    0.11539   0.11829   0.12148   0.12671   0.12910
 Alpha virt. eigenvalues --    0.13528   0.13895   0.13994   0.14201   0.14606

 Mulliken charges:
               1
     1  C    0.446918
     2  C    0.390052
     3  H   -0.068876
     4  H   -0.201732
     5  H   -0.167407
     6  H   -0.124393
     7  C    0.784799
     8  C    1.256616
     9  C    0.603192
    10  C    0.561835
    11  C    0.926579
    12  C    0.063353
    13  C    0.325551
    14  H   -0.205771
    15  H    0.093047
    16  H    0.083820
    17  C   -0.391593
    18  C    0.691876
    19  O   -1.044549
    20  C    0.937814
    21  C    0.566981
    22  O   -1.102489
    23  O   -1.079311
    24  C    0.873522
    25  H   -0.408373
    26  C   -0.969462
    27  C    0.578009
    28  H   -0.178407
    29  H   -0.140590
    30  C    0.613130
    31  H   -0.073831
    32  H   -0.090681
    33  H   -0.112913
    34  N   -0.564841
    35  H   -0.191189
    36  C    1.003858
    37  H   -0.115871
    38  H   -0.066916
    39  H   -0.066701
    40  H   -0.359561
    41  C    0.547893
    42  H   -0.295862
    43  H   -0.106354
    44  C    0.218267
    45  H   -0.159229
    46  H   -0.204830
    47  H   -0.539468
    48  H   -0.620343
    49  H   -0.609783
    50  H   -0.827499
    51  H   -0.648680
    52  H   -0.829609
 Sum of Mulliken charges =  -1.00000

 Dipole moment (field-independent basis, Debye):
    X=              1.2860    Y=              5.5875    Z=             -4.0845  Tot=              7.0397
 Unable to Open any file for archive entry.
 1\1\GINC-SE428\SP\RMP2-FC\Aug-CC-pVDZ\C20H28N1O3\OHZDE\20-Sep-2024\0\\
 #t symm=none mp2 aug-cc-pvdz geom=allcheck guess=(read,tcheck) int=(gr
 id=ultrafine)\\title\\-1,1\C,0,4.957057,-1.808,-0.059909\C,0,3.807836,
 -2.582513,-0.730649\H,0,4.145861,-3.610392,-0.908532\H,0,3.590452,-2.1
 52577,-1.711789\H,0,5.81766,-1.789882,-0.739669\H,0,5.278509,-2.356885
 ,0.832247\C,0,2.559111,-2.590098,0.097418\C,0,1.438756,-1.957357,-0.23
 0943\C,0,3.657433,1.848126,-0.332544\C,0,2.369389,2.1902,-0.369385\C,0
 ,1.826665,3.427708,0.172042\C,0,0.521347,3.691104,0.23232\C,0,-0.07271
 3,4.935246,0.811312\H,0,0.699773,5.619824,1.170143\H,0,-0.735291,4.698

 Normal termination of Gaussian 16 at Fri Sep 20 15:16:23 2024.
