 Gaussian 16, Revision C.01,

 ----------------------------------------------------------------------
 #t hf aug-cc-pvdz symm=none int=(grid=ultrafine) guess=(read,tcheck) s
 table=(opt,rrhf)
 ----------------------------------------------------------------------
 -----
 title
 -----
 Symbolic Z-matrix:
 Charge =  1 Multiplicity = 1

 SCF Done:  E(RHF) =  -1148.87724327     A.U. after   19 cycles
 Normal termination of Gaussian 16 at Fri Sep 20 23:17:24 2024.
 Gaussian 16:  ES64L-G16RevC.01  3-Jul-2019

 ----------------------------------------------------------------------
 #t symm=none mp2 aug-cc-pvdz geom=allcheck guess=(read,tcheck) int=(gr
 id=ultrafine)
 ----------------------------------------------------------------------
 Structure from the checkpoint file:  "05_30TS.chk"
 -----
 title
 -----
 Charge =  1 Multiplicity = 1

                          Input orientation:
 ---------------------------------------------------------------------
 Center     Atomic      Atomic             Coordinates (Angstroms)
 Number     Number       Type             X           Y           Z
 ---------------------------------------------------------------------
      1          6           0        1.062366   -0.199543    1.280230
      2          6           0        1.002894   -1.715348   -0.867460
      3          6           0        2.471752   -1.286189   -0.925639
      4          6           0        2.671752    0.217699   -0.738849
      5          6           0        2.035596    0.753226    0.563810
      6          1           0        3.056748   -1.820511   -0.182067
      7          1           0        2.863053   -1.579752   -1.901423
      8          1           0        2.188702    0.723839   -1.576675
      9          1           0        2.821870    0.997623    1.274745
     10          1           0        1.503183    1.678385    0.334576
     11          7           0        0.333788   -0.997031    0.252992
     12          8           0       -0.887224   -1.289340    0.455562
     13          6           0        1.780245   -1.183113    2.224650
     14          1           0        2.225148   -0.611888    3.040135
     15          1           0        1.060268   -1.886174    2.646666
     16          1           0        2.591471   -1.722203    1.746356
     17          6           0        0.066313    0.610848    2.097974
     18          1           0       -0.620643   -0.027608    2.651707
     19          1           0        0.629696    1.206933    2.816217
     20          1           0       -0.505578    1.293728    1.472878
     21          6           0        0.898256   -3.221213   -0.607422
     22          1           0       -0.142970   -3.542958   -0.588293
     23          1           0        1.412541   -3.759984   -1.404568
     24          1           0        1.366036   -3.486337    0.340566
     25          6           0        0.278768   -1.364242   -2.170609
     26          1           0        0.721797   -1.937150   -2.985227
     27          1           0       -0.777029   -1.631522   -2.121171
     28          1           0        0.369962   -0.305545   -2.413184
     29          6           0       -2.757890    0.102159   -0.528154
     30          1           0       -2.731349   -0.343624   -1.527259
     31          1           0       -1.668193   -0.552081   -0.053527
     32          6           0       -2.310232    1.478602   -0.405946
     33          6           0       -2.755670    2.295503    0.641060
     34          6           0       -1.376378    1.972402   -1.325598
     35          6           0       -2.279547    3.587025    0.751304
     36          1           0       -3.478501    1.906940    1.345885
     37          6           0       -0.895449    3.264644   -1.199552
     38          1           0       -1.057050    1.351914   -2.153587
     39          6           0       -1.344925    4.070838   -0.161760
     40          1           0       -2.634118    4.225618    1.550273
     41          1           0       -0.185261    3.651484   -1.919328
     42          8           0       -3.737011   -0.299527    0.270410
     43          6           0       -4.391827   -1.569694   -0.047264
     44          1           0       -3.630143   -2.213433   -0.498243
     45          1           0       -0.976239    5.084733   -0.068147
     46          6           0       -5.514767   -1.301811   -1.027426
     47          1           0       -6.255531   -0.634802   -0.583729
     48          1           0       -6.007565   -2.239634   -1.288439
     49          1           0       -5.146802   -0.848524   -1.950144
     50          6           0       -4.850574   -2.151205    1.268585
     51          1           0       -4.007125   -2.304721    1.941981
     52          1           0       -5.568362   -1.484901    1.749878
     53          1           0       -5.336654   -3.112707    1.097669
     54          7           0        4.079613    0.579077   -0.844874
     55          6           0        5.021096    0.150625    0.043791
     56          6           0        6.432154    0.615036   -0.202129
     57          1           0        6.539485    1.236725   -1.091020
     58          1           0        6.770503    1.174997    0.670254
     59          1           0        7.074362   -0.260902   -0.296475
     60          8           0        4.725079   -0.563632    0.985988
     61          1           0        4.370138    1.162205   -1.611364
 ---------------------------------------------------------------------

 SCF Done:  E(RHF) =  -1148.87724327     A.U. after    2 cycles
 E2 =    -0.4045693693D+01 EUMP2 =    -0.11529229369591D+04

 Alpha  occ. eigenvalues --  -20.81141 -20.73989 -20.61472 -15.79880 -15.68686
 Alpha  occ. eigenvalues --  -11.48669 -11.44660 -11.41968 -11.40633 -11.39882
 Alpha  occ. eigenvalues --  -11.38668 -11.38555 -11.38217 -11.37278 -11.37257
 Alpha  occ. eigenvalues --  -11.36517 -11.36213 -11.34735 -11.33594 -11.33490
 Alpha  occ. eigenvalues --  -11.33401 -11.33147 -11.32949 -11.32711 -11.32185
 Alpha  occ. eigenvalues --  -11.31717  -1.64015  -1.56588  -1.47879  -1.33713
 Alpha  occ. eigenvalues --   -1.30183  -1.29669  -1.22166  -1.21023  -1.16563
 Alpha  occ. eigenvalues --   -1.15717  -1.15111  -1.11081  -1.07814  -1.06454
 Alpha  occ. eigenvalues --   -1.06227  -1.04979  -1.04693  -1.04065  -0.97094
 Alpha  occ. eigenvalues --   -0.96366  -0.94088  -0.94027  -0.93145  -0.90062
 Alpha  occ. eigenvalues --   -0.86768  -0.84826  -0.82837  -0.81912  -0.81339
 Alpha  occ. eigenvalues --   -0.79888  -0.79094  -0.78506  -0.76362  -0.74798
 Alpha  occ. eigenvalues --   -0.74467  -0.73892  -0.72587  -0.72469  -0.71783
 Alpha  occ. eigenvalues --   -0.71430  -0.70466  -0.69934  -0.69832  -0.68497
 Alpha  occ. eigenvalues --   -0.68410  -0.67462  -0.66855  -0.66649  -0.65820
 Alpha  occ. eigenvalues --   -0.65354  -0.64814  -0.64578  -0.64200  -0.63842
 Alpha  occ. eigenvalues --   -0.63763  -0.63183  -0.63043  -0.62418  -0.62146
 Alpha  occ. eigenvalues --   -0.61380  -0.60626  -0.59989  -0.59552  -0.59267
 Alpha  occ. eigenvalues --   -0.58775  -0.58344  -0.57034  -0.56105  -0.50797
 Alpha  occ. eigenvalues --   -0.49415  -0.48513  -0.46708  -0.42452
 Alpha virt. eigenvalues --   -0.14245  -0.05629  -0.04695  -0.04237  -0.03868
 Alpha virt. eigenvalues --   -0.03093  -0.02964  -0.02781  -0.02470  -0.02149
 Alpha virt. eigenvalues --   -0.01527  -0.01235  -0.01198  -0.00984  -0.00896

 Mulliken charges:
               1
     1  C   -2.807450
     2  C   -3.606664
     3  C    1.581791
     4  C    0.285799
     5  C    0.979905
     6  H   -0.136845
     7  H   -0.086051
     8  H   -0.277700
     9  H   -0.225135
    10  H   -0.174008
    11  N    0.739584
    12  O   -1.164678
    13  C    1.548229
    14  H   -0.037384
    15  H    0.038914
    16  H   -0.069918
    17  C    1.527764
    18  H    0.035844
    19  H   -0.033302
    20  H   -0.376759
    21  C    1.309328
    22  H   -0.087764
    23  H    0.082489
    24  H   -0.018334
    25  C    1.834106
    26  H   -0.070831
    27  H   -0.199102
    28  H   -0.215251
    29  C    0.687146
    30  H   -0.102757
    31  H   -0.032209
    32  C    0.504546
    33  C    1.367691
    34  C    0.745811
    35  C    0.260221
    36  H   -0.751669
    37  C    0.088848
    38  H   -0.808826
    39  C    0.656083
    40  H   -0.534944
    41  H   -0.647347
    42  O   -0.890367
    43  C   -0.507913
    44  H   -0.125318
    45  H   -0.478104
    46  C    0.907256
    47  H   -0.001441
    48  H   -0.025311
    49  H   -0.125678
    50  C    0.804749
    51  H   -0.036804
    52  H   -0.032139
    53  H   -0.002667
    54  N   -0.103026
    55  C    0.183777
    56  C    0.650327
    57  H   -0.154769
    58  H    0.045831
    59  H    0.046193
    60  O   -0.848759
    61  H   -0.115007
 Sum of Mulliken charges =   1.00000

 Dipole moment (field-independent basis, Debye):
    X=             -3.3234    Y=              1.8806    Z=             -4.0606  Tot=              5.5741
 Unable to Open any file for archive entry.
 1\1\GINC-SE362\SP\RMP2-FC\Aug-CC-pVDZ\C21H35N2O3\OHZDE\21-Sep-2024\0\\
 #t symm=none mp2 aug-cc-pvdz geom=allcheck guess=(read,tcheck) int=(gr
 id=ultrafine)\\title\\1,1\C,0,1.062366,-0.199543,1.28023\C,0,1.002894,
 -1.715348,-0.86746\C,0,2.471752,-1.286189,-0.925639\C,0,2.671752,0.217
 699,-0.738849\C,0,2.035596,0.753226,0.56381\H,0,3.056748,-1.820511,-0.
 182067\H,0,2.863053,-1.579752,-1.901423\H,0,2.188702,0.723839,-1.57667
 5\H,0,2.82187,0.997623,1.274745\H,0,1.503183,1.678385,0.334576\N,0,0.3
 33788,-0.997031,0.252992\O,0,-0.887224,-1.28934,0.455562\C,0,1.780245,
 -1.183113,2.22465\H,0,2.225148,-0.611888,3.040135\H,0,1.060268,-1.8861

 Normal termination of Gaussian 16 at Sat Sep 21 02:34:28 2024.
