 Gaussian 16, Revision C.01,

 ----------------------------------------------------------------------
 #t hf aug-cc-pvdz symm=none int=(grid=ultrafine) guess=(read,tcheck) s
 table=(opt,rrhf)
 ----------------------------------------------------------------------
 -----
 title
 -----
 Symbolic Z-matrix:
 Charge =  0 Multiplicity = 1

 SCF Done:  E(RHF) =  -1125.16563879     A.U. after   15 cycles
 Normal termination of Gaussian 16 at Fri Sep 20 23:57:05 2024.
 Gaussian 16:  ES64L-G16RevC.01  3-Jul-2019

 ----------------------------------------------------------------------
 #t symm=none mp2 aug-cc-pvdz geom=allcheck guess=(read,tcheck) int=(gr
 id=ultrafine)
 ----------------------------------------------------------------------
 Structure from the checkpoint file:  "06_25TS.chk"
 -----
 title
 -----
 Charge =  0 Multiplicity = 1

                          Input orientation:
 ---------------------------------------------------------------------
 Center     Atomic      Atomic             Coordinates (Angstroms)
 Number     Number       Type             X           Y           Z
 ---------------------------------------------------------------------
      1          6           0        1.710966   -2.792700   -0.758595
      2          6           0        0.834357   -2.104453    0.314562
      3          6           0        2.827710    0.213955   -0.135770
      4          1           0        1.077283   -3.424784   -1.390719
      5          6           0        1.492524   -2.168841    1.705632
      6          1           0        0.843263   -1.661196    2.427486
      7          1           0        1.547366   -3.216762    2.024381
      8          1           0        3.420566    1.119175   -0.297496
      9          1           0       -0.077853   -2.707104    0.415037
     10          1           0       -0.266302   -0.214814    0.968700
     11          6           0        2.894806   -1.579772    1.795901
     12          1           0        3.233786   -1.656378    2.833976
     13          1           0        3.586467   -2.201336    1.220405
     14          6           0        3.042588   -0.123259    1.358114
     15          1           0        2.378805    0.499616    1.965194
     16          1           0        4.060600    0.186346    1.616995
     17          6           0        3.442057   -0.835838   -1.094191
     18          1           0        3.884038   -0.295370   -1.937501
     19          6           0        2.498838   -1.879385   -1.701841
     20          1           0        1.790054   -1.359839   -2.353383
     21          1           0        3.091851   -2.511821   -2.370964
     22          1           0        4.280353   -1.335812   -0.599025
     23          1           0        2.400035   -3.490324   -0.269046
     24          6           0        1.365978    0.565200   -0.521820
     25          1           0        1.368423    0.613492   -1.618071
     26         14           0        0.852884    2.321611   -0.052750
     27          6           0        0.466498    2.559253    1.775171
     28          1           0        1.361405    2.475054    2.395278
     29          1           0        0.046228    3.555158    1.941243
     30          1           0       -0.259258    1.828846    2.138807
     31          6           0       -0.687704    2.787701   -1.037953
     32          1           0       -0.959543    3.829094   -0.845546
     33          1           0       -0.515555    2.692538   -2.113903
     34          1           0       -1.554310    2.175477   -0.780792
     35          6           0        2.206570    3.544637   -0.523849
     36          1           0        2.509718    3.422063   -1.567343
     37          1           0        1.855788    4.572871   -0.400708
     38          1           0        3.098654    3.426975    0.095693
     39          5           0        0.350379   -0.597816   -0.006067
     40          6           0       -1.597081   -0.556274   -0.402787
     41          6           0       -2.590536   -0.354681    0.422475
     42          1           0       -2.445063   -0.112076    1.464233
     43          6           0       -0.875271   -0.823731   -1.486014
     44          1           0       -0.676075   -0.036042   -2.200522
     45          1           0       -0.728263   -1.846240   -1.807749
     46          6           0       -3.980905   -0.454737   -0.088806
     47          8           0       -4.302817   -0.716079   -1.216564
     48          8           0       -4.849938   -0.206243    0.900080
     49          6           0       -6.234399   -0.267466    0.539560
     50          1           0       -6.485752   -1.262393    0.173130
     51          1           0       -6.783275   -0.042749    1.449671
     52          1           0       -6.455642    0.465791   -0.235488
 ---------------------------------------------------------------------

 SCF Done:  E(RHF) =  -1125.16563879     A.U. after    2 cycles
 E2 =    -0.3098886100D+01 EUMP2 =    -0.11282645248916D+04

 Alpha  occ. eigenvalues --  -68.74513 -20.62879 -20.56827 -11.40967 -11.34220
 Alpha  occ. eigenvalues --  -11.30342 -11.28562 -11.28000 -11.21794 -11.21181
 Alpha  occ. eigenvalues --  -11.20954 -11.20911 -11.20783 -11.20642 -11.20537
 Alpha  occ. eigenvalues --  -11.19607 -11.19335 -11.19249 -11.19002 -11.17665
 Alpha  occ. eigenvalues --   -7.56532  -6.09246  -4.19875  -4.19867  -4.19840
 Alpha  occ. eigenvalues --   -1.48500  -1.38205  -1.15070  -1.10361  -1.04861
 Alpha  occ. eigenvalues --   -1.03729  -1.03269  -0.98121  -0.96652  -0.93791
 Alpha  occ. eigenvalues --   -0.91654  -0.91358  -0.90659  -0.86353  -0.83047
 Alpha  occ. eigenvalues --   -0.79171  -0.77740  -0.76132  -0.72380  -0.70485
 Alpha  occ. eigenvalues --   -0.70294  -0.68789  -0.66978  -0.65686  -0.64423
 Alpha  occ. eigenvalues --   -0.63131  -0.62314  -0.60636  -0.59879  -0.59184
 Alpha  occ. eigenvalues --   -0.57163  -0.56982  -0.56375  -0.56103  -0.55817
 Alpha  occ. eigenvalues --   -0.55334  -0.54961  -0.54455  -0.53562  -0.52919
 Alpha  occ. eigenvalues --   -0.52531  -0.52103  -0.50025  -0.48385  -0.47716
 Alpha  occ. eigenvalues --   -0.47453  -0.47234  -0.46573  -0.45481  -0.44983
 Alpha  occ. eigenvalues --   -0.43484  -0.42442  -0.41984  -0.41550  -0.40469
 Alpha  occ. eigenvalues --   -0.40393  -0.39205  -0.38680  -0.35641
 Alpha virt. eigenvalues --    0.02817   0.03377   0.03631   0.03830   0.04469
 Alpha virt. eigenvalues --    0.04928   0.05027   0.05155   0.05390   0.05971
 Alpha virt. eigenvalues --    0.06196   0.06437   0.06891   0.07106   0.07349

 Mulliken charges:
               1
     1  C    0.441115
     2  C    0.018527
     3  C   -0.041158
     4  H   -0.294878
     5  C    0.547953
     6  H   -0.090485
     7  H   -0.221579
     8  H   -0.335156
     9  H   -0.060102
    10  H    0.683433
    11  C    0.272156
    12  H   -0.260366
    13  H   -0.066807
    14  C    0.881555
    15  H   -0.189499
    16  H   -0.349536
    17  C    0.439668
    18  H   -0.250333
    19  C    0.782556
    20  H   -0.037905
    21  H   -0.313948
    22  H   -0.188562
    23  H   -0.233459
    24  C   -0.129133
    25  H   -0.397570
    26  Si   0.485144
    27  C    0.982500
    28  H   -0.324756
    29  H   -0.464230
    30  H   -0.276574
    31  C    1.025725
    32  H   -0.455900
    33  H   -0.300319
    34  H   -0.331579
    35  C    0.912061
    36  H   -0.287719
    37  H   -0.560384
    38  H   -0.370713
    39  B   -1.108072
    40  C   -1.153003
    41  C    1.104272
    42  H   -0.744275
    43  C    1.561657
    44  H    0.053023
    45  H   -0.081096
    46  C    0.862273
    47  O   -0.741725
    48  O   -0.863136
    49  C    0.876619
    50  H   -0.067102
    51  H   -0.273679
    52  H   -0.065502
 Sum of Mulliken charges =  -0.00000

 Dipole moment (field-independent basis, Debye):
    X=             -2.1395    Y=             -0.0008    Z=              0.4596  Tot=              2.1883
 Unable to Open any file for archive entry.
 1\1\GINC-SE161\SP\RMP2-FC\Aug-CC-pVDZ\C17H31B1O2Si1\OHZDE\21-Sep-2024\
 0\\#t symm=none mp2 aug-cc-pvdz geom=allcheck guess=(read,tcheck) int=
 (grid=ultrafine)\\title\\0,1\C,0,1.710966,-2.7927,-0.758595\C,0,0.8343
 57,-2.104453,0.314562\C,0,2.82771,0.213955,-0.13577\H,0,1.077283,-3.42
 4784,-1.390719\C,0,1.492524,-2.168841,1.705632\H,0,0.843263,-1.661196,
 2.427486\H,0,1.547366,-3.216762,2.024381\H,0,3.420566,1.119175,-0.2974
 96\H,0,-0.077853,-2.707104,0.415037\H,0,-0.266302,-0.214814,0.9687\C,0
 ,2.894806,-1.579772,1.795901\H,0,3.233786,-1.656378,2.833976\H,0,3.586
 467,-2.201336,1.220405\C,0,3.042588,-0.123259,1.358114\H,0,2.378805,0.

 Normal termination of Gaussian 16 at Sat Sep 21 01:54:56 2024.
