 Gaussian 16, Revision C.01,

 ----------------------------------------------------------------------
 #t hf aug-cc-pvdz symm=none int=(grid=ultrafine) guess=(read,tcheck) s
 table=(opt,rrhf)
 ----------------------------------------------------------------------
 -----
 title
 -----
 Symbolic Z-matrix:
 Charge =  0 Multiplicity = 1

 SCF Done:  E(RHF) =  -1125.27003155     A.U. after   15 cycles
 Normal termination of Gaussian 16 at Sat Sep 21 00:10:55 2024.
 Gaussian 16:  ES64L-G16RevC.01  3-Jul-2019

 ----------------------------------------------------------------------
 #t symm=none mp2 aug-cc-pvdz geom=allcheck guess=(read,tcheck) int=(gr
 id=ultrafine)
 ----------------------------------------------------------------------
 Structure from the checkpoint file:  "06_28P.chk"
 -----
 title
 -----
 Charge =  0 Multiplicity = 1

                          Input orientation:
 ---------------------------------------------------------------------
 Center     Atomic      Atomic             Coordinates (Angstroms)
 Number     Number       Type             X           Y           Z
 ---------------------------------------------------------------------
      1          6           0        1.284905    2.330918    0.640552
      2          6           0        0.569877    1.166877    1.389354
      3          6           0       -1.411875    1.478220   -0.972103
      4          1           0        2.359744    2.219673    0.797572
      5          6           0       -0.687863    1.628147    2.157157
      6          1           0       -1.237754    0.752065    2.518454
      7          1           0       -0.353309    2.158203    3.055639
      8          1           0       -2.084989    1.373913   -1.827536
      9          1           0        1.271925    0.821235    2.151046
     10          6           0       -1.642071    2.551413    1.407974
     11          1           0       -2.426222    2.869560    2.102234
     12          1           0       -1.114282    3.467603    1.130042
     13          6           0       -2.317029    1.966185    0.173083
     14          1           0       -2.978836    1.153439    0.484135
     15          1           0       -2.975537    2.738244   -0.239627
     16          6           0       -0.375410    2.550118   -1.394436
     17          1           0       -0.310914    2.550400   -2.486861
     18          6           0        1.058353    2.401647   -0.875326
     19          1           0        1.496420    1.510652   -1.338053
     20          1           0        1.642026    3.240547   -1.267480
     21          1           0       -0.762064    3.538320   -1.124388
     22          1           0        1.009551    3.284200    1.101704
     23          6           0       -0.777486    0.084664   -0.737313
     24          1           0       -0.283616   -0.234088   -1.669929
     25         14           0       -2.085110   -1.310457   -0.587674
     26          6           0       -2.635366   -1.636155    1.180089
     27          1           0       -3.165417   -0.786430    1.613976
     28          1           0       -3.312784   -2.494440    1.206442
     29          1           0       -1.787560   -1.866937    1.828877
     30          6           0       -1.401215   -2.911843   -1.303086
     31          1           0       -2.209835   -3.642243   -1.396299
     32          1           0       -0.983855   -2.755715   -2.301116
     33          1           0       -0.625758   -3.366745   -0.686702
     34          6           0       -3.584790   -0.862179   -1.630594
     35          1           0       -3.307103   -0.699792   -2.675276
     36          1           0       -4.303817   -1.685753   -1.606454
     37          1           0       -4.097751    0.034014   -1.278296
     38          5           0        0.324836    0.008171    0.351250
     39          6           0        1.342501   -1.249490    0.358701
     40          6           0        1.399585   -1.858347    1.729969
     41          1           0        1.971712   -1.301044    2.463400
     42          6           0        0.806431   -2.989906    2.083647
     43          1           0        0.235466   -3.587065    1.381716
     44          1           0        0.879456   -3.365325    3.096877
     45          6           0        2.687861   -0.720666   -0.051340
     46          8           0        3.540993   -0.300417    0.686073
     47          8           0        2.819082   -0.719881   -1.391879
     48          6           0        4.035858   -0.162242   -1.895919
     49          1           0        3.976840   -0.257831   -2.976906
     50          1           0        4.120735    0.886055   -1.608326
     51          1           0        4.895187   -0.708304   -1.508187
     52          1           0        1.035497   -1.982651   -0.385492
 ---------------------------------------------------------------------

 SCF Done:  E(RHF) =  -1125.27003155     A.U. after    1 cycles
 E2 =    -0.3083637663D+01 EUMP2 =    -0.11283536692176D+04

 Alpha  occ. eigenvalues --  -68.76534 -20.61192 -20.55150 -11.38546 -11.29186
 Alpha  occ. eigenvalues --  -11.24473 -11.22908 -11.22768 -11.22761 -11.22121
 Alpha  occ. eigenvalues --  -11.21931 -11.21878 -11.21831 -11.21808 -11.21592
 Alpha  occ. eigenvalues --  -11.20423 -11.20258 -11.20120 -11.19572 -11.18991
 Alpha  occ. eigenvalues --   -7.59280  -6.11164  -4.21789  -4.21784  -4.21779
 Alpha  occ. eigenvalues --   -1.46699  -1.36389  -1.11790  -1.08962  -1.04752
 Alpha  occ. eigenvalues --   -1.04449  -1.00620  -0.98160  -0.95593  -0.93514
 Alpha  occ. eigenvalues --   -0.92524  -0.92441  -0.91598  -0.88038  -0.79886
 Alpha  occ. eigenvalues --   -0.79390  -0.78793  -0.75365  -0.72025  -0.70052
 Alpha  occ. eigenvalues --   -0.68052  -0.67695  -0.66341  -0.64224  -0.63094
 Alpha  occ. eigenvalues --   -0.62391  -0.60875  -0.60121  -0.59365  -0.58066
 Alpha  occ. eigenvalues --   -0.57501  -0.57046  -0.57007  -0.56688  -0.56211
 Alpha  occ. eigenvalues --   -0.55667  -0.55042  -0.54515  -0.53654  -0.53128
 Alpha  occ. eigenvalues --   -0.52917  -0.52724  -0.51029  -0.49863  -0.48884
 Alpha  occ. eigenvalues --   -0.48433  -0.47807  -0.46431  -0.45977  -0.45561
 Alpha  occ. eigenvalues --   -0.44576  -0.43927  -0.43088  -0.42925  -0.41815
 Alpha  occ. eigenvalues --   -0.41239  -0.40606  -0.38403  -0.35349
 Alpha virt. eigenvalues --    0.02739   0.03452   0.03625   0.03929   0.04727
 Alpha virt. eigenvalues --    0.04863   0.05016   0.05169   0.05269   0.06500
 Alpha virt. eigenvalues --    0.06663   0.06715   0.06987   0.07012   0.07222

 Mulliken charges:
               1
     1  C    0.363881
     2  C    0.186328
     3  C   -0.022189
     4  H   -0.358858
     5  C    0.547807
     6  H   -0.165501
     7  H   -0.244075
     8  H   -0.364937
     9  H   -0.348069
    10  C    0.397265
    11  H   -0.275404
    12  H   -0.029294
    13  C    0.779394
    14  H   -0.218903
    15  H   -0.232011
    16  C    0.298672
    17  H   -0.194254
    18  C    0.841597
    19  H   -0.009501
    20  H   -0.347640
    21  H   -0.194953
    22  H   -0.255859
    23  C   -0.418672
    24  H   -0.354362
    25  Si   0.648048
    26  C    1.194988
    27  H   -0.339548
    28  H   -0.508637
    29  H   -0.317676
    30  C    1.059886
    31  H   -0.510338
    32  H   -0.199450
    33  H   -0.530863
    34  C    1.019996
    35  H   -0.397872
    36  H   -0.554563
    37  H   -0.309906
    38  B    0.662566
    39  C    0.510350
    40  C    0.768348
    41  H   -0.703713
    42  C    0.860415
    43  H   -0.401112
    44  H   -0.423374
    45  C    0.973967
    46  O   -0.854075
    47  O   -1.032234
    48  C    0.966179
    49  H   -0.246099
    50  H   -0.062461
    51  H   -0.127331
    52  H   -0.525954
 Sum of Mulliken charges =   0.00000

 Dipole moment (field-independent basis, Debye):
    X=             -1.2835    Y=              0.2004    Z=             -1.8052  Tot=              2.2241
 Unable to Open any file for archive entry.
 1\1\GINC-SE305\SP\RMP2-FC\Aug-CC-pVDZ\C17H31B1O2Si1\OHZDE\21-Sep-2024\
 0\\#t symm=none mp2 aug-cc-pvdz geom=allcheck guess=(read,tcheck) int=
 (grid=ultrafine)\\title\\0,1\C,0,1.284905,2.330918,0.640552\C,0,0.5698
 77,1.166877,1.389354\C,0,-1.411875,1.47822,-0.972103\H,0,2.359744,2.21
 9673,0.797572\C,0,-0.687863,1.628147,2.157157\H,0,-1.237754,0.752065,2
 .518454\H,0,-0.353309,2.158203,3.055639\H,0,-2.084989,1.373913,-1.8275
 36\H,0,1.271925,0.821235,2.151046\C,0,-1.642071,2.551413,1.407974\H,0,
 -2.426222,2.86956,2.102234\H,0,-1.114282,3.467603,1.130042\C,0,-2.3170
 29,1.966185,0.173083\H,0,-2.978836,1.153439,0.484135\H,0,-2.975537,2.7

 Normal termination of Gaussian 16 at Sat Sep 21 02:32:20 2024.
