 Gaussian 16, Revision C.01,

 ----------------------------------------------------------------------
 #t hf aug-cc-pvdz symm=none int=(grid=ultrafine) guess=(read,tcheck) s
 table=(opt,rrhf)
 ----------------------------------------------------------------------
 -----
 title
 -----
 Symbolic Z-matrix:
 Charge =  0 Multiplicity = 1

 SCF Done:  E(RHF) =  -1112.19514925     A.U. after   16 cycles
 Normal termination of Gaussian 16 at Fri Sep 20 10:06:27 2024.
 Gaussian 16:  ES64L-G16RevC.01  3-Jul-2019

 ----------------------------------------------------------------------
 #t symm=none mp2 aug-cc-pvdz geom=allcheck guess=(read,tcheck) int=(gr
 id=ultrafine)
 ----------------------------------------------------------------------
 Structure from the checkpoint file:  "02_120R.chk"
 -----
 title
 -----
 Charge =  0 Multiplicity = 1

                          Input orientation:
 ---------------------------------------------------------------------
 Center     Atomic      Atomic             Coordinates (Angstroms)
 Number     Number       Type             X           Y           Z
 ---------------------------------------------------------------------
      1          6           0        3.161525    1.527544   -0.579766
      2          6           0        4.134055    1.242598    0.586756
      3          6           0        5.253709    0.212544    0.312051
      4          6           0        4.949829   -1.179260    0.926437
      5          6           0        3.613840   -1.721091    0.543085
      6          6           0        1.862890    2.079753   -0.055265
      7          1           0        4.584900    2.202043    0.853319
      8          1           0        3.563770    0.916371    1.459637
      9          1           0        3.636617    2.252191   -1.245658
     10          1           0        5.752754   -1.847276    0.605406
     11          1           0        5.007245   -1.085279    2.015013
     12          1           0        6.160693    0.559087    0.811477
     13          8           0        5.609619    0.127786   -1.053436
     14          1           0        4.794767    0.000536   -1.559383
     15          8           0        2.935711    0.396001   -1.421347
     16          1           0        2.351121   -0.212595   -0.955132
     17          6           0        0.669709    1.736418   -0.537803
     18          6           0        2.546061   -1.688864    1.344579
     19          6           0       -0.639540    2.096288    0.017249
     20          6           0       -0.661781    2.957937    1.247254
     21          1           0       -0.137310    3.899165    1.063397
     22          1           0       -0.149335    2.463658    2.077673
     23          1           0       -1.671479    3.199205    1.571246
     24          6           0       -1.726007    1.581833   -0.574088
     25          6           0       -1.544597   -1.660093   -0.295376
     26          6           0       -3.158445    1.657000   -0.137505
     27          1           0       -1.562398    0.988041   -1.470912
     28          1           0       -1.229991   -0.776302    0.237828
     29          6           0       -3.610569    0.293935    0.427345
     30          1           0       -3.251080    2.359530    0.693697
     31          1           0       -2.864031   -0.054674    1.144817
     32          6           0        1.164143   -1.946296    0.953196
     33          6           0       -4.048529    2.137836   -1.286624
     34          1           0       -3.692935    3.100451   -1.657232
     35          1           0       -4.030002    1.424328   -2.111569
     36          1           0       -5.085308    2.260827   -0.970982
     37          6           0       -4.957963    0.339434    1.133271
     38          1           0       -4.919869    1.136565    1.882321
     39          1           0       -5.728475    0.613397    0.409752
     40          6           0       -5.316696   -0.986228    1.792711
     41          1           0       -4.566587   -1.275342    2.534459
     42          1           0       -6.279268   -0.920791    2.302706
     43          1           0       -5.383756   -1.782631    1.050294
     44          8           0       -3.741404   -0.670480   -0.634647
     45          6           0       -2.911032   -1.715070   -0.861007
     46          8           0       -3.299493   -2.608654   -1.565300
     47          6           0       -0.666162   -2.635089   -0.551664
     48          1           0       -0.999338   -3.465740   -1.166314
     49          6           0        0.726494   -2.613338   -0.123345
     50          1           0        1.429749   -3.168758   -0.737140
     51          1           0        0.418182   -1.496445    1.602789
     52          1           0        3.503022   -2.055373   -0.484980
     53          1           0        2.683372   -1.329998    2.361359
     54          1           0        0.635825    1.082046   -1.403693
     55          1           0        1.948066    2.749791    0.794682
 ---------------------------------------------------------------------

 SCF Done:  E(RHF) =  -1112.19514925     A.U. after    2 cycles
 E2 =    -0.3781168639D+01 EUMP2 =    -0.11159763178878D+04

 Alpha  occ. eigenvalues --  -20.59886 -20.58335 -20.55386 -20.53746 -11.38412
 Alpha  occ. eigenvalues --  -11.30661 -11.30438 -11.29350 -11.27271 -11.26868
 Alpha  occ. eigenvalues --  -11.26010 -11.25755 -11.25462 -11.25312 -11.25028
 Alpha  occ. eigenvalues --  -11.24696 -11.24682 -11.24502 -11.24252 -11.24126
 Alpha  occ. eigenvalues --  -11.24054 -11.23831 -11.23614 -11.22531 -11.22374
 Alpha  occ. eigenvalues --   -1.45164  -1.38991  -1.35637  -1.35552  -1.14146
 Alpha  occ. eigenvalues --   -1.14022  -1.10538  -1.10337  -1.07085  -1.05355
 Alpha  occ. eigenvalues --   -1.03489  -1.00725  -0.97273  -0.95400  -0.94425
 Alpha  occ. eigenvalues --   -0.91086  -0.88897  -0.85316  -0.83750  -0.82298
 Alpha  occ. eigenvalues --   -0.79607  -0.78551  -0.76056  -0.73645  -0.72830
 Alpha  occ. eigenvalues --   -0.71783  -0.70871  -0.68584  -0.67364  -0.66977
 Alpha  occ. eigenvalues --   -0.66143  -0.65299  -0.64380  -0.63615  -0.62669
 Alpha  occ. eigenvalues --   -0.62185  -0.60974  -0.60243  -0.60014  -0.58821
 Alpha  occ. eigenvalues --   -0.58447  -0.57998  -0.57318  -0.56606  -0.56120
 Alpha  occ. eigenvalues --   -0.55307  -0.54079  -0.53758  -0.53356  -0.52933
 Alpha  occ. eigenvalues --   -0.52603  -0.51955  -0.51151  -0.50602  -0.50311
 Alpha  occ. eigenvalues --   -0.49617  -0.49353  -0.48111  -0.47887  -0.47239
 Alpha  occ. eigenvalues --   -0.46891  -0.44785  -0.44313  -0.43730  -0.43576
 Alpha  occ. eigenvalues --   -0.41849  -0.39640  -0.32121  -0.31328
 Alpha virt. eigenvalues --    0.02188   0.03045   0.03351   0.03755   0.03909
 Alpha virt. eigenvalues --    0.04130   0.04469   0.04728   0.05232   0.05578
 Alpha virt. eigenvalues --    0.05691   0.05974   0.06208   0.06718   0.07029

 Mulliken charges:
               1
     1  C    1.094707
     2  C    0.677177
     3  C    0.854830
     4  C    0.499452
     5  C    0.847522
     6  C    0.527060
     7  H   -0.122456
     8  H   -0.239665
     9  H   -0.253635
    10  H   -0.082478
    11  H   -0.073268
    12  H   -0.258879
    13  O   -0.895620
    14  H    0.199540
    15  O   -0.910998
    16  H    0.256081
    17  C    0.820994
    18  C    0.217662
    19  C   -0.908212
    20  C    0.734212
    21  H    0.177513
    22  H    0.206914
    23  H   -0.433297
    24  C    1.269884
    25  C    1.250559
    26  C   -0.835259
    27  H   -0.785949
    28  H   -1.565287
    29  C    0.387313
    30  H   -0.266003
    31  H   -0.196462
    32  C    1.365298
    33  C    1.263547
    34  H   -0.130501
    35  H   -0.009752
    36  H   -0.150638
    37  C    0.556998
    38  H   -0.136570
    39  H   -0.112714
    40  C    0.778211
    41  H   -0.074946
    42  H   -0.135829
    43  H   -0.015237
    44  O   -1.107244
    45  C    0.560141
    46  O   -0.848579
    47  C    0.365409
    48  H   -0.675126
    49  C    0.569379
    50  H   -0.612795
    51  H   -0.545685
    52  H   -0.671002
    53  H   -0.697084
    54  H   -0.879363
    55  H   -0.849870
 Sum of Mulliken charges =  -0.00000

 Dipole moment (field-independent basis, Debye):
    X=              0.8845    Y=              3.1954    Z=              5.3211  Tot=              6.2695
 Unable to Open any file for archive entry.
 1\1\GINC-SE184\SP\RMP2-FC\Aug-CC-pVDZ\C21H30O4\OHZDE\20-Sep-2024\0\\#t
  symm=none mp2 aug-cc-pvdz geom=allcheck guess=(read,tcheck) int=(grid
 =ultrafine)\\title\\0,1\C,0,3.161525,1.527544,-0.579766\C,0,4.134055,1
 .242598,0.586756\C,0,5.253709,0.212544,0.312051\C,0,4.949829,-1.17926,
 0.926437\C,0,3.61384,-1.721091,0.543085\C,0,1.86289,2.079753,-0.055265
 \H,0,4.5849,2.202043,0.853319\H,0,3.56377,0.916371,1.459637\H,0,3.6366
 17,2.252191,-1.245658\H,0,5.752754,-1.847276,0.605406\H,0,5.007245,-1.
 085279,2.015013\H,0,6.160693,0.559087,0.811477\O,0,5.609619,0.127786,-
 1.053436\H,0,4.794767,0.000536,-1.559383\O,0,2.935711,0.396001,-1.4213

 Normal termination of Gaussian 16 at Fri Sep 20 13:42:54 2024.
