 Gaussian 16, Revision C.01,

 ----------------------------------------------------------------------
 #t hf aug-cc-pvdz symm=none int=(grid=ultrafine) guess=(read,tcheck) s
 table=opt
 ----------------------------------------------------------------------
 -----
 title
 -----
 Symbolic Z-matrix:
 Charge =  0 Multiplicity = 2

 SCF Done:  E(UHF) =  -2205.48188782     A.U. after   18 cycles
 Normal termination of Gaussian 16 at Sat Sep 21 01:41:39 2024.
 Gaussian 16:  ES64L-G16RevC.01  3-Jul-2019

 ----------------------------------------------------------------------
 #t symm=none mp2 aug-cc-pvdz geom=allcheck guess=(read,tcheck) int=(gr
 id=ultrafine)
 ----------------------------------------------------------------------
 Structure from the checkpoint file:  "06_33TS.chk"
 -----
 title
 -----
 Charge =  0 Multiplicity = 2

                          Input orientation:
 ---------------------------------------------------------------------
 Center     Atomic      Atomic             Coordinates (Angstroms)
 Number     Number       Type             X           Y           Z
 ---------------------------------------------------------------------
      1         14           0        0.593541    0.073766    0.009590
      2         14           0        1.684500   -1.381940   -1.468667
      3         14           0        1.259569   -0.279522    2.225814
      4         14           0        0.895663    2.303306   -0.649017
      5          6           0        0.647963    2.471429   -2.510743
      6          1           0        0.768731    3.512589   -2.823460
      7          1           0        1.373818    1.872507   -3.065301
      8          1           0       -0.349670    2.146542   -2.815335
      9          6           0       -0.300475    3.472793    0.221525
     10          1           0       -0.238532    3.377340    1.307624
     11          1           0       -0.063613    4.509465   -0.035390
     12          1           0       -1.336380    3.289817   -0.069711
     13          6           0        2.649938    2.846504   -0.220443
     14          1           0        3.397425    2.186671   -0.665646
     15          1           0        2.838305    3.860748   -0.584417
     16          1           0        2.809983    2.848351    0.860393
     17          6           0        0.569814    1.077373    3.339053
     18          1           0        0.838168    0.893973    4.383401
     19          1           0        0.963179    2.058715    3.063761
     20          1           0       -0.520145    1.127555    3.279707
     21          6           0        0.636209   -1.946506    2.839068
     22          1           0        1.036592   -2.765420    2.238456
     23          1           0        0.939510   -2.110479    3.877291
     24          1           0       -0.452360   -2.014077    2.791970
     25          6           0        3.141802   -0.259818    2.340491
     26          1           0        3.557170    0.687226    1.989239
     27          1           0        3.468569   -0.405831    3.374167
     28          1           0        3.582597   -1.058050    1.738410
     29          6           0        1.922018   -3.076722   -0.684716
     30          1           0        2.378006   -3.768438   -1.398941
     31          1           0        2.574870   -3.025871    0.189776
     32          1           0        0.966706   -3.499670   -0.368224
     33          6           0        0.655775   -1.571278   -3.034788
     34          1           0        0.451831   -0.604977   -3.501844
     35          1           0        1.174853   -2.195038   -3.768230
     36          1           0       -0.301194   -2.046953   -2.809231
     37          6           0        3.380868   -0.692378   -1.923551
     38          1           0        3.912294   -1.385168   -2.582532
     39          1           0        3.302813    0.264683   -2.444296
     40          1           0        3.998838   -0.538160   -1.035692
     41          1           0       -0.968623   -0.334178   -0.061846
     42          6           0       -2.422452   -0.977154   -0.089286
     43          6           0       -3.032077   -0.524899    1.202569
     44         17           0       -2.064551   -2.709973   -0.131683
     45          6           0       -3.023926   -0.460494   -1.360704
     46          6           0       -3.212510    0.994593    1.218664
     47          6           0       -3.944230    1.485725   -0.028643
     48          6           0       -3.214699    1.056933   -1.299967
     49          1           0       -2.412081   -0.850023    2.041240
     50          1           0       -4.008807   -1.014769    1.327530
     51          1           0       -3.996815   -0.948724   -1.518330
     52          1           0       -2.394526   -0.737130   -2.209797
     53          1           0       -2.230208    1.472215    1.272811
     54          1           0       -3.754378    1.286111    2.121486
     55          1           0       -4.043049    2.574034   -0.001580
     56          1           0       -4.962302    1.078833   -0.037898
     57          1           0       -2.234776    1.540404   -1.333489
     58          1           0       -3.759363    1.389570   -2.186718
 ---------------------------------------------------------------------

 SCF Done:  E(UHF) =  -2205.48188782     A.U. after    1 cycles
 E2 =    -0.2863108728D+01 EUMP2 =    -0.22083449965436D+04

 Alpha  occ. eigenvalues -- -104.82230 -68.75865 -68.75570 -68.75392 -68.72812
 Alpha  occ. eigenvalues --  -11.30240 -11.23813 -11.23772 -11.23306 -11.23237
 Alpha  occ. eigenvalues --  -11.23090 -11.20499 -11.20463 -11.20400 -11.20385
 Alpha  occ. eigenvalues --  -11.20237 -11.20144 -11.19840 -11.19819 -11.19711
 Alpha  occ. eigenvalues --  -10.54831  -8.01526  -8.01341  -8.01300  -6.10589
 Alpha  occ. eigenvalues --   -6.10306  -6.10121  -6.08121  -4.21195  -4.21193
 Alpha  occ. eigenvalues --   -4.21180  -4.20911  -4.20907  -4.20900  -4.20725
 Alpha  occ. eigenvalues --   -4.20722  -4.20716  -4.18983  -4.18529  -4.18525
 Alpha  occ. eigenvalues --   -1.17266  -1.09592  -1.02414  -0.98822  -0.96981
 Alpha  occ. eigenvalues --   -0.96358  -0.96081  -0.92502  -0.92434  -0.92154
 Alpha  occ. eigenvalues --   -0.91970  -0.91868  -0.91604  -0.85489  -0.82404
 Alpha  occ. eigenvalues --   -0.76369  -0.71514  -0.66207  -0.62742  -0.62603
 Alpha  occ. eigenvalues --   -0.62297  -0.61943  -0.61488  -0.58849  -0.57262
 Alpha  occ. eigenvalues --   -0.57101  -0.56576  -0.56478  -0.56097  -0.55982
 Alpha  occ. eigenvalues --   -0.55459  -0.55377  -0.55322  -0.54549  -0.54321
 Alpha  occ. eigenvalues --   -0.54256  -0.53984  -0.53853  -0.53605  -0.53441
 Alpha  occ. eigenvalues --   -0.53263  -0.52958  -0.52787  -0.52392  -0.52349
 Alpha  occ. eigenvalues --   -0.49822  -0.49488  -0.46480  -0.46114  -0.44971
 Alpha  occ. eigenvalues --   -0.43814  -0.43122  -0.42881  -0.42813  -0.42507
 Alpha  occ. eigenvalues --   -0.42216  -0.41975  -0.41373  -0.33995  -0.33787
 Alpha  occ. eigenvalues --   -0.27949
 Alpha virt. eigenvalues --    0.02747   0.03384   0.03398   0.03672   0.04495
 Alpha virt. eigenvalues --    0.04668   0.04874   0.05005   0.05190   0.06275
 Alpha virt. eigenvalues --    0.06313   0.06466   0.06549   0.06642   0.07109

  Beta  occ. eigenvalues -- -104.82246 -68.75870 -68.75579 -68.75401 -68.72548
  Beta  occ. eigenvalues --  -11.27703 -11.24012 -11.23970 -11.23284 -11.23216
  Beta  occ. eigenvalues --  -11.23096 -11.20502 -11.20467 -11.20388 -11.20368
  Beta  occ. eigenvalues --  -11.20210 -11.20119 -11.19841 -11.19820 -11.19713
  Beta  occ. eigenvalues --  -10.54847  -8.01694  -8.01309  -8.01249  -6.10597
  Beta  occ. eigenvalues --   -6.10318  -6.10134  -6.07734  -4.21205  -4.21196
  Beta  occ. eigenvalues --   -4.21194  -4.20933  -4.20917  -4.20910  -4.20749
  Beta  occ. eigenvalues --   -4.20731  -4.20726  -4.18337  -4.18332  -4.17950
  Beta  occ. eigenvalues --   -1.15130  -1.09444  -1.02397  -0.97771  -0.96933
  Beta  occ. eigenvalues --   -0.96334  -0.96059  -0.92487  -0.92404  -0.92140
  Beta  occ. eigenvalues --   -0.91928  -0.91837  -0.91604  -0.85333  -0.80922
  Beta  occ. eigenvalues --   -0.73305  -0.69977  -0.65393  -0.62590  -0.62285
  Beta  occ. eigenvalues --   -0.61561  -0.61426  -0.59555  -0.58398  -0.57237
  Beta  occ. eigenvalues --   -0.57040  -0.56495  -0.56168  -0.55996  -0.55827
  Beta  occ. eigenvalues --   -0.55359  -0.55316  -0.55218  -0.54316  -0.54270
  Beta  occ. eigenvalues --   -0.53887  -0.53738  -0.53642  -0.53401  -0.53251
  Beta  occ. eigenvalues --   -0.53114  -0.52891  -0.52766  -0.52374  -0.52331
  Beta  occ. eigenvalues --   -0.49395  -0.47903  -0.45964  -0.45827  -0.44769
  Beta  occ. eigenvalues --   -0.43329  -0.43115  -0.42836  -0.42648  -0.42358
  Beta  occ. eigenvalues --   -0.42110  -0.41966  -0.39845  -0.33729  -0.33546
  Beta virt. eigenvalues --    0.02727   0.03386   0.03398   0.03657   0.04498
  Beta virt. eigenvalues --    0.04617   0.04777   0.04997   0.05166   0.06277
  Beta virt. eigenvalues --    0.06312   0.06419   0.06546   0.06649   0.07100

 Mulliken charges and spin densities:
               1          2
     1  Si   1.748655   0.492800
     2  Si   0.019407  -0.003294
     3  Si   0.734417  -0.006546
     4  Si   0.503499  -0.004188
     5  C    1.097698  -0.005425
     6  H   -0.496643  -0.000311
     7  H   -0.499285   0.002333
     8  H   -0.460640   0.000691
     9  C    1.193326  -0.006586
    10  H   -0.504745   0.001695
    11  H   -0.506411   0.000002
    12  H   -0.612722  -0.000456
    13  C    0.975429   0.008361
    14  H   -0.483166  -0.006770
    15  H   -0.530044   0.004290
    16  H   -0.444539  -0.002175
    17  C    0.996759  -0.004387
    18  H   -0.495014  -0.000879
    19  H   -0.481167   0.003805
    20  H   -0.455853   0.000144
    21  C    1.089511  -0.004755
    22  H   -0.452787   0.003009
    23  H   -0.460581  -0.000986
    24  H   -0.559731  -0.001726
    25  C    1.003420   0.009924
    26  H   -0.478621  -0.004909
    27  H   -0.504936   0.003746
    28  H   -0.456060  -0.002225
    29  C    1.029603  -0.001425
    30  H   -0.523804  -0.000683
    31  H   -0.477577   0.003065
    32  H   -0.349327   0.001737
    33  C    1.107051  -0.004356
    34  H   -0.427250   0.001520
    35  H   -0.521325  -0.000351
    36  H   -0.465692  -0.002090
    37  C    1.068770   0.011122
    38  H   -0.500926   0.003221
    39  H   -0.468525  -0.000693
    40  H   -0.400685  -0.005182
    41  H    0.611535  -0.458778
    42  C   -0.174423   1.261554
    43  C    0.563046  -0.182382
    44  Cl  -0.382936  -0.022917
    45  C    0.617199  -0.199901
    46  C    0.226192   0.024574
    47  C    0.640855  -0.020015
    48  C    0.322240   0.029840
    49  H   -0.208602   0.007650
    50  H   -0.142048   0.037207
    51  H   -0.138471   0.035641
    52  H   -0.199611   0.008251
    53  H   -0.305077   0.001574
    54  H   -0.189787  -0.000142
    55  H   -0.148898  -0.000553
    56  H   -0.176656   0.000274
    57  H   -0.270219  -0.002586
    58  H   -0.193832  -0.000356
 Sum of Mulliken charges =  -0.00000   1.00000

 Dipole moment (field-independent basis, Debye):
    X=             -0.7704    Y=              1.9468    Z=              0.0610  Tot=              2.0946
 Unable to Open any file for archive entry.
 1\1\GINC-SE399\SP\UMP2-FC\Aug-CC-pVDZ\C15H38Cl1Si4\OHZDE\21-Sep-2024\0
 \\#t symm=none mp2 aug-cc-pvdz geom=allcheck guess=(read,tcheck) int=(
 grid=ultrafine)\\title\\0,2\Si,0,0.593541,0.073766,0.00959\Si,0,1.6845
 ,-1.38194,-1.468667\Si,0,1.259569,-0.279522,2.225814\Si,0,0.895663,2.3
 03306,-0.649017\C,0,0.647963,2.471429,-2.510743\H,0,0.768731,3.512589,
 -2.82346\H,0,1.373818,1.872507,-3.065301\H,0,-0.34967,2.146542,-2.8153
 35\C,0,-0.300475,3.472793,0.221525\H,0,-0.238532,3.37734,1.307624\H,0,
 -0.063613,4.509465,-0.03539\H,0,-1.33638,3.289817,-0.069711\C,0,2.6499
 38,2.846504,-0.220443\H,0,3.397425,2.186671,-0.665646\H,0,2.838305,3.8

 Normal termination of Gaussian 16 at Sat Sep 21 06:15:19 2024.
