 Gaussian 16, Revision C.01,

 ----------------------------------------------------------------------
 #t hf aug-cc-pvdz symm=none int=(grid=ultrafine) guess=(read,tcheck) s
 table=(opt,rrhf)
 ----------------------------------------------------------------------
 -----
 title
 -----
 Symbolic Z-matrix:
 Charge =  1 Multiplicity = 1

 SCF Done:  E(RHF) =  -1184.68842124     A.U. after   20 cycles
 Normal termination of Gaussian 16 at Fri Sep 20 22:54:23 2024.
 Gaussian 16:  ES64L-G16RevC.01  3-Jul-2019

 ----------------------------------------------------------------------
 #t symm=none mp2 aug-cc-pvdz geom=allcheck guess=(read,tcheck) int=(gr
 id=ultrafine)
 ----------------------------------------------------------------------
 Structure from the checkpoint file:  "05_25TS.chk"
 -----
 title
 -----
 Charge =  1 Multiplicity = 1

                          Input orientation:
 ---------------------------------------------------------------------
 Center     Atomic      Atomic             Coordinates (Angstroms)
 Number     Number       Type             X           Y           Z
 ---------------------------------------------------------------------
      1          6           0        2.127314    1.280893    0.551273
      2          6           0        0.727612   -0.772022   -0.335036
      3          6           0        2.108723   -1.433669   -0.386438
      4          6           0        3.144769   -0.557197   -1.081725
      5          6           0        3.116111    0.905990   -0.574165
      6          1           0        2.436785   -1.666471    0.625811
      7          1           0        2.013385   -2.378270   -0.925241
      8          1           0        2.885673   -0.530399   -2.140089
      9          1           0        4.107227    1.176410   -0.213409
     10          1           0        2.914564    1.553789   -1.429928
     11          7           0        0.881049    0.469235    0.456690
     12          8           0       -0.093454    0.836337    1.191607
     13          6           0        2.711348    1.056059    1.952138
     14          1           0        3.071082    0.038935    2.079975
     15          1           0        3.564777    1.721613    2.092594
     16          1           0        1.961512    1.290663    2.708436
     17          6           0        1.751491    2.753951    0.385567
     18          1           0        1.250743    2.923359   -0.569470
     19          1           0        1.116153    3.097876    1.201941
     20          1           0        2.662866    3.352302    0.400005
     21          6           0       -0.258378   -1.701746    0.365171
     22          1           0        0.069370   -1.924751    1.380989
     23          1           0       -1.260475   -1.279294    0.409173
     24          1           0       -0.308501   -2.636331   -0.194393
     25          6           0        0.206192   -0.406665   -1.734668
     26          1           0       -0.801500    0.000199   -1.667828
     27          1           0        0.833812    0.332970   -2.231724
     28          1           0        0.172610   -1.304073   -2.355517
     29          6           0       -2.032084    2.114495    0.160844
     30          1           0       -2.085411    2.859233    0.959910
     31          1           0       -0.920749    1.484183    0.663334
     32          6           0       -2.961824    1.013213    0.208595
     33          6           0       -3.418017    0.381786   -0.954258
     34          6           0       -3.368009    0.512763    1.461628
     35          6           0       -4.260511   -0.708138   -0.882109
     36          1           0       -3.123938    0.772636   -1.919471
     37          6           0       -4.197899   -0.573239    1.542583
     38          1           0       -3.019191    0.988941    2.370945
     39          6           0       -4.651894   -1.199053    0.370152
     40          1           0       -4.618084   -1.166547   -1.792475
     41          1           0       -4.525069   -0.968459    2.494981
     42          8           0       -1.667821    2.573426   -1.044342
     43          6           0       -1.355534    3.969825   -1.137240
     44          1           0       -0.694402    4.272476   -0.324213
     45          1           0       -2.278950    4.550067   -1.108120
     46          1           0       -0.859129    4.112519   -2.092936
     47          8           0       -5.457231   -2.245335    0.549600
     48          6           0       -5.984559   -2.933061   -0.581152
     49          1           0       -5.181504   -3.363110   -1.183809
     50          1           0       -6.603177   -3.729019   -0.177351
     51          1           0       -6.598114   -2.265422   -1.189765
     52          7           0        4.473702   -1.155446   -1.062740
     53          6           0        5.176937   -1.420714    0.072741
     54          6           0        6.538759   -2.036331   -0.115720
     55          1           0        6.562781   -2.991752    0.409109
     56          1           0        6.807834   -2.194115   -1.160117
     57          1           0        7.280277   -1.388341    0.352306
     58          8           0        4.725956   -1.170339    1.176485
     59          1           0        4.900603   -1.373890   -1.947176
 ---------------------------------------------------------------------

 SCF Done:  E(RHF) =  -1184.68842124     A.U. after    2 cycles
 E2 =    -0.4084541049D+01 EUMP2 =    -0.11887729622924D+04

 Alpha  occ. eigenvalues --  -20.79771 -20.74989 -20.71186 -20.61049 -15.78436
 Alpha  occ. eigenvalues --  -15.68193 -11.48648 -11.44236 -11.44181 -11.41922
 Alpha  occ. eigenvalues --  -11.39775 -11.39483 -11.39054 -11.38099 -11.38044
 Alpha  occ. eigenvalues --  -11.37893 -11.37385 -11.35659 -11.35172 -11.33624
 Alpha  occ. eigenvalues --  -11.33507 -11.33333 -11.33052 -11.32525 -11.31804
 Alpha  occ. eigenvalues --  -11.30516  -1.62753  -1.57096  -1.53969  -1.47467
 Alpha  occ. eigenvalues --   -1.33234  -1.29677  -1.28959  -1.21587  -1.19202
 Alpha  occ. eigenvalues --   -1.15596  -1.15252  -1.11144  -1.10224  -1.07395
 Alpha  occ. eigenvalues --   -1.06213  -1.05648  -1.04204  -1.03937  -1.02118
 Alpha  occ. eigenvalues --   -0.95989  -0.95874  -0.93252  -0.92842  -0.89644
 Alpha  occ. eigenvalues --   -0.86286  -0.85341  -0.83210  -0.82071  -0.81653
 Alpha  occ. eigenvalues --   -0.80824  -0.78993  -0.78656  -0.78065  -0.77166
 Alpha  occ. eigenvalues --   -0.76470  -0.75113  -0.74219  -0.72633  -0.72261
 Alpha  occ. eigenvalues --   -0.71653  -0.71079  -0.70360  -0.69622  -0.69178
 Alpha  occ. eigenvalues --   -0.68836  -0.68515  -0.67217  -0.66708  -0.66263
 Alpha  occ. eigenvalues --   -0.66011  -0.65642  -0.64913  -0.64650  -0.63945
 Alpha  occ. eigenvalues --   -0.63589  -0.63495  -0.63154  -0.62718  -0.62387
 Alpha  occ. eigenvalues --   -0.60966  -0.59826  -0.59679  -0.59253  -0.58999
 Alpha  occ. eigenvalues --   -0.58000  -0.57518  -0.56721  -0.55466  -0.50392
 Alpha  occ. eigenvalues --   -0.48288  -0.47932  -0.46924  -0.40267
 Alpha virt. eigenvalues --   -0.13692  -0.05329  -0.04723  -0.04158  -0.03888
 Alpha virt. eigenvalues --   -0.03085  -0.02856  -0.02633  -0.02559  -0.02158
 Alpha virt. eigenvalues --   -0.01340  -0.01108  -0.01042  -0.00936  -0.00753

 Mulliken charges:
               1
     1  C   -3.110396
     2  C   -2.853014
     3  C    0.874628
     4  C    0.275034
     5  C    0.840996
     6  H   -0.180823
     7  H   -0.207216
     8  H   -0.279914
     9  H   -0.242970
    10  H   -0.153504
    11  N    1.054741
    12  O   -1.299877
    13  C    1.486442
    14  H   -0.022804
    15  H   -0.032881
    16  H   -0.028494
    17  C    1.541801
    18  H   -0.055457
    19  H   -0.085046
    20  H   -0.050290
    21  C    1.545427
    22  H    0.012473
    23  H   -0.257534
    24  H    0.022991
    25  C    1.720774
    26  H   -0.402430
    27  H   -0.065019
    28  H   -0.035210
    29  C    1.027745
    30  H   -0.134729
    31  H    0.383166
    32  C    0.541880
    33  C    0.523888
    34  C    0.662815
    35  C    0.283336
    36  H   -0.702575
    37  C    0.522245
    38  H   -0.768722
    39  C    1.116551
    40  H   -0.813801
    41  H   -0.623662
    42  O   -1.004165
    43  C    1.082743
    44  H   -0.025952
    45  H   -0.166455
    46  H   -0.220874
    47  O   -1.073274
    48  C    0.963865
    49  H   -0.073451
    50  H   -0.303033
    51  H   -0.054290
    52  N    0.025404
    53  C    0.223063
    54  C    0.640578
    55  H    0.042401
    56  H   -0.161761
    57  H    0.044253
    58  O   -0.846982
    59  H   -0.122634
 Sum of Mulliken charges =   1.00000

 Dipole moment (field-independent basis, Debye):
    X=             -3.3521    Y=              2.6849    Z=             -4.8666  Tot=              6.4907
 Unable to Open any file for archive entry.
 1\1\GINC-SE162\SP\RMP2-FC\Aug-CC-pVDZ\C20H33N2O4\OHZDE\21-Sep-2024\0\\
 #t symm=none mp2 aug-cc-pvdz geom=allcheck guess=(read,tcheck) int=(gr
 id=ultrafine)\\title\\1,1\C,0,2.127314,1.280893,0.551273\C,0,0.727612,
 -0.772022,-0.335036\C,0,2.108723,-1.433669,-0.386438\C,0,3.144769,-0.5
 57197,-1.081725\C,0,3.116111,0.90599,-0.574165\H,0,2.436785,-1.666471,
 0.625811\H,0,2.013385,-2.37827,-0.925241\H,0,2.885673,-0.530399,-2.140
 089\H,0,4.107227,1.17641,-0.213409\H,0,2.914564,1.553789,-1.429928\N,0
 ,0.881049,0.469235,0.45669\O,0,-0.093454,0.836337,1.191607\C,0,2.71134
 8,1.056059,1.952138\H,0,3.071082,0.038935,2.079975\H,0,3.564777,1.7216

 Normal termination of Gaussian 16 at Sat Sep 21 06:04:45 2024.
