 Gaussian 16, Revision C.01,

 ----------------------------------------------------------------------
 #t hf aug-cc-pvdz symm=none int=(grid=ultrafine) guess=(read,tcheck) s
 table=opt
 ----------------------------------------------------------------------
 -----
 title
 -----
 Symbolic Z-matrix:
 Charge =  0 Multiplicity = 2

 SCF Done:  E(UHF) =  -1806.41024702     A.U. after   18 cycles
 Normal termination of Gaussian 16 at Sat Sep 21 01:02:35 2024.
 Gaussian 16:  ES64L-G16RevC.01  3-Jul-2019

 ----------------------------------------------------------------------
 #t symm=none mp2 aug-cc-pvdz geom=allcheck guess=(read,tcheck) int=(gr
 id=ultrafine)
 ----------------------------------------------------------------------
 Structure from the checkpoint file:  "06_32P.chk"
 -----
 title
 -----
 Charge =  0 Multiplicity = 2

                          Input orientation:
 ---------------------------------------------------------------------
 Center     Atomic      Atomic             Coordinates (Angstroms)
 Number     Number       Type             X           Y           Z
 ---------------------------------------------------------------------
      1          6           0        0.997667   -0.203641   -1.566773
      2          6           0        2.370922   -0.276744   -1.014786
      3          9           0        2.639817   -1.477058   -0.401432
      4         14           0       -0.303791    0.011911   -0.147047
      5         14           0        0.028332    2.120006    0.839169
      6         14           0       -0.118639   -1.653094    1.503288
      7         14           0       -2.462150   -0.039737   -1.082438
      8          6           0       -0.567230    3.487145   -0.317913
      9          1           0       -0.364709    4.471730    0.113388
     10          1           0       -0.062783    3.441231   -1.286471
     11          1           0       -1.641919    3.420890   -0.501193
     12          6           0       -0.938243    2.236092    2.453624
     13          1           0       -0.837650    3.235558    2.886321
     14          1           0       -2.002653    2.042881    2.306146
     15          1           0       -0.569063    1.519350    3.190594
     16          6           0        1.849336    2.426327    1.212912
     17          1           0        1.973556    3.375979    1.741890
     18          1           0        2.270636    1.634669    1.835510
     19          1           0        2.440505    2.475050    0.296399
     20          6           0       -1.702654   -1.637888    2.530710
     21          1           0       -2.575269   -1.910350    1.932796
     22          1           0       -1.627643   -2.358483    3.350256
     23          1           0       -1.892900   -0.656222    2.969937
     24          6           0        0.084713   -3.365084    0.747323
     25          1           0        1.029839   -3.438279    0.206704
     26          1           0        0.084457   -4.128726    1.530632
     27          1           0       -0.725839   -3.599727    0.053577
     28          6           0        1.333721   -1.308682    2.651075
     29          1           0        2.271270   -1.283731    2.093364
     30          1           0        1.219312   -0.353658    3.169121
     31          1           0        1.413314   -2.090306    3.412247
     32          6           0       -3.023186   -1.806677   -1.429786
     33          1           0       -3.073037   -2.395225   -0.510870
     34          1           0       -4.020073   -1.810943   -1.880079
     35          1           0       -2.346220   -2.321707   -2.114481
     36          6           0       -3.699922    0.744687    0.104341
     37          1           0       -4.711699    0.680505   -0.306221
     38          1           0       -3.702855    0.243189    1.074362
     39          1           0       -3.480225    1.800720    0.275677
     40          6           0       -2.492819    0.935307   -2.697577
     41          1           0       -3.497647    0.929699   -3.129787
     42          1           0       -2.205759    1.976976   -2.537750
     43          1           0       -1.812292    0.515206   -3.441654
     44          6           0        0.687207   -1.387384   -2.504916
     45          1           0        1.439578   -1.471517   -3.294180
     46          1           0        0.671658   -2.330020   -1.957817
     47          1           0       -0.283976   -1.262081   -2.984986
     48          6           0        3.581469    0.343330   -1.612529
     49          6           0        4.769832    0.419351   -0.655763
     50          1           0        3.305744    1.342895   -1.959347
     51          1           0        3.876459   -0.220409   -2.513255
     52          1           0        5.633688    0.868478   -1.148912
     53          1           0        4.525531    1.019792    0.222261
     54          1           0        5.054539   -0.575879   -0.313123
     55          1           0        0.948378    0.721944   -2.149416
 ---------------------------------------------------------------------

 SCF Done:  E(UHF) =  -1806.41024702     A.U. after    2 cycles
 E2 =    -0.2748926350D+01 EUMP2 =    -0.18091591733653D+04

 Alpha  occ. eigenvalues --  -68.75572 -68.75486 -68.75131 -68.73329 -26.30189
 Alpha  occ. eigenvalues --  -11.31013 -11.23849 -11.22853 -11.22763 -11.22279
 Alpha  occ. eigenvalues --  -11.20452 -11.20387 -11.20323 -11.20297 -11.20252
 Alpha  occ. eigenvalues --  -11.20158 -11.19942 -11.19532 -11.19501  -6.10326
 Alpha  occ. eigenvalues --   -6.10246  -6.09872  -6.08491  -4.20930  -4.20925
 Alpha  occ. eigenvalues --   -4.20922  -4.20852  -4.20847  -4.20837  -4.20477
 Alpha  occ. eigenvalues --   -4.20472  -4.20467  -4.19064  -4.19009  -4.19002
 Alpha  occ. eigenvalues --   -1.60969  -1.09568  -1.03269  -0.96955  -0.96379
 Alpha  occ. eigenvalues --   -0.95920  -0.93445  -0.92465  -0.92338  -0.92156
 Alpha  occ. eigenvalues --   -0.92030  -0.91660  -0.91455  -0.85279  -0.79433
 Alpha  occ. eigenvalues --   -0.71646  -0.69924  -0.69609  -0.64581  -0.62630
 Alpha  occ. eigenvalues --   -0.62181  -0.60926  -0.59720  -0.58240  -0.57910
 Alpha  occ. eigenvalues --   -0.57272  -0.57254  -0.56538  -0.56294  -0.55896
 Alpha  occ. eigenvalues --   -0.55413  -0.55164  -0.54960  -0.54595  -0.53949
 Alpha  occ. eigenvalues --   -0.53801  -0.53625  -0.53409  -0.53143  -0.53066
 Alpha  occ. eigenvalues --   -0.52851  -0.52679  -0.52525  -0.52169  -0.51679
 Alpha  occ. eigenvalues --   -0.50525  -0.49635  -0.49176  -0.43470  -0.43026
 Alpha  occ. eigenvalues --   -0.42718  -0.42414  -0.42009  -0.41868  -0.40082
 Alpha  occ. eigenvalues --   -0.33708  -0.33300  -0.31899
 Alpha virt. eigenvalues --    0.02806   0.03394   0.03450   0.03596   0.04600
 Alpha virt. eigenvalues --    0.04834   0.04986   0.05052   0.05302   0.06307
 Alpha virt. eigenvalues --    0.06512   0.06630   0.06762   0.06925   0.07122

  Beta  occ. eigenvalues --  -68.75566 -68.75488 -68.75132 -68.73292 -26.29866
  Beta  occ. eigenvalues --  -11.28303 -11.24098 -11.23074 -11.22565 -11.22204
  Beta  occ. eigenvalues --  -11.20451 -11.20389 -11.20319 -11.20297 -11.20253
  Beta  occ. eigenvalues --  -11.20151 -11.19941 -11.19532 -11.19503  -6.10316
  Beta  occ. eigenvalues --   -6.10249  -6.09874  -6.08433  -4.20923  -4.20918
  Beta  occ. eigenvalues --   -4.20902  -4.20853  -4.20848  -4.20844  -4.20478
  Beta  occ. eigenvalues --   -4.20477  -4.20468  -4.18988  -4.18973  -4.18941
  Beta  occ. eigenvalues --   -1.59871  -1.07178  -1.02980  -0.96935  -0.96360
  Beta  occ. eigenvalues --   -0.95918  -0.92478  -0.92330  -0.92153  -0.92043
  Beta  occ. eigenvalues --   -0.91689  -0.91481  -0.90992  -0.84924  -0.78029
  Beta  occ. eigenvalues --   -0.70522  -0.69473  -0.65264  -0.62984  -0.62501
  Beta  occ. eigenvalues --   -0.62133  -0.60223  -0.59592  -0.58158  -0.57729
  Beta  occ. eigenvalues --   -0.57252  -0.57225  -0.56272  -0.56221  -0.55792
  Beta  occ. eigenvalues --   -0.55287  -0.55147  -0.54904  -0.54183  -0.53862
  Beta  occ. eigenvalues --   -0.53751  -0.53454  -0.53325  -0.53129  -0.52853
  Beta  occ. eigenvalues --   -0.52673  -0.52522  -0.52301  -0.52143  -0.50967
  Beta  occ. eigenvalues --   -0.50243  -0.49261  -0.48368  -0.43345  -0.43015
  Beta  occ. eigenvalues --   -0.42713  -0.42398  -0.41985  -0.41866  -0.38281
  Beta  occ. eigenvalues --   -0.33413  -0.33258
  Beta virt. eigenvalues --    0.02800   0.03386   0.03453   0.03592   0.04578
  Beta virt. eigenvalues --    0.04833   0.04989   0.05051   0.05300   0.06308
  Beta virt. eigenvalues --    0.06506   0.06630   0.06746   0.06908   0.07122

 Mulliken charges and spin densities:
               1          2
     1  C    0.304116  -0.144676
     2  C    0.041090   1.241977
     3  F   -0.958217   0.021577
     4  Si   3.073835  -0.005706
     5  Si   0.044947   0.004406
     6  Si   0.195820   0.011142
     7  Si   0.103239   0.025525
     8  C    1.080964  -0.000703
     9  H   -0.553339  -0.000195
    10  H   -0.404758  -0.000219
    11  H   -0.453003   0.000148
    12  C    1.220305  -0.000384
    13  H   -0.490935  -0.000189
    14  H   -0.474998  -0.000143
    15  H   -0.463103  -0.000059
    16  C    1.166677   0.004783
    17  H   -0.523434   0.002320
    18  H   -0.523319  -0.000902
    19  H   -0.515259  -0.007175
    20  C    1.133175   0.000076
    21  H   -0.501055  -0.000270
    22  H   -0.545974   0.000485
    23  H   -0.438912   0.000166
    24  C    1.059968  -0.001977
    25  H   -0.388058  -0.001611
    26  H   -0.570438   0.000085
    27  H   -0.423703  -0.000197
    28  C    1.156964   0.004320
    29  H   -0.432743  -0.003384
    30  H   -0.504922   0.002482
    31  H   -0.505780   0.001155
    32  C    1.091637  -0.001224
    33  H   -0.471490  -0.000070
    34  H   -0.527263   0.000131
    35  H   -0.445321   0.000129
    36  C    1.158071   0.002582
    37  H   -0.566861   0.000788
    38  H   -0.439864  -0.000299
    39  H   -0.475649  -0.000358
    40  C    1.067017  -0.003064
    41  H   -0.521668  -0.000182
    42  H   -0.458106   0.000342
    43  H   -0.453432   0.000059
    44  C    1.100968   0.046316
    45  H   -0.214421  -0.007073
    46  H   -0.168288  -0.006972
    47  H   -0.305635   0.000026
    48  C    0.146715  -0.253520
    49  C    0.659592   0.033434
    50  H   -0.152803  -0.002091
    51  H   -0.042248   0.051863
    52  H   -0.102278  -0.002949
    53  H   -0.146867   0.009978
    54  H   -0.067407  -0.003004
    55  H   -0.573548  -0.017704
 Sum of Mulliken charges =  -0.00000   1.00000

 Dipole moment (field-independent basis, Debye):
    X=             -0.0420    Y=              1.1159    Z=             -1.0950  Tot=              1.5640
 Unable to Open any file for archive entry.
 1\1\GINC-SE423\SP\UMP2-FC\Aug-CC-pVDZ\C14H36F1Si4\OHZDE\21-Sep-2024\0\
 \#t symm=none mp2 aug-cc-pvdz geom=allcheck guess=(read,tcheck) int=(g
 rid=ultrafine)\\title\\0,2\C,0,0.997667,-0.203641,-1.566773\C,0,2.3709
 22,-0.276744,-1.014786\F,0,2.639817,-1.477058,-0.401432\Si,0,-0.303791
 ,0.011911,-0.147047\Si,0,0.028332,2.120006,0.839169\Si,0,-0.118639,-1.
 653094,1.503288\Si,0,-2.46215,-0.039737,-1.082438\C,0,-0.56723,3.48714
 5,-0.317913\H,0,-0.364709,4.47173,0.113388\H,0,-0.062783,3.441231,-1.2
 86471\H,0,-1.641919,3.42089,-0.501193\C,0,-0.938243,2.236092,2.453624\
 H,0,-0.83765,3.235558,2.886321\H,0,-2.002653,2.042881,2.306146\H,0,-0.

 Normal termination of Gaussian 16 at Sat Sep 21 06:33:19 2024.
