 Gaussian 16, Revision C.01,

 ----------------------------------------------------------------------
 #t hf aug-cc-pvdz symm=none int=(grid=ultrafine) guess=(read,tcheck) s
 table=(opt,rrhf)
 ----------------------------------------------------------------------
 -----
 title
 -----
 Symbolic Z-matrix:
 Charge =  0 Multiplicity = 1

 SCF Done:  E(RHF) =  -1094.47551053     A.U. after   16 cycles
 Normal termination of Gaussian 16 at Fri Sep 20 11:50:59 2024.
 Gaussian 16:  ES64L-G16RevC.01  3-Jul-2019

 ----------------------------------------------------------------------
 #t symm=none mp2 aug-cc-pvdz geom=allcheck guess=(read,tcheck) int=(gr
 id=ultrafine)
 ----------------------------------------------------------------------
 Structure from the checkpoint file:  "02_20P.chk"
 -----
 title
 -----
 Charge =  0 Multiplicity = 1

                          Input orientation:
 ---------------------------------------------------------------------
 Center     Atomic      Atomic             Coordinates (Angstroms)
 Number     Number       Type             X           Y           Z
 ---------------------------------------------------------------------
      1          6           0       -0.043125    0.601643    0.018299
      2          6           0       -1.179200    1.533868    0.508753
      3          6           0       -0.406586   -0.900475   -0.113364
      4          6           0        1.225835    0.802716    0.823465
      5          6           0       -2.454956    0.826188    0.925674
      6          6           0       -1.413235    2.666231   -0.478755
      7          6           0       -2.488319   -0.477850    1.176473
      8          6           0       -1.295367   -1.391406    1.048770
      9          6           0       -1.744057   -2.839661    0.789043
     10          6           0       -0.521910   -1.381344    2.378132
     11          6           0       -1.045701   -1.163581   -1.481184
     12          1           0        0.385188   -1.989709    2.301699
     13          1           0       -0.240653   -0.374178    2.682021
     14          1           0       -1.140205   -1.803222    3.174546
     15          6           0       -2.400556   -3.074669   -0.567331
     16          1           0       -2.424172   -3.141008    1.593745
     17          1           0       -0.866570   -3.494769    0.866897
     18          6           0       -1.447263   -2.619739   -1.668155
     19          1           0       -1.933764   -0.536614   -1.589666
     20          1           0       -0.336163   -0.860105   -2.253192
     21          6           0       -2.815798   -4.531040   -0.736190
     22          1           0       -3.300597   -2.449415   -0.625118
     23          1           0       -1.909311   -2.756870   -2.650596
     24          1           0       -0.553152   -3.257024   -1.651729
     25          6           0       -3.642489    1.707620    1.188391
     26          1           0       -3.393074    2.476332    1.926174
     27          1           0       -3.966326    2.237722    0.289713
     28          1           0       -4.482950    1.125539    1.568197
     29          1           0       -1.944082   -5.190922   -0.684458
     30          1           0       -3.513735   -4.840474    0.046068
     31          1           0       -3.299522   -4.695302   -1.702367
     32          6           0       -1.999670    2.283650   -1.809674
     33          1           0       -1.281180    1.719796   -2.410718
     34          1           0       -2.870494    1.636815   -1.676606
     35          1           0       -2.310836    3.147825   -2.393248
     36          6           0       -1.069685    3.907898   -0.139508
     37          6           0       -1.176362    5.156805   -0.958580
     38          1           0       -0.189518    5.608300   -1.098448
     39          1           0       -1.604631    4.988364   -1.945590
     40          1           0       -1.792347    5.902632   -0.447126
     41          1           0       -0.647303    4.048969    0.852925
     42          6           0        2.465237    0.137371    0.318519
     43          8           0        1.297658    1.462966    1.835500
     44          6           0        3.510072   -0.170696    1.084732
     45          6           0        2.772300   -0.268770   -1.093310
     46          1           0        3.582083    0.013431    2.148145
     47          6           0        4.605951   -0.811159    0.287368
     48          7           0        4.020667   -0.820863   -1.038272
     49          1           0        4.489866   -1.139540   -1.870186
     50          8           0        2.093321   -0.134246   -2.089357
     51          6           0        5.927181   -0.049826    0.358117
     52          1           0        6.677996   -0.524038   -0.276740
     53          1           0        6.307718   -0.041942    1.381211
     54          1           0        5.790083    0.980545    0.026647
     55          1           0        4.760471   -1.837735    0.643472
     56          1           0       -3.407157   -0.919488    1.556302
     57          1           0        0.518907   -1.486954   -0.077910
     58          1           0        0.258529    0.903966   -0.988613
     59          1           0       -0.809393    2.002708    1.425205
 ---------------------------------------------------------------------

 SCF Done:  E(RHF) =  -1094.47551053     A.U. after    2 cycles
 E2 =    -0.3869210156D+01 EUMP2 =    -0.10983447206879D+04

 Alpha  occ. eigenvalues --  -20.55629 -20.53886 -15.60018 -11.37020 -11.34166
 Alpha  occ. eigenvalues --  -11.30836 -11.28436 -11.25973 -11.25361 -11.23109
 Alpha  occ. eigenvalues --  -11.22826 -11.22667 -11.22462 -11.22420 -11.22372
 Alpha  occ. eigenvalues --  -11.21673 -11.21588 -11.21439 -11.21344 -11.21304
 Alpha  occ. eigenvalues --  -11.21154 -11.21015 -11.20808 -11.20778 -11.20611
 Alpha  occ. eigenvalues --  -11.20276  -1.40146  -1.39539  -1.27962  -1.15739
 Alpha  occ. eigenvalues --   -1.11086  -1.10224  -1.07170  -1.05805  -1.04530
 Alpha  occ. eigenvalues --   -1.03353  -0.99613  -0.97225  -0.93152  -0.92046
 Alpha  occ. eigenvalues --   -0.91661  -0.91343  -0.88913  -0.86627  -0.83615
 Alpha  occ. eigenvalues --   -0.81608  -0.80058  -0.78014  -0.75184  -0.73338
 Alpha  occ. eigenvalues --   -0.71126  -0.70031  -0.67220  -0.66700  -0.65964
 Alpha  occ. eigenvalues --   -0.64664  -0.63622  -0.62726  -0.62073  -0.61763
 Alpha  occ. eigenvalues --   -0.60888  -0.60109  -0.59586  -0.58954  -0.58431
 Alpha  occ. eigenvalues --   -0.56798  -0.56661  -0.55991  -0.55655  -0.55383
 Alpha  occ. eigenvalues --   -0.54882  -0.54348  -0.54031  -0.53564  -0.53181
 Alpha  occ. eigenvalues --   -0.52948  -0.52633  -0.52304  -0.51970  -0.50394
 Alpha  occ. eigenvalues --   -0.50274  -0.49572  -0.49050  -0.47208  -0.46487
 Alpha  occ. eigenvalues --   -0.46352  -0.45292  -0.44618  -0.43368  -0.43024
 Alpha  occ. eigenvalues --   -0.41943  -0.40725  -0.40453  -0.40017  -0.39126
 Alpha  occ. eigenvalues --   -0.32753  -0.32305
 Alpha virt. eigenvalues --    0.02309   0.03495   0.03718   0.03807   0.04264
 Alpha virt. eigenvalues --    0.04515   0.04635   0.05222   0.05437   0.05884
 Alpha virt. eigenvalues --    0.06008   0.06312   0.06487   0.06816   0.07029

 Mulliken charges:
               1
     1  C    1.325089
     2  C   -0.216210
     3  C   -0.066668
     4  C    0.443095
     5  C   -0.290666
     6  C   -0.111415
     7  C    0.626330
     8  C   -2.479484
     9  C    1.689331
    10  C    1.638175
    11  C    0.452903
    12  H   -0.067689
    13  H   -0.139187
    14  H   -0.200354
    15  C   -1.303250
    16  H   -0.242664
    17  H   -0.146833
    18  C    1.052061
    19  H   -0.374577
    20  H   -0.131420
    21  C    1.178690
    22  H   -0.255218
    23  H   -0.177922
    24  H   -0.079296
    25  C    0.897987
    26  H    0.123682
    27  H    0.075031
    28  H   -0.253055
    29  H   -0.042211
    30  H   -0.040640
    31  H   -0.034926
    32  C    0.915240
    33  H    0.100542
    34  H    0.096700
    35  H   -0.347464
    36  C   -0.041884
    37  C    0.452524
    38  H    0.100419
    39  H   -0.213383
    40  H    0.082529
    41  H   -0.763255
    42  C    0.648820
    43  O   -0.998883
    44  C    0.589716
    45  C    0.485854
    46  H   -0.533254
    47  C   -0.206068
    48  N   -0.513044
    49  H   -0.180762
    50  O   -0.886645
    51  C    0.761630
    52  H   -0.028765
    53  H    0.016245
    54  H    0.017425
    55  H   -0.119864
    56  H   -0.779912
    57  H   -0.696992
    58  H   -0.472496
    59  H   -0.333662
 Sum of Mulliken charges =  -0.00000

 Dipole moment (field-independent basis, Debye):
    X=              4.0210    Y=             -1.9330    Z=              0.5518  Tot=              4.4955
 Unable to Open any file for archive entry.
 1\1\GINC-SE251\SP\RMP2-FC\Aug-CC-pVDZ\C23H33N1O2\OHZDE\20-Sep-2024\0\\
 #t symm=none mp2 aug-cc-pvdz geom=allcheck guess=(read,tcheck) int=(gr
 id=ultrafine)\\title\\0,1\C,0,-0.043125,0.601643,0.018299\C,0,-1.1792,
 1.533868,0.508753\C,0,-0.406586,-0.900475,-0.113364\C,0,1.225835,0.802
 716,0.823465\C,0,-2.454956,0.826188,0.925674\C,0,-1.413235,2.666231,-0
 .478755\C,0,-2.488319,-0.47785,1.176473\C,0,-1.295367,-1.391406,1.0487
 7\C,0,-1.744057,-2.839661,0.789043\C,0,-0.52191,-1.381344,2.378132\C,0
 ,-1.045701,-1.163581,-1.481184\H,0,0.385188,-1.989709,2.301699\H,0,-0.
 240653,-0.374178,2.682021\H,0,-1.140205,-1.803222,3.174546\C,0,-2.4005

 Normal termination of Gaussian 16 at Fri Sep 20 16:59:56 2024.
