 Gaussian 16, Revision C.01,

 ----------------------------------------------------------------------
 #t hf aug-cc-pvdz symm=none int=(grid=ultrafine) guess=(read,tcheck) s
 table=(opt,rrhf)
 ----------------------------------------------------------------------
 -----
 title
 -----
 Symbolic Z-matrix:
 Charge =  0 Multiplicity = 1

 SCF Done:  E(RHF) =  -1303.07836523     A.U. after   16 cycles
 Normal termination of Gaussian 16 at Fri Sep 20 13:44:51 2024.
 Gaussian 16:  ES64L-G16RevC.01  3-Jul-2019

 ----------------------------------------------------------------------
 #t symm=none mp2 aug-cc-pvdz geom=allcheck guess=(read,tcheck) int=(gr
 id=ultrafine)
 ----------------------------------------------------------------------
 Structure from the checkpoint file:  "02_7P.chk"
 -----
 title
 -----
 Charge =  0 Multiplicity = 1

                          Input orientation:
 ---------------------------------------------------------------------
 Center     Atomic      Atomic             Coordinates (Angstroms)
 Number     Number       Type             X           Y           Z
 ---------------------------------------------------------------------
      1          8           0       -6.598913    0.392072    1.321540
      2          6           0       -5.977665    0.689440    0.070693
      3          6           0       -4.538391    1.151756    0.387323
      4          6           0       -3.625313    0.137244   -0.306980
      5          6           0       -4.480028   -1.137120   -0.378698
      6          6           0       -5.829086   -0.571663   -0.802374
      7          6           0       -2.229192   -0.099381    0.280332
      8          6           0       -1.815984   -1.623194    0.148013
      9          6           0       -2.476366   -2.317649   -1.020813
     10          6           0       -3.773951   -2.132644   -1.241877
     11          6           0       -1.236398    0.812334   -0.366990
     12          6           0       -0.425357    1.645839    0.276106
     13          6           0       -0.328226   -1.779863    0.153242
     14          6           0        0.384978   -2.155734    1.208202
     15          6           0        1.862171   -2.179696    1.232081
     16          8           0        2.401622   -2.000530    0.017102
     17          6           0        3.833082   -1.808491   -0.101301
     18          6           0        4.423326   -3.011683   -0.816278
     19          6           0        4.222023   -4.325193   -0.070778
     20          6           0        0.581158    2.459366   -0.451115
     21          6           0        1.655226    3.107824    0.401705
     22          6           0        1.136813    4.473231    0.871954
     23          8           0        2.502880   -2.317261    2.244972
     24          6           0        4.030572   -0.504391   -0.855056
     25          6           0        3.474146    0.713141   -0.124718
     26          6           0        3.495852    1.965398   -0.997212
     27          6           0        3.002623    3.244345   -0.322294
     28          8           0        3.974076    3.761915    0.587302
     29          8           0        0.543601    2.607217   -1.654942
     30          1           0       -4.348754    2.176324    0.066135
     31          1           0       -4.414453    1.115784    1.471756
     32          1           0       -6.553545    1.465767   -0.441784
     33          1           0       -6.666334   -1.259719   -0.666319
     34          1           0       -5.795636   -0.289496   -1.860192
     35          1           0       -4.583418   -1.539083    0.639077
     36          1           0       -4.295770   -2.647357   -2.041763
     37          1           0       -1.885319   -2.999716   -1.622118
     38          1           0        0.198449   -1.528228   -0.762066
     39          1           0       -0.078752   -2.405238    2.155846
     40          1           0        4.237530   -1.738279    0.910054
     41          1           0        3.547533   -0.594848   -1.833933
     42          1           0        5.100480   -0.371411   -1.042904
     43          1           0        2.447142    0.494724    0.179050
     44          1           0        4.045515    0.865133    0.799613
     45          1           0        4.514445    2.160193   -1.345816
     46          1           0        2.883934    1.790208   -1.884195
     47          1           0        2.907121    4.015431   -1.087981
     48          1           0        1.805917    2.478187    1.286052
     49          1           0       -1.164321    0.778116   -1.452654
     50          1           0       -3.494760    0.451686   -1.348760
     51          1           0        3.983585   -3.072876   -1.816960
     52          1           0        5.492012   -2.820493   -0.953508
     53          1           0        3.161295   -4.559081    0.035209
     54          1           0        4.653206   -4.281241    0.931538
     55          1           0        4.692045   -5.151643   -0.606940
     56          1           0        0.224561    4.375027    1.464326
     57          1           0        0.917430    5.109089    0.011532
     58          1           0        1.895358    4.964722    1.480077
     59          1           0        4.184588    3.082939    1.234945
     60          1           0       -7.515457    0.149346    1.165384
     61          1           0       -0.431236    1.699366    1.360459
     62          1           0       -2.205256   -2.093845    1.057571
     63          1           0       -2.241335    0.113907    1.352469
 ---------------------------------------------------------------------

 SCF Done:  E(RHF) =  -1303.07836523     A.U. after    3 cycles
 E2 =    -0.4403418751D+01 EUMP2 =    -0.13074817839804D+04

 Alpha  occ. eigenvalues --  -20.60233 -20.57370 -20.56429 -20.55128 -20.54864
 Alpha  occ. eigenvalues --  -11.38600 -11.33586 -11.29400 -11.29115 -11.28273
 Alpha  occ. eigenvalues --  -11.26788 -11.26459 -11.26364 -11.25990 -11.24726
 Alpha  occ. eigenvalues --  -11.24415 -11.24280 -11.24247 -11.24243 -11.24159
 Alpha  occ. eigenvalues --  -11.24055 -11.23713 -11.23151 -11.23075 -11.23056
 Alpha  occ. eigenvalues --  -11.23038 -11.22809 -11.22027 -11.21797  -1.46065
 Alpha  occ. eigenvalues --   -1.39128  -1.37161  -1.36308  -1.36099  -1.18035
 Alpha  occ. eigenvalues --   -1.12588  -1.10973  -1.09439  -1.08613  -1.06810
 Alpha  occ. eigenvalues --   -1.04963  -1.02229  -0.99437  -0.97529  -0.96440
 Alpha  occ. eigenvalues --   -0.92895  -0.90911  -0.88336  -0.85210  -0.83951
 Alpha  occ. eigenvalues --   -0.81916  -0.81566  -0.79798  -0.78792  -0.77469
 Alpha  occ. eigenvalues --   -0.76826  -0.74033  -0.73311  -0.70765  -0.69459
 Alpha  occ. eigenvalues --   -0.69026  -0.67638  -0.67265  -0.66537  -0.66244
 Alpha  occ. eigenvalues --   -0.65253  -0.64333  -0.64044  -0.63525  -0.62152
 Alpha  occ. eigenvalues --   -0.62028  -0.60152  -0.59554  -0.58991  -0.57760
 Alpha  occ. eigenvalues --   -0.57555  -0.57435  -0.56977  -0.56544  -0.56082
 Alpha  occ. eigenvalues --   -0.55420  -0.54620  -0.54072  -0.53701  -0.52921
 Alpha  occ. eigenvalues --   -0.52557  -0.52097  -0.51114  -0.50967  -0.50573
 Alpha  occ. eigenvalues --   -0.50383  -0.49911  -0.49255  -0.49108  -0.48817
 Alpha  occ. eigenvalues --   -0.47412  -0.47322  -0.47197  -0.46425  -0.45976
 Alpha  occ. eigenvalues --   -0.44891  -0.44381  -0.43908  -0.43857  -0.42454
 Alpha  occ. eigenvalues --   -0.40383  -0.38651  -0.37620  -0.35537
 Alpha virt. eigenvalues --    0.02686   0.03238   0.03451   0.03757   0.04000
 Alpha virt. eigenvalues --    0.04312   0.04659   0.04968   0.05226   0.05403
 Alpha virt. eigenvalues --    0.05761   0.06092   0.06295   0.06628   0.06867

 Mulliken charges:
               1
     1  O   -0.810635
     2  C    0.969277
     3  C    0.430431
     4  C   -0.157214
     5  C    0.189878
     6  C    0.769162
     7  C    0.580017
     8  C    0.252546
     9  C    0.874773
    10  C    0.369102
    11  C    0.970597
    12  C    0.607224
    13  C    1.364141
    14  C    0.963300
    15  C    0.559956
    16  O   -0.886271
    17  C    0.307557
    18  C    0.590965
    19  C    0.778012
    20  C    0.471578
    21  C   -1.280326
    22  C    1.145621
    23  O   -0.802705
    24  C    0.365811
    25  C    0.792349
    26  C    0.437301
    27  C    1.185756
    28  O   -0.850371
    29  O   -1.014576
    30  H   -0.201236
    31  H   -0.091468
    32  H   -0.188503
    33  H   -0.178371
    34  H   -0.120329
    35  H   -0.208808
    36  H   -0.504786
    37  H   -0.621988
    38  H   -0.941054
    39  H   -0.763024
    40  H   -0.209488
    41  H   -0.153028
    42  H   -0.208374
    43  H   -0.660343
    44  H   -0.288093
    45  H   -0.207022
    46  H   -0.130454
    47  H   -0.220471
    48  H   -0.215178
    49  H   -0.841507
    50  H   -0.369103
    51  H   -0.162086
    52  H   -0.166564
    53  H   -0.002821
    54  H   -0.087190
    55  H   -0.160077
    56  H   -0.048355
    57  H    0.011724
    58  H   -0.025909
    59  H    0.150177
    60  H    0.129233
    61  H   -0.976234
    62  H   -0.195249
    63  H   -0.317277
 Sum of Mulliken charges =  -0.00000

 Dipole moment (field-independent basis, Debye):
    X=             -3.7396    Y=             -1.7299    Z=             -1.2823  Tot=              4.3153
 Unable to Open any file for archive entry.
 1\1\GINC-SE397\SP\RMP2-FC\Aug-CC-pVDZ\C24H34O5\OHZDE\20-Sep-2024\0\\#t
  symm=none mp2 aug-cc-pvdz geom=allcheck guess=(read,tcheck) int=(grid
 =ultrafine)\\title\\0,1\O,0,-6.598913,0.392072,1.32154\C,0,-5.977665,0
 .68944,0.070693\C,0,-4.538391,1.151756,0.387323\C,0,-3.625313,0.137244
 ,-0.30698\C,0,-4.480028,-1.13712,-0.378698\C,0,-5.829086,-0.571663,-0.
 802374\C,0,-2.229192,-0.099381,0.280332\C,0,-1.815984,-1.623194,0.1480
 13\C,0,-2.476366,-2.317649,-1.020813\C,0,-3.773951,-2.132644,-1.241877
 \C,0,-1.236398,0.812334,-0.36699\C,0,-0.425357,1.645839,0.276106\C,0,-
 0.328226,-1.779863,0.153242\C,0,0.384978,-2.155734,1.208202\C,0,1.8621

 Normal termination of Gaussian 16 at Fri Sep 20 23:03:58 2024.
