 Gaussian 16, Revision C.01,

 ----------------------------------------------------------------------
 #t hf aug-cc-pvdz symm=none int=(grid=ultrafine) guess=(read,tcheck) s
 table=(opt,rrhf)
 ----------------------------------------------------------------------
 -----
 title
 -----
 Symbolic Z-matrix:
 Charge =  1 Multiplicity = 1

 SCF Done:  E(RHF) =  -1146.47337357     A.U. after   19 cycles
 Normal termination of Gaussian 16 at Fri Sep 20 22:19:24 2024.
 Gaussian 16:  ES64L-G16RevC.01  3-Jul-2019

 ----------------------------------------------------------------------
 #t symm=none mp2 aug-cc-pvdz geom=allcheck guess=(read,tcheck) int=(gr
 id=ultrafine)
 ----------------------------------------------------------------------
 Structure from the checkpoint file:  "05_21TS.chk"
 -----
 title
 -----
 Charge =  1 Multiplicity = 1

                          Input orientation:
 ---------------------------------------------------------------------
 Center     Atomic      Atomic             Coordinates (Angstroms)
 Number     Number       Type             X           Y           Z
 ---------------------------------------------------------------------
      1          6           0        1.191943   -0.392034   -0.358717
      2          6           0        2.514862    1.907269   -0.281053
      3          6           0        3.769773    1.099151   -0.630363
      4          6           0        3.725647   -0.325285   -0.108977
      5          6           0        2.526868   -1.041842   -0.720186
      6          1           0        3.883526    1.079163   -1.719566
      7          1           0        4.632071    1.631178   -0.223157
      8          1           0        3.629155   -0.329409    0.977821
      9          1           0        2.641699   -1.054187   -1.808433
     10          1           0        2.506566   -2.076082   -0.375654
     11          7           0        1.304437    1.081708   -0.568719
     12          8           0        0.206070    1.718200   -0.646584
     13          6           0        0.092109   -0.912528   -1.282722
     14          1           0        0.081196   -2.001830   -1.231247
     15          1           0       -0.891752   -0.546602   -0.992531
     16          1           0        0.281718   -0.618590   -2.315770
     17          6           0        0.815360   -0.672820    1.104948
     18          1           0       -0.058352   -0.093865    1.406782
     19          1           0        0.561293   -1.728930    1.200574
     20          1           0        1.628453   -0.468326    1.797809
     21          6           0        2.451635    3.155037   -1.160305
     22          1           0        1.624084    3.804930   -0.881049
     23          1           0        3.380195    3.715172   -1.043597
     24          1           0        2.341741    2.884634   -2.211188
     25          6           0        2.504564    2.318831    1.199082
     26          1           0        3.314782    3.028236    1.371694
     27          1           0        1.572686    2.824742    1.457380
     28          1           0        2.645846    1.476405    1.873342
     29          6           0       -2.268644    3.176301    0.479917
     30          6           0       -2.615995    1.894324    0.624325
     31          6           0       -1.362948    2.342368    1.168118
     32          1           0       -2.507950    4.173033    0.152901
     33          1           0       -0.361560    1.975103    0.403537
     34          1           0       -0.927042    2.360285    2.166742
     35          6           0       -3.510969    0.814377    0.440789
     36          6           0       -3.260898   -0.431902    1.044717
     37          6           0       -4.658250    0.968503   -0.348569
     38          6           0       -4.125159   -1.479216    0.864148
     39          1           0       -2.381140   -0.560412    1.662750
     40          6           0       -5.532768   -0.079004   -0.538925
     41          1           0       -4.858757    1.924014   -0.817878
     42          6           0       -5.270363   -1.314033    0.068801
     43          1           0       -3.955172   -2.443959    1.323150
     44          1           0       -6.410309    0.061700   -1.152468
     45          8           0       -6.048192   -2.388215   -0.049749
     46          6           0       -7.241489   -2.315247   -0.826051
     47          1           0       -7.692439   -3.301016   -0.761977
     48          1           0       -7.926717   -1.571388   -0.414324
     49          1           0       -7.012714   -2.083889   -1.868503
     50          7           0        4.964808   -1.017943   -0.395480
     51          6           0        5.311084   -2.125715    0.325116
     52          6           0        6.610824   -2.788377   -0.046593
     53          1           0        7.257558   -2.799538    0.831120
     54          1           0        6.409950   -3.825100   -0.317739
     55          1           0        7.130844   -2.295527   -0.868310
     56          8           0        4.596260   -2.536608    1.220079
     57          1           0        5.539604   -0.722260   -1.167784
 ---------------------------------------------------------------------

 SCF Done:  E(RHF) =  -1146.47337357     A.U. after    3 cycles
 E2 =    -0.3974595538D+01 EUMP2 =    -0.11504479691119D+04

 Alpha  occ. eigenvalues --  -20.79982 -20.70775 -20.60428 -15.78801 -15.67586
 Alpha  occ. eigenvalues --  -11.44177 -11.44061 -11.43828 -11.43535 -11.42798
 Alpha  occ. eigenvalues --  -11.40298 -11.39816 -11.38683 -11.38068 -11.37680
 Alpha  occ. eigenvalues --  -11.37161 -11.36993 -11.35173 -11.34763 -11.34251
 Alpha  occ. eigenvalues --  -11.33786 -11.33502 -11.32958 -11.32915 -11.32685
 Alpha  occ. eigenvalues --  -11.31318  -1.62881  -1.53613  -1.46795  -1.37472
 Alpha  occ. eigenvalues --   -1.33039  -1.29130  -1.28186  -1.22139  -1.16203
 Alpha  occ. eigenvalues --   -1.15358  -1.15171  -1.10779  -1.07208  -1.06682
 Alpha  occ. eigenvalues --   -1.05995  -1.04947  -1.04364  -0.98539  -0.97832
 Alpha  occ. eigenvalues --   -0.95216  -0.94256  -0.93586  -0.90423  -0.88676
 Alpha  occ. eigenvalues --   -0.87733  -0.85730  -0.82401  -0.80474  -0.79868
 Alpha  occ. eigenvalues --   -0.79527  -0.79158  -0.76945  -0.76108  -0.75399
 Alpha  occ. eigenvalues --   -0.74389  -0.72811  -0.71769  -0.71630  -0.71158
 Alpha  occ. eigenvalues --   -0.70145  -0.69826  -0.69728  -0.68949  -0.68743
 Alpha  occ. eigenvalues --   -0.67545  -0.67486  -0.66869  -0.65855  -0.64892
 Alpha  occ. eigenvalues --   -0.64487  -0.64376  -0.63673  -0.63432  -0.63171
 Alpha  occ. eigenvalues --   -0.62954  -0.62075  -0.62005  -0.61128  -0.60315
 Alpha  occ. eigenvalues --   -0.59289  -0.59014  -0.58889  -0.58386  -0.57880
 Alpha  occ. eigenvalues --   -0.56382  -0.56060  -0.50089  -0.47491  -0.46816
 Alpha  occ. eigenvalues --   -0.46416  -0.40344
 Alpha virt. eigenvalues --   -0.12592  -0.05376  -0.04967  -0.04303  -0.03997
 Alpha virt. eigenvalues --   -0.03942  -0.02957  -0.02736  -0.02492  -0.02302
 Alpha virt. eigenvalues --   -0.02050  -0.01282  -0.01244  -0.00946  -0.00845

 Mulliken charges:
               1
     1  C   -4.038181
     2  C   -3.887882
     3  C    1.786845
     4  C   -0.218431
     5  C    1.797045
     6  H   -0.071811
     7  H   -0.127777
     8  H   -0.390269
     9  H   -0.027243
    10  H   -0.132829
    11  N    0.908150
    12  O   -1.233441
    13  C    1.785697
    14  H    0.050611
    15  H   -0.053550
    16  H   -0.080301
    17  C    1.674719
    18  H   -0.301012
    19  H   -0.042599
    20  H   -0.042406
    21  C    1.682716
    22  H    0.032710
    23  H    0.070034
    24  H   -0.071887
    25  C    1.463547
    26  H   -0.037662
    27  H   -0.099419
    28  H   -0.040277
    29  C    0.081014
    30  C    0.603423
    31  C    0.385035
    32  H   -0.457455
    33  H    0.466644
    34  H   -0.445060
    35  C    0.961477
    36  C    1.292648
    37  C   -0.030539
    38  C    0.418721
    39  H   -0.707153
    40  C    0.434409
    41  H   -0.664834
    42  C    0.704689
    43  H   -0.664849
    44  H   -0.746777
    45  O   -1.049883
    46  C    0.881923
    47  H   -0.313189
    48  H   -0.045644
    49  H   -0.060388
    50  N   -0.182879
    51  C    0.345787
    52  C    0.476576
    53  H    0.055244
    54  H    0.056520
    55  H   -0.180241
    56  O   -0.865268
    57  H   -0.105047
 Sum of Mulliken charges =   1.00000

 Dipole moment (field-independent basis, Debye):
    X=             -4.3827    Y=              5.8144    Z=             -2.1394  Tot=              7.5890
 Unable to Open any file for archive entry.
 1\1\GINC-SE361\SP\RMP2-FC\Aug-CC-pVDZ\C21H31N2O3\OHZDE\21-Sep-2024\0\\
 #t symm=none mp2 aug-cc-pvdz geom=allcheck guess=(read,tcheck) int=(gr
 id=ultrafine)\\title\\1,1\C,0,1.191943,-0.392034,-0.358717\C,0,2.51486
 2,1.907269,-0.281053\C,0,3.769773,1.099151,-0.630363\C,0,3.725647,-0.3
 25285,-0.108977\C,0,2.526868,-1.041842,-0.720186\H,0,3.883526,1.079163
 ,-1.719566\H,0,4.632071,1.631178,-0.223157\H,0,3.629155,-0.329409,0.97
 7821\H,0,2.641699,-1.054187,-1.808433\H,0,2.506566,-2.076082,-0.375654
 \N,0,1.304437,1.081708,-0.568719\O,0,0.20607,1.7182,-0.646584\C,0,0.09
 2109,-0.912528,-1.282722\H,0,0.081196,-2.00183,-1.231247\H,0,-0.891752

 Normal termination of Gaussian 16 at Sat Sep 21 02:58:00 2024.
