 Gaussian 16, Revision C.01,

 ----------------------------------------------------------------------
 #t hf aug-cc-pvdz symm=none int=(grid=ultrafine) guess=(read,tcheck) s
 table=(opt,rrhf)
 ----------------------------------------------------------------------
 -----
 title
 -----
 Symbolic Z-matrix:
 Charge =  1 Multiplicity = 1

 SCF Done:  E(RHF) =  -1187.91840139     A.U. after   19 cycles
 Normal termination of Gaussian 16 at Fri Sep 20 23:47:12 2024.
 Gaussian 16:  ES64L-G16RevC.01  3-Jul-2019

 ----------------------------------------------------------------------
 #t symm=none mp2 aug-cc-pvdz geom=allcheck guess=(read,tcheck) int=(gr
 id=ultrafine)
 ----------------------------------------------------------------------
 Structure from the checkpoint file:  "05_38TS.chk"
 -----
 title
 -----
 Charge =  1 Multiplicity = 1

                          Input orientation:
 ---------------------------------------------------------------------
 Center     Atomic      Atomic             Coordinates (Angstroms)
 Number     Number       Type             X           Y           Z
 ---------------------------------------------------------------------
      1          6           0        0.935413   -0.438753   -0.966781
      2          6           0        1.371574    0.087307    1.590542
      3          6           0        2.869076    0.058895    1.267172
      4          6           0        3.236928   -0.832556    0.083775
      5          6           0        2.456765   -0.385107   -1.149664
      6          1           0        3.206536    1.070332    1.040189
      7          1           0        3.398203   -0.270971    2.163559
      8          1           0        2.986440   -1.870370    0.315353
      9          1           0        2.759420    0.633589   -1.392754
     10          1           0        2.711928   -1.016896   -2.002525
     11          7           0        0.603194    0.231986    0.321968
     12          8           0       -0.539869    0.776931    0.412814
     13          6           0        0.259467    0.339182   -2.093249
     14          1           0        0.611368   -0.057429   -3.045959
     15          1           0       -0.824790    0.239856   -2.063392
     16          1           0        0.516139    1.397699   -2.046260
     17          6           0        0.418274   -1.886887   -0.967628
     18          1           0        0.921325   -2.520535   -0.240281
     19          1           0        0.595571   -2.309691   -1.957445
     20          1           0       -0.652955   -1.923112   -0.777520
     21          6           0        1.074366    1.301138    2.469507
     22          1           0        0.049650    1.299203    2.839526
     23          1           0        1.744291    1.277407    3.329457
     24          1           0        1.250544    2.228764    1.924572
     25          6           0        0.910825   -1.191017    2.310144
     26          1           0        1.232526   -2.099602    1.805577
     27          1           0       -0.176283   -1.218394    2.408409
     28          1           0        1.331181   -1.195408    3.316514
     29          6           0       -2.781130   -0.158091    0.948389
     30          1           0       -2.728499   -0.171154    2.041629
     31          1           0       -1.458017    0.060164    0.724598
     32          6           0       -3.000123   -1.433077    0.280027
     33          6           0       -3.443461   -1.484377   -1.045824
     34          6           0       -2.722031   -2.617221    0.971382
     35          6           0       -3.613765   -2.709615   -1.662398
     36          1           0       -3.663045   -0.563571   -1.570093
     37          6           0       -2.894419   -3.839396    0.346226
     38          1           0       -2.387904   -2.577397    2.002157
     39          6           0       -3.337812   -3.885728   -0.970204
     40          1           0       -3.967780   -2.754532   -2.684453
     41          1           0       -2.693139   -4.756513    0.884759
     42          8           0       -3.327865    0.917513    0.401819
     43          6           0       -3.358896    2.133954    1.195192
     44          1           0       -2.420611    2.204446    1.751167
     45          1           0       -4.191918    2.038954    1.895434
     46          1           0       -3.476333   -4.842497   -1.458176
     47          6           0       -3.535394    3.307100    0.263135
     48          1           0       -3.686330    4.194831    0.885674
     49          1           0       -4.458726    3.169450   -0.307491
     50          6           0       -2.355399    3.526914   -0.679105
     51          1           0       -1.441480    3.648198   -0.087139
     52          1           0       -2.208370    2.631835   -1.289013
     53          6           0       -2.552336    4.739582   -1.580169
     54          1           0       -2.670338    5.653881   -0.993756
     55          1           0       -1.699405    4.881095   -2.245725
     56          1           0       -3.443655    4.627980   -2.202310
     57          7           0        4.674113   -0.830782   -0.158231
     58          6           0        5.388586    0.286252   -0.487444
     59          6           0        6.866754    0.084574   -0.699889
     60          1           0        7.407315    0.725215   -0.002643
     61          1           0        7.193289   -0.946799   -0.566397
     62          1           0        7.119574    0.413558   -1.708132
     63          8           0        4.861015    1.377505   -0.601123
     64          1           0        5.167309   -1.704045   -0.080154
 ---------------------------------------------------------------------

 SCF Done:  E(RHF) =  -1187.91840139     A.U. after    2 cycles
 E2 =    -0.4188012911D+01 EUMP2 =    -0.11921064143046D+04

 Alpha  occ. eigenvalues --  -20.81709 -20.74147 -20.61038 -15.80734 -15.68392
 Alpha  occ. eigenvalues --  -11.48978 -11.44332 -11.41113 -11.40919 -11.40562
 Alpha  occ. eigenvalues --  -11.38386 -11.38263 -11.37763 -11.37083 -11.36895
 Alpha  occ. eigenvalues --  -11.36116 -11.36008 -11.34765 -11.33804 -11.33648
 Alpha  occ. eigenvalues --  -11.33511 -11.33352 -11.33132 -11.32943 -11.31825
 Alpha  occ. eigenvalues --  -11.31638 -11.29924  -1.64656  -1.56815  -1.47456
 Alpha  occ. eigenvalues --   -1.33599  -1.30326  -1.29442  -1.22765  -1.20498
 Alpha  occ. eigenvalues --   -1.16947  -1.15988  -1.14873  -1.11665  -1.09915
 Alpha  occ. eigenvalues --   -1.07630  -1.06659  -1.05465  -1.04600  -1.04434
 Alpha  occ. eigenvalues --   -0.98017  -0.96392  -0.95394  -0.94566  -0.93825
 Alpha  occ. eigenvalues --   -0.91006  -0.89535  -0.86861  -0.84466  -0.82804
 Alpha  occ. eigenvalues --   -0.81601  -0.80851  -0.80457  -0.79187  -0.78657
 Alpha  occ. eigenvalues --   -0.77750  -0.74574  -0.74303  -0.73836  -0.72952
 Alpha  occ. eigenvalues --   -0.72766  -0.71801  -0.71551  -0.70571  -0.70145
 Alpha  occ. eigenvalues --   -0.69808  -0.68959  -0.68649  -0.68542  -0.68350
 Alpha  occ. eigenvalues --   -0.67071  -0.66349  -0.65523  -0.64926  -0.64721
 Alpha  occ. eigenvalues --   -0.63891  -0.63767  -0.63657  -0.62864  -0.62653
 Alpha  occ. eigenvalues --   -0.62359  -0.62257  -0.61732  -0.60887  -0.60677
 Alpha  occ. eigenvalues --   -0.59734  -0.59596  -0.58516  -0.57455  -0.57331
 Alpha  occ. eigenvalues --   -0.56653  -0.56059  -0.55928  -0.50423  -0.49680
 Alpha  occ. eigenvalues --   -0.48217  -0.46440  -0.42840
 Alpha virt. eigenvalues --   -0.14175  -0.05494  -0.04672  -0.04150  -0.03795
 Alpha virt. eigenvalues --   -0.03171  -0.02931  -0.02780  -0.02593  -0.02192
 Alpha virt. eigenvalues --   -0.01526  -0.01285  -0.01051  -0.01009  -0.00808

 Mulliken charges:
               1
     1  C   -3.031670
     2  C   -4.150689
     3  C    1.919052
     4  C   -0.132943
     5  C    1.148459
     6  H   -0.090380
     7  H   -0.134760
     8  H   -0.368353
     9  H   -0.121546
    10  H   -0.172126
    11  N    0.238842
    12  O   -1.090667
    13  C    2.175243
    14  H   -0.068560
    15  H   -0.047884
    16  H   -0.063031
    17  C    1.449569
    18  H   -0.095063
    19  H   -0.030754
    20  H   -0.619261
    21  C    1.763088
    22  H    0.019132
    23  H   -0.024320
    24  H   -0.055406
    25  C    1.400755
    26  H   -0.052907
    27  H   -0.188665
    28  H   -0.043696
    29  C    1.154685
    30  H   -0.219055
    31  H    0.651884
    32  C    0.493870
    33  C    0.987072
    34  C    0.685412
    35  C   -0.004029
    36  H   -0.743220
    37  C    0.203724
    38  H   -0.718584
    39  C    0.856128
    40  H   -0.541872
    41  H   -0.531208
    42  O   -1.078547
    43  C    1.156968
    44  H   -0.198550
    45  H   -0.271417
    46  H   -0.467176
    47  C    0.150333
    48  H   -0.074885
    49  H   -0.143567
    50  C    0.177860
    51  H   -0.187657
    52  H   -0.240354
    53  C    0.723444
    54  H   -0.067007
    55  H   -0.049801
    56  H   -0.052427
    57  N   -0.089680
    58  C    0.364658
    59  C    0.589327
    60  H    0.052760
    61  H   -0.159687
    62  H    0.051252
    63  O   -0.848856
    64  H   -0.143260
 Sum of Mulliken charges =   1.00000

 Dipole moment (field-independent basis, Debye):
    X=             -2.3441    Y=             -5.3927    Z=              2.5778  Tot=              6.4204
 Unable to Open any file for archive entry.
 1\1\GINC-SE350\SP\RMP2-FC\Aug-CC-pVDZ\C22H37N2O3\OHZDE\21-Sep-2024\0\\
 #t symm=none mp2 aug-cc-pvdz geom=allcheck guess=(read,tcheck) int=(gr
 id=ultrafine)\\title\\1,1\C,0,0.935413,-0.438753,-0.966781\C,0,1.37157
 4,0.087307,1.590542\C,0,2.869076,0.058895,1.267172\C,0,3.236928,-0.832
 556,0.083775\C,0,2.456765,-0.385107,-1.149664\H,0,3.206536,1.070332,1.
 040189\H,0,3.398203,-0.270971,2.163559\H,0,2.98644,-1.87037,0.315353\H
 ,0,2.75942,0.633589,-1.392754\H,0,2.711928,-1.016896,-2.002525\N,0,0.6
 03194,0.231986,0.321968\O,0,-0.539869,0.776931,0.412814\C,0,0.259467,0
 .339182,-2.093249\H,0,0.611368,-0.057429,-3.045959\H,0,-0.82479,0.2398

 Normal termination of Gaussian 16 at Sat Sep 21 05:39:07 2024.
