 Gaussian 16, Revision C.01,

 ----------------------------------------------------------------------
 #t hf aug-cc-pvdz symm=none int=(grid=ultrafine) guess=(read,tcheck) s
 table=(opt,rrhf)
 ----------------------------------------------------------------------
 -----
 title
 -----
 Symbolic Z-matrix:
 Charge = -1 Multiplicity = 1

 SCF Done:  E(RHF) =  -998.917424550     A.U. after   18 cycles
 Normal termination of Gaussian 16 at Fri Sep 20 12:56:13 2024.
 Gaussian 16:  ES64L-G16RevC.01  3-Jul-2019

 ----------------------------------------------------------------------
 #t symm=none mp2 aug-cc-pvdz geom=allcheck guess=(read,tcheck) int=(gr
 id=ultrafine)
 ----------------------------------------------------------------------
 Structure from the checkpoint file:  "02_83P.chk"
 -----
 title
 -----
 Charge = -1 Multiplicity = 1

                          Input orientation:
 ---------------------------------------------------------------------
 Center     Atomic      Atomic             Coordinates (Angstroms)
 Number     Number       Type             X           Y           Z
 ---------------------------------------------------------------------
      1          6           0       -4.825412    0.170655    0.294560
      2          6           0       -3.582617    0.899726   -0.206471
      3          6           0       -2.283952    0.135140   -0.011116
      4          6           0       -2.327744   -1.301770   -0.167807
      5          6           0       -3.624421   -2.002892    0.203690
      6          6           0       -4.871833   -1.251718   -0.245621
      7          1           0       -3.731834    1.128207   -1.276138
      8          1           0       -3.484019    1.869839    0.281898
      9          1           0       -4.808129    0.130615    1.391344
     10          1           0       -5.728295    0.724188    0.009631
     11          1           0       -3.616437   -3.018203   -0.203403
     12          1           0       -3.663474   -2.096075    1.298000
     13          1           0       -4.906187   -1.222998   -1.342023
     14          1           0       -5.773950   -1.776798    0.091042
     15          6           0        0.789649   -0.947788    0.253612
     16          6           0        0.242473    0.477564    0.610008
     17          6           0       -1.159917    0.955773    0.169318
     18          6           0       -1.318298   -2.079235   -0.610629
     19          6           0        0.023970   -1.533968   -0.952161
     20          1           0        0.201663    0.542389    1.703428
     21          1           0       -0.076854   -0.716908   -1.680202
     22          1           0        0.630765   -2.309556   -1.425492
     23          8           0       -1.259723    2.218321    0.149877
     24          6           0        1.390544    1.452764    0.243260
     25          6           0        2.291586   -0.724081   -0.145082
     26          1           0        2.307287   -0.586494   -1.233827
     27          6           0        2.639201    0.622848    0.468739
     28          1           0        2.805623    0.535807    1.547897
     29          1           0        3.499628    1.120469    0.021771
     30          6           0        0.647069   -1.837155    1.493796
     31          1           0       -0.392997   -1.838706    1.819417
     32          1           0        0.933437   -2.875137    1.307402
     33          1           0        1.259312   -1.455554    2.316720
     34          6           0        3.299141   -1.837367    0.184295
     35          1           0        3.227727   -2.058199    1.255083
     36          6           0        4.733773   -1.378754   -0.093739
     37          1           0        5.023837   -0.536546    0.535606
     38          1           0        5.442145   -2.192875    0.087189
     39          1           0        4.842949   -1.067110   -1.137850
     40          6           0        3.040257   -3.133611   -0.585761
     41          1           0        2.060206   -3.557388   -0.372910
     42          1           0        3.095036   -2.954692   -1.664291
     43          1           0        3.793942   -3.886386   -0.334122
     44          8           0        1.376247    1.868470   -1.114078
     45          8           0        1.471600    2.633634    1.011669
     46          6           0        1.023109    3.741268    0.247252
     47          1           0        0.038997    4.054256    0.590543
     48          1           0        1.758479    4.543748    0.368326
     49          6           0        0.949164    3.219938   -1.193584
     50          1           0       -0.073987    3.265999   -1.563807
     51          1           0        1.633420    3.743501   -1.869467
     52          1           0       -1.457734   -3.156802   -0.640862
 ---------------------------------------------------------------------

 SCF Done:  E(RHF) =  -998.917424549     A.U. after    2 cycles
 E2 =    -0.3515589638D+01 EUMP2 =    -0.10024330141876D+04

 Alpha  occ. eigenvalues --  -20.43899 -20.43853 -20.32311 -11.20570 -11.15136
 Alpha  occ. eigenvalues --  -11.15009 -11.13580 -11.13092 -11.12735 -11.12355
 Alpha  occ. eigenvalues --  -11.11099 -11.10901 -11.10150 -11.09962 -11.09741
 Alpha  occ. eigenvalues --  -11.09631 -11.09152 -11.09116 -11.08971 -11.08507
 Alpha  occ. eigenvalues --  -11.06622 -11.05715 -11.02860  -1.30823  -1.20198
 Alpha  occ. eigenvalues --   -1.15729  -1.03167  -0.98833  -0.96683  -0.93558
 Alpha  occ. eigenvalues --   -0.89651  -0.86907  -0.86044  -0.83764  -0.83423
 Alpha  occ. eigenvalues --   -0.81726  -0.77568  -0.73422  -0.72439  -0.71857
 Alpha  occ. eigenvalues --   -0.68071  -0.65530  -0.64070  -0.62535  -0.59509
 Alpha  occ. eigenvalues --   -0.56151  -0.55815  -0.53558  -0.53086  -0.51937
 Alpha  occ. eigenvalues --   -0.50472  -0.49972  -0.48682  -0.47985  -0.47127
 Alpha  occ. eigenvalues --   -0.46235  -0.45645  -0.45345  -0.45187  -0.44291
 Alpha  occ. eigenvalues --   -0.43986  -0.43010  -0.41988  -0.41673  -0.41037
 Alpha  occ. eigenvalues --   -0.39934  -0.39887  -0.38660  -0.38193  -0.38061
 Alpha  occ. eigenvalues --   -0.37816  -0.36590  -0.36052  -0.35167  -0.34873
 Alpha  occ. eigenvalues --   -0.33862  -0.33035  -0.32538  -0.31965  -0.30911
 Alpha  occ. eigenvalues --   -0.30282  -0.29313  -0.28566  -0.25879  -0.22480
 Alpha  occ. eigenvalues --   -0.20549  -0.08897
 Alpha virt. eigenvalues --    0.09895   0.10879   0.11104   0.11577   0.11790
 Alpha virt. eigenvalues --    0.12151   0.12662   0.12973   0.13182   0.13694
 Alpha virt. eigenvalues --    0.13791   0.14042   0.14678   0.14876   0.15048

 Mulliken charges:
               1
     1  C    0.488829
     2  C    0.373239
     3  C    0.252283
     4  C   -0.840294
     5  C    0.598733
     6  C    0.567276
     7  H   -0.144668
     8  H   -0.154770
     9  H   -0.160762
    10  H   -0.129990
    11  H   -0.256149
    12  H   -0.071390
    13  H   -0.191262
    14  H   -0.164481
    15  C   -1.295859
    16  C    0.374658
    17  C   -0.647271
    18  C    1.534819
    19  C    0.153176
    20  H   -0.329499
    21  H    0.055719
    22  H   -0.386767
    23  O   -1.309557
    24  C    1.844193
    25  C    0.183415
    26  H   -0.505221
    27  C    1.118485
    28  H   -0.039295
    29  H   -0.191402
    30  C    1.362023
    31  H   -0.174493
    32  H   -0.221108
    33  H   -0.015013
    34  C   -1.588504
    35  H   -0.355241
    36  C    1.145838
    37  H   -0.022607
    38  H   -0.117350
    39  H   -0.036795
    40  C    1.219148
    41  H   -0.103660
    42  H    0.027827
    43  H   -0.196341
    44  O   -1.372815
    45  O   -1.295091
    46  C    1.012119
    47  H   -0.149415
    48  H   -0.392714
    49  C    0.889006
    50  H   -0.159002
    51  H   -0.404720
    52  H   -0.777279
 Sum of Mulliken charges =  -1.00000

 Dipole moment (field-independent basis, Debye):
    X=              4.9336    Y=             -2.7717    Z=              0.1107  Tot=              5.6600
 Unable to Open any file for archive entry.
 1\1\GINC-SE255\SP\RMP2-FC\Aug-CC-pVDZ\C20H29O3\OHZDE\20-Sep-2024\0\\#t
  symm=none mp2 aug-cc-pvdz geom=allcheck guess=(read,tcheck) int=(grid
 =ultrafine)\\title\\-1,1\C,0,-4.825412,0.170655,0.29456\C,0,-3.582617,
 0.899726,-0.206471\C,0,-2.283952,0.13514,-0.011116\C,0,-2.327744,-1.30
 177,-0.167807\C,0,-3.624421,-2.002892,0.20369\C,0,-4.871833,-1.251718,
 -0.245621\H,0,-3.731834,1.128207,-1.276138\H,0,-3.484019,1.869839,0.28
 1898\H,0,-4.808129,0.130615,1.391344\H,0,-5.728295,0.724188,0.009631\H
 ,0,-3.616437,-3.018203,-0.203403\H,0,-3.663474,-2.096075,1.298\H,0,-4.
 906187,-1.222998,-1.342023\H,0,-5.77395,-1.776798,0.091042\C,0,0.78964

 Normal termination of Gaussian 16 at Fri Sep 20 17:59:19 2024.
