 Gaussian 16, Revision C.01,

 ----------------------------------------------------------------------
 #t hf aug-cc-pvdz symm=none int=(grid=ultrafine) guess=(read,tcheck) s
 table=(opt,rrhf)
 ----------------------------------------------------------------------
 -----
 title
 -----
 Symbolic Z-matrix:
 Charge =  0 Multiplicity = 1

 SCF Done:  E(RHF) =  -1125.28076311     A.U. after   15 cycles
 Normal termination of Gaussian 16 at Fri Sep 20 23:46:25 2024.
 Gaussian 16:  ES64L-G16RevC.01  3-Jul-2019

 ----------------------------------------------------------------------
 #t symm=none mp2 aug-cc-pvdz geom=allcheck guess=(read,tcheck) int=(gr
 id=ultrafine)
 ----------------------------------------------------------------------
 Structure from the checkpoint file:  "06_28R.chk"
 -----
 title
 -----
 Charge =  0 Multiplicity = 1

                          Input orientation:
 ---------------------------------------------------------------------
 Center     Atomic      Atomic             Coordinates (Angstroms)
 Number     Number       Type             X           Y           Z
 ---------------------------------------------------------------------
      1          6           0        0.119974   -2.817476    0.101194
      2          6           0       -0.204308   -1.488519    0.837928
      3          6           0        2.561577   -0.686739   -0.340166
      4          1           0       -0.820892   -3.250305   -0.247757
      5          6           0        0.597200   -1.313426    2.146251
      6          1           0        0.445228   -0.301056    2.536511
      7          1           0        0.164516   -1.986374    2.894288
      8          1           0        3.435075   -0.238635   -0.822912
      9          1           0       -1.254359   -1.535584    1.137462
     10          6           0        2.091589   -1.608353    2.071440
     11          1           0        2.504429   -1.531845    3.082206
     12          1           0        2.238263   -2.651701    1.779235
     13          6           0        2.919834   -0.710839    1.157300
     14          1           0        2.901102    0.310427    1.548466
     15          1           0        3.962466   -1.036660    1.238010
     16          6           0        2.442975   -2.112615   -0.938079
     17          1           0        2.905723   -2.104840   -1.929785
     18          6           0        1.037993   -2.700113   -1.122841
     19          1           0        0.518111   -2.112554   -1.889101
     20          1           0        1.151299   -3.696733   -1.560713
     21          1           0        3.049362   -2.799903   -0.338966
     22          1           0        0.536277   -3.540344    0.809554
     23          6           0        1.353918    0.209126   -0.689513
     24          1           0        1.258736    0.249225   -1.785536
     25         14           0        1.562388    2.064576   -0.293402
     26          6           0        0.944563    2.505841    1.430124
     27          1           0        1.515817    2.017248    2.221565
     28          1           0        1.016514    3.585084    1.590212
     29          1           0       -0.105072    2.228257    1.556759
     30          6           0        0.562471    3.047826   -1.540400
     31          1           0        0.638872    4.120839   -1.345440
     32          1           0        0.916666    2.869400   -2.559211
     33          1           0       -0.491041    2.766189   -1.499289
     34          6           0        3.371479    2.554328   -0.447720
     35          1           0        3.758411    2.325012   -1.444059
     36          1           0        3.483213    3.630794   -0.291803
     37          1           0        4.007251    2.047125    0.280633
     38          5           0       -0.022074   -0.297885   -0.171814
     39          6           0       -3.113602    0.744922    0.503388
     40          6           0       -4.510404    0.491985    0.802823
     41          1           0       -4.986467   -0.297546    0.230800
     42          6           0       -5.213159    1.157555    1.718174
     43          1           0       -4.767565    1.948955    2.311462
     44          1           0       -6.255377    0.931364    1.902698
     45          6           0       -2.410037    0.052894   -0.392429
     46          8           0       -1.122489    0.358008   -0.706588
     47          8           0       -2.918177   -1.008664   -1.053620
     48          6           0       -2.669837   -1.062463   -2.457498
     49          1           0       -3.189147   -1.947095   -2.817730
     50          1           0       -3.069388   -0.172004   -2.949621
     51          1           0       -1.604028   -1.148654   -2.670833
     52          1           0       -2.595074    1.528924    1.041395
 ---------------------------------------------------------------------

 SCF Done:  E(RHF) =  -1125.28076311     A.U. after    2 cycles
 E2 =    -0.3069405548D+01 EUMP2 =    -0.11283501686563D+04

 Alpha  occ. eigenvalues --  -68.75840 -20.60004 -20.59041 -11.35834 -11.29536
 Alpha  occ. eigenvalues --  -11.23570 -11.22903 -11.22509 -11.22320 -11.22083
 Alpha  occ. eigenvalues --  -11.22082 -11.22036 -11.21853 -11.21831 -11.21733
 Alpha  occ. eigenvalues --  -11.20088 -11.19984 -11.19784 -11.19376 -11.18455
 Alpha  occ. eigenvalues --   -7.61516  -6.10503  -4.21133  -4.21123  -4.21115
 Alpha  occ. eigenvalues --   -1.45661  -1.37578  -1.11747  -1.08656  -1.04996
 Alpha  occ. eigenvalues --   -1.04593  -1.00774  -0.97855  -0.95156  -0.93978
 Alpha  occ. eigenvalues --   -0.92257  -0.91928  -0.91644  -0.88441  -0.83686
 Alpha  occ. eigenvalues --   -0.79917  -0.78651  -0.76039  -0.72941  -0.71837
 Alpha  occ. eigenvalues --   -0.69506  -0.67646  -0.66004  -0.64156  -0.63046
 Alpha  occ. eigenvalues --   -0.61889  -0.61175  -0.60164  -0.59286  -0.58953
 Alpha  occ. eigenvalues --   -0.57684  -0.57220  -0.56841  -0.56353  -0.56031
 Alpha  occ. eigenvalues --   -0.55926  -0.55038  -0.54409  -0.54057  -0.53308
 Alpha  occ. eigenvalues --   -0.52657  -0.52403  -0.50931  -0.49446  -0.49387
 Alpha  occ. eigenvalues --   -0.48730  -0.48147  -0.47838  -0.46874  -0.45893
 Alpha  occ. eigenvalues --   -0.44257  -0.43035  -0.42985  -0.42514  -0.41682
 Alpha  occ. eigenvalues --   -0.41332  -0.40737  -0.37994  -0.29726
 Alpha virt. eigenvalues --    0.02769   0.03359   0.03629   0.03751   0.04620
 Alpha virt. eigenvalues --    0.04702   0.04889   0.05158   0.05409   0.06110
 Alpha virt. eigenvalues --    0.06298   0.06642   0.06809   0.07074   0.07239

 Mulliken charges:
               1
     1  C    0.413643
     2  C    0.290178
     3  C    0.101855
     4  H   -0.275246
     5  C    0.480998
     6  H   -0.134521
     7  H   -0.262019
     8  H   -0.372664
     9  H   -0.311303
    10  C    0.401869
    11  H   -0.267398
    12  H   -0.049117
    13  C    0.671436
    14  H   -0.209321
    15  H   -0.242117
    16  C    0.435912
    17  H   -0.216104
    18  C    0.780929
    19  H    0.097158
    20  H   -0.319865
    21  H   -0.198342
    22  H   -0.241880
    23  C   -0.215672
    24  H   -0.442928
    25  Si   0.681735
    26  C    1.215445
    27  H   -0.302205
    28  H   -0.449394
    29  H   -0.656420
    30  C    0.892759
    31  H   -0.431817
    32  H   -0.288464
    33  H   -0.328188
    34  C    0.943835
    35  H   -0.342482
    36  H   -0.536846
    37  H   -0.277195
    38  B    0.836262
    39  C    1.684610
    40  C    0.918950
    41  H   -0.700779
    42  C    0.702170
    43  H   -0.406655
    44  H   -0.353376
    45  C   -0.264583
    46  O   -1.168471
    47  O   -1.072164
    48  C    1.063525
    49  H   -0.281131
    50  H   -0.046771
    51  H   -0.261950
    52  H   -0.685882
 Sum of Mulliken charges =  -0.00000

 Dipole moment (field-independent basis, Debye):
    X=              1.3392    Y=             -0.9184    Z=             -1.3301  Tot=              2.0991
 Unable to Open any file for archive entry.
 1\1\GINC-SE322\SP\RMP2-FC\Aug-CC-pVDZ\C17H31B1O2Si1\OHZDE\21-Sep-2024\
 0\\#t symm=none mp2 aug-cc-pvdz geom=allcheck guess=(read,tcheck) int=
 (grid=ultrafine)\\title\\0,1\C,0,0.119974,-2.817476,0.101194\C,0,-0.20
 4308,-1.488519,0.837928\C,0,2.561577,-0.686739,-0.340166\H,0,-0.820892
 ,-3.250305,-0.247757\C,0,0.5972,-1.313426,2.146251\H,0,0.445228,-0.301
 056,2.536511\H,0,0.164516,-1.986374,2.894288\H,0,3.435075,-0.238635,-0
 .822912\H,0,-1.254359,-1.535584,1.137462\C,0,2.091589,-1.608353,2.0714
 4\H,0,2.504429,-1.531845,3.082206\H,0,2.238263,-2.651701,1.779235\C,0,
 2.919834,-0.710839,1.1573\H,0,2.901102,0.310427,1.548466\H,0,3.962466,

 Normal termination of Gaussian 16 at Sat Sep 21 02:04:07 2024.
