 Gaussian 16, Revision C.01,

 ----------------------------------------------------------------------
 #t hf aug-cc-pvdz symm=none int=(grid=ultrafine) guess=(read,tcheck) s
 table=(opt,rrhf)
 ----------------------------------------------------------------------
 -----
 title
 -----
 Symbolic Z-matrix:
 Charge =  1 Multiplicity = 1

 SCF Done:  E(RHF) =  -1147.72518817     A.U. after   19 cycles
 Normal termination of Gaussian 16 at Fri Sep 20 23:05:47 2024.
 Gaussian 16:  ES64L-G16RevC.01  3-Jul-2019

 ----------------------------------------------------------------------
 #t symm=none mp2 aug-cc-pvdz geom=allcheck guess=(read,tcheck) int=(gr
 id=ultrafine)
 ----------------------------------------------------------------------
 Structure from the checkpoint file:  "05_27TS.chk"
 -----
 title
 -----
 Charge =  1 Multiplicity = 1

                          Input orientation:
 ---------------------------------------------------------------------
 Center     Atomic      Atomic             Coordinates (Angstroms)
 Number     Number       Type             X           Y           Z
 ---------------------------------------------------------------------
      1          1           0       -1.744103   -0.643971    0.487935
      2          6           0        0.983965    0.460110    1.134171
      3          6           0        0.891837   -1.681281   -0.430870
      4          6           0        2.424670   -1.715041   -0.341559
      5          6           0        3.044438   -0.346273   -0.132328
      6          6           0        2.502188    0.255802    1.158670
      7          1           0        2.712570   -2.369685    0.488189
      8          1           0        2.799516   -2.169644   -1.260735
      9          1           0        2.798972    0.314406   -0.964878
     10          1           0        2.768369   -0.398482    1.994681
     11          1           0        2.968955    1.225642    1.331076
     12          7           0        0.361373   -0.817102    0.665479
     13          8           0       -0.790426   -1.104343    1.108422
     14          6           0        0.476347    0.747642    2.543657
     15          1           0        1.036332    1.593840    2.942208
     16          1           0       -0.580504    1.010579    2.549760
     17          1           0        0.629545   -0.107357    3.203039
     18          6           0        0.603451    1.625139    0.206790
     19          1           0       -0.476648    1.734871    0.139136
     20          1           0        1.012854    2.541583    0.633121
     21          1           0        1.011760    1.524549   -0.795408
     22          6           0        0.347201   -3.094419   -0.235601
     23          1           0       -0.723236   -3.146186   -0.423973
     24          1           0        0.846186   -3.757045   -0.943312
     25          1           0        0.543318   -3.457968    0.773622
     26          6           0        0.419654   -1.136080   -1.789641
     27          1           0        0.722260   -1.841082   -2.565648
     28          1           0       -0.666819   -1.053848   -1.817235
     29          1           0        0.854144   -0.168680   -2.030321
     30          7           0        4.489643   -0.434538   -0.115058
     31          6           0        5.244146    0.676357   -0.371264
     32          6           0        6.738029    0.499336   -0.316668
     33          1           0        7.046957   -0.517119   -0.071935
     34          1           0        7.155465    0.777226   -1.284793
     35          1           0        7.145018    1.187804    0.424324
     36          8           0        4.716827    1.740812   -0.633187
     37          1           0        4.938961   -1.292295    0.161968
     38          6           0       -2.867115    3.730832   -0.610440
     39          6           0       -2.697317    2.877395   -1.693965
     40          6           0       -2.732500    1.505798   -1.511292
     41          6           0       -2.947193    0.979718   -0.233811
     42          6           0       -3.112040    1.843720    0.855116
     43          6           0       -3.077299    3.212473    0.663228
     44          1           0       -2.840437    4.803189   -0.758325
     45          1           0       -2.542699    3.284465   -2.685074
     46          1           0       -2.616280    0.835286   -2.351887
     47          1           0       -3.275557    1.444353    1.848574
     48          1           0       -3.217185    3.879259    1.504424
     49          6           0       -2.963183   -0.469586   -0.017563
     50          8           0       -2.989616   -1.230930   -1.131220
     51          6           0       -3.764818   -1.151760    1.074035
     52          6           0       -3.605529   -2.519584   -0.866027
     53          6           0       -3.688886   -2.619971    0.650513
     54          1           0       -4.788806   -0.767190    1.037890
     55          1           0       -3.368920   -0.966637    2.071277
     56          1           0       -4.586662   -2.499320   -1.343361
     57          1           0       -2.992228   -3.281372   -1.343073
     58          1           0       -4.551896   -3.198249    0.974986
     59          1           0       -2.790875   -3.085704    1.057774
 ---------------------------------------------------------------------

 SCF Done:  E(RHF) =  -1147.72518817     A.U. after    2 cycles
 E2 =    -0.4024866724D+01 EUMP2 =    -0.11517500548898D+04

 Alpha  occ. eigenvalues --  -20.82499 -20.73812 -20.60921 -15.81993 -15.68148
 Alpha  occ. eigenvalues --  -11.48243 -11.44023 -11.41856 -11.41690 -11.40869
 Alpha  occ. eigenvalues --  -11.37801 -11.37731 -11.37704 -11.36981 -11.36601
 Alpha  occ. eigenvalues --  -11.36273 -11.36233 -11.35655 -11.35484 -11.35243
 Alpha  occ. eigenvalues --  -11.34453 -11.34200 -11.33767 -11.33621 -11.33218
 Alpha  occ. eigenvalues --  -11.31723  -1.65394  -1.56793  -1.47309  -1.33809
 Alpha  occ. eigenvalues --   -1.30603  -1.28952  -1.23199  -1.21467  -1.19060
 Alpha  occ. eigenvalues --   -1.16259  -1.14285  -1.11898  -1.10863  -1.07707
 Alpha  occ. eigenvalues --   -1.06808  -1.05518  -1.05131  -0.98731  -0.97531
 Alpha  occ. eigenvalues --   -0.95874  -0.95085  -0.94035  -0.92268  -0.89345
 Alpha  occ. eigenvalues --   -0.88477  -0.85124  -0.83510  -0.81278  -0.81007
 Alpha  occ. eigenvalues --   -0.80157  -0.79273  -0.77534  -0.76996  -0.75985
 Alpha  occ. eigenvalues --   -0.74544  -0.73493  -0.73098  -0.72342  -0.71843
 Alpha  occ. eigenvalues --   -0.71337  -0.71126  -0.70703  -0.69830  -0.69490
 Alpha  occ. eigenvalues --   -0.68749  -0.68327  -0.67318  -0.66496  -0.65926
 Alpha  occ. eigenvalues --   -0.65747  -0.65254  -0.64852  -0.64210  -0.63811
 Alpha  occ. eigenvalues --   -0.63398  -0.62692  -0.62480  -0.62247  -0.61741
 Alpha  occ. eigenvalues --   -0.60872  -0.60852  -0.60034  -0.59846  -0.59209
 Alpha  occ. eigenvalues --   -0.58659  -0.57602  -0.56850  -0.50609  -0.49578
 Alpha  occ. eigenvalues --   -0.48068  -0.45950  -0.42713
 Alpha virt. eigenvalues --   -0.14135  -0.05368  -0.04478  -0.04341  -0.04024
 Alpha virt. eigenvalues --   -0.03272  -0.02959  -0.02812  -0.02700  -0.02313
 Alpha virt. eigenvalues --   -0.01536  -0.01069  -0.00966  -0.00901  -0.00855

 Mulliken charges:
               1
     1  H    0.785463
     2  C   -3.079018
     3  C   -3.370215
     4  C    1.962362
     5  C    0.055833
     6  C    1.501193
     7  H   -0.063875
     8  H   -0.157194
     9  H   -0.342891
    10  H   -0.035575
    11  H   -0.171792
    12  N   -0.696836
    13  O   -0.896537
    14  C    1.617242
    15  H    0.014443
    16  H   -0.003130
    17  H   -0.005143
    18  C    1.653161
    19  H   -0.606867
    20  H   -0.008072
    21  H   -0.045387
    22  C    1.470390
    23  H   -0.350055
    24  H    0.064330
    25  H    0.009188
    26  C    1.687103
    27  H   -0.043398
    28  H   -0.276509
    29  H   -0.025876
    30  N   -0.162998
    31  C    0.296330
    32  C    0.502235
    33  H   -0.183833
    34  H    0.058256
    35  H    0.056840
    36  O   -0.865506
    37  H   -0.103820
    38  C    0.826019
    39  C    0.136182
    40  C    0.609618
    41  C    0.984114
    42  C    0.866857
    43  C    0.084367
    44  H   -0.475139
    45  H   -0.529864
    46  H   -0.774830
    47  H   -0.757581
    48  H   -0.536645
    49  C   -0.071795
    50  O   -1.179237
    51  C    0.905760
    52  C    1.254745
    53  C    0.577384
    54  H   -0.190008
    55  H   -0.149936
    56  H   -0.332078
    57  H   -0.189033
    58  H   -0.137505
    59  H   -0.161235
 Sum of Mulliken charges =   1.00000

 Dipole moment (field-independent basis, Debye):
    X=             -4.0819    Y=             -4.4715    Z=              1.5841  Tot=              6.2582
 Unable to Open any file for archive entry.
 1\1\GINC-SE394\SP\RMP2-FC\Aug-CC-pVDZ\C21H33N2O3\OHZDE\21-Sep-2024\0\\
 #t symm=none mp2 aug-cc-pvdz geom=allcheck guess=(read,tcheck) int=(gr
 id=ultrafine)\\title\\1,1\H,0,-1.744103,-0.643971,0.487935\C,0,0.98396
 5,0.46011,1.134171\C,0,0.891837,-1.681281,-0.43087\C,0,2.42467,-1.7150
 41,-0.341559\C,0,3.044438,-0.346273,-0.132328\C,0,2.502188,0.255802,1.
 15867\H,0,2.71257,-2.369685,0.488189\H,0,2.799516,-2.169644,-1.260735\
 H,0,2.798972,0.314406,-0.964878\H,0,2.768369,-0.398482,1.994681\H,0,2.
 968955,1.225642,1.331076\N,0,0.361373,-0.817102,0.665479\O,0,-0.790426
 ,-1.104343,1.108422\C,0,0.476347,0.747642,2.543657\H,0,1.036332,1.5938

 Normal termination of Gaussian 16 at Sat Sep 21 03:25:21 2024.
