 Gaussian 16, Revision C.01,

 ----------------------------------------------------------------------
 #t hf aug-cc-pvdz symm=none int=(grid=ultrafine) guess=(read,tcheck) s
 table=(opt,rrhf)
 ----------------------------------------------------------------------
 -----
 title
 -----
 Symbolic Z-matrix:
 Charge =  0 Multiplicity = 1

 SCF Done:  E(RHF) =  -1112.20591531     A.U. after   16 cycles
 Normal termination of Gaussian 16 at Fri Sep 20 10:02:18 2024.
 Gaussian 16:  ES64L-G16RevC.01  3-Jul-2019

 ----------------------------------------------------------------------
 #t symm=none mp2 aug-cc-pvdz geom=allcheck guess=(read,tcheck) int=(gr
 id=ultrafine)
 ----------------------------------------------------------------------
 Structure from the checkpoint file:  "02_118R.chk"
 -----
 title
 -----
 Charge =  0 Multiplicity = 1

                          Input orientation:
 ---------------------------------------------------------------------
 Center     Atomic      Atomic             Coordinates (Angstroms)
 Number     Number       Type             X           Y           Z
 ---------------------------------------------------------------------
      1          6           0        5.778929    0.760254    1.707276
      2          6           0        5.297996   -0.428175    0.884190
      3          6           0        3.867578   -0.259617    0.396507
      4          6           0        3.288659   -1.515128   -0.286788
      5          6           0        1.823732   -1.352831   -0.577422
      6          6           0        0.778266   -1.880339    0.073116
      7          6           0       -0.569153   -1.552524   -0.408484
      8          6           0       -1.720940   -1.990527    0.097165
      9          6           0       -4.208893    1.772044    0.194341
     10          6           0       -3.043194    2.007722    0.801874
     11          6           0       -1.843175    2.454335    0.118862
     12          6           0       -0.617768    2.188875    0.594339
     13          6           0        0.599136    2.331417   -0.168715
     14          6           0        1.740754    1.738050    0.193260
     15          6           0        2.906296    1.752548   -0.714514
     16          6           0        4.039719   -1.879047   -1.570819
     17          6           0       -3.076606   -1.575459   -0.408346
     18          6           0       -4.011744   -1.233572    0.766209
     19          6           0       -5.326155   -0.501089    0.396837
     20          6           0       -5.320262    0.991962    0.814353
     21          6           0        0.886964   -2.771166    1.277872
     22          8           0        3.013549    2.523657   -1.631525
     23          8           0        3.894069    0.851149   -0.519750
     24          8           0       -2.986662   -0.522143   -1.364781
     25          8           0       -5.692177   -0.666624   -0.959226
     26          1           0        5.750003    1.676529    1.116157
     27          1           0        6.805459    0.611189    2.046369
     28          1           0        5.154504    0.907461    2.593122
     29          1           0        5.951600   -0.569475    0.021242
     30          1           0        5.346893   -1.345042    1.479616
     31          1           0        3.242325   -0.017354    1.257687
     32          1           0        3.426649   -2.322874    0.435793
     33          1           0        1.600830   -0.726552   -1.438387
     34          1           0        0.563749    2.859577   -1.117051
     35          1           0        1.777678    1.179409    1.116929
     36          1           0        3.995587   -1.058135   -2.288259
     37          1           0        3.589284   -2.760152   -2.030316
     38          1           0        5.089580   -2.101466   -1.376347
     39          1           0       -3.524014   -2.400290   -0.969165
     40          1           0       -3.458382   -0.638765    1.496996
     41          1           0       -4.251072   -2.179230    1.259651
     42          1           0       -6.140786   -0.960900    0.959708
     43          1           0       -5.241037    1.035280    1.904876
     44          1           0       -6.291242    1.405387    0.532488
     45          1           0        0.404142   -3.734019    1.090893
     46          1           0        0.379970   -2.321242    2.136248
     47          1           0        1.917981   -2.965413    1.564300
     48          1           0       -2.557794    0.230714   -0.942315
     49          1           0       -4.919450   -0.450470   -1.500130
     50          1           0       -0.529273    1.716266    1.569583
     51          1           0       -1.953751    2.894078   -0.870030
     52          1           0       -4.323679    2.052020   -0.850223
     53          1           0       -2.919904    1.710361    1.841026
     54          1           0       -1.732319   -2.676945    0.938601
     55          1           0       -0.604590   -0.884654   -1.263471
 ---------------------------------------------------------------------

 SCF Done:  E(RHF) =  -1112.20591531     A.U. after    2 cycles
 E2 =    -0.3780096400D+01 EUMP2 =    -0.11159860117099D+04

 Alpha  occ. eigenvalues --  -20.60069 -20.58109 -20.55522 -20.53789 -11.38490
 Alpha  occ. eigenvalues --  -11.30630 -11.30195 -11.29386 -11.27215 -11.26976
 Alpha  occ. eigenvalues --  -11.26008 -11.25880 -11.25431 -11.25139 -11.25042
 Alpha  occ. eigenvalues --  -11.24892 -11.24324 -11.24145 -11.24137 -11.23921
 Alpha  occ. eigenvalues --  -11.23854 -11.23843 -11.23672 -11.22533 -11.22382
 Alpha  occ. eigenvalues --   -1.45296  -1.38813  -1.35680  -1.35632  -1.14330
 Alpha  occ. eigenvalues --   -1.13759  -1.10749  -1.10241  -1.07168  -1.05675
 Alpha  occ. eigenvalues --   -1.03681  -1.00828  -0.97391  -0.95174  -0.94389
 Alpha  occ. eigenvalues --   -0.90772  -0.88789  -0.85169  -0.82921  -0.81989
 Alpha  occ. eigenvalues --   -0.78943  -0.78221  -0.77411  -0.74246  -0.73093
 Alpha  occ. eigenvalues --   -0.71790  -0.70630  -0.68690  -0.67498  -0.66851
 Alpha  occ. eigenvalues --   -0.65831  -0.65090  -0.64316  -0.63838  -0.62527
 Alpha  occ. eigenvalues --   -0.61634  -0.60935  -0.60631  -0.59165  -0.58735
 Alpha  occ. eigenvalues --   -0.58509  -0.58239  -0.57552  -0.56093  -0.55797
 Alpha  occ. eigenvalues --   -0.55366  -0.54282  -0.53813  -0.53440  -0.52964
 Alpha  occ. eigenvalues --   -0.52533  -0.51903  -0.51115  -0.50772  -0.50167
 Alpha  occ. eigenvalues --   -0.49991  -0.49390  -0.48533  -0.47817  -0.47459
 Alpha  occ. eigenvalues --   -0.46839  -0.44612  -0.44465  -0.43894  -0.43628
 Alpha  occ. eigenvalues --   -0.41665  -0.39965  -0.32294  -0.30377
 Alpha virt. eigenvalues --    0.02282   0.03026   0.03459   0.03741   0.04094
 Alpha virt. eigenvalues --    0.04457   0.04587   0.04822   0.05198   0.05619
 Alpha virt. eigenvalues --    0.05835   0.05959   0.06103   0.06716   0.07054

 Mulliken charges:
               1
     1  C    0.744660
     2  C    0.483537
     3  C    0.185493
     4  C   -0.732199
     5  C    1.539133
     6  C   -1.310014
     7  C    0.949445
     8  C    0.733886
     9  C    0.619077
    10  C    0.737035
    11  C    0.459763
    12  C    1.123331
    13  C    0.348485
    14  C    1.344632
    15  C    0.632493
    16  C    1.264477
    17  C    0.976650
    18  C    0.582607
    19  C    0.956595
    20  C    0.272503
    21  C    0.794859
    22  O   -0.868769
    23  O   -1.160570
    24  O   -0.941932
    25  O   -0.900035
    26  H   -0.001709
    27  H   -0.133739
    28  H   -0.065334
    29  H   -0.138577
    30  H   -0.123129
    31  H   -0.321053
    32  H   -0.282133
    33  H   -0.871732
    34  H   -0.723647
    35  H   -0.769309
    36  H   -0.005954
    37  H   -0.119217
    38  H   -0.143724
    39  H   -0.267164
    40  H   -0.302814
    41  H   -0.135033
    42  H   -0.267723
    43  H   -0.066757
    44  H   -0.082944
    45  H    0.172716
    46  H    0.216199
    47  H   -0.439753
    48  H    0.231507
    49  H    0.204582
    50  H   -0.847052
    51  H   -0.606555
    52  H   -0.582214
    53  H   -0.646186
    54  H   -0.866452
    55  H   -0.850239
 Sum of Mulliken charges =  -0.00000

 Dipole moment (field-independent basis, Debye):
    X=             -0.3989    Y=             -2.8336    Z=              5.4200  Tot=              6.1291
 Unable to Open any file for archive entry.
 1\1\GINC-SE275\SP\RMP2-FC\Aug-CC-pVDZ\C21H30O4\OHZDE\20-Sep-2024\0\\#t
  symm=none mp2 aug-cc-pvdz geom=allcheck guess=(read,tcheck) int=(grid
 =ultrafine)\\title\\0,1\C,0,5.778929,0.760254,1.707276\C,0,5.297996,-0
 .428175,0.88419\C,0,3.867578,-0.259617,0.396507\C,0,3.288659,-1.515128
 ,-0.286788\C,0,1.823732,-1.352831,-0.577422\C,0,0.778266,-1.880339,0.0
 73116\C,0,-0.569153,-1.552524,-0.408484\C,0,-1.72094,-1.990527,0.09716
 5\C,0,-4.208893,1.772044,0.194341\C,0,-3.043194,2.007722,0.801874\C,0,
 -1.843175,2.454335,0.118862\C,0,-0.617768,2.188875,0.594339\C,0,0.5991
 36,2.331417,-0.168715\C,0,1.740754,1.73805,0.19326\C,0,2.906296,1.7525

 Normal termination of Gaussian 16 at Fri Sep 20 16:12:33 2024.
