 Gaussian 16, Revision C.01,

 ----------------------------------------------------------------------
 #t hf aug-cc-pvdz symm=none int=(grid=ultrafine) guess=(read,tcheck) s
 table=(opt,rrhf)
 ----------------------------------------------------------------------
 -----
 title
 -----
 Symbolic Z-matrix:
 Charge = -1 Multiplicity = 1

 SCF Done:  E(RHF) =  -1778.61892089     A.U. after   20 cycles
 Normal termination of Gaussian 16 at Fri Sep 20 22:44:30 2024.
 Gaussian 16:  ES64L-G16RevC.01  3-Jul-2019

 ----------------------------------------------------------------------
 #t symm=none mp2 aug-cc-pvdz geom=allcheck guess=(read,tcheck) int=(gr
 id=ultrafine)
 ----------------------------------------------------------------------
 Structure from the checkpoint file:  "05_17TS.chk"
 -----
 title
 -----
 Charge = -1 Multiplicity = 1

                          Input orientation:
 ---------------------------------------------------------------------
 Center     Atomic      Atomic             Coordinates (Angstroms)
 Number     Number       Type             X           Y           Z
 ---------------------------------------------------------------------
      1          7           0        2.714883    2.722776    0.357931
      2          6           0        3.906123    3.108973   -0.171150
      3          7           0        4.840782    2.100149   -0.453271
      4          6           0        4.681867    0.740243   -0.261896
      5          6           0        3.420669    0.399118    0.351707
      6          6           0        2.499424    1.439428    0.579116
      7          7           0        1.262119    1.088106    1.106117
      8          7           0        3.157286   -0.925291    0.582184
      9          6           0        1.971927   -1.214060    1.209235
     10          6           0        0.996419   -0.219620    1.461629
     11          6           0       -0.217473   -0.593581    2.040848
     12          6           0        1.677198   -2.554136    1.496768
     13          6           0        0.458594   -2.914159    2.029274
     14          6           0       -0.489504   -1.927095    2.289163
     15          1           0       -1.458234   -2.200468    2.688983
     16          1           0       -0.981204    0.145748    2.222812
     17          1           0        2.443305   -3.288138    1.280585
     18          1           0        0.231995   -3.954425    2.226544
     19          8           0        4.211273    4.266664   -0.417387
     20          8           0        5.539655   -0.056709   -0.626209
     21          6           0        3.658298   -2.624751   -2.362280
     22          6           0        2.527826   -1.813727   -1.766953
     23          1           0        4.618050   -2.147964   -2.158531
     24          1           0        3.541610   -2.725363   -3.446354
     25          1           0        3.678752   -3.631035   -1.935216
     26          6           0        1.261840   -2.402466   -1.552606
     27          1           0        2.501483   -0.769369   -2.095494
     28          6           0        0.117469   -1.667561   -1.258010
     29          1           0        1.196354   -3.487957   -1.517193
     30          6           0       -1.115760   -2.176874   -0.900510
     31          1           0        0.195761   -0.583766   -1.292719
     32          6           0       -2.165457   -1.308299   -0.514624
     33          1           0       -1.288256   -3.245724   -0.862065
     34          8           0       -2.144080   -0.084921   -0.447223
     35         16           0       -3.701756   -2.191856   -0.030795
     36          6           0       -4.732393   -0.752655    0.342897
     37          6           0       -5.258984   -0.063215   -0.913406
     38          1           0       -4.133445   -0.054060    0.926157
     39          1           0       -5.555620   -1.108712    0.964976
     40          7           0       -6.038157    1.125131   -0.615350
     41          1           0       -5.883668   -0.754638   -1.482552
     42          1           0       -4.418758    0.206878   -1.549101
     43          6           0       -5.568777    2.394890   -0.441025
     44          8           0       -6.306698    3.277739   -0.033763
     45          6           0       -4.129770    2.653681   -0.813744
     46          1           0       -4.025839    2.642659   -1.902039
     47          1           0       -3.443395    1.902254   -0.421156
     48          1           0       -3.860751    3.641941   -0.449387
     49          1           0       -6.993987    1.008140   -0.311768
     50          1           0        2.992389   -1.524124   -0.576576
     51          1           0        5.701845    2.400566   -0.886358
     52          6           0        0.218902    2.091488    1.250240
     53          1           0        0.596729    3.017631    0.830718
     54          1           0       -0.020982    2.247660    2.305529
     55          1           0       -0.676252    1.759949    0.718257
 ---------------------------------------------------------------------

 SCF Done:  E(RHF) =  -1778.61892089     A.U. after    2 cycles
 E2 =    -0.4777063477D+01 EUMP2 =    -0.17833959843660D+04

 Alpha  occ. eigenvalues --  -91.87507 -20.45038 -20.44916 -20.41741 -20.40152
 Alpha  occ. eigenvalues --  -15.52590 -15.51706 -15.51470 -15.49086 -15.42723
 Alpha  occ. eigenvalues --  -11.28089 -11.26310 -11.26254 -11.25016 -11.24209
 Alpha  occ. eigenvalues --  -11.21557 -11.20473 -11.19186 -11.19032 -11.16942
 Alpha  occ. eigenvalues --  -11.16897 -11.16696 -11.16527 -11.15986 -11.15573
 Alpha  occ. eigenvalues --  -11.15547 -11.15190 -11.14919 -11.14176 -11.14116
 Alpha  occ. eigenvalues --  -11.12229  -8.87773  -6.55966  -6.55822  -6.55654
 Alpha  occ. eigenvalues --   -1.30897  -1.29035  -1.28879  -1.26192  -1.23603
 Alpha  occ. eigenvalues --   -1.16120  -1.15946  -1.13906  -1.08659  -1.05639
 Alpha  occ. eigenvalues --   -1.01909  -0.99581  -0.95913  -0.94564  -0.94002
 Alpha  occ. eigenvalues --   -0.92558  -0.90115  -0.89235  -0.85311  -0.84103
 Alpha  occ. eigenvalues --   -0.79989  -0.78631  -0.74583  -0.73833  -0.72912
 Alpha  occ. eigenvalues --   -0.70949  -0.70721  -0.67912  -0.65903  -0.63548
 Alpha  occ. eigenvalues --   -0.62980  -0.61430  -0.61213  -0.59428  -0.58630
 Alpha  occ. eigenvalues --   -0.57743  -0.56761  -0.56153  -0.55788  -0.54765
 Alpha  occ. eigenvalues --   -0.54264  -0.53697  -0.53570  -0.52404  -0.51389
 Alpha  occ. eigenvalues --   -0.50998  -0.50315  -0.50120  -0.49635  -0.49297
 Alpha  occ. eigenvalues --   -0.49249  -0.48261  -0.47520  -0.47328  -0.46384
 Alpha  occ. eigenvalues --   -0.46158  -0.44738  -0.43998  -0.43819  -0.43289
 Alpha  occ. eigenvalues --   -0.43222  -0.43083  -0.42551  -0.41375  -0.41007
 Alpha  occ. eigenvalues --   -0.39849  -0.39600  -0.37400  -0.34514  -0.34242
 Alpha  occ. eigenvalues --   -0.33073  -0.31915  -0.31779  -0.31094  -0.30521
 Alpha  occ. eigenvalues --   -0.30421  -0.29806  -0.28073  -0.24920  -0.23635
 Alpha  occ. eigenvalues --   -0.20985  -0.12731
 Alpha virt. eigenvalues --    0.08890   0.09524   0.09908   0.10403   0.10763
 Alpha virt. eigenvalues --    0.10897   0.11335   0.11842   0.11908   0.12397
 Alpha virt. eigenvalues --    0.12658   0.13108   0.13248   0.14165   0.14307

 Mulliken charges:
               1
     1  N   -0.649537
     2  C    1.129280
     3  N   -0.629175
     4  C    0.798470
     5  C    1.779033
     6  C   -0.606857
     7  N   -1.055510
     8  N   -1.160561
     9  C    0.480095
    10  C    0.365091
    11  C    0.857451
    12  C    1.180530
    13  C    0.470519
    14  C    0.296282
    15  H   -0.633808
    16  H   -0.791118
    17  H   -0.648158
    18  H   -0.605305
    19  O   -0.907934
    20  O   -0.979378
    21  C    0.990511
    22  C   -1.651333
    23  H   -0.055208
    24  H   -0.009266
    25  H   -0.046199
    26  C    1.645920
    27  H   -0.308178
    28  C    1.035956
    29  H   -0.700712
    30  C    0.616310
    31  H   -0.845792
    32  C    0.513070
    33  H   -0.778625
    34  O   -1.141108
    35  S    0.188734
    36  C    0.153523
    37  C    0.821520
    38  H   -0.048436
    39  H   -0.183355
    40  N   -0.516095
    41  H   -0.232919
    42  H   -0.149044
    43  C    0.855642
    44  O   -0.883009
    45  C    0.559016
    46  H    0.058386
    47  H   -0.216679
    48  H   -0.187420
    49  H   -0.138978
    50  H    0.631586
    51  H   -0.074304
    52  C    1.105329
    53  H   -0.325079
    54  H   -0.104535
    55  H   -0.268641
 Sum of Mulliken charges =  -1.00000

 Dipole moment (field-independent basis, Debye):
    X=             -7.4524    Y=             -9.4885    Z=              0.9299  Tot=             12.1011
 Unable to Open any file for archive entry.
 1\1\GINC-SE390\SP\RMP2-FC\Aug-CC-pVDZ\C21H24N5O4S1\OHZDE\21-Sep-2024\0
 \\#t symm=none mp2 aug-cc-pvdz geom=allcheck guess=(read,tcheck) int=(
 grid=ultrafine)\\title\\-1,1\N,0,2.714883,2.722776,0.357931\C,0,3.9061
 23,3.108973,-0.17115\N,0,4.840782,2.100149,-0.453271\C,0,4.681867,0.74
 0243,-0.261896\C,0,3.420669,0.399118,0.351707\C,0,2.499424,1.439428,0.
 579116\N,0,1.262119,1.088106,1.106117\N,0,3.157286,-0.925291,0.582184\
 C,0,1.971927,-1.21406,1.209235\C,0,0.996419,-0.21962,1.461629\C,0,-0.2
 17473,-0.593581,2.040848\C,0,1.677198,-2.554136,1.496768\C,0,0.458594,
 -2.914159,2.029274\C,0,-0.489504,-1.927095,2.289163\H,0,-1.458234,-2.2

 Normal termination of Gaussian 16 at Sat Sep 21 02:49:09 2024.
