 Gaussian 16, Revision C.01,

 ----------------------------------------------------------------------
 #t hf aug-cc-pvdz symm=none int=(grid=ultrafine) guess=(read,tcheck) s
 table=(opt,rrhf)
 ----------------------------------------------------------------------
 -----
 title
 -----
 Symbolic Z-matrix:
 Charge =  1 Multiplicity = 1

 SCF Done:  E(RHF) =  -1262.16199049     A.U. after   22 cycles
 Normal termination of Gaussian 16 at Fri Sep 20 23:53:22 2024.
 Gaussian 16:  ES64L-G16RevC.01  3-Jul-2019

 ----------------------------------------------------------------------
 #t symm=none mp2 aug-cc-pvdz geom=allcheck guess=(read,tcheck) int=(gr
 id=ultrafine)
 ----------------------------------------------------------------------
 Structure from the checkpoint file:  "05_34TS.chk"
 -----
 title
 -----
 Charge =  1 Multiplicity = 1

                          Input orientation:
 ---------------------------------------------------------------------
 Center     Atomic      Atomic             Coordinates (Angstroms)
 Number     Number       Type             X           Y           Z
 ---------------------------------------------------------------------
      1          6           0        1.959900    0.991755    0.418332
      2          6           0        1.812359   -1.658026    0.322677
      3          6           0        3.310858   -1.668276    0.643017
      4          6           0        4.039718   -0.447601    0.111924
      5          6           0        3.440705    0.802876    0.745400
      6          1           0        3.438759   -1.718116    1.729702
      7          1           0        3.735697   -2.582634    0.223570
      8          1           0        3.936612   -0.384123   -0.972451
      9          1           0        3.567595    0.741862    1.830695
     10          1           0        3.981520    1.682952    0.396607
     11          7           0        1.252393   -0.307105    0.622005
     12          8           0       -0.012543   -0.243148    0.709680
     13          6           0        1.341527    2.013115    1.371693
     14          1           0        1.918140    2.937082    1.314872
     15          1           0        0.307432    2.236064    1.112296
     16          1           0        1.370861    1.651892    2.400392
     17          6           0        1.763473    1.457185   -1.033388
     18          1           0        2.163487    2.466947   -1.129996
     19          1           0        0.704988    1.494850   -1.294550
     20          1           0        2.283515    0.829538   -1.753994
     21          6           0        1.089948   -2.670097    1.211091
     22          1           0        0.035043   -2.751948    0.953812
     23          1           0        1.553794   -3.648586    1.079763
     24          1           0        1.168506   -2.389469    2.262100
     25          6           0        1.553297   -1.993863   -1.154374
     26          1           0        0.492771   -1.904212   -1.394212
     27          1           0        1.841248   -3.030401   -1.334126
     28          1           0        2.121091   -1.364028   -1.836484
     29          6           0       -2.850724   -0.529322   -0.603824
     30          6           0       -2.668677    0.801478   -0.587624
     31          6           0       -1.645923   -0.009655   -1.162026
     32          1           0       -0.649265   -0.152494   -0.358866
     33          1           0       -1.202934   -0.057439   -2.157153
     34          6           0       -3.079488    2.135874   -0.296267
     35          6           0       -2.282495    3.206003   -0.720942
     36          6           0       -4.260059    2.388584    0.413153
     37          6           0       -2.662361    4.505660   -0.442224
     38          1           0       -1.371520    3.007675   -1.272282
     39          6           0       -4.633754    3.689863    0.688890
     40          1           0       -4.875802    1.562954    0.745070
     41          6           0       -3.836475    4.747030    0.262139
     42          1           0       -2.048479    5.333374   -0.773444
     43          1           0       -5.546380    3.886408    1.236645
     44          1           0       -4.133343    5.765521    0.479705
     45          6           0       -3.608155   -1.710429   -0.346788
     46          6           0       -4.824341   -1.651918    0.344547
     47          6           0       -3.120672   -2.945611   -0.790468
     48          6           0       -5.537960   -2.810709    0.583677
     49          1           0       -5.201881   -0.698481    0.690071
     50          6           0       -3.839422   -4.101296   -0.547934
     51          1           0       -2.180732   -2.986312   -1.327519
     52          6           0       -5.046654   -4.033616    0.138418
     53          1           0       -6.478802   -2.766659    1.116997
     54          1           0       -3.464804   -5.056268   -0.893415
     55          1           0       -5.609337   -4.939407    0.327394
     56          7           0        5.462322   -0.546010    0.364614
     57          6           0        6.341625    0.190068   -0.378196
     58          6           0        7.799578    0.040517   -0.033375
     59          1           0        7.984020   -0.658757    0.782445
     60          1           0        8.333189   -0.296906   -0.922215
     61          1           0        8.197670    1.019499    0.234814
     62          8           0        5.948918    0.918076   -1.270504
     63          1           0        5.798382   -1.095540    1.138843
 ---------------------------------------------------------------------

 SCF Done:  E(RHF) =  -1262.16199049     A.U. after    5 cycles
 E2 =    -0.4442359847D+01 EUMP2 =    -0.12666043503393D+04

 Alpha  occ. eigenvalues --  -20.79528 -20.60390 -15.79084 -15.67553 -11.43499
 Alpha  occ. eigenvalues --  -11.42567 -11.42389 -11.42296 -11.40346 -11.39717
 Alpha  occ. eigenvalues --  -11.37514 -11.37495 -11.36966 -11.36539 -11.36503
 Alpha  occ. eigenvalues --  -11.36498 -11.36487 -11.35805 -11.35783 -11.34976
 Alpha  occ. eigenvalues --  -11.34928 -11.34919 -11.34891 -11.34257 -11.33910
 Alpha  occ. eigenvalues --  -11.33318 -11.32981 -11.32871 -11.32506 -11.31286
 Alpha  occ. eigenvalues --   -1.62661  -1.46758  -1.36802  -1.32999  -1.28975
 Alpha  occ. eigenvalues --   -1.28166  -1.27397  -1.22121  -1.16206  -1.15392
 Alpha  occ. eigenvalues --   -1.14841  -1.13913  -1.13813  -1.10595  -1.07176
 Alpha  occ. eigenvalues --   -1.05963  -1.04843  -1.04324  -0.99467  -0.99418
 Alpha  occ. eigenvalues --   -0.95564  -0.94890  -0.94590  -0.93588  -0.93003
 Alpha  occ. eigenvalues --   -0.88404  -0.87537  -0.86969  -0.84825  -0.80335
 Alpha  occ. eigenvalues --   -0.79739  -0.79242  -0.79094  -0.78589  -0.76900
 Alpha  occ. eigenvalues --   -0.75849  -0.75353  -0.75056  -0.72766  -0.72707
 Alpha  occ. eigenvalues --   -0.72395  -0.71645  -0.70885  -0.70825  -0.70420
 Alpha  occ. eigenvalues --   -0.70036  -0.69103  -0.68869  -0.67537  -0.67292
 Alpha  occ. eigenvalues --   -0.66930  -0.65829  -0.64789  -0.64694  -0.64379
 Alpha  occ. eigenvalues --   -0.64015  -0.63376  -0.63101  -0.62658  -0.62359
 Alpha  occ. eigenvalues --   -0.62221  -0.61571  -0.61145  -0.60636  -0.60418
 Alpha  occ. eigenvalues --   -0.59775  -0.59259  -0.58734  -0.58529  -0.58040
 Alpha  occ. eigenvalues --   -0.56318  -0.56071  -0.50052  -0.48112  -0.47448
 Alpha  occ. eigenvalues --   -0.47252  -0.45380  -0.45276  -0.38758
 Alpha virt. eigenvalues --   -0.12706  -0.06150  -0.04788  -0.04001  -0.03987
 Alpha virt. eigenvalues --   -0.03725  -0.02860  -0.02749  -0.02477  -0.02266
 Alpha virt. eigenvalues --   -0.01915  -0.01333  -0.01191  -0.01093  -0.00703

 Mulliken charges:
               1
     1  C   -4.044597
     2  C   -3.982306
     3  C    1.935350
     4  C   -0.287438
     5  C    1.820116
     6  H   -0.068412
     7  H   -0.119313
     8  H   -0.395789
     9  H   -0.024119
    10  H   -0.135151
    11  N    1.001437
    12  O   -1.339865
    13  C    1.682935
    14  H    0.045545
    15  H   -0.037792
    16  H   -0.059468
    17  C    1.665148
    18  H   -0.047810
    19  H   -0.311497
    20  H   -0.042526
    21  C    1.646449
    22  H   -0.052408
    23  H    0.060691
    24  H   -0.034410
    25  C    1.617424
    26  H   -0.207993
    27  H   -0.080339
    28  H   -0.021524
    29  C    0.040082
    30  C    0.001228
    31  C   -0.248487
    32  H    0.522239
    33  H   -0.456725
    34  C    0.984431
    35  C    0.887660
    36  C    0.947532
    37  C   -0.185267
    38  H   -0.636388
    39  C    0.090875
    40  H   -0.424138
    41  C    0.513182
    42  H   -0.498347
    43  H   -0.551890
    44  H   -0.428094
    45  C    1.019191
    46  C    0.890906
    47  C    0.852571
    48  C    0.055975
    49  H   -0.401394
    50  C   -0.186098
    51  H   -0.654405
    52  C    0.524127
    53  H   -0.549576
    54  H   -0.484196
    55  H   -0.423922
    56  N   -0.147250
    57  C    0.323744
    58  C    0.480872
    59  H   -0.183045
    60  H    0.053803
    61  H    0.056160
    62  O   -0.861976
    63  H   -0.105715
 Sum of Mulliken charges =   1.00000

 Dipole moment (field-independent basis, Debye):
    X=             -4.0892    Y=             -2.1986    Z=              1.8595  Tot=              5.0013
 Unable to Open any file for archive entry.
 1\1\GINC-SE365\SP\RMP2-FC\Aug-CC-pVDZ\C26H33N2O2\OHZDE\21-Sep-2024\0\\
 #t symm=none mp2 aug-cc-pvdz geom=allcheck guess=(read,tcheck) int=(gr
 id=ultrafine)\\title\\1,1\C,0,1.9599,0.991755,0.418332\C,0,1.812359,-1
 .658026,0.322677\C,0,3.310858,-1.668276,0.643017\C,0,4.039718,-0.44760
 1,0.111924\C,0,3.440705,0.802876,0.7454\H,0,3.438759,-1.718116,1.72970
 2\H,0,3.735697,-2.582634,0.22357\H,0,3.936612,-0.384123,-0.972451\H,0,
 3.567595,0.741862,1.830695\H,0,3.98152,1.682952,0.396607\N,0,1.252393,
 -0.307105,0.622005\O,0,-0.012543,-0.243148,0.70968\C,0,1.341527,2.0131
 15,1.371693\H,0,1.91814,2.937082,1.314872\H,0,0.307432,2.236064,1.1122

 Normal termination of Gaussian 16 at Sat Sep 21 05:13:56 2024.
