 Gaussian 16, Revision C.01,

 ----------------------------------------------------------------------
 #t hf aug-cc-pvdz symm=none int=(grid=ultrafine) guess=(read,tcheck) s
 table=(opt,rrhf)
 ----------------------------------------------------------------------
 -----
 title
 -----
 Symbolic Z-matrix:
 Charge = -1 Multiplicity = 1

 SCF Done:  E(RHF) =  -1052.78148018     A.U. after   17 cycles
 Normal termination of Gaussian 16 at Fri Sep 20 10:53:14 2024.
 Gaussian 16:  ES64L-G16RevC.01  3-Jul-2019

 ----------------------------------------------------------------------
 #t symm=none mp2 aug-cc-pvdz geom=allcheck guess=(read,tcheck) int=(gr
 id=ultrafine)
 ----------------------------------------------------------------------
 Structure from the checkpoint file:  "02_13TS.chk"
 -----
 title
 -----
 Charge = -1 Multiplicity = 1

                          Input orientation:
 ---------------------------------------------------------------------
 Center     Atomic      Atomic             Coordinates (Angstroms)
 Number     Number       Type             X           Y           Z
 ---------------------------------------------------------------------
      1          6           0        4.807920   -0.859905   -1.801578
      2          6           0        3.343081   -0.429695   -1.888038
      3          1           0        2.837300   -1.066487   -2.622062
      4          1           0        3.272752    0.591277   -2.283713
      5          1           0        5.230406   -0.911970   -2.810833
      6          1           0        4.844973   -1.879078   -1.398590
      7          6           0        2.603734   -0.533475   -0.571424
      8          1           0        2.900721   -1.354565    0.073721
      9          6           0        1.264547   -0.182168   -0.476909
     10          1           0        0.753339    0.263089   -1.321081
     11          6           0        3.817180    0.832133    0.555718
     12          6           0        3.117099    0.977728    1.736495
     13          1           0        3.479268    0.473354    2.627674
     14          6           0        1.820244    1.495121    1.759527
     15          1           0        1.246458    1.388851    2.674585
     16          6           0        1.151881    1.862100    0.615049
     17          1           0        1.725944    2.167107   -0.251181
     18          6           0       -0.273417    2.322804    0.622780
     19          1           0       -0.822444    1.884466    1.457661
     20          1           0       -0.777097    2.040176   -0.302092
     21          1           0       -0.323476    3.414905    0.714450
     22          6           0        0.430725   -0.919856    0.516660
     23          6           0       -0.994032   -1.007491    0.264076
     24          8           0        0.992005   -1.441795    1.479622
     25          6           0       -1.922044   -1.777056    1.086232
     26          6           0       -1.703976   -0.474916   -0.839570
     27          8           0       -1.361365    0.252611   -1.784200
     28          8           0       -1.741767   -2.492591    2.056912
     29          6           0       -3.165271   -0.947981   -0.737630
     30          1           0       -3.312010   -1.676284   -1.548837
     31          6           0       -4.172997    0.189310   -0.928225
     32          6           0       -4.048271    1.240482    0.177112
     33          1           0       -4.370787    0.799048    1.124397
     34          1           0       -2.992760    1.486859    0.302712
     35          6           0       -4.823059    2.525448   -0.099548
     36          1           0       -4.509070    2.972741   -1.047379
     37          1           0       -4.649263    3.263563    0.687875
     38          1           0       -5.901582    2.354660   -0.153483
     39          7           0       -3.212806   -1.587802    0.558222
     40          1           0       -3.850152   -2.349158    0.733473
     41          6           0       -5.593068   -0.363754   -1.039291
     42          1           0       -6.322393    0.419406   -1.259014
     43          1           0       -5.893988   -0.843419   -0.102146
     44          1           0       -5.660559   -1.109861   -1.836417
     45          1           0       -3.896875    0.659778   -1.878504
     46          6           0        5.189589    0.211491    0.493278
     47          1           0        5.904024    0.833277    1.047053
     48          1           0        5.173454   -0.761837    0.996234
     49          1           0        3.627528    1.564496   -0.222414
     50          6           0        5.686309    0.047605   -0.942296
     51          1           0        6.709656   -0.342510   -0.933689
     52          1           0        5.738243    1.039380   -1.409122
 ---------------------------------------------------------------------

 SCF Done:  E(RHF) =  -1052.78148018     A.U. after    2 cycles
 E2 =    -0.3678427883D+01 EUMP2 =    -0.10564599080620D+04

 Alpha  occ. eigenvalues --  -20.38212 -20.37126 -20.37010 -15.43798 -11.20034
 Alpha  occ. eigenvalues --  -11.18058 -11.17526 -11.14313 -11.14131 -11.13747
 Alpha  occ. eigenvalues --  -11.13739 -11.13549 -11.13408 -11.13186 -11.12632
 Alpha  occ. eigenvalues --  -11.12621 -11.12387 -11.12162 -11.11486 -11.11376
 Alpha  occ. eigenvalues --  -11.10779 -11.10652 -11.09773 -11.05767  -1.23161
 Alpha  occ. eigenvalues --   -1.21503  -1.20690  -1.10424  -1.02460  -0.98426
 Alpha  occ. eigenvalues --   -0.98235  -0.94907  -0.91541  -0.90312  -0.89289
 Alpha  occ. eigenvalues --   -0.87115  -0.82956  -0.81988  -0.76689  -0.75865
 Alpha  occ. eigenvalues --   -0.72457  -0.70467  -0.68320  -0.67108  -0.63902
 Alpha  occ. eigenvalues --   -0.61563  -0.60897  -0.57269  -0.55280  -0.54223
 Alpha  occ. eigenvalues --   -0.53760  -0.52438  -0.52145  -0.52084  -0.51262
 Alpha  occ. eigenvalues --   -0.50639  -0.48745  -0.47922  -0.47253  -0.46807
 Alpha  occ. eigenvalues --   -0.46080  -0.46025  -0.45064  -0.44519  -0.44286
 Alpha  occ. eigenvalues --   -0.43440  -0.41793  -0.41672  -0.41636  -0.41360
 Alpha  occ. eigenvalues --   -0.40391  -0.39935  -0.39031  -0.38830  -0.37969
 Alpha  occ. eigenvalues --   -0.37593  -0.37050  -0.36366  -0.35918  -0.35803
 Alpha  occ. eigenvalues --   -0.35692  -0.34744  -0.31418  -0.29149  -0.25778
 Alpha  occ. eigenvalues --   -0.24616  -0.23894  -0.19166  -0.18075  -0.16004
 Alpha virt. eigenvalues --    0.09407   0.10054   0.10661   0.10939   0.11334
 Alpha virt. eigenvalues --    0.11963   0.12287   0.12394   0.12841   0.13226
 Alpha virt. eigenvalues --    0.13719   0.13832   0.14094   0.14364   0.14459

 Mulliken charges:
               1
     1  C    0.611984
     2  C    0.258613
     3  H   -0.192485
     4  H   -0.044421
     5  H   -0.146482
     6  H   -0.099731
     7  C   -0.030769
     8  H   -0.808740
     9  C    1.762663
    10  H   -0.861684
    11  C    0.360960
    12  C    0.371671
    13  H   -0.580187
    14  C    0.643185
    15  H   -0.556331
    16  C    0.228350
    17  H   -0.660694
    18  C    0.490862
    19  H    0.013283
    20  H   -0.157032
    21  H    0.039543
    22  C    0.700578
    23  C    0.389431
    24  O   -1.151429
    25  C    0.399025
    26  C    0.749486
    27  O   -1.223960
    28  O   -0.961665
    29  C    0.812150
    30  H   -0.209481
    31  C   -0.967079
    32  C    0.770977
    33  H   -0.115433
    34  H   -0.566408
    35  C    0.673225
    36  H   -0.062279
    37  H   -0.077077
    38  H   -0.145788
    39  N   -0.825944
    40  H   -0.112948
    41  C    0.961820
    42  H   -0.089006
    43  H   -0.069162
    44  H   -0.061533
    45  H   -0.374456
    46  C    0.374922
    47  H   -0.158167
    48  H   -0.039125
    49  H   -0.534442
    50  C    0.509979
    51  H   -0.149343
    52  H   -0.089425
 Sum of Mulliken charges =  -1.00000

 Dipole moment (field-independent basis, Debye):
    X=              1.9708    Y=              4.1054    Z=             -4.4433  Tot=              6.3625
 Unable to Open any file for archive entry.
 1\1\GINC-SE046\SP\RMP2-FC\Aug-CC-pVDZ\C20H28N1O3\OHZDE\20-Sep-2024\0\\
 #t symm=none mp2 aug-cc-pvdz geom=allcheck guess=(read,tcheck) int=(gr
 id=ultrafine)\\title\\-1,1\C,0,4.80792,-0.859905,-1.801578\C,0,3.34308
 1,-0.429695,-1.888038\H,0,2.8373,-1.066487,-2.622062\H,0,3.272752,0.59
 1277,-2.283713\H,0,5.230406,-0.91197,-2.810833\H,0,4.844973,-1.879078,
 -1.39859\C,0,2.603734,-0.533475,-0.571424\H,0,2.900721,-1.354565,0.073
 721\C,0,1.264547,-0.182168,-0.476909\H,0,0.753339,0.263089,-1.321081\C
 ,0,3.81718,0.832133,0.555718\C,0,3.117099,0.977728,1.736495\H,0,3.4792
 68,0.473354,2.627674\C,0,1.820244,1.495121,1.759527\H,0,1.246458,1.388

 Normal termination of Gaussian 16 at Fri Sep 20 13:56:53 2024.
