 Gaussian 16, Revision C.01,

 ----------------------------------------------------------------------
 #t hf aug-cc-pvdz symm=none int=(grid=ultrafine) guess=(read,tcheck) s
 table=(opt,rrhf)
 ----------------------------------------------------------------------
 -----
 title
 -----
 Symbolic Z-matrix:
 Charge =  0 Multiplicity = 1

 SCF Done:  E(RHF) =  -1094.42627505     A.U. after   16 cycles
 Normal termination of Gaussian 16 at Fri Sep 20 12:12:40 2024.
 Gaussian 16:  ES64L-G16RevC.01  3-Jul-2019

 ----------------------------------------------------------------------
 #t symm=none mp2 aug-cc-pvdz geom=allcheck guess=(read,tcheck) int=(gr
 id=ultrafine)
 ----------------------------------------------------------------------
 Structure from the checkpoint file:  "02_19R.chk"
 -----
 title
 -----
 Charge =  0 Multiplicity = 1

                          Input orientation:
 ---------------------------------------------------------------------
 Center     Atomic      Atomic             Coordinates (Angstroms)
 Number     Number       Type             X           Y           Z
 ---------------------------------------------------------------------
      1          6           0       -1.318626   -1.939251    0.907596
      2          6           0        0.813161    1.599720    0.462998
      3          6           0       -2.248540   -1.496549    1.751621
      4          6           0        0.104635   -1.867661    1.285852
      5          6           0        0.333204    1.452292   -0.781595
      6          6           0        2.204522    1.780465    0.909681
      7          6           0       -1.106753    1.266502   -1.027033
      8          6           0       -2.136123    1.984581   -0.570988
      9          6           0       -3.547298    1.578867   -0.960622
     10          6           0       -2.012473    3.212788    0.282605
     11          6           0       -3.713184   -1.400693    1.478350
     12          1           0       -2.608759    4.025229   -0.144281
     13          1           0       -2.408084    3.034055    1.288601
     14          1           0       -0.981503    3.547999    0.380481
     15          6           0       -3.912959    0.145625   -0.554157
     16          1           0       -4.269973    2.270540   -0.514130
     17          1           0       -3.662405    1.679616   -2.044862
     18          6           0       -4.066955    0.011779    0.967315
     19          1           0       -4.018686   -2.147565    0.741291
     20          1           0       -4.261515   -1.611130    2.399985
     21          6           0       -5.176267   -0.325601   -1.270202
     22          1           0       -3.086926   -0.498319   -0.867252
     23          1           0       -5.095583    0.261986    1.245467
     24          1           0       -3.424888    0.736214    1.475819
     25          6           0        1.172323    1.381566   -2.029219
     26          1           0        1.159883    2.337872   -2.561790
     27          1           0        2.210327    1.130624   -1.817955
     28          1           0        0.754916    0.633052   -2.706265
     29          1           0       -6.017193    0.340127   -1.052227
     30          1           0       -5.033740   -0.342967   -2.353076
     31          1           0       -5.462589   -1.332874   -0.957266
     32          6           0        2.503442    1.124961    2.234270
     33          1           0        2.130198    0.099986    2.261996
     34          1           0        3.564273    1.118833    2.477740
     35          1           0        1.983804    1.660021    3.035854
     36          6           0        3.084978    2.520383    0.224735
     37          6           0        4.518715    2.791403    0.560171
     38          1           0        4.678571    3.858582    0.743540
     39          1           0        4.865201    2.249772    1.438872
     40          1           0        5.169061    2.520873   -0.278189
     41          1           0        2.729837    3.016205   -0.672453
     42          6           0        1.131457   -2.021685    0.217972
     43          8           0        0.476376   -1.680250    2.430484
     44          6           0        2.433101   -2.173478    0.460542
     45          6           0        0.925577   -1.975294   -1.265978
     46          1           0        2.882835   -2.228649    1.442248
     47          6           0        3.226185   -2.221524   -0.808315
     48          7           0        2.177575   -2.083403   -1.799400
     49          1           0        2.326825   -2.072303   -2.794912
     50          8           0       -0.108025   -1.858056   -1.893442
     51          6           0        4.288258   -1.126811   -0.884336
     52          1           0        4.783317   -1.140108   -1.857294
     53          1           0        5.048696   -1.286347   -0.117250
     54          1           0        3.837803   -0.145986   -0.728104
     55          1           0        3.708514   -3.203074   -0.901048
     56          1           0        0.091898    1.516572    1.272139
     57          1           0       -1.324560    0.439600   -1.699958
     58          1           0       -1.902695   -1.097732    2.702632
     59          1           0       -1.558971   -2.294760   -0.086477
 ---------------------------------------------------------------------

 SCF Done:  E(RHF) =  -1094.42627505     A.U. after    2 cycles
 E2 =    -0.3848183863D+01 EUMP2 =    -0.10982744589128D+04

 Alpha  occ. eigenvalues --  -20.54338 -20.53421 -15.59527 -11.36553 -11.33872
 Alpha  occ. eigenvalues --  -11.30300 -11.28015 -11.25344 -11.25122 -11.24516
 Alpha  occ. eigenvalues --  -11.23235 -11.23162 -11.23094 -11.22700 -11.22411
 Alpha  occ. eigenvalues --  -11.22402 -11.22170 -11.22119 -11.22061 -11.21697
 Alpha  occ. eigenvalues --  -11.21439 -11.21438 -11.21308 -11.21264 -11.21138
 Alpha  occ. eigenvalues --  -11.20599  -1.39492  -1.38317  -1.27468  -1.12522
 Alpha  occ. eigenvalues --   -1.11115  -1.09789  -1.08773  -1.06433  -1.04567
 Alpha  occ. eigenvalues --   -1.03084  -0.99026  -0.98444  -0.93011  -0.92563
 Alpha  occ. eigenvalues --   -0.92030  -0.91557  -0.88705  -0.87691  -0.84676
 Alpha  occ. eigenvalues --   -0.82460  -0.78081  -0.76535  -0.76007  -0.72724
 Alpha  occ. eigenvalues --   -0.71291  -0.70334  -0.67491  -0.66978  -0.65846
 Alpha  occ. eigenvalues --   -0.64403  -0.63725  -0.62568  -0.62293  -0.61460
 Alpha  occ. eigenvalues --   -0.61062  -0.60414  -0.59827  -0.59151  -0.57973
 Alpha  occ. eigenvalues --   -0.57606  -0.56841  -0.56147  -0.55841  -0.55498
 Alpha  occ. eigenvalues --   -0.55024  -0.54876  -0.54227  -0.54073  -0.53731
 Alpha  occ. eigenvalues --   -0.53247  -0.52905  -0.52146  -0.51678  -0.51121
 Alpha  occ. eigenvalues --   -0.50763  -0.50561  -0.49891  -0.48451  -0.47991
 Alpha  occ. eigenvalues --   -0.45957  -0.45356  -0.44983  -0.43316  -0.43116
 Alpha  occ. eigenvalues --   -0.41376  -0.40103  -0.39335  -0.38245  -0.35866
 Alpha  occ. eigenvalues --   -0.34108  -0.28086
 Alpha virt. eigenvalues --    0.02418   0.03513   0.03597   0.03793   0.04352
 Alpha virt. eigenvalues --    0.04548   0.04776   0.05123   0.05229   0.05867
 Alpha virt. eigenvalues --    0.05985   0.06260   0.06456   0.06594   0.06792

 Mulliken charges:
               1
     1  C    1.293972
     2  C    1.595909
     3  C    0.613193
     4  C   -0.517056
     5  C   -1.160152
     6  C   -0.765297
     7  C    1.788097
     8  C   -1.652093
     9  C    1.497498
    10  C    1.024354
    11  C    0.845775
    12  H   -0.056802
    13  H    0.107031
    14  H   -0.183389
    15  C   -1.843690
    16  H   -0.298551
    17  H   -0.127289
    18  C    0.723368
    19  H   -0.208788
    20  H   -0.137021
    21  C    1.528420
    22  H   -0.308840
    23  H   -0.194610
    24  H   -0.335376
    25  C    0.942418
    26  H    0.030458
    27  H   -0.289129
    28  H   -0.203574
    29  H   -0.015090
    30  H   -0.086739
    31  H   -0.113227
    32  C    0.733822
    33  H   -0.207287
    34  H   -0.183896
    35  H    0.040364
    36  C    0.514139
    37  C    0.509327
    38  H    0.039822
    39  H   -0.210178
    40  H    0.040195
    41  H   -0.622843
    42  C    1.315957
    43  O   -1.043738
    44  C    0.550611
    45  C    0.377281
    46  H   -0.592142
    47  C    0.166060
    48  N   -0.502406
    49  H   -0.208492
    50  O   -0.952201
    51  C    0.862203
    52  H   -0.047078
    53  H   -0.002192
    54  H   -0.233277
    55  H   -0.139832
    56  H   -1.077407
    57  H   -1.161512
    58  H   -0.666394
    59  H   -0.792683
 Sum of Mulliken charges =  -0.00000

 Dipole moment (field-independent basis, Debye):
    X=              2.7815    Y=             -0.3927    Z=             -1.1308  Tot=              3.0281
 Unable to Open any file for archive entry.
 1\1\GINC-SE096\SP\RMP2-FC\Aug-CC-pVDZ\C23H33N1O2\OHZDE\20-Sep-2024\0\\
 #t symm=none mp2 aug-cc-pvdz geom=allcheck guess=(read,tcheck) int=(gr
 id=ultrafine)\\title\\0,1\C,0,-1.318626,-1.939251,0.907596\C,0,0.81316
 1,1.59972,0.462998\C,0,-2.24854,-1.496549,1.751621\C,0,0.104635,-1.867
 661,1.285852\C,0,0.333204,1.452292,-0.781595\C,0,2.204522,1.780465,0.9
 09681\C,0,-1.106753,1.266502,-1.027033\C,0,-2.136123,1.984581,-0.57098
 8\C,0,-3.547298,1.578867,-0.960622\C,0,-2.012473,3.212788,0.282605\C,0
 ,-3.713184,-1.400693,1.47835\H,0,-2.608759,4.025229,-0.144281\H,0,-2.4
 08084,3.034055,1.288601\H,0,-0.981503,3.547999,0.380481\C,0,-3.912959,

 Normal termination of Gaussian 16 at Fri Sep 20 19:16:24 2024.
