 Gaussian 16, Revision C.01,

 ----------------------------------------------------------------------
 #t hf aug-cc-pvdz symm=none int=(grid=ultrafine) guess=(read,tcheck) s
 table=(opt,rrhf)
 ----------------------------------------------------------------------
 -----
 title
 -----
 Symbolic Z-matrix:
 Charge =  1 Multiplicity = 1

 SCF Done:  E(RHF) =  -1416.02880883     A.U. after   22 cycles
 Normal termination of Gaussian 16 at Sat Sep 21 01:53:45 2024.
 Gaussian 16:  ES64L-G16RevC.01  3-Jul-2019

 ----------------------------------------------------------------------
 #t symm=none mp2 aug-cc-pvdz geom=allcheck guess=(read,tcheck) int=(gr
 id=ultrafine)
 ----------------------------------------------------------------------
 Structure from the checkpoint file:  "05_42TS.chk"
 -----
 title
 -----
 Charge =  1 Multiplicity = 1

                          Input orientation:
 ---------------------------------------------------------------------
 Center     Atomic      Atomic             Coordinates (Angstroms)
 Number     Number       Type             X           Y           Z
 ---------------------------------------------------------------------
      1          6           0       -1.758834    0.997972   -1.095370
      2          6           0       -1.568097   -1.669062   -0.824844
      3          6           0       -3.096691   -1.680724   -0.958396
      4          6           0       -3.744269   -0.431098   -0.399705
      5          6           0       -3.261939    0.749596   -1.228956
      6          1           0       -3.367002   -1.778656   -2.014778
      7          1           0       -3.461832   -2.573138   -0.446779
      8          1           0       -3.457195   -0.282557    0.642988
      9          1           0       -3.516144    0.566803   -2.277393
     10          1           0       -3.777239    1.657673   -0.917247
     11          7           0       -1.023950   -0.305709   -1.117448
     12          8           0        0.234094   -0.243115   -1.303933
     13          6           0       -1.273908    1.840228   -2.274347
     14          1           0       -1.874396    2.749706   -2.319066
     15          1           0       -0.231588    2.127646   -2.165403
     16          1           0       -1.397756    1.300650   -3.214204
     17          6           0       -1.454188    1.720518    0.224218
     18          1           0       -0.387958    1.919959    0.319967
     19          1           0       -1.973731    2.679033    0.221123
     20          1           0       -1.805822    1.159573    1.089715
     21          6           0       -0.969712   -2.642416   -1.841373
     22          1           0        0.111008   -2.713301   -1.750435
     23          1           0       -1.397402   -3.631890   -1.674004
     24          1           0       -1.208968   -2.332700   -2.859566
     25          6           0       -1.159952   -2.071334    0.599007
     26          1           0       -1.503014   -3.089189    0.788207
     27          1           0       -0.079354   -2.053408    0.722165
     28          1           0       -1.600968   -1.416935    1.349827
     29          1           0        0.980093   -0.074083   -0.352265
     30          6           0        1.288279   -1.692181    4.118624
     31          6           0        2.321894   -2.188865    3.335830
     32          6           0        2.607324   -1.615589    2.108053
     33          6           0        1.865848   -0.522701    1.640510
     34          6           0        0.834019   -0.025849    2.451470
     35          6           0        0.545981   -0.605233    3.672512
     36          1           0        1.068436   -2.143322    5.078222
     37          1           0        2.919023   -3.020147    3.688950
     38          1           0        3.433589   -1.995135    1.524024
     39          1           0        0.251058    0.819164    2.116177
     40          1           0       -0.257215   -0.208127    4.280634
     41          6           0        2.166233    0.117131    0.336467
     42          6           0        3.037206   -0.624376   -0.610731
     43          6           0        4.182576   -0.037003   -1.161071
     44          6           0        2.742088   -1.952276   -0.949188
     45          6           0        5.003900   -0.757254   -2.011976
     46          1           0        4.449734    0.975731   -0.893595
     47          6           0        3.553835   -2.664516   -1.810626
     48          1           0        1.865204   -2.425296   -0.529196
     49          6           0        4.688889   -2.067091   -2.346573
     50          1           0        5.897529   -0.294662   -2.411430
     51          1           0        3.305357   -3.686932   -2.066101
     52          1           0        5.329212   -2.624539   -3.018810
     53          6           0        2.249091    1.599456    0.292652
     54          6           0        2.167747    2.259148   -0.942831
     55          6           0        2.441144    2.366284    1.447286
     56          6           0        2.249063    3.636272   -1.016826
     57          1           0        2.031434    1.678257   -1.845478
     58          6           0        2.536301    3.746366    1.367832
     59          1           0        2.549769    1.880283    2.406594
     60          6           0        2.430938    4.385666    0.140650
     61          1           0        2.175850    4.130092   -1.977727
     62          1           0        2.702526    4.323686    2.268531
     63          1           0        2.501320    5.464750    0.083037
     64          7           0       -5.187569   -0.541056   -0.402885
     65          6           0       -5.933274    0.263658    0.411201
     66          6           0       -7.427591    0.100388    0.330088
     67          1           0       -7.743171   -0.669232   -0.374607
     68          1           0       -7.804307   -0.146098    1.322998
     69          1           0       -7.868287    1.054954    0.041074
     70          8           0       -5.398546    1.061148    1.159032
     71          1           0       -5.644943   -1.156197   -1.056150
 ---------------------------------------------------------------------

 SCF Done:  E(RHF) =  -1416.02880883     A.U. after    3 cycles
 E2 =    -0.5046280790D+01 EUMP2 =    -0.14210750896181D+04

 Alpha  occ. eigenvalues --  -20.79860 -20.60696 -15.79972 -15.67843 -11.43790
 Alpha  occ. eigenvalues --  -11.43196 -11.40678 -11.40035 -11.37200 -11.37195
 Alpha  occ. eigenvalues --  -11.36911 -11.36795 -11.35914 -11.35852 -11.35740
 Alpha  occ. eigenvalues --  -11.35695 -11.35640 -11.35620 -11.35522 -11.35385
 Alpha  occ. eigenvalues --  -11.35235 -11.34842 -11.34772 -11.34662 -11.34549
 Alpha  occ. eigenvalues --  -11.34547 -11.34467 -11.34338 -11.33443 -11.33177
 Alpha  occ. eigenvalues --  -11.33104 -11.32924 -11.32593 -11.31542  -1.62889
 Alpha  occ. eigenvalues --   -1.47052  -1.33323  -1.31015  -1.29110  -1.27129
 Alpha  occ. eigenvalues --   -1.26918  -1.22373  -1.21000  -1.15731  -1.14207
 Alpha  occ. eigenvalues --   -1.14151  -1.13091  -1.12745  -1.12638  -1.10612
 Alpha  occ. eigenvalues --   -1.07421  -1.05931  -1.04941  -1.04514  -1.04426
 Alpha  occ. eigenvalues --   -0.95824  -0.95684  -0.95012  -0.93956  -0.93633
 Alpha  occ. eigenvalues --   -0.93391  -0.93279  -0.89991  -0.88262  -0.87451
 Alpha  occ. eigenvalues --   -0.82374  -0.82300  -0.80704  -0.80501  -0.79835
 Alpha  occ. eigenvalues --   -0.79064  -0.77113  -0.76331  -0.76281  -0.75542
 Alpha  occ. eigenvalues --   -0.74051  -0.73918  -0.73833  -0.72829  -0.72413
 Alpha  occ. eigenvalues --   -0.71838  -0.70726  -0.70391  -0.70272  -0.70104
 Alpha  occ. eigenvalues --   -0.69897  -0.69439  -0.69240  -0.68930  -0.67942
 Alpha  occ. eigenvalues --   -0.67611  -0.66975  -0.66149  -0.64957  -0.64552
 Alpha  occ. eigenvalues --   -0.63713  -0.63465  -0.63186  -0.62547  -0.62405
 Alpha  occ. eigenvalues --   -0.61843  -0.61704  -0.61378  -0.61154  -0.61080
 Alpha  occ. eigenvalues --   -0.60538  -0.60293  -0.59732  -0.59401  -0.58863
 Alpha  occ. eigenvalues --   -0.58715  -0.58215  -0.56739  -0.56487  -0.52577
 Alpha  occ. eigenvalues --   -0.50347  -0.47737  -0.45785  -0.45080  -0.45028
 Alpha  occ. eigenvalues --   -0.44212  -0.44069  -0.40542
 Alpha virt. eigenvalues --   -0.15194  -0.04606  -0.03896  -0.03857  -0.03597
 Alpha virt. eigenvalues --   -0.02766  -0.02633  -0.02565  -0.02440  -0.02189
 Alpha virt. eigenvalues --   -0.01401  -0.01255  -0.01017  -0.00938  -0.00864

 Mulliken charges:
               1
     1  C   -2.930566
     2  C   -2.288801
     3  C    1.319794
     4  C    0.277516
     5  C    1.435736
     6  H   -0.080978
     7  H   -0.195118
     8  H   -0.459303
     9  H   -0.048526
    10  H   -0.160383
    11  N    0.188530
    12  O   -1.386074
    13  C    1.573349
    14  H    0.083430
    15  H   -0.283173
    16  H   -0.014556
    17  C    1.483320
    18  H   -0.544945
    19  H   -0.053082
    20  H   -0.005100
    21  C    1.523826
    22  H   -0.404602
    23  H    0.055754
    24  H    0.036027
    25  C    1.090774
    26  H   -0.073120
    27  H   -0.657499
    28  H    0.115269
    29  H    0.967170
    30  C    1.020359
    31  C    0.157864
    32  C    0.443847
    33  C    1.349695
    34  C    0.407435
    35  C    0.208226
    36  H   -0.502958
    37  H   -0.517803
    38  H   -0.719684
    39  H   -0.652159
    40  H   -0.681577
    41  C   -1.092690
    42  C    0.973189
    43  C    0.824811
    44  C    0.960334
    45  C   -0.070280
    46  H   -0.633607
    47  C   -0.031590
    48  H   -0.815797
    49  C    0.986880
    50  H   -0.520211
    51  H   -0.636119
    52  H   -0.462017
    53  C    1.829362
    54  C    0.263232
    55  C    0.827287
    56  C   -0.064054
    57  H   -0.710653
    58  C    0.178977
    59  H   -0.734738
    60  C    0.973592
    61  H   -0.656430
    62  H   -0.533404
    63  H   -0.504785
    64  N   -0.164571
    65  C    0.268365
    66  C    0.504597
    67  H   -0.175773
    68  H    0.051943
    69  H    0.056124
    70  O   -0.869880
    71  H   -0.100005
 Sum of Mulliken charges =   1.00000

 Dipole moment (field-independent basis, Debye):
    X=              1.3551    Y=             -2.4900    Z=             -1.9795  Tot=              3.4576
 Unable to Open any file for archive entry.
 1\1\GINC-SE206\SP\RMP2-FC\Aug-CC-pVDZ\C30H37N2O2\OHZDE\21-Sep-2024\0\\
 #t symm=none mp2 aug-cc-pvdz geom=allcheck guess=(read,tcheck) int=(gr
 id=ultrafine)\\title\\1,1\C,0,-1.758834,0.997972,-1.09537\C,0,-1.56809
 7,-1.669062,-0.824844\C,0,-3.096691,-1.680724,-0.958396\C,0,-3.744269,
 -0.431098,-0.399705\C,0,-3.261939,0.749596,-1.228956\H,0,-3.367002,-1.
 778656,-2.014778\H,0,-3.461832,-2.573138,-0.446779\H,0,-3.457195,-0.28
 2557,0.642988\H,0,-3.516144,0.566803,-2.277393\H,0,-3.777239,1.657673,
 -0.917247\N,0,-1.02395,-0.305709,-1.117448\O,0,0.234094,-0.243115,-1.3
 03933\C,0,-1.273908,1.840228,-2.274347\H,0,-1.874396,2.749706,-2.31906

 Normal termination of Gaussian 16 at Sat Sep 21 11:12:59 2024.
