 Gaussian 16, Revision C.01,

 ----------------------------------------------------------------------
 #t hf aug-cc-pvdz symm=none int=(grid=ultrafine) guess=(read,tcheck) s
 table=(opt,rrhf)
 ----------------------------------------------------------------------
 -----
 title
 -----
 Symbolic Z-matrix:
 Charge =  0 Multiplicity = 1

 SCF Done:  E(RHF) =  -1203.86743617     A.U. after   20 cycles
 Normal termination of Gaussian 16 at Fri Sep 20 10:25:31 2024.
 Gaussian 16:  ES64L-G16RevC.01  3-Jul-2019

 ----------------------------------------------------------------------
 #t symm=none mp2 aug-cc-pvdz geom=allcheck guess=(read,tcheck) int=(gr
 id=ultrafine)
 ----------------------------------------------------------------------
 Structure from the checkpoint file:  "02_122TS.chk"
 -----
 title
 -----
 Charge =  0 Multiplicity = 1

                          Input orientation:
 ---------------------------------------------------------------------
 Center     Atomic      Atomic             Coordinates (Angstroms)
 Number     Number       Type             X           Y           Z
 ---------------------------------------------------------------------
      1          6           0       -0.793699    1.308530   -0.565377
      2          6           0       -2.066450    1.564057   -0.169966
      3          6           0        0.262868    0.790813    0.234079
      4          6           0        1.489251    0.468520   -0.383431
      5          6           0        1.736724   -1.435483   -0.725219
      6          6           0        2.820622    0.632855    0.315665
      7          1           0        1.550865    0.784337   -1.425001
      8          6           0       -3.262815   -0.951650   -0.332428
      9          6           0       -2.406683   -1.648750    0.455699
     10          1           0       -2.903796   -0.660185   -1.313581
     11          6           0       -4.681334   -0.587894   -0.064953
     12          6           0       -1.061033   -1.802351   -0.004994
     13          6           0       -0.028744   -2.383137    0.695829
     14          6           0        1.314156   -2.208217    0.367624
     15          6           0        3.223776   -1.347786   -0.977733
     16          1           0        1.145538   -1.497228   -1.632046
     17          7           0        3.751359   -0.339356   -0.243720
     18          1           0        2.719785    0.508140    1.397423
     19          6           0        3.550461    1.958869    0.058634
     20          6           0       -3.109649    2.052176   -1.050309
     21          1           0       -2.337798    1.406673    0.866048
     22          6           0       -4.932665    0.920485    0.238504
     23          1           0       -5.084039   -1.135401    0.785520
     24          8           0       -5.528665   -0.957959   -1.159411
     25          6           0       -4.410674    1.807698   -0.853530
     26          1           0       -4.451096    1.150522    1.191751
     27          8           0       -6.318841    1.099747    0.446501
     28          1           0       -0.559482    1.454395   -1.618689
     29          6           0        0.153179    0.683558    1.725230
     30          6           0       -2.764076   -2.146662    1.830454
     31          1           0       -0.856265   -1.399726   -0.988160
     32          1           0       -0.247899   -2.886007    1.631423
     33          1           0        2.062976   -2.550220    1.074364
     34          1           0       -5.104920   -0.690421   -1.981269
     35          1           0       -6.770142    0.578088   -0.229447
     36          1           0       -2.803333    2.617359   -1.926386
     37          1           0       -5.152262    2.209651   -1.535178
     38          6           0        5.121877    0.167727   -0.380574
     39          8           0        3.850759   -2.071136   -1.726364
     40          1           0       -3.823276   -2.035109    2.050231
     41          1           0       -2.205406   -1.605977    2.599118
     42          1           0       -2.514420   -3.204668    1.934457
     43          1           0        0.649672   -0.224943    2.076256
     44          1           0       -0.879727    0.656152    2.065757
     45          1           0        0.647159    1.526721    2.218851
     46          6           0        5.013406    1.572831    0.229979
     47          8           0        3.196875    2.990022    0.953903
     48          1           0        3.364619    2.270626   -0.977638
     49          1           0        5.350234    0.226281   -1.449862
     50          6           0        6.145382   -0.731569    0.290724
     51          1           0        5.232235    1.540873    1.301286
     52          1           0        5.695240    2.286318   -0.231488
     53          1           0        6.144163   -1.717796   -0.173364
     54          1           0        5.918705   -0.841191    1.353899
     55          1           0        7.146224   -0.304301    0.193866
     56          1           0        2.322629    3.319420    0.727443
 ---------------------------------------------------------------------

 SCF Done:  E(RHF) =  -1203.86743617     A.U. after    3 cycles
 E2 =    -0.4142984145D+01 EUMP2 =    -0.12080104203193D+04

 Alpha  occ. eigenvalues --  -20.58715 -20.58508 -20.56633 -20.53268 -15.59175
 Alpha  occ. eigenvalues --  -11.35833 -11.30436 -11.30295 -11.29745 -11.28755
 Alpha  occ. eigenvalues --  -11.28058 -11.27229 -11.27166 -11.27021 -11.25896
 Alpha  occ. eigenvalues --  -11.25257 -11.25125 -11.25099 -11.25070 -11.25017
 Alpha  occ. eigenvalues --  -11.25009 -11.24779 -11.24282 -11.24127 -11.24088
 Alpha  occ. eigenvalues --  -11.24042 -11.22434  -1.39377  -1.39327  -1.38703
 Alpha  occ. eigenvalues --   -1.35945  -1.28193  -1.15555  -1.13274  -1.12080
 Alpha  occ. eigenvalues --   -1.09440  -1.07777  -1.05694  -1.02710  -1.00544
 Alpha  occ. eigenvalues --   -0.98741  -0.96801  -0.94858  -0.93173  -0.89970
 Alpha  occ. eigenvalues --   -0.87344  -0.85768  -0.82966  -0.81814  -0.78648
 Alpha  occ. eigenvalues --   -0.76466  -0.75069  -0.73797  -0.73361  -0.72566
 Alpha  occ. eigenvalues --   -0.70866  -0.68669  -0.68515  -0.68022  -0.67539
 Alpha  occ. eigenvalues --   -0.65949  -0.65299  -0.64101  -0.63011  -0.61890
 Alpha  occ. eigenvalues --   -0.61743  -0.61342  -0.60507  -0.59559  -0.58804
 Alpha  occ. eigenvalues --   -0.58216  -0.57944  -0.57174  -0.56173  -0.56079
 Alpha  occ. eigenvalues --   -0.55740  -0.55041  -0.54375  -0.54192  -0.54106
 Alpha  occ. eigenvalues --   -0.53591  -0.52514  -0.52380  -0.51538  -0.50975
 Alpha  occ. eigenvalues --   -0.50173  -0.49756  -0.49317  -0.48403  -0.47833
 Alpha  occ. eigenvalues --   -0.47507  -0.46379  -0.45028  -0.43179  -0.42812
 Alpha  occ. eigenvalues --   -0.40628  -0.38005  -0.36851  -0.31033  -0.23939
 Alpha virt. eigenvalues --    0.02184   0.02541   0.02991   0.03382   0.03877
 Alpha virt. eigenvalues --    0.04073   0.04321   0.04887   0.05065   0.05429
 Alpha virt. eigenvalues --    0.05644   0.05692   0.06477   0.06529   0.07051

 Mulliken charges:
               1
     1  C   -0.470061
     2  C    0.962852
     3  C    0.928274
     4  C    0.078852
     5  C    0.678683
     6  C    0.388646
     7  H   -0.888365
     8  C    1.115033
     9  C   -0.257289
    10  H   -0.747821
    11  C    1.177060
    12  C    0.400375
    13  C    0.559092
    14  C    0.125296
    15  C    0.726992
    16  H   -0.446023
    17  N   -0.111891
    18  H   -0.707470
    19  C    1.139804
    20  C    0.500549
    21  H   -0.770210
    22  C    1.238454
    23  H   -0.443724
    24  O   -0.953521
    25  C    0.872824
    26  H   -0.276787
    27  O   -0.932603
    28  H   -0.860455
    29  C    0.738987
    30  C    0.820834
    31  H   -0.798185
    32  H   -0.796473
    33  H   -0.633782
    34  H    0.173066
    35  H    0.163147
    36  H   -0.570084
    37  H   -0.533874
    38  C   -0.414882
    39  O   -0.944526
    40  H   -0.375397
    41  H    0.172069
    42  H    0.148737
    43  H    0.260482
    44  H   -0.492561
    45  H    0.024184
    46  C    0.826164
    47  O   -0.847770
    48  H   -0.174060
    49  H   -0.389119
    50  C    0.798879
    51  H   -0.145631
    52  H   -0.062980
    53  H   -0.034971
    54  H   -0.062305
    55  H   -0.053737
    56  H    0.177218
 Sum of Mulliken charges =  -0.00000

 Dipole moment (field-independent basis, Debye):
    X=              0.5967    Y=              2.2367    Z=              0.5751  Tot=              2.3853
 Unable to Open any file for archive entry.
 1\1\GINC-SE310\SP\RMP2-FC\Aug-CC-pVDZ\C22H29N1O4\OHZDE\20-Sep-2024\0\\
 #t symm=none mp2 aug-cc-pvdz geom=allcheck guess=(read,tcheck) int=(gr
 id=ultrafine)\\title\\0,1\C,0,-0.793699,1.30853,-0.565377\C,0,-2.06645
 ,1.564057,-0.169966\C,0,0.262868,0.790813,0.234079\C,0,1.489251,0.4685
 2,-0.383431\C,0,1.736724,-1.435483,-0.725219\C,0,2.820622,0.632855,0.3
 15665\H,0,1.550865,0.784337,-1.425001\C,0,-3.262815,-0.95165,-0.332428
 \C,0,-2.406683,-1.64875,0.455699\H,0,-2.903796,-0.660185,-1.313581\C,0
 ,-4.681334,-0.587894,-0.064953\C,0,-1.061033,-1.802351,-0.004994\C,0,-
 0.028744,-2.383137,0.695829\C,0,1.314156,-2.208217,0.367624\C,0,3.2237

 Normal termination of Gaussian 16 at Fri Sep 20 16:30:46 2024.
