 Gaussian 16, Revision C.01,

 ----------------------------------------------------------------------
 #t hf aug-cc-pvdz symm=none int=(grid=ultrafine) guess=(read,tcheck) s
 table=(opt,rrhf)
 ----------------------------------------------------------------------
 -----
 title
 -----
 Symbolic Z-matrix:
 Charge =  1 Multiplicity = 1

 SCF Done:  E(RHF) =  -1507.23632163     A.U. after   18 cycles
 Normal termination of Gaussian 16 at Fri Sep 20 23:01:58 2024.
 Gaussian 16:  ES64L-G16RevC.01  3-Jul-2019

 ----------------------------------------------------------------------
 #t symm=none mp2 aug-cc-pvdz geom=allcheck guess=(read,tcheck) int=(gr
 id=ultrafine)
 ----------------------------------------------------------------------
 Structure from the checkpoint file:  "05_24TS.chk"
 -----
 title
 -----
 Charge =  1 Multiplicity = 1

                          Input orientation:
 ---------------------------------------------------------------------
 Center     Atomic      Atomic             Coordinates (Angstroms)
 Number     Number       Type             X           Y           Z
 ---------------------------------------------------------------------
      1          6           0        0.309814    0.943647    1.933612
      2          6           0       -0.789872    1.755981    2.423504
      3          6           0       -2.051607    1.406620    2.109093
      4          7           0       -2.309617    0.236661    1.436372
      5          6           0       -1.339314   -0.712042    1.334997
      6          6           0       -0.053393   -0.439732    1.671942
      7          6           0        1.040647   -1.446594    1.692516
      8          8           0        2.197064   -1.078154    1.779898
      9          7           0        0.695507   -2.759494    1.576781
     10          6           0       -3.568038    0.083800    0.708092
     11          6           0       -3.404998    0.367481   -0.787312
     12          6           0       -4.604535   -0.375658   -1.344115
     13          6           0       -4.639047   -1.629263   -0.468186
     14          8           0       -4.018232   -1.233341    0.790202
     15          1           0       -4.273717    0.792703    1.154678
     16          6           0       -6.009373   -2.198821   -0.207214
     17          1           0       -3.993936   -2.381192   -0.931971
     18          1           0       -5.946405   -3.081250    0.429795
     19          1           0       -6.468547   -2.489028   -1.154261
     20          1           0       -6.648485   -1.461500    0.282452
     21          8           0       -4.477772   -0.752031   -2.690797
     22          1           0       -5.504541    0.231670   -1.186498
     23          8           0       -3.379801    1.720365   -1.127849
     24          1           0       -2.506802   -0.154723   -1.143432
     25          1           0       -2.473948    2.072773   -1.059347
     26          1           0       -4.652526    0.008474   -3.252753
     27          1           0       -0.215826   -3.083728    1.854907
     28          1           0        1.454158   -3.418253    1.669380
     29          1           0       -2.919243    1.997880    2.369579
     30          1           0       -0.603764    2.648692    3.005154
     31          1           0       -1.688698   -1.672976    0.982340
     32          1           0        0.676788    1.438260    0.749501
     33          6           0        4.624901    0.659932   -0.223000
     34          7           0        5.230018   -0.591525   -0.407024
     35          6           0        4.558229   -1.689086   -0.852378
     36          7           0        3.288905   -1.671347   -1.164876
     37          6           0        2.639825   -0.499985   -1.003273
     38          6           0        3.256117    0.662861   -0.604148
     39          7           0        2.518701    1.824915   -0.397748
     40          6           0        1.171552    1.840024   -0.470360
     41          6           0        0.598365    0.768231   -1.384358
     42          7           0        1.293810   -0.490480   -1.204263
     43          1           0        0.671546    1.143026   -2.416376
     44          1           0       -0.456742    0.632481   -1.161770
     45          6           0        0.558366    3.219725   -0.630536
     46          7           0       -0.902959    3.204833   -0.545541
     47          1           0        0.842039    3.575094   -1.625111
     48          1           0        1.023487    3.898754    0.093623
     49          8           0        5.240048    1.609650    0.227123
     50          1           0        6.195723   -0.649941   -0.111376
     51          7           0        5.247661   -2.844605   -0.955156
     52          1           0        6.252706   -2.866064   -0.923978
     53          1           0        4.770216   -3.622292   -1.380382
     54          1           0        0.911432   -1.319950   -1.633532
     55          1           0       -1.277110    4.018272   -1.022715
     56          1           0       -1.203335    3.270636    0.420862
     57          1           0        3.039475    2.598038    0.004262
     58          1           0        1.285583    1.076802    2.395287
 ---------------------------------------------------------------------

 SCF Done:  E(RHF) =  -1507.23632163     A.U. after    2 cycles
 E2 =    -0.4905215123D+01 EUMP2 =    -0.15121415367495D+04

 Alpha  occ. eigenvalues --  -20.69051 -20.67937 -20.67335 -20.63686 -20.62047
 Alpha  occ. eigenvalues --  -15.75816 -15.73055 -15.72305 -15.70441 -15.70145
 Alpha  occ. eigenvalues --  -15.69659 -15.69250 -15.65319 -11.49242 -11.47117
 Alpha  occ. eigenvalues --  -11.46265 -11.45818 -11.45297 -11.44055 -11.43554
 Alpha  occ. eigenvalues --  -11.42791 -11.41766 -11.41238 -11.41011 -11.40190
 Alpha  occ. eigenvalues --  -11.39417 -11.39272 -11.37202 -11.36991 -11.35153
 Alpha  occ. eigenvalues --  -11.31287  -1.52992  -1.49890  -1.49486  -1.48573
 Alpha  occ. eigenvalues --   -1.47124  -1.44612  -1.43876  -1.42884  -1.36908
 Alpha  occ. eigenvalues --   -1.32976  -1.31926  -1.31589  -1.29525  -1.24862
 Alpha  occ. eigenvalues --   -1.19511  -1.18640  -1.16389  -1.14263  -1.09498
 Alpha  occ. eigenvalues --   -1.07473  -1.05866  -1.03317  -1.00462  -0.99816
 Alpha  occ. eigenvalues --   -0.98418  -0.94282  -0.92690  -0.92399  -0.90802
 Alpha  occ. eigenvalues --   -0.89730  -0.87430  -0.86055  -0.85233  -0.83784
 Alpha  occ. eigenvalues --   -0.83334  -0.82954  -0.82120  -0.81485  -0.80989
 Alpha  occ. eigenvalues --   -0.79652  -0.79189  -0.79120  -0.77163  -0.76719
 Alpha  occ. eigenvalues --   -0.76544  -0.76423  -0.75657  -0.74664  -0.74078
 Alpha  occ. eigenvalues --   -0.73361  -0.73083  -0.71817  -0.71532  -0.71465
 Alpha  occ. eigenvalues --   -0.70948  -0.70111  -0.68973  -0.67957  -0.66450
 Alpha  occ. eigenvalues --   -0.66177  -0.65854  -0.65790  -0.65193  -0.64319
 Alpha  occ. eigenvalues --   -0.63913  -0.63678  -0.63002  -0.62163  -0.61617
 Alpha  occ. eigenvalues --   -0.59330  -0.57900  -0.56450  -0.55276  -0.55147
 Alpha  occ. eigenvalues --   -0.54548  -0.54027  -0.53103  -0.52556  -0.52114
 Alpha  occ. eigenvalues --   -0.51928  -0.50454  -0.48625  -0.43681  -0.37077
 Alpha virt. eigenvalues --   -0.08345  -0.05483  -0.04817  -0.04181  -0.03861
 Alpha virt. eigenvalues --   -0.03720  -0.03319  -0.02880  -0.02662  -0.02364
 Alpha virt. eigenvalues --   -0.01928  -0.01876  -0.01205  -0.00672  -0.00534

 Mulliken charges:
               1
     1  C   -0.041061
     2  C    0.862841
     3  C    0.513741
     4  N   -0.336529
     5  C    1.683841
     6  C    0.102272
     7  C    0.534159
     8  O   -0.913879
     9  N   -0.300187
    10  C    1.552586
    11  C    0.418483
    12  C    1.443444
    13  C    0.259293
    14  O   -1.171952
    15  H   -0.403184
    16  C    0.706594
    17  H   -0.322568
    18  H   -0.002481
    19  H    0.036512
    20  H   -0.020967
    21  O   -0.831802
    22  H   -0.176727
    23  O   -0.899782
    24  H   -0.368802
    25  H    0.298723
    26  H    0.156685
    27  H   -0.027048
    28  H    0.033527
    29  H   -0.653146
    30  H   -0.555019
    31  H   -0.825107
    32  H    0.132891
    33  C    0.829331
    34  N   -0.543258
    35  C    0.804116
    36  N   -0.716088
    37  C    0.839725
    38  C    1.408210
    39  N   -0.838463
    40  C   -1.120521
    41  C    1.462560
    42  N   -0.320273
    43  H   -0.244437
    44  H   -0.407303
    45  C    1.368176
    46  N   -0.559249
    47  H   -0.072212
    48  H   -0.060005
    49  O   -0.930820
    50  H   -0.052056
    51  N   -0.232054
    52  H   -0.062378
    53  H   -0.005883
    54  H   -0.208410
    55  H   -0.002060
    56  H    0.164778
    57  H   -0.074987
    58  H   -0.311790
 Sum of Mulliken charges =   1.00000

 Dipole moment (field-independent basis, Debye):
    X=             -1.4354    Y=              0.1398    Z=             -0.6244  Tot=              1.5715
 Unable to Open any file for archive entry.
 1\1\GINC-SE369\SP\RMP2-FC\Aug-CC-pVDZ\C18H27N8O5\OHZDE\21-Sep-2024\0\\
 #t symm=none mp2 aug-cc-pvdz geom=allcheck guess=(read,tcheck) int=(gr
 id=ultrafine)\\title\\1,1\C,0,0.309814,0.943647,1.933612\C,0,-0.789872
 ,1.755981,2.423504\C,0,-2.051607,1.40662,2.109093\N,0,-2.309617,0.2366
 61,1.436372\C,0,-1.339314,-0.712042,1.334997\C,0,-0.053393,-0.439732,1
 .671942\C,0,1.040647,-1.446594,1.692516\O,0,2.197064,-1.078154,1.77989
 8\N,0,0.695507,-2.759494,1.576781\C,0,-3.568038,0.0838,0.708092\C,0,-3
 .404998,0.367481,-0.787312\C,0,-4.604535,-0.375658,-1.344115\C,0,-4.63
 9047,-1.629263,-0.468186\O,0,-4.018232,-1.233341,0.790202\H,0,-4.27371

 Normal termination of Gaussian 16 at Sat Sep 21 09:42:16 2024.
