 Gaussian 16, Revision C.01,

 ----------------------------------------------------------------------
 #t hf aug-cc-pvdz symm=none int=(grid=ultrafine) guess=(read,tcheck) s
 table=(opt,rrhf)
 ----------------------------------------------------------------------
 -----
 title
 -----
 Symbolic Z-matrix:
 Charge =  1 Multiplicity = 1

 SCF Done:  E(RHF) =  -1529.70676586     A.U. after   19 cycles
 Normal termination of Gaussian 16 at Fri Sep 20 22:05:32 2024.
 Gaussian 16:  ES64L-G16RevC.01  3-Jul-2019

 ----------------------------------------------------------------------
 #t symm=none mp2 aug-cc-pvdz geom=allcheck guess=(read,tcheck) int=(gr
 id=ultrafine)
 ----------------------------------------------------------------------
 Structure from the checkpoint file:  "05_16TS.chk"
 -----
 title
 -----
 Charge =  1 Multiplicity = 1

                          Input orientation:
 ---------------------------------------------------------------------
 Center     Atomic      Atomic             Coordinates (Angstroms)
 Number     Number       Type             X           Y           Z
 ---------------------------------------------------------------------
      1          6           0        1.139774   -0.792441   -0.472852
      2          6           0        1.904830    1.756018   -0.407639
      3          6           0        3.324359    1.243069   -0.676962
      4          6           0        3.573442   -0.139284   -0.103467
      5          6           0        2.605992   -1.121431   -0.753190
      6          1           0        3.492929    1.218800   -1.758828
      7          1           0        4.023220    1.968042   -0.255136
      8          1           0        3.412293   -0.139124    0.975911
      9          1           0        2.778189   -1.122164   -1.833794
     10          1           0        2.803814   -2.127669   -0.384116
     11          7           0        0.925723    0.667100   -0.699891
     12          8           0       -0.286548    1.034033   -0.841557
     13          6           0        0.238383   -1.557996   -1.440012
     14          1           0        0.466338   -2.621184   -1.358298
     15          1           0       -0.817487   -1.417410   -1.212033
     16          1           0        0.418460   -1.246634   -2.469578
     17          6           0        0.756309   -1.149478    0.973371
     18          1           0       -0.288827   -0.910065    1.171142
     19          1           0        0.872076   -2.226249    1.099841
     20          1           0        1.386525   -0.664188    1.715674
     21          6           0        1.598136    2.927896   -1.339073
     22          1           0        0.637325    3.385642   -1.109858
     23          1           0        2.372604    3.685637   -1.215031
     24          1           0        1.594513    2.606968   -2.381397
     25          6           0        1.742060    2.207541    1.053286
     26          1           0        2.409609    3.052315    1.227908
     27          1           0        0.727177    2.555836    1.247579
     28          1           0        1.998216    1.427832    1.768275
     29          6           0       -1.838274    1.474497    1.103890
     30          1           0       -1.276747    1.154790    1.982306
     31          1           0       -0.904739    1.149315    0.159459
     32          6           0       -2.900724    0.561029    0.679487
     33          6           0       -3.573811    0.654091   -0.547245
     34          6           0       -3.164623   -0.534042    1.513687
     35          6           0       -4.507954   -0.295500   -0.906897
     36          1           0       -3.351265    1.449818   -1.243396
     37          6           0       -4.107210   -1.480190    1.164828
     38          1           0       -2.643348   -0.630768    2.458719
     39          6           0       -4.775976   -1.355762   -0.047030
     40          1           0       -5.025970   -0.227504   -1.853884
     41          1           0       -4.327017   -2.311123    1.821347
     42          8           0       -1.886639    2.806548    1.088590
     43          6           0       -2.801902    3.539616    0.266381
     44          1           0       -3.818022    3.169071    0.399210
     45          1           0       -2.729728    4.567524    0.608870
     46          1           0       -2.502100    3.480222   -0.780837
     47         17           0       -5.945765   -2.541418   -0.499782
     48          7           0        4.951043   -0.540212   -0.295773
     49          6           0        5.486091   -1.529608    0.480972
     50          6           0        6.920900   -1.894290    0.209885
     51          1           0        7.494015   -1.751339    1.126296
     52          1           0        6.970574   -2.953315   -0.044581
     53          1           0        7.374138   -1.309949   -0.591096
     54          8           0        4.820767   -2.070733    1.344123
     55          1           0        5.494429   -0.138427   -1.042516
 ---------------------------------------------------------------------

 SCF Done:  E(RHF) =  -1529.70676586     A.U. after    2 cycles
 E2 =    -0.3882784413D+01 EUMP2 =    -0.15335895502687D+04

 Alpha  occ. eigenvalues -- -104.94912 -20.82238 -20.76386 -20.61022 -15.80821
 Alpha  occ. eigenvalues --  -15.68226 -11.50837 -11.44116 -11.43943 -11.42583
 Alpha  occ. eigenvalues --  -11.41512 -11.40951 -11.40006 -11.39428 -11.39388
 Alpha  occ. eigenvalues --  -11.37802 -11.37769 -11.37681 -11.35173 -11.34602
 Alpha  occ. eigenvalues --  -11.34425 -11.34052 -11.33787 -11.33546 -11.31787
 Alpha  occ. eigenvalues --  -10.67515  -8.14299  -8.13940  -8.13939  -1.64993
 Alpha  occ. eigenvalues --   -1.58326  -1.47407  -1.33863  -1.32681  -1.30543
 Alpha  occ. eigenvalues --   -1.26131  -1.23244  -1.18452  -1.16965  -1.16160
 Alpha  occ. eigenvalues --   -1.12274  -1.11733  -1.07813  -1.06912  -1.05852
 Alpha  occ. eigenvalues --   -1.05290  -1.02179  -0.98591  -0.95924  -0.94941
 Alpha  occ. eigenvalues --   -0.93880  -0.90927  -0.88551  -0.85603  -0.84972
 Alpha  occ. eigenvalues --   -0.82641  -0.81177  -0.81032  -0.79515  -0.78636
 Alpha  occ. eigenvalues --   -0.77737  -0.77486  -0.76097  -0.75404  -0.73596
 Alpha  occ. eigenvalues --   -0.73461  -0.72545  -0.71180  -0.70712  -0.70543
 Alpha  occ. eigenvalues --   -0.69974  -0.69202  -0.68634  -0.68343  -0.67359
 Alpha  occ. eigenvalues --   -0.66791  -0.66495  -0.65577  -0.65447  -0.64942
 Alpha  occ. eigenvalues --   -0.64178  -0.64033  -0.63849  -0.63210  -0.62964
 Alpha  occ. eigenvalues --   -0.62110  -0.61341  -0.60231  -0.59808  -0.59431
 Alpha  occ. eigenvalues --   -0.58817  -0.57546  -0.57004  -0.56326  -0.50688
 Alpha  occ. eigenvalues --   -0.49458  -0.48269  -0.48152  -0.43731
 Alpha virt. eigenvalues --   -0.15186  -0.05576  -0.04757  -0.04354  -0.04196
 Alpha virt. eigenvalues --   -0.03353  -0.02856  -0.02836  -0.02802  -0.02326
 Alpha virt. eigenvalues --   -0.02111  -0.01611  -0.01290  -0.01093  -0.00879

 Mulliken charges:
               1
     1  C   -3.774022
     2  C   -3.893110
     3  C    1.889068
     4  C   -0.131182
     5  C    1.833539
     6  H   -0.065964
     7  H   -0.145231
     8  H   -0.418619
     9  H   -0.030957
    10  H   -0.164659
    11  N    0.742492
    12  O   -1.257996
    13  C    1.615266
    14  H    0.064477
    15  H   -0.073159
    16  H   -0.075030
    17  C    1.665267
    18  H   -0.389064
    19  H    0.003534
    20  H   -0.003304
    21  C    1.575078
    22  H   -0.069132
    23  H    0.085080
    24  H   -0.032686
    25  C    1.576589
    26  H   -0.021692
    27  H   -0.245899
    28  H    0.006071
    29  C    0.962996
    30  H   -0.457430
    31  H    0.127330
    32  C    0.881896
    33  C    0.962761
    34  C    0.980692
    35  C    0.409573
    36  H   -0.834852
    37  C    0.619844
    38  H   -0.730493
    39  C   -0.218272
    40  H   -0.509766
    41  H   -0.468806
    42  O   -0.955699
    43  C    1.099105
    44  H   -0.031806
    45  H   -0.343003
    46  H   -0.089968
    47  Cl  -0.290185
    48  N   -0.164018
    49  C    0.333211
    50  C    0.483856
    51  H    0.056453
    52  H    0.058358
    53  H   -0.177839
    54  O   -0.862403
    55  H   -0.106288
 Sum of Mulliken charges =   1.00000

 Dipole moment (field-independent basis, Debye):
    X=             -1.3057    Y=              5.5469    Z=             -1.7635  Tot=              5.9651
 Unable to Open any file for archive entry.
 1\1\GINC-SE255\SP\RMP2-FC\Aug-CC-pVDZ\C19H30Cl1N2O3\OHZDE\21-Sep-2024\
 0\\#t symm=none mp2 aug-cc-pvdz geom=allcheck guess=(read,tcheck) int=
 (grid=ultrafine)\\title\\1,1\C,0,1.139774,-0.792441,-0.472852\C,0,1.90
 483,1.756018,-0.407639\C,0,3.324359,1.243069,-0.676962\C,0,3.573442,-0
 .139284,-0.103467\C,0,2.605992,-1.121431,-0.75319\H,0,3.492929,1.2188,
 -1.758828\H,0,4.02322,1.968042,-0.255136\H,0,3.412293,-0.139124,0.9759
 11\H,0,2.778189,-1.122164,-1.833794\H,0,2.803814,-2.127669,-0.384116\N
 ,0,0.925723,0.6671,-0.699891\O,0,-0.286548,1.034033,-0.841557\C,0,0.23
 8383,-1.557996,-1.440012\H,0,0.466338,-2.621184,-1.358298\H,0,-0.81748

 Normal termination of Gaussian 16 at Sat Sep 21 00:41:43 2024.
