 Gaussian 16, Revision C.01,

 ----------------------------------------------------------------------
 #t hf aug-cc-pvdz symm=none int=(grid=ultrafine) guess=(read,tcheck) s
 table=(opt,rrhf)
 ----------------------------------------------------------------------
 -----
 title
 -----
 Symbolic Z-matrix:
 Charge =  1 Multiplicity = 1

 SCF Done:  E(RHF) =  -1108.65177727     A.U. after   19 cycles
 Normal termination of Gaussian 16 at Fri Sep 20 22:30:55 2024.
 Gaussian 16:  ES64L-G16RevC.01  3-Jul-2019

 ----------------------------------------------------------------------
 #t symm=none mp2 aug-cc-pvdz geom=allcheck guess=(read,tcheck) int=(gr
 id=ultrafine)
 ----------------------------------------------------------------------
 Structure from the checkpoint file:  "05_20TS.chk"
 -----
 title
 -----
 Charge =  1 Multiplicity = 1

                          Input orientation:
 ---------------------------------------------------------------------
 Center     Atomic      Atomic             Coordinates (Angstroms)
 Number     Number       Type             X           Y           Z
 ---------------------------------------------------------------------
      1          6           0       -3.259882    3.421510   -0.623206
      2          6           0       -3.454349    2.900640    0.652973
      3          6           0       -3.390794    1.535517    0.856677
      4          6           0       -3.142513    0.682763   -0.225663
      5          6           0       -2.946539    1.208405   -1.506891
      6          6           0       -3.008676    2.577063   -1.698998
      7          1           0       -3.310480    4.491762   -0.779937
      8          1           0       -3.658589    3.563260    1.484104
      9          1           0       -3.540607    1.124571    1.848573
     10          1           0       -2.770947    0.540121   -2.340015
     11          1           0       -2.869066    2.989548   -2.689982
     12          6           0       -3.049963   -0.747370    0.001857
     13          6           0       -3.802112   -1.659147    0.952571
     14          1           0       -1.800662   -0.844314    0.516859
     15          6           0       -3.736481   -2.644442   -0.224308
     16          1           0       -4.798581   -1.299792    1.205975
     17          1           0       -3.269182   -1.954390    1.855372
     18          1           0       -3.092330   -3.512453   -0.100432
     19          8           0       -3.078216   -1.620755   -1.043337
     20          6           0        0.837702    0.352105    1.195433
     21          6           0        0.842489   -1.718679   -0.462764
     22          6           0        2.375635   -1.665343   -0.397408
     23          6           0        2.914741   -0.269782   -0.145528
     24          6           0        2.365741    0.245852    1.179524
     25          1           0        2.715646   -2.332052    0.402447
     26          1           0        2.761136   -2.061890   -1.338732
     27          1           0        2.609383    0.405962   -0.945612
     28          1           0        2.692210   -0.422518    1.982260
     29          1           0        2.774520    1.235957    1.381556
     30          7           0        0.285040   -0.935484    0.677750
     31          8           0       -0.862519   -1.288495    1.102908
     32          6           0        0.347299    0.539321    2.628425
     33          1           0        0.865064    1.396919    3.058521
     34          1           0       -0.723183    0.736136    2.670966
     35          1           0        0.566867   -0.336864    3.239458
     36          6           0        0.362564    1.534410    0.334851
     37          1           0       -0.723997    1.572277    0.286494
     38          1           0        0.713460    2.454974    0.802551
     39          1           0        0.760914    1.513237   -0.676373
     40          6           0        0.381846   -3.168144   -0.324939
     41          1           0       -0.684824   -3.272867   -0.514372
     42          1           0        0.913026   -3.770821   -1.062236
     43          1           0        0.605279   -3.561283    0.667317
     44          6           0        0.317401   -1.145025   -1.790230
     45          1           0        0.662754   -1.787175   -2.602013
     46          1           0       -0.772227   -1.149952   -1.808224
     47          1           0        0.673559   -0.136443   -1.986179
     48          7           0        4.362633   -0.266507   -0.161313
     49          6           0        5.039729    0.898992   -0.388505
     50          6           0        6.542644    0.815586   -0.371661
     51          1           0        6.920394   -0.188761   -0.179066
     52          1           0        6.919765    1.161749   -1.334279
     53          1           0        6.922154    1.495504    0.391522
     54          8           0        4.440761    1.937260   -0.596610
     55          1           0        4.871100   -1.104612    0.069813
     56          1           0       -4.685375   -2.921326   -0.678334
 ---------------------------------------------------------------------

 SCF Done:  E(RHF) =  -1108.65177727     A.U. after    2 cycles
 E2 =    -0.3870303285D+01 EUMP2 =    -0.11125220805585D+04

 Alpha  occ. eigenvalues --  -20.81804 -20.74850 -20.60775 -15.80642 -15.67966
 Alpha  occ. eigenvalues --  -11.49897 -11.43878 -11.43836 -11.41222 -11.40519
 Alpha  occ. eigenvalues --  -11.39304 -11.38764 -11.38108 -11.37798 -11.37450
 Alpha  occ. eigenvalues --  -11.37295 -11.36481 -11.36334 -11.34894 -11.33995
 Alpha  occ. eigenvalues --  -11.33975 -11.33480 -11.33429 -11.33179 -11.31607
 Alpha  occ. eigenvalues --   -1.64549  -1.58684  -1.47155  -1.33580  -1.30385
 Alpha  occ. eigenvalues --   -1.29812  -1.22814  -1.20035  -1.17451  -1.16051
 Alpha  occ. eigenvalues --   -1.15144  -1.11606  -1.07749  -1.07516  -1.06442
 Alpha  occ. eigenvalues --   -1.05268  -1.04893  -0.97420  -0.96222  -0.95726
 Alpha  occ. eigenvalues --   -0.94568  -0.92029  -0.88821  -0.88276  -0.85988
 Alpha  occ. eigenvalues --   -0.83742  -0.81012  -0.80736  -0.80557  -0.80039
 Alpha  occ. eigenvalues --   -0.78989  -0.77284  -0.75811  -0.74957  -0.73447
 Alpha  occ. eigenvalues --   -0.73178  -0.72214  -0.72029  -0.70830  -0.70545
 Alpha  occ. eigenvalues --   -0.69598  -0.69275  -0.69097  -0.68386  -0.68078
 Alpha  occ. eigenvalues --   -0.66825  -0.66441  -0.65435  -0.65162  -0.64758
 Alpha  occ. eigenvalues --   -0.64272  -0.63848  -0.63592  -0.63107  -0.63012
 Alpha  occ. eigenvalues --   -0.62133  -0.61781  -0.61488  -0.60362  -0.59693
 Alpha  occ. eigenvalues --   -0.59414  -0.58570  -0.57296  -0.56656  -0.50513
 Alpha  occ. eigenvalues --   -0.50147  -0.47883  -0.46845  -0.43038
 Alpha virt. eigenvalues --   -0.14764  -0.05543  -0.04506  -0.04321  -0.04206
 Alpha virt. eigenvalues --   -0.03292  -0.02944  -0.02898  -0.02667  -0.02273
 Alpha virt. eigenvalues --   -0.01473  -0.01122  -0.00973  -0.00872  -0.00760

 Mulliken charges:
               1
     1  C    0.782752
     2  C    0.201473
     3  C    0.684015
     4  C    0.537557
     5  C    0.683593
     6  C    0.141399
     7  H   -0.473385
     8  H   -0.542654
     9  H   -0.709897
    10  H   -0.734089
    11  H   -0.515181
    12  C    0.833041
    13  C    0.866551
    14  H    0.498824
    15  C    1.374062
    16  H   -0.301364
    17  H   -0.131395
    18  H   -0.240447
    19  O   -1.170918
    20  C   -2.937187
    21  C   -3.824804
    22  C    2.006892
    23  C   -0.005570
    24  C    1.316903
    25  H   -0.073757
    26  H   -0.150471
    27  H   -0.371913
    28  H   -0.038689
    29  H   -0.176093
    30  N   -0.255529
    31  O   -1.004592
    32  C    1.625339
    33  H    0.017425
    34  H    0.005017
    35  H   -0.009437
    36  C    1.634465
    37  H   -0.598933
    38  H   -0.009980
    39  H   -0.044502
    40  C    1.629563
    41  H   -0.129590
    42  H    0.097413
    43  H   -0.019228
    44  C    1.638341
    45  H   -0.048561
    46  H   -0.272580
    47  H   -0.030379
    48  N   -0.172600
    49  C    0.303788
    50  C    0.493105
    51  H   -0.180521
    52  H    0.057492
    53  H    0.056894
    54  O   -0.867673
    55  H   -0.103857
    56  H   -0.340130
 Sum of Mulliken charges =   1.00000

 Dipole moment (field-independent basis, Debye):
    X=             -5.2277    Y=             -4.0883    Z=              1.7012  Tot=              6.8511
 Unable to Open any file for archive entry.
 1\1\GINC-SE083\SP\RMP2-FC\Aug-CC-pVDZ\C20H31N2O3\OHZDE\21-Sep-2024\0\\
 #t symm=none mp2 aug-cc-pvdz geom=allcheck guess=(read,tcheck) int=(gr
 id=ultrafine)\\title\\1,1\C,0,-3.259882,3.42151,-0.623206\C,0,-3.45434
 9,2.90064,0.652973\C,0,-3.390794,1.535517,0.856677\C,0,-3.142513,0.682
 763,-0.225663\C,0,-2.946539,1.208405,-1.506891\C,0,-3.008676,2.577063,
 -1.698998\H,0,-3.31048,4.491762,-0.779937\H,0,-3.658589,3.56326,1.4841
 04\H,0,-3.540607,1.124571,1.848573\H,0,-2.770947,0.540121,-2.340015\H,
 0,-2.869066,2.989548,-2.689982\C,0,-3.049963,-0.74737,0.001857\C,0,-3.
 802112,-1.659147,0.952571\H,0,-1.800662,-0.844314,0.516859\C,0,-3.7364

 Normal termination of Gaussian 16 at Sat Sep 21 02:27:01 2024.
