 Gaussian 16, Revision C.01,

 ----------------------------------------------------------------------
 #t hf aug-cc-pvdz symm=none int=(grid=ultrafine) guess=(read,tcheck) s
 table=(opt,rrhf)
 ----------------------------------------------------------------------
 -----
 title
 -----
 Symbolic Z-matrix:
 Charge =  1 Multiplicity = 1

 SCF Done:  E(RHF) =  -883.005307513     A.U. after   16 cycles
 Normal termination of Gaussian 16 at Fri Sep 20 12:39:57 2024.
 Gaussian 16:  ES64L-G16RevC.01  3-Jul-2019

 ----------------------------------------------------------------------
 #t symm=none mp2 aug-cc-pvdz geom=allcheck guess=(read,tcheck) int=(gr
 id=ultrafine)
 ----------------------------------------------------------------------
 Structure from the checkpoint file:  "02_79P.chk"
 -----
 title
 -----
 Charge =  1 Multiplicity = 1

                          Input orientation:
 ---------------------------------------------------------------------
 Center     Atomic      Atomic             Coordinates (Angstroms)
 Number     Number       Type             X           Y           Z
 ---------------------------------------------------------------------
      1          6           0       -1.835240    3.288153   -0.032049
      2          6           0       -1.555667    1.830317    0.349853
      3          6           0        0.450931    2.748729    0.516893
      4          6           0       -0.416505    3.920726    0.042715
      5          1           0       -2.282072    3.357333   -1.021574
      6          1           0       -2.515779    3.749097    0.683640
      7          1           0       -0.073026    4.331794   -0.909347
      8          1           0       -0.359403    4.727114    0.773183
      9          6           0       -0.485277    1.977845    1.435889
     10          1           0       -0.084441    1.041589    1.815679
     11          1           0       -0.811369    2.594226    2.272497
     12          1           0       -2.428634    1.229847    0.576346
     13          1           0        1.448582    2.997069    0.858084
     14          7           0        0.529964    1.799199   -0.679059
     15          7           0       -0.822940    1.234448   -0.795398
     16          6           0       -0.646020   -0.241864   -0.883637
     17          6           0       -1.832957   -0.997350   -0.341546
     18          6           0       -1.887609   -1.482863    0.962221
     19          6           0       -2.927073   -1.195651   -1.180081
     20          6           0       -3.018114   -2.145247    1.419505
     21          1           0       -1.049214   -1.360141    1.636113
     22          6           0       -4.060157   -1.851835   -0.723498
     23          1           0       -2.889787   -0.832107   -2.201004
     24          6           0       -4.107611   -2.327321    0.579552
     25          1           0       -3.045131   -2.524987    2.433238
     26          1           0       -4.902461   -1.999361   -1.387664
     27          1           0       -4.987838   -2.846645    0.937148
     28          6           0        0.728006   -0.573897   -0.290301
     29          6           0        1.554057    0.642054   -0.689180
     30          6           0        1.217776   -1.925862   -0.828976
     31          1           0        0.322022   -2.511290   -1.048483
     32          1           0        1.720879   -1.782141   -1.791465
     33          6           0        2.796569    1.009818    0.100672
     34          1           0        2.563010    1.059556    1.168037
     35          1           0        3.100108    2.015600   -0.206596
     36          6           0        4.003417    0.086784   -0.108793
     37          1           0        4.097039   -0.170405   -1.169093
     38          1           0        4.882843    0.690823    0.120627
     39          6           0        4.070938   -1.185269    0.751645
     40          1           0        5.118656   -1.330901    1.021808
     41          1           0        3.548441   -1.020518    1.701219
     42          6           0        2.090120   -2.769104    0.103161
     43          1           0        1.959074   -3.812667   -0.192634
     44          1           0        1.696199   -2.703322    1.124068
     45          6           0        3.590519   -2.490338    0.114348
     46          1           0        4.061538   -3.312684    0.658663
     47          1           0        3.979172   -2.555719   -0.908490
     48          1           0       -0.587977   -0.460798   -1.954736
     49          1           0        0.672479   -0.623066    0.798391
     50          1           0        1.819557    0.546363   -1.745662
     51          1           0        0.697743    2.363859   -1.511146
 ---------------------------------------------------------------------

 SCF Done:  E(RHF) =  -883.005307513     A.U. after    2 cycles
 E2 =    -0.3202425801D+01 EUMP2 =    -0.88620773331393D+03

 Alpha  occ. eigenvalues --  -15.84558 -15.74883 -11.43449 -11.43251 -11.40535
 Alpha  occ. eigenvalues --  -11.40248 -11.37333 -11.37261 -11.37220 -11.36952
 Alpha  occ. eigenvalues --  -11.35767 -11.35574 -11.34810 -11.34470 -11.34327
 Alpha  occ. eigenvalues --  -11.34326 -11.34213 -11.34064 -11.33930 -11.32677
 Alpha  occ. eigenvalues --  -11.32660 -11.32015  -1.52404  -1.30676  -1.29790
 Alpha  occ. eigenvalues --   -1.25894  -1.23591  -1.18535  -1.17170  -1.14374
 Alpha  occ. eigenvalues --   -1.12528  -1.11997  -1.09321  -1.06384  -1.03957
 Alpha  occ. eigenvalues --   -0.99433  -0.96861  -0.94433  -0.93469  -0.91597
 Alpha  occ. eigenvalues --   -0.91247  -0.90485  -0.88707  -0.85450  -0.84872
 Alpha  occ. eigenvalues --   -0.82073  -0.79664  -0.77313  -0.77009  -0.74719
 Alpha  occ. eigenvalues --   -0.74349  -0.73972  -0.72744  -0.72037  -0.71607
 Alpha  occ. eigenvalues --   -0.70282  -0.69826  -0.69102  -0.68790  -0.68079
 Alpha  occ. eigenvalues --   -0.66708  -0.66135  -0.65656  -0.64635  -0.62920
 Alpha  occ. eigenvalues --   -0.62717  -0.61743  -0.61348  -0.60884  -0.60540
 Alpha  occ. eigenvalues --   -0.60395  -0.60005  -0.59393  -0.58510  -0.58457
 Alpha  occ. eigenvalues --   -0.56592  -0.55058  -0.54161  -0.52042  -0.44285
 Alpha  occ. eigenvalues --   -0.44128
 Alpha virt. eigenvalues --   -0.06646  -0.05621  -0.04620  -0.04225  -0.03542
 Alpha virt. eigenvalues --   -0.03294  -0.03162  -0.02916  -0.02793  -0.01472
 Alpha virt. eigenvalues --   -0.01455  -0.01207  -0.01108  -0.00963  -0.00827

 Mulliken charges:
               1
     1  C    0.552078
     2  C    0.607408
     3  C    0.601848
     4  C    0.441857
     5  H   -0.195384
     6  H   -0.169367
     7  H   -0.214942
     8  H   -0.134766
     9  C    0.969516
    10  H   -0.187903
    11  H   -0.325611
    12  H   -0.381352
    13  H   -0.530008
    14  N   -0.365638
    15  N   -1.027362
    16  C    0.871755
    17  C    1.161732
    18  C    0.878431
    19  C    0.131678
    20  C    0.137568
    21  H   -0.904557
    22  C    0.320129
    23  H   -0.797200
    24  C    0.846702
    25  H   -0.580238
    26  H   -0.509959
    27  H   -0.461616
    28  C    0.426768
    29  C    0.792855
    30  C    0.537507
    31  H   -0.197294
    32  H   -0.180978
    33  C    0.387825
    34  H   -0.185268
    35  H   -0.203676
    36  C    0.622144
    37  H   -0.144359
    38  H   -0.178408
    39  C    0.566305
    40  H   -0.167657
    41  H   -0.176814
    42  C    0.501074
    43  H   -0.163516
    44  H   -0.109384
    45  C    0.250209
    46  H   -0.157759
    47  H   -0.113862
    48  H   -0.410897
    49  H   -0.943352
    50  H   -0.585185
    51  H    0.098924
 Sum of Mulliken charges =   1.00000

 Dipole moment (field-independent basis, Debye):
    X=              1.5616    Y=              4.9134    Z=             -0.2111  Tot=              5.1599
 Unable to Open any file for archive entry.
 1\1\GINC-SE217\SP\RMP2-FC\Aug-CC-pVDZ\C20H29N2\OHZDE\20-Sep-2024\0\\#t
  symm=none mp2 aug-cc-pvdz geom=allcheck guess=(read,tcheck) int=(grid
 =ultrafine)\\title\\1,1\C,0,-1.83524,3.288153,-0.032049\C,0,-1.555667,
 1.830317,0.349853\C,0,0.450931,2.748729,0.516893\C,0,-0.416505,3.92072
 6,0.042715\H,0,-2.282072,3.357333,-1.021574\H,0,-2.515779,3.749097,0.6
 8364\H,0,-0.073026,4.331794,-0.909347\H,0,-0.359403,4.727114,0.773183\
 C,0,-0.485277,1.977845,1.435889\H,0,-0.084441,1.041589,1.815679\H,0,-0
 .811369,2.594226,2.272497\H,0,-2.428634,1.229847,0.576346\H,0,1.448582
 ,2.997069,0.858084\N,0,0.529964,1.799199,-0.679059\N,0,-0.82294,1.2344

 Normal termination of Gaussian 16 at Fri Sep 20 15:11:04 2024.
