 Gaussian 16, Revision C.01,

 ----------------------------------------------------------------------
 #t hf aug-cc-pvdz symm=none int=(grid=ultrafine) guess=(read,tcheck) s
 table=(opt,rrhf)
 ----------------------------------------------------------------------
 -----
 title
 -----
 Symbolic Z-matrix:
 Charge =  0 Multiplicity = 1

 SCF Done:  E(RHF) =  -1125.28392216     A.U. after   15 cycles
 Normal termination of Gaussian 16 at Fri Sep 20 23:38:53 2024.
 Gaussian 16:  ES64L-G16RevC.01  3-Jul-2019

 ----------------------------------------------------------------------
 #t symm=none mp2 aug-cc-pvdz geom=allcheck guess=(read,tcheck) int=(gr
 id=ultrafine)
 ----------------------------------------------------------------------
 Structure from the checkpoint file:  "06_24P.chk"
 -----
 title
 -----
 Charge =  0 Multiplicity = 1

                          Input orientation:
 ---------------------------------------------------------------------
 Center     Atomic      Atomic             Coordinates (Angstroms)
 Number     Number       Type             X           Y           Z
 ---------------------------------------------------------------------
      1          6           0        0.648503    2.595494    0.372259
      2          6           0        0.454733    1.219434    1.068882
      3          6           0       -2.159439    1.240975   -0.618622
      4          1           0        1.718701    2.748165    0.211483
      5          6           0       -0.587409    1.260166    2.206605
      6          1           0       -0.789021    0.241115    2.553838
      7          1           0       -0.132702    1.779793    3.057222
      8          1           0       -3.019171    1.061360   -1.270914
      9          1           0        1.406093    0.968573    1.545340
     10          6           0       -1.905059    1.960333    1.892452
     11          1           0       -2.501449    1.990172    2.809796
     12          1           0       -1.706463    3.006318    1.643693
     13          6           0       -2.762627    1.337710    0.795255
     14          1           0       -3.086020    0.343839    1.117836
     15          1           0       -3.678092    1.934329    0.719343
     16          6           0       -1.551373    2.587076   -1.090924
     17          1           0       -1.809469    2.725046   -2.145416
     18          6           0       -0.029933    2.759765   -0.994549
     19          1           0        0.442034    2.064304   -1.698277
     20          1           0        0.214930    3.755587   -1.376642
     21          1           0       -2.046966    3.406626   -0.559943
     22          1           0        0.328952    3.397086    1.045540
     23          6           0       -1.195458    0.052635   -0.817483
     24          1           0       -0.918235    0.003996   -1.881313
     25         14           0       -1.954151   -1.683260   -0.572623
     26          6           0       -1.750477   -2.306053    1.191797
     27          1           0       -2.286367   -1.692933    1.919081
     28          1           0       -2.132988   -3.326995    1.276746
     29          1           0       -0.695357   -2.326139    1.477893
     30          6           0       -1.069646   -2.875920   -1.719973
     31          1           0       -1.458064   -3.891326   -1.604095
     32          1           0       -1.198578   -2.587678   -2.766603
     33          1           0        0.000584   -2.892467   -1.507731
     34          6           0       -3.779705   -1.656215   -1.026194
     35          1           0       -3.924955   -1.310631   -2.053090
     36          1           0       -4.197178   -2.664499   -0.957059
     37          1           0       -4.367167   -1.009628   -0.371503
     38          5           0        0.144835    0.147452   -0.038852
     39          6           0        3.509659    0.442686   -1.452258
     40          6           0        3.442753   -0.385547   -0.262025
     41          6           0        4.615921    1.032366   -1.903808
     42          6           0        2.298321   -0.910673    0.191837
     43          8           0        1.116196   -0.760062   -0.439259
     44          8           0        2.130331   -1.678153    1.283489
     45          6           0        3.274624   -1.979682    2.063038
     46          1           0        3.728165   -1.066364    2.457193
     47          1           0        2.923190   -2.599521    2.883905
     48          1           0        4.011743   -2.530668    1.473435
     49          1           0        2.582180    0.573212   -2.000302
     50          1           0        5.566339    0.927961   -1.391300
     51          1           0        4.604629    1.636458   -2.801607
     52          1           0        4.362124   -0.578293    0.272859
 ---------------------------------------------------------------------

 SCF Done:  E(RHF) =  -1125.28392216     A.U. after    2 cycles
 E2 =    -0.3071512064D+01 EUMP2 =    -0.11283554342258D+04

 Alpha  occ. eigenvalues --  -68.75430 -20.61097 -20.58915 -11.36714 -11.29977
 Alpha  occ. eigenvalues --  -11.23930 -11.22583 -11.22075 -11.22065 -11.22016
 Alpha  occ. eigenvalues --  -11.21942 -11.21834 -11.21680 -11.21614 -11.21544
 Alpha  occ. eigenvalues --  -11.19741 -11.19652 -11.19477 -11.18970 -11.18055
 Alpha  occ. eigenvalues --   -7.61331  -6.10093  -4.20724  -4.20711  -4.20705
 Alpha  occ. eigenvalues --   -1.46608  -1.38271  -1.11482  -1.08511  -1.04766
 Alpha  occ. eigenvalues --   -1.04308  -1.00561  -0.97380  -0.96500  -0.94703
 Alpha  occ. eigenvalues --   -0.91864  -0.91560  -0.91266  -0.88072  -0.82643
 Alpha  occ. eigenvalues --   -0.79761  -0.79299  -0.76595  -0.72688  -0.71701
 Alpha  occ. eigenvalues --   -0.69935  -0.68221  -0.66020  -0.64210  -0.63471
 Alpha  occ. eigenvalues --   -0.62180  -0.60691  -0.59911  -0.59166  -0.58547
 Alpha  occ. eigenvalues --   -0.57669  -0.57444  -0.56986  -0.56098  -0.55787
 Alpha  occ. eigenvalues --   -0.55434  -0.54660  -0.54248  -0.53151  -0.52969
 Alpha  occ. eigenvalues --   -0.52085  -0.51915  -0.51084  -0.50160  -0.49541
 Alpha  occ. eigenvalues --   -0.48960  -0.48377  -0.47501  -0.46590  -0.45706
 Alpha  occ. eigenvalues --   -0.44073  -0.42774  -0.42706  -0.42560  -0.41446
 Alpha  occ. eigenvalues --   -0.40978  -0.40431  -0.37703  -0.29592
 Alpha virt. eigenvalues --    0.02825   0.03368   0.03618   0.03811   0.04639
 Alpha virt. eigenvalues --    0.04719   0.05036   0.05203   0.05345   0.06270
 Alpha virt. eigenvalues --    0.06479   0.06738   0.06809   0.07072   0.07280

 Mulliken charges:
               1
     1  C    0.370972
     2  C    0.496449
     3  C   -0.004394
     4  H   -0.292514
     5  C    0.457489
     6  H   -0.141183
     7  H   -0.242962
     8  H   -0.383801
     9  H   -0.377312
    10  C    0.367546
    11  H   -0.272015
    12  H   -0.038875
    13  C    0.688806
    14  H   -0.192464
    15  H   -0.252163
    16  C    0.470559
    17  H   -0.204882
    18  C    0.735637
    19  H    0.083398
    20  H   -0.328236
    21  H   -0.199861
    22  H   -0.262632
    23  C   -0.185238
    24  H   -0.449475
    25  Si   0.772327
    26  C    1.164217
    27  H   -0.313829
    28  H   -0.473566
    29  H   -0.490402
    30  C    0.910115
    31  H   -0.420118
    32  H   -0.301689
    33  H   -0.282425
    34  C    0.906934
    35  H   -0.341421
    36  H   -0.536872
    37  H   -0.284997
    38  B    0.907463
    39  C    0.624767
    40  C    1.377586
    41  C    0.875011
    42  C    0.461406
    43  O   -1.461781
    44  O   -0.913942
    45  C    1.079784
    46  H   -0.122988
    47  H   -0.377319
    48  H   -0.081791
    49  H   -0.899423
    50  H   -0.398629
    51  H   -0.406791
    52  H   -0.814475
 Sum of Mulliken charges =  -0.00000

 Dipole moment (field-independent basis, Debye):
    X=              0.5583    Y=              0.1321    Z=              1.7032  Tot=              1.7972
 Unable to Open any file for archive entry.
 1\1\GINC-SE401\SP\RMP2-FC\Aug-CC-pVDZ\C17H31B1O2Si1\OHZDE\21-Sep-2024\
 0\\#t symm=none mp2 aug-cc-pvdz geom=allcheck guess=(read,tcheck) int=
 (grid=ultrafine)\\title\\0,1\C,0,0.648503,2.595494,0.372259\C,0,0.4547
 33,1.219434,1.068882\C,0,-2.159439,1.240975,-0.618622\H,0,1.718701,2.7
 48165,0.211483\C,0,-0.587409,1.260166,2.206605\H,0,-0.789021,0.241115,
 2.553838\H,0,-0.132702,1.779793,3.057222\H,0,-3.019171,1.06136,-1.2709
 14\H,0,1.406093,0.968573,1.54534\C,0,-1.905059,1.960333,1.892452\H,0,-
 2.501449,1.990172,2.809796\H,0,-1.706463,3.006318,1.643693\C,0,-2.7626
 27,1.33771,0.795255\H,0,-3.08602,0.343839,1.117836\H,0,-3.678092,1.934

 Normal termination of Gaussian 16 at Sat Sep 21 02:54:41 2024.
