 Gaussian 16, Revision C.01,

 ----------------------------------------------------------------------
 #t hf aug-cc-pvdz symm=none int=(grid=ultrafine) guess=(read,tcheck) s
 table=(opt,rrhf)
 ----------------------------------------------------------------------
 -----
 title
 -----
 Symbolic Z-matrix:
 Charge =  0 Multiplicity = 1

 SCF Done:  E(RHF) =  -1125.22989660     A.U. after   14 cycles
 Normal termination of Gaussian 16 at Fri Sep 20 23:48:59 2024.
 Gaussian 16:  ES64L-G16RevC.01  3-Jul-2019

 ----------------------------------------------------------------------
 #t symm=none mp2 aug-cc-pvdz geom=allcheck guess=(read,tcheck) int=(gr
 id=ultrafine)
 ----------------------------------------------------------------------
 Structure from the checkpoint file:  "06_28TS.chk"
 -----
 title
 -----
 Charge =  0 Multiplicity = 1

                          Input orientation:
 ---------------------------------------------------------------------
 Center     Atomic      Atomic             Coordinates (Angstroms)
 Number     Number       Type             X           Y           Z
 ---------------------------------------------------------------------
      1          6           0        0.672391    2.879273   -0.664082
      2          6           0        0.995994    1.686039    0.260341
      3          6           0       -2.022595    1.177180   -0.170494
      4          1           0        0.881588    2.597284   -1.703591
      5          6           0        0.530323    1.902184    1.719124
      6          1           0        1.325573    1.566860    2.389722
      7          1           0        0.403684    2.970691    1.923013
      8          1           0       -3.037444    0.852513   -0.418168
      9          1           0        2.092824    1.638815    0.285983
     10          6           0       -0.731326    1.138121    2.129393
     11          1           0       -0.510130    0.069092    2.078764
     12          1           0       -0.926555    1.341900    3.187325
     13          6           0       -2.026495    1.406436    1.358984
     14          1           0       -2.791053    0.761569    1.803158
     15          1           0       -2.365280    2.429145    1.556172
     16          6           0       -1.868862    2.489482   -0.965448
     17          1           0       -1.774176    2.237216   -2.028008
     18          6           0       -0.742944    3.437502   -0.570519
     19          1           0       -0.806915    4.323441   -1.210593
     20          1           0       -0.919661    3.801844    0.445406
     21          1           0       -2.809901    3.043229   -0.870953
     22          1           0        1.364698    3.695986   -0.427969
     23          6           0       -1.059600    0.059276   -0.659652
     24          1           0       -1.055061    0.141133   -1.760246
     25         14           0       -1.822057   -1.664026   -0.492634
     26          6           0       -0.839253   -2.913235   -1.508528
     27          1           0        0.166298   -3.105556   -1.130927
     28          1           0       -1.366436   -3.871055   -1.529381
     29          1           0       -0.739241   -2.569062   -2.541106
     30          6           0       -3.561438   -1.639967   -1.215606
     31          1           0       -3.953874   -2.658101   -1.286300
     32          1           0       -4.258945   -1.063974   -0.603746
     33          1           0       -3.570218   -1.211807   -2.221530
     34          6           0       -1.971649   -2.278997    1.281878
     35          1           0       -2.602922   -1.614024    1.875276
     36          1           0       -2.435553   -3.269299    1.292568
     37          1           0       -1.012853   -2.360277    1.795048
     38          5           0        0.476057    0.298580   -0.326479
     39          6           0        1.525759   -1.114639    0.582927
     40          1           0        0.716508   -1.818508    0.455687
     41          6           0        2.247108   -1.165809    1.854816
     42          1           0        3.157537   -0.575191    1.909140
     43          6           0        1.854286   -1.836480    2.934097
     44          1           0        0.958238   -2.446863    2.934526
     45          1           0        2.416939   -1.792660    3.857644
     46          6           0        2.179143   -0.778145   -0.612949
     47          8           0        1.403117   -0.219947   -1.475716
     48          8           0        3.478616   -0.771750   -0.776623
     49          6           0        4.002878   -0.062845   -1.914384
     50          1           0        3.732008   -0.579983   -2.833333
     51          1           0        3.612142    0.953213   -1.934647
     52          1           0        5.080514   -0.062791   -1.780349
 ---------------------------------------------------------------------

 SCF Done:  E(RHF) =  -1125.22989660     A.U. after    1 cycles
 E2 =    -0.3098558010D+01 EUMP2 =    -0.11283284546122D+04

 Alpha  occ. eigenvalues --  -68.75017 -20.64627 -20.60126 -11.41725 -11.31539
 Alpha  occ. eigenvalues --  -11.24270 -11.22348 -11.22144 -11.21793 -11.20949
 Alpha  occ. eigenvalues --  -11.20898 -11.20781 -11.20717 -11.20646 -11.20585
 Alpha  occ. eigenvalues --  -11.19573 -11.19572 -11.19346 -11.18878 -11.17525
 Alpha  occ. eigenvalues --   -7.61364  -6.09723  -4.20349  -4.20346  -4.20322
 Alpha  occ. eigenvalues --   -1.50684  -1.41157  -1.10564  -1.09312  -1.03809
 Alpha  occ. eigenvalues --   -1.03331  -1.02022  -0.97372  -0.95972  -0.94339
 Alpha  occ. eigenvalues --   -0.91798  -0.91437  -0.90652  -0.86935  -0.82615
 Alpha  occ. eigenvalues --   -0.79409  -0.78597  -0.77398  -0.72664  -0.72597
 Alpha  occ. eigenvalues --   -0.70541  -0.69394  -0.65638  -0.64403  -0.62585
 Alpha  occ. eigenvalues --   -0.62040  -0.61611  -0.61039  -0.58846  -0.58236
 Alpha  occ. eigenvalues --   -0.57325  -0.56697  -0.56174  -0.55864  -0.55697
 Alpha  occ. eigenvalues --   -0.55292  -0.54595  -0.54396  -0.53527  -0.53021
 Alpha  occ. eigenvalues --   -0.52685  -0.52136  -0.51355  -0.50417  -0.49139
 Alpha  occ. eigenvalues --   -0.47922  -0.47411  -0.46852  -0.45851  -0.45384
 Alpha  occ. eigenvalues --   -0.44800  -0.42735  -0.41994  -0.41614  -0.40898
 Alpha  occ. eigenvalues --   -0.40407  -0.39160  -0.36922  -0.30620
 Alpha virt. eigenvalues --    0.02709   0.03342   0.03776   0.03861   0.04778
 Alpha virt. eigenvalues --    0.04871   0.05009   0.05172   0.05319   0.06416
 Alpha virt. eigenvalues --    0.06479   0.06751   0.06801   0.07016   0.07371

 Mulliken charges:
               1
     1  C    0.438792
     2  C    0.201027
     3  C    0.125098
     4  H   -0.176592
     5  C    0.476838
     6  H   -0.224560
     7  H   -0.283313
     8  H   -0.306764
     9  H   -0.478079
    10  C    0.611431
    11  H   -0.143447
    12  H   -0.358462
    13  C    0.398293
    14  H   -0.278272
    15  H   -0.237184
    16  C    0.519125
    17  H   -0.184375
    18  C    0.451041
    19  H   -0.247187
    20  H    0.000660
    21  H   -0.232347
    22  H   -0.281256
    23  C    0.394125
    24  H   -0.353905
    25  Si   0.702272
    26  C    1.007508
    27  H   -0.291999
    28  H   -0.461658
    29  H   -0.257069
    30  C    0.818192
    31  H   -0.525971
    32  H   -0.327905
    33  H   -0.317587
    34  C    1.267728
    35  H   -0.317480
    36  H   -0.455908
    37  H   -0.730564
    38  B    0.654382
    39  C    0.296998
    40  H   -0.668934
    41  C    1.192992
    42  H   -0.712759
    43  C    0.646370
    44  H   -0.422830
    45  H   -0.441241
    46  C    1.460936
    47  O   -1.132952
    48  O   -1.133618
    49  C    0.812998
    50  H   -0.100030
    51  H   -0.125710
    52  H   -0.266847
 Sum of Mulliken charges =  -0.00000

 Dipole moment (field-independent basis, Debye):
    X=              2.2520    Y=              0.2082    Z=             -1.3956  Tot=              2.6576
 Unable to Open any file for archive entry.
 1\1\GINC-SE408\SP\RMP2-FC\Aug-CC-pVDZ\C17H31B1O2Si1\OHZDE\21-Sep-2024\
 0\\#t symm=none mp2 aug-cc-pvdz geom=allcheck guess=(read,tcheck) int=
 (grid=ultrafine)\\title\\0,1\C,0,0.672391,2.879273,-0.664082\C,0,0.995
 994,1.686039,0.260341\C,0,-2.022595,1.17718,-0.170494\H,0,0.881588,2.5
 97284,-1.703591\C,0,0.530323,1.902184,1.719124\H,0,1.325573,1.56686,2.
 389722\H,0,0.403684,2.970691,1.923013\H,0,-3.037444,0.852513,-0.418168
 \H,0,2.092824,1.638815,0.285983\C,0,-0.731326,1.138121,2.129393\H,0,-0
 .51013,0.069092,2.078764\H,0,-0.926555,1.3419,3.187325\C,0,-2.026495,1
 .406436,1.358984\H,0,-2.791053,0.761569,1.803158\H,0,-2.36528,2.429145

 Normal termination of Gaussian 16 at Sat Sep 21 02:31:10 2024.
