 Gaussian 16, Revision C.01,

 ----------------------------------------------------------------------
 #t hf aug-cc-pvdz symm=none int=(grid=ultrafine) guess=(read,tcheck) s
 table=(opt,rrhf)
 ----------------------------------------------------------------------
 -----
 title
 -----
 Symbolic Z-matrix:
 Charge =  0 Multiplicity = 1

 SCF Done:  E(RHF) =  -1125.23397727     A.U. after   16 cycles
 Normal termination of Gaussian 16 at Fri Sep 20 23:53:10 2024.
 Gaussian 16:  ES64L-G16RevC.01  3-Jul-2019

 ----------------------------------------------------------------------
 #t symm=none mp2 aug-cc-pvdz geom=allcheck guess=(read,tcheck) int=(gr
 id=ultrafine)
 ----------------------------------------------------------------------
 Structure from the checkpoint file:  "06_27TS.chk"
 -----
 title
 -----
 Charge =  0 Multiplicity = 1

                          Input orientation:
 ---------------------------------------------------------------------
 Center     Atomic      Atomic             Coordinates (Angstroms)
 Number     Number       Type             X           Y           Z
 ---------------------------------------------------------------------
      1          6           0        0.876355    2.583375   -0.894967
      2          6           0        0.850033    1.769986    0.428352
      3          6           0       -1.937579    0.984020   -0.609883
      4          1           0        1.895869    2.566938   -1.293271
      5          6           0        0.040803    2.498762    1.514073
      6          1           0        0.036064    1.899293    2.428328
      7          1           0        0.565928    3.427295    1.767318
      8          1           0       -2.888446    0.554342   -0.937317
      9          1           0        1.881497    1.768785    0.796280
     10          6           0       -1.394207    2.856118    1.150968
     11          1           0       -1.859222    3.336154    2.018027
     12          1           0       -1.393600    3.617195    0.365757
     13          6           0       -2.278117    1.688262    0.721701
     14          1           0       -2.301590    0.941883    1.522203
     15          1           0       -3.301400    2.069710    0.638760
     16          6           0       -1.539830    1.965297   -1.741344
     17          1           0       -1.996768    1.606821   -2.669286
     18          6           0       -0.044460    2.131755   -2.033180
     19          1           0        0.338509    1.187549   -2.431097
     20          1           0        0.056109    2.849737   -2.853807
     21          1           0       -1.993360    2.943289   -1.553490
     22          1           0        0.674471    3.635050   -0.662728
     23          6           0       -0.923342   -0.179800   -0.474080
     24          1           0       -0.584558   -0.410069   -1.497137
     25         14           0       -1.771917   -1.835873   -0.127310
     26          6           0       -3.067110   -2.113838   -1.469154
     27          1           0       -3.481120   -3.122816   -1.390462
     28          1           0       -3.902278   -1.413977   -1.397599
     29          1           0       -2.633907   -2.012753   -2.467957
     30          6           0       -2.660433   -1.943647    1.528310
     31          1           0       -3.179908   -2.903266    1.602847
     32          1           0       -1.985840   -1.867923    2.381902
     33          1           0       -3.413328   -1.157794    1.623989
     34          6           0       -0.544562   -3.258715   -0.290722
     35          1           0        0.211852   -3.299436    0.494564
     36          1           0       -1.081658   -4.211158   -0.271984
     37          1           0       -0.017452   -3.195414   -1.246200
     38          5           0        0.453856    0.236993    0.203144
     39          6           0        2.952305   -0.693785    1.524411
     40          1           0        3.977545   -0.648801    1.858558
     41          6           0        2.717761   -0.777105    0.175422
     42          8           0        1.563984   -0.577535   -0.392595
     43          8           0        3.730690   -1.021942   -0.647527
     44          6           0        3.508220   -0.857972   -2.050847
     45          1           0        2.723933   -1.529580   -2.397672
     46          1           0        4.456479   -1.106148   -2.519761
     47          1           0        3.231502    0.171542   -2.279586
     48          6           0        1.870837   -0.400814    2.385328
     49          1           0        2.104352    0.171850    3.281524
     50          6           0        0.558592   -0.687251    2.110194
     51          1           0       -0.213346   -0.373610    2.799189
     52          1           0        0.342227   -1.569500    1.530206
 ---------------------------------------------------------------------

 SCF Done:  E(RHF) =  -1125.23397727     A.U. after    2 cycles
 E2 =    -0.3097818902D+01 EUMP2 =    -0.11283317961702D+04

 Alpha  occ. eigenvalues --  -68.75046 -20.61996 -20.58872 -11.39648 -11.30097
 Alpha  occ. eigenvalues --  -11.28505 -11.21996 -11.21353 -11.21289 -11.21199
 Alpha  occ. eigenvalues --  -11.21128 -11.21007 -11.20856 -11.20837 -11.20791
 Alpha  occ. eigenvalues --  -11.19526 -11.19447 -11.19304 -11.18742 -11.17521
 Alpha  occ. eigenvalues --   -7.62186  -6.09725  -4.20352  -4.20350  -4.20324
 Alpha  occ. eigenvalues --   -1.48181  -1.38569  -1.10848  -1.10480  -1.04067
 Alpha  occ. eigenvalues --   -1.03564  -1.02044  -0.97171  -0.94593  -0.93933
 Alpha  occ. eigenvalues --   -0.91736  -0.91356  -0.90835  -0.87468  -0.84048
 Alpha  occ. eigenvalues --   -0.81508  -0.78825  -0.76631  -0.73475  -0.70906
 Alpha  occ. eigenvalues --   -0.68505  -0.67630  -0.65597  -0.65421  -0.63543
 Alpha  occ. eigenvalues --   -0.62068  -0.60823  -0.59813  -0.59151  -0.58232
 Alpha  occ. eigenvalues --   -0.57882  -0.56680  -0.56305  -0.55710  -0.55515
 Alpha  occ. eigenvalues --   -0.55067  -0.54477  -0.54202  -0.53356  -0.52966
 Alpha  occ. eigenvalues --   -0.52717  -0.52151  -0.51311  -0.50996  -0.49724
 Alpha  occ. eigenvalues --   -0.48226  -0.47794  -0.47062  -0.46230  -0.44982
 Alpha  occ. eigenvalues --   -0.44328  -0.42520  -0.41966  -0.41623  -0.40652
 Alpha  occ. eigenvalues --   -0.40468  -0.39566  -0.37417  -0.29151
 Alpha virt. eigenvalues --    0.02814   0.03482   0.03610   0.03890   0.04693
 Alpha virt. eigenvalues --    0.04926   0.04981   0.05209   0.05522   0.06363
 Alpha virt. eigenvalues --    0.06545   0.06757   0.06905   0.06918   0.07187

 Mulliken charges:
               1
     1  C    0.279613
     2  C    0.156054
     3  C    0.409684
     4  H   -0.290980
     5  C    0.392604
     6  H   -0.237128
     7  H   -0.248871
     8  H   -0.234962
     9  H   -0.302131
    10  C    0.458873
    11  H   -0.263931
    12  H   -0.028707
    13  C    0.692002
    14  H   -0.129024
    15  H   -0.382175
    16  C    0.347519
    17  H   -0.266344
    18  C    0.872629
    19  H    0.025282
    20  H   -0.337193
    21  H   -0.241646
    22  H   -0.209332
    23  C    0.075383
    24  H   -0.202200
    25  Si   0.493641
    26  C    0.841379
    27  H   -0.480369
    28  H   -0.355619
    29  H   -0.234459
    30  C    0.995312
    31  H   -0.446128
    32  H   -0.378781
    33  H   -0.296753
    34  C    0.922885
    35  H   -0.338620
    36  H   -0.484650
    37  H   -0.215675
    38  B    0.444198
    39  C    0.826311
    40  H   -0.607507
    41  C    0.846514
    42  O   -1.647783
    43  O   -1.083442
    44  C    1.082933
    45  H   -0.046840
    46  H   -0.349222
    47  H   -0.140531
    48  C    0.564077
    49  H   -0.522091
    50  C    1.184989
    51  H   -0.433737
    52  H   -0.475050
 Sum of Mulliken charges =  -0.00000

 Dipole moment (field-independent basis, Debye):
    X=              1.1260    Y=              0.3457    Z=             -0.6949  Tot=              1.3676
 Unable to Open any file for archive entry.
 1\1\GINC-SE224\SP\RMP2-FC\Aug-CC-pVDZ\C17H31B1O2Si1\OHZDE\21-Sep-2024\
 0\\#t symm=none mp2 aug-cc-pvdz geom=allcheck guess=(read,tcheck) int=
 (grid=ultrafine)\\title\\0,1\C,0,0.876355,2.583375,-0.894967\C,0,0.850
 033,1.769986,0.428352\C,0,-1.937579,0.98402,-0.609883\H,0,1.895869,2.5
 66938,-1.293271\C,0,0.040803,2.498762,1.514073\H,0,0.036064,1.899293,2
 .428328\H,0,0.565928,3.427295,1.767318\H,0,-2.888446,0.554342,-0.93731
 7\H,0,1.881497,1.768785,0.79628\C,0,-1.394207,2.856118,1.150968\H,0,-1
 .859222,3.336154,2.018027\H,0,-1.3936,3.617195,0.365757\C,0,-2.278117,
 1.688262,0.721701\H,0,-2.30159,0.941883,1.522203\H,0,-3.3014,2.06971,0

 Normal termination of Gaussian 16 at Sat Sep 21 01:41:53 2024.
