 Gaussian 16, Revision C.01,

 ----------------------------------------------------------------------
 #t hf aug-cc-pvdz symm=none int=(grid=ultrafine) guess=(read,tcheck) s
 table=(opt,rrhf)
 ----------------------------------------------------------------------
 -----
 title
 -----
 Symbolic Z-matrix:
 Charge =  1 Multiplicity = 1

 SCF Done:  E(RHF) =  -1260.46757397     A.U. after   26 cycles
 Normal termination of Gaussian 16 at Fri Sep 20 23:37:49 2024.
 Gaussian 16:  ES64L-G16RevC.01  3-Jul-2019

 ----------------------------------------------------------------------
 #t symm=none mp2 aug-cc-pvdz geom=allcheck guess=(read,tcheck) int=(gr
 id=ultrafine)
 ----------------------------------------------------------------------
 Structure from the checkpoint file:  "05_28TS.chk"
 -----
 title
 -----
 Charge =  1 Multiplicity = 1

                          Input orientation:
 ---------------------------------------------------------------------
 Center     Atomic      Atomic             Coordinates (Angstroms)
 Number     Number       Type             X           Y           Z
 ---------------------------------------------------------------------
      1          6           0        0.031439   -2.587645   -0.790679
      2          6           0        0.044410   -1.416041    1.581902
      3          6           0        1.505873   -1.050449    1.309770
      4          6           0        2.227955   -2.059498    0.419463
      5          6           0        1.503275   -2.189182   -0.917372
      6          1           0        1.553677   -0.071252    0.832061
      7          1           0        2.018487   -0.970197    2.270524
      8          1           0        2.240732   -3.031191    0.916945
      9          1           0        1.579000   -1.233886   -1.436426
     10          1           0        2.001971   -2.936018   -1.538444
     11          7           0       -0.607130   -1.756068    0.279815
     12          8           0       -1.878626   -1.694045    0.242158
     13          6           0       -0.678626   -2.314638   -2.115984
     14          1           0       -0.612044   -1.264551   -2.399796
     15          1           0       -0.180713   -2.891532   -2.895352
     16          1           0       -1.723836   -2.619440   -2.087281
     17          6           0       -0.145605   -4.075325   -0.446673
     18          1           0       -1.190849   -4.293290   -0.224981
     19          1           0        0.150443   -4.671502   -1.310901
     20          1           0        0.462440   -4.392160    0.397484
     21          6           0       -0.674595   -0.232123    2.219068
     22          1           0       -0.179610    0.003641    3.161240
     23          1           0       -0.622182    0.647080    1.580517
     24          1           0       -1.717567   -0.462189    2.431818
     25          6           0       -0.089299   -2.619991    2.533197
     26          1           0        0.247354   -2.320647    3.526400
     27          1           0       -1.131692   -2.931886    2.605919
     28          1           0        0.506277   -3.475540    2.224933
     29          6           0       -2.609998    0.400234   -0.986583
     30          1           0       -2.939783   -0.125376   -1.882730
     31          1           0       -2.264882   -0.713750   -0.338043
     32          8           0       -3.627452    0.945976   -0.245125
     33          6           0       -1.383928    1.116545   -1.009073
     34          1           0       -0.624983    0.758891   -1.691273
     35          6           0       -1.153355    2.212520   -0.229268
     36          1           0       -1.987189    2.570828    0.367389
     37          6           0        0.057455    2.977315   -0.143742
     38          6           0        0.021581    4.206396    0.537887
     39          6           0        1.274490    2.535817   -0.688838
     40          6           0        1.159001    4.981545    0.646507
     41          1           0       -0.912195    4.547216    0.970105
     42          6           0        2.412082    3.304953   -0.562608
     43          1           0        1.356189    1.574798   -1.177031
     44          6           0        2.354418    4.531087    0.095218
     45          1           0        1.121729    5.932255    1.162535
     46          1           0        3.344304    2.932561   -0.965291
     47          1           0        3.248961    5.135092    0.187233
     48          6           0       -4.851177    0.287844   -0.294758
     49          8           0       -4.975826   -0.730504   -0.898610
     50          6           0       -5.878582    1.034806    0.482640
     51          1           0       -5.540440    1.170969    1.510785
     52          1           0       -6.019711    2.025275    0.046755
     53          1           0       -6.814906    0.484196    0.464527
     54          7           0        3.633740   -1.711704    0.234591
     55          6           0        4.076397   -0.588524   -0.389686
     56          6           0        5.571721   -0.423653   -0.472562
     57          1           0        5.849090   -0.291386   -1.518460
     58          1           0        5.850801    0.486713    0.059419
     59          1           0        6.129439   -1.262570   -0.056985
     60          8           0        3.312204    0.244048   -0.854852
     61          1           0        4.323423   -2.352495    0.590037
 ---------------------------------------------------------------------

 SCF Done:  E(RHF) =  -1260.46757397     A.U. after    2 cycles
 E2 =    -0.4336805305D+01 EUMP2 =    -0.12648043792747D+04

 Alpha  occ. eigenvalues --  -20.79579 -20.75540 -20.68180 -20.62502 -15.79522
 Alpha  occ. eigenvalues --  -15.69482 -11.51302 -11.47123 -11.45784 -11.41366
 Alpha  occ. eigenvalues --  -11.40392 -11.40376 -11.38777 -11.37598 -11.36220
 Alpha  occ. eigenvalues --  -11.36011 -11.35555 -11.35344 -11.35257 -11.34227
 Alpha  occ. eigenvalues --  -11.33781 -11.33759 -11.33693 -11.33598 -11.33300
 Alpha  occ. eigenvalues --  -11.33258 -11.33142 -11.33114  -1.62959  -1.60552
 Alpha  occ. eigenvalues --   -1.50531  -1.48768  -1.34478  -1.29694  -1.28324
 Alpha  occ. eigenvalues --   -1.23400  -1.22325  -1.16956  -1.16043  -1.13181
 Alpha  occ. eigenvalues --   -1.12717  -1.11076  -1.08625  -1.06061  -1.05817
 Alpha  occ. eigenvalues --   -1.04840  -1.04696  -0.97030  -0.96683  -0.93919
 Alpha  occ. eigenvalues --   -0.93809  -0.93758  -0.90036  -0.87632  -0.86707
 Alpha  occ. eigenvalues --   -0.83013  -0.82980  -0.81267  -0.81134  -0.80750
 Alpha  occ. eigenvalues --   -0.80119  -0.78994  -0.77687  -0.76261  -0.75355
 Alpha  occ. eigenvalues --   -0.74590  -0.73185  -0.72800  -0.72727  -0.71142
 Alpha  occ. eigenvalues --   -0.70890  -0.70726  -0.69972  -0.69846  -0.68954
 Alpha  occ. eigenvalues --   -0.68321  -0.67948  -0.67734  -0.67570  -0.67186
 Alpha  occ. eigenvalues --   -0.66584  -0.65872  -0.64983  -0.64461  -0.64435
 Alpha  occ. eigenvalues --   -0.64148  -0.63732  -0.62976  -0.62259  -0.61698
 Alpha  occ. eigenvalues --   -0.61207  -0.60733  -0.60202  -0.59606  -0.59327
 Alpha  occ. eigenvalues --   -0.58415  -0.57410  -0.57312  -0.56845  -0.54021
 Alpha  occ. eigenvalues --   -0.51719  -0.49342  -0.47433  -0.44449  -0.40540
 Alpha virt. eigenvalues --   -0.15343  -0.04904  -0.04544  -0.03894  -0.03628
 Alpha virt. eigenvalues --   -0.03099  -0.02750  -0.02696  -0.02401  -0.02242
 Alpha virt. eigenvalues --   -0.01704  -0.01337  -0.01311  -0.00950  -0.00763

 Mulliken charges:
               1
     1  C   -3.523443
     2  C   -3.335213
     3  C    1.724002
     4  C   -0.406705
     5  C    1.634508
     6  H   -0.014322
     7  H   -0.142908
     8  H   -0.419558
     9  H   -0.055805
    10  H   -0.132675
    11  N    0.255698
    12  O   -1.067354
    13  C    1.826436
    14  H   -0.295764
    15  H   -0.043029
    16  H    0.034501
    17  C    1.395254
    18  H   -0.001800
    19  H   -0.022454
    20  H   -0.060163
    21  C    1.758758
    22  H   -0.062136
    23  H   -0.420675
    24  H    0.089812
    25  C    1.426157
    26  H   -0.023628
    27  H    0.024424
    28  H   -0.080946
    29  C    0.497518
    30  H   -0.047110
    31  H    0.171653
    32  O   -0.907273
    33  C    1.104438
    34  H   -0.702572
    35  C    0.701983
    36  H   -0.754197
    37  C    1.027963
    38  C    0.330771
    39  C    1.279994
    40  C    0.348990
    41  H   -0.657069
    42  C    0.238696
    43  H   -0.814172
    44  C    0.356977
    45  H   -0.480523
    46  H   -0.586562
    47  H   -0.469531
    48  C    0.645252
    49  O   -0.674448
    50  C    0.364568
    51  H    0.062499
    52  H    0.067753
    53  H   -0.017012
    54  N   -0.140319
    55  C    0.292149
    56  C    0.731945
    57  H    0.028389
    58  H    0.028457
    59  H   -0.171978
    60  O   -0.788153
    61  H   -0.130051
 Sum of Mulliken charges =   1.00000

 Dipole moment (field-independent basis, Debye):
    X=              1.0174    Y=              0.3906    Z=              2.3045  Tot=              2.5492
 Unable to Open any file for archive entry.
 1\1\GINC-SE369\SP\RMP2-FC\Aug-CC-pVDZ\C22H33N2O4\OHZDE\21-Sep-2024\0\\
 #t symm=none mp2 aug-cc-pvdz geom=allcheck guess=(read,tcheck) int=(gr
 id=ultrafine)\\title\\1,1\C,0,0.031439,-2.587645,-0.790679\C,0,0.04441
 ,-1.416041,1.581902\C,0,1.505873,-1.050449,1.30977\C,0,2.227955,-2.059
 498,0.419463\C,0,1.503275,-2.189182,-0.917372\H,0,1.553677,-0.071252,0
 .832061\H,0,2.018487,-0.970197,2.270524\H,0,2.240732,-3.031191,0.91694
 5\H,0,1.579,-1.233886,-1.436426\H,0,2.001971,-2.936018,-1.538444\N,0,-
 0.60713,-1.756068,0.279815\O,0,-1.878626,-1.694045,0.242158\C,0,-0.678
 626,-2.314638,-2.115984\H,0,-0.612044,-1.264551,-2.399796\H,0,-0.18071

 Normal termination of Gaussian 16 at Sat Sep 21 09:58:57 2024.
