 Gaussian 16, Revision C.01,

 ----------------------------------------------------------------------
 #t hf aug-cc-pvdz symm=none int=(grid=ultrafine) guess=(read,tcheck) s
 table=(opt,rrhf)
 ----------------------------------------------------------------------
 -----
 title
 -----
 Symbolic Z-matrix:
 Charge =  0 Multiplicity = 1

 SCF Done:  E(RHF) =  -1094.42132181     A.U. after   16 cycles
 Normal termination of Gaussian 16 at Fri Sep 20 12:12:05 2024.
 Gaussian 16:  ES64L-G16RevC.01  3-Jul-2019

 ----------------------------------------------------------------------
 #t symm=none mp2 aug-cc-pvdz geom=allcheck guess=(read,tcheck) int=(gr
 id=ultrafine)
 ----------------------------------------------------------------------
 Structure from the checkpoint file:  "02_20R.chk"
 -----
 title
 -----
 Charge =  0 Multiplicity = 1

                          Input orientation:
 ---------------------------------------------------------------------
 Center     Atomic      Atomic             Coordinates (Angstroms)
 Number     Number       Type             X           Y           Z
 ---------------------------------------------------------------------
      1          6           0       -0.639472   -1.701097   -0.463042
      2          6           0        0.422831    1.532521    0.335071
      3          6           0       -1.935844   -1.866879   -0.207269
      4          6           0        0.354941   -1.795463    0.613274
      5          6           0       -0.624395    1.938650   -0.397371
      6          6           0        1.830257    1.964438    0.226814
      7          6           0       -1.981361    1.401399   -0.206584
      8          6           0       -2.597549    1.026394    0.917057
      9          6           0       -4.006472    0.477196    0.944599
     10          6           0       -2.003408    1.142119    2.293078
     11          6           0       -3.015110   -1.798786   -1.239710
     12          1           0       -2.786683    1.372022    3.020568
     13          1           0       -1.546731    0.194753    2.598036
     14          1           0       -1.239552    1.916390    2.347969
     15          6           0       -4.699511    0.027358   -0.349062
     16          1           0       -4.623910    1.248732    1.422000
     17          1           0       -4.024680   -0.360296    1.654423
     18          6           0       -4.414462   -1.431073   -0.738782
     19          1           0       -2.706427   -1.133378   -2.050978
     20          1           0       -3.087773   -2.798010   -1.687511
     21          6           0       -6.212227    0.203440   -0.190810
     22          1           0       -4.384829    0.671562   -1.175533
     23          1           0       -5.118541   -1.699133   -1.532076
     24          1           0       -4.668206   -2.074185    0.113344
     25          6           0       -0.521107    2.938383   -1.519937
     26          1           0        0.421170    3.481863   -1.498181
     27          1           0       -0.596917    2.438753   -2.491242
     28          1           0       -1.345077    3.654085   -1.462788
     29          1           0       -6.589511   -0.404740    0.637377
     30          1           0       -6.467935    1.244365    0.018716
     31          1           0       -6.745230   -0.099544   -1.094874
     32          6           0        2.436369    2.380277    1.541730
     33          1           0        1.930020    3.267252    1.932988
     34          1           0        2.298120    1.588211    2.284570
     35          1           0        3.500579    2.601657    1.476538
     36          6           0        2.483893    1.927697   -0.936841
     37          6           0        3.898121    2.329752   -1.215296
     38          1           0        3.929772    3.112090   -1.979782
     39          1           0        4.423104    2.706077   -0.337979
     40          1           0        4.466536    1.483756   -1.613988
     41          1           0        1.942387    1.542408   -1.795243
     42          6           0        1.797412   -1.708641    0.239200
     43          8           0        0.060517   -1.931526    1.789123
     44          6           0        2.792499   -1.846007    1.114763
     45          6           0        2.390244   -1.458760   -1.118245
     46          1           0        2.666723   -2.026964    2.173630
     47          6           0        4.130117   -1.706432    0.455913
     48          7           0        3.741954   -1.478435   -0.920402
     49          1           0        4.383871   -1.326497   -1.680578
     50          8           0        1.833983   -1.274572   -2.180952
     51          6           0        4.976744   -0.579091    1.040699
     52          1           0        5.916834   -0.481746    0.494187
     53          1           0        5.214183   -0.784822    2.086275
     54          1           0        4.437514    0.365506    0.979487
     55          1           0        4.676083   -2.654553    0.546450
     56          1           0       -2.538057    1.317333   -1.135330
     57          1           0        0.235896    0.821849    1.131981
     58          1           0       -0.272236   -1.465475   -1.454158
     59          1           0       -2.225245   -2.105861    0.813659
 ---------------------------------------------------------------------

 SCF Done:  E(RHF) =  -1094.42132181     A.U. after    3 cycles
 E2 =    -0.3849252151D+01 EUMP2 =    -0.10982705739590D+04

 Alpha  occ. eigenvalues --  -20.53821 -20.52951 -15.59120 -11.36146 -11.33467
 Alpha  occ. eigenvalues --  -11.30069 -11.27678 -11.25048 -11.24959 -11.24547
 Alpha  occ. eigenvalues --  -11.23326 -11.23239 -11.23134 -11.22968 -11.22922
 Alpha  occ. eigenvalues --  -11.22643 -11.22409 -11.22399 -11.22232 -11.21861
 Alpha  occ. eigenvalues --  -11.21747 -11.21231 -11.21223 -11.21078 -11.21016
 Alpha  occ. eigenvalues --  -11.21007  -1.39054  -1.37749  -1.27105  -1.12699
 Alpha  occ. eigenvalues --   -1.11026  -1.09470  -1.08512  -1.06750  -1.04395
 Alpha  occ. eigenvalues --   -1.03447  -0.99302  -0.98605  -0.93144  -0.92494
 Alpha  occ. eigenvalues --   -0.92127  -0.91934  -0.88583  -0.87935  -0.84383
 Alpha  occ. eigenvalues --   -0.82165  -0.78409  -0.76866  -0.76005  -0.72426
 Alpha  occ. eigenvalues --   -0.71108  -0.69908  -0.67655  -0.66390  -0.65591
 Alpha  occ. eigenvalues --   -0.64777  -0.63690  -0.62550  -0.62069  -0.61487
 Alpha  occ. eigenvalues --   -0.61066  -0.60207  -0.59023  -0.58775  -0.58361
 Alpha  occ. eigenvalues --   -0.57704  -0.56749  -0.56627  -0.55677  -0.55454
 Alpha  occ. eigenvalues --   -0.55278  -0.55071  -0.54585  -0.53976  -0.53402
 Alpha  occ. eigenvalues --   -0.53134  -0.53076  -0.52587  -0.52259  -0.51717
 Alpha  occ. eigenvalues --   -0.51360  -0.50381  -0.49137  -0.48794  -0.48176
 Alpha  occ. eigenvalues --   -0.46043  -0.45655  -0.45404  -0.43488  -0.42533
 Alpha  occ. eigenvalues --   -0.40996  -0.39824  -0.39323  -0.38506  -0.35396
 Alpha  occ. eigenvalues --   -0.33144  -0.28488
 Alpha virt. eigenvalues --    0.02581   0.03395   0.03711   0.03826   0.04366
 Alpha virt. eigenvalues --    0.04449   0.04649   0.05107   0.05591   0.05680
 Alpha virt. eigenvalues --    0.05936   0.06245   0.06433   0.06524   0.06808

 Mulliken charges:
               1
     1  C    1.260629
     2  C    2.958521
     3  C    0.746156
     4  C   -0.099510
     5  C   -2.127631
     6  C   -0.685310
     7  C    1.984124
     8  C   -1.561473
     9  C    0.528236
    10  C    0.636599
    11  C    0.218508
    12  H   -0.279641
    13  H    0.047188
    14  H    0.045563
    15  C   -0.980047
    16  H    0.000102
    17  H    0.006178
    18  C    1.052104
    19  H   -0.167410
    20  H   -0.005241
    21  C    1.091643
    22  H   -0.209256
    23  H   -0.172524
    24  H   -0.098897
    25  C    0.681576
    26  H   -0.133807
    27  H    0.122618
    28  H   -0.008028
    29  H    0.015604
    30  H   -0.088667
    31  H   -0.121973
    32  C    0.900755
    33  H   -0.136217
    34  H    0.113402
    35  H   -0.295828
    36  C   -0.050555
    37  C    0.760585
    38  H   -0.077655
    39  H   -0.206889
    40  H    0.018516
    41  H   -0.836322
    42  C    0.945429
    43  O   -1.110828
    44  C    0.609883
    45  C    0.314504
    46  H   -0.618904
    47  C   -0.065921
    48  N   -0.355627
    49  H   -0.212002
    50  O   -0.918299
    51  C    0.897502
    52  H   -0.008765
    53  H   -0.010041
    54  H   -0.241355
    55  H   -0.141847
    56  H   -1.032331
    57  H   -1.198165
    58  H   -0.899932
    59  H   -0.799029
 Sum of Mulliken charges =  -0.00000

 Dipole moment (field-independent basis, Debye):
    X=              2.5904    Y=              0.1356    Z=              0.6937  Tot=              2.6851
 Unable to Open any file for archive entry.
 1\1\GINC-SE103\SP\RMP2-FC\Aug-CC-pVDZ\C23H33N1O2\OHZDE\20-Sep-2024\0\\
 #t symm=none mp2 aug-cc-pvdz geom=allcheck guess=(read,tcheck) int=(gr
 id=ultrafine)\\title\\0,1\C,0,-0.639472,-1.701097,-0.463042\C,0,0.4228
 31,1.532521,0.335071\C,0,-1.935844,-1.866879,-0.207269\C,0,0.354941,-1
 .795463,0.613274\C,0,-0.624395,1.93865,-0.397371\C,0,1.830257,1.964438
 ,0.226814\C,0,-1.981361,1.401399,-0.206584\C,0,-2.597549,1.026394,0.91
 7057\C,0,-4.006472,0.477196,0.944599\C,0,-2.003408,1.142119,2.293078\C
 ,0,-3.01511,-1.798786,-1.23971\H,0,-2.786683,1.372022,3.020568\H,0,-1.
 546731,0.194753,2.598036\H,0,-1.239552,1.91639,2.347969\C,0,-4.699511,

 Normal termination of Gaussian 16 at Fri Sep 20 16:00:39 2024.
