 Gaussian 16, Revision C.01,

 ----------------------------------------------------------------------
 #t hf aug-cc-pvdz symm=none int=(grid=ultrafine) guess=(read,tcheck) s
 table=(opt,rrhf)
 ----------------------------------------------------------------------
 -----
 title
 -----
 Symbolic Z-matrix:
 Charge =  1 Multiplicity = 1

 SCF Done:  E(RHF) =  -1274.28116503     A.U. after   19 cycles
 Normal termination of Gaussian 16 at Fri Sep 20 22:32:19 2024.
 Gaussian 16:  ES64L-G16RevC.01  3-Jul-2019

 ----------------------------------------------------------------------
 #t symm=none mp2 aug-cc-pvdz geom=allcheck guess=(read,tcheck) int=(gr
 id=ultrafine)
 ----------------------------------------------------------------------
 Structure from the checkpoint file:  "05_22TS.chk"
 -----
 title
 -----
 Charge =  1 Multiplicity = 1

                          Input orientation:
 ---------------------------------------------------------------------
 Center     Atomic      Atomic             Coordinates (Angstroms)
 Number     Number       Type             X           Y           Z
 ---------------------------------------------------------------------
      1          6           0        1.261461   -0.770297   -0.448912
      2          6           0        2.149841    1.737848   -0.447677
      3          6           0        3.538295    1.151252   -0.729140
      4          6           0        3.729107   -0.229406   -0.129815
      5          6           0        2.705206   -1.176321   -0.744594
      6          1           0        3.686701    1.096786   -1.812773
      7          1           0        4.278573    1.849753   -0.334265
      8          1           0        3.584026   -0.198830    0.951437
      9          1           0        2.859516   -1.207201   -1.827382
     10          1           0        2.859839   -2.183402   -0.357628
     11          7           0        1.116322    0.692301   -0.701448
     12          8           0       -0.087306    1.117631   -0.810194
     13          6           0        0.308956   -1.509201   -1.387647
     14          1           0        0.483939   -2.580782   -1.287515
     15          1           0       -0.735349   -1.311218   -1.148727
     16          1           0        0.489231   -1.227659   -2.425650
     17          6           0        0.885623   -1.082082    1.010045
     18          1           0       -0.142774   -0.787674    1.222247
     19          1           0        0.948065   -2.160970    1.154434
     20          1           0        1.553009   -0.617210    1.732684
     21          6           0        1.884753    2.904225   -1.398954
     22          1           0        0.950547    3.412550   -1.165793
     23          1           0        2.695966    3.626725   -1.302762
     24          1           0        1.849393    2.562390   -2.433945
     25          6           0        2.035955    2.226740    1.006144
     26          1           0        2.747862    3.040068    1.152130
     27          1           0        1.044002    2.631222    1.210831
     28          1           0        2.264916    1.449796    1.733290
     29          6           0       -1.580635    1.668604    1.162475
     30          1           0       -1.009863    1.334613    2.029215
     31          1           0       -0.642157    1.270863    0.184359
     32          6           0       -2.670003    0.781558    0.735980
     33          6           0       -3.312021    0.883391   -0.505335
     34          6           0       -2.987685   -0.278759    1.594229
     35          6           0       -4.276711   -0.038034   -0.864937
     36          1           0       -3.041983    1.656523   -1.209624
     37          6           0       -3.960426   -1.197034    1.245357
     38          1           0       -2.486184   -0.372082    2.549779
     39          6           0       -4.585177   -1.056154    0.020065
     40          1           0       -4.785401    0.013625   -1.817279
     41          1           0       -4.237061   -2.012345    1.899035
     42          8           0       -1.579930    2.990785    1.119606
     43          6           0       -2.479409    3.754880    0.300876
     44          1           0       -2.178389    3.691245   -0.745110
     45          1           0       -3.503843    3.409467    0.433755
     46          1           0       -2.377180    4.777438    0.650810
     47          7           0       -5.618068   -2.046545   -0.369718
     48          8           0       -6.158270   -1.884386   -1.441961
     49          8           0       -5.841704   -2.944162    0.412091
     50          7           0        5.082225   -0.701952   -0.330542
     51          6           0        5.578093   -1.697014    0.465433
     52          8           0        4.898284   -2.179919    1.351516
     53          6           0        6.988119   -2.141703    0.185288
     54          1           0        6.980071   -3.208111   -0.041596
     55          1           0        7.581053   -2.004832    1.089943
     56          1           0        7.458802   -1.602250   -0.636812
     57          1           0        5.632689   -0.349663   -1.096881
 ---------------------------------------------------------------------

 SCF Done:  E(RHF) =  -1274.28116503     A.U. after    2 cycles
 E2 =    -0.4307680864D+01 EUMP2 =    -0.12785888458978D+04

 Alpha  occ. eigenvalues --  -20.82252 -20.78862 -20.71524 -20.71510 -20.61162
 Alpha  occ. eigenvalues --  -15.96547 -15.80131 -15.68351 -11.53532 -11.44406
 Alpha  occ. eigenvalues --  -11.44251 -11.44181 -11.42608 -11.41625 -11.41076
 Alpha  occ. eigenvalues --  -11.41049 -11.40969 -11.40039 -11.40030 -11.37932
 Alpha  occ. eigenvalues --  -11.35293 -11.34941 -11.34761 -11.34265 -11.33915
 Alpha  occ. eigenvalues --  -11.33796 -11.31900  -1.72561  -1.64874  -1.60807
 Alpha  occ. eigenvalues --   -1.51797  -1.47551  -1.34122  -1.33883  -1.30764
 Alpha  occ. eigenvalues --   -1.24854  -1.23377  -1.18935  -1.17480  -1.16238
 Alpha  occ. eigenvalues --   -1.12141  -1.10337  -1.07958  -1.07169  -1.06144
 Alpha  occ. eigenvalues --   -1.05440  -1.01579  -1.00438  -0.96160  -0.94969
 Alpha  occ. eigenvalues --   -0.94653  -0.91511  -0.89920  -0.88704  -0.87533
 Alpha  occ. eigenvalues --   -0.86437  -0.83815  -0.83106  -0.82962  -0.81327
 Alpha  occ. eigenvalues --   -0.81220  -0.80262  -0.78694  -0.78051  -0.77750
 Alpha  occ. eigenvalues --   -0.76297  -0.75446  -0.74846  -0.73781  -0.72777
 Alpha  occ. eigenvalues --   -0.71795  -0.71445  -0.70951  -0.70172  -0.69549
 Alpha  occ. eigenvalues --   -0.68868  -0.68607  -0.67663  -0.66561  -0.66310
 Alpha  occ. eigenvalues --   -0.66083  -0.65807  -0.65374  -0.65173  -0.64271
 Alpha  occ. eigenvalues --   -0.64012  -0.63469  -0.62379  -0.61556  -0.60341
 Alpha  occ. eigenvalues --   -0.60023  -0.59837  -0.59781  -0.59547  -0.57717
 Alpha  occ. eigenvalues --   -0.57168  -0.55519  -0.52642  -0.50827  -0.49701
 Alpha  occ. eigenvalues --   -0.48288  -0.45710
 Alpha virt. eigenvalues --   -0.16575  -0.06408  -0.06079  -0.05238  -0.04604
 Alpha virt. eigenvalues --   -0.04464  -0.03565  -0.03348  -0.03055  -0.03016
 Alpha virt. eigenvalues --   -0.02813  -0.02494  -0.01610  -0.01260  -0.01069

 Mulliken charges:
               1
     1  C   -3.801920
     2  C   -3.875185
     3  C    1.884399
     4  C   -0.128425
     5  C    1.843171
     6  H   -0.064897
     7  H   -0.144986
     8  H   -0.420360
     9  H   -0.032633
    10  H   -0.167726
    11  N    0.780210
    12  O   -1.261710
    13  C    1.620508
    14  H    0.055411
    15  H   -0.072603
    16  H   -0.077726
    17  C    1.649250
    18  H   -0.377837
    19  H   -0.003866
    20  H   -0.000767
    21  C    1.587071
    22  H   -0.070459
    23  H    0.083321
    24  H   -0.035368
    25  C    1.570539
    26  H   -0.022140
    27  H   -0.254430
    28  H    0.009681
    29  C    0.880622
    30  H   -0.459765
    31  H    0.161826
    32  C    1.704284
    33  C    1.004481
    34  C    0.681700
    35  C   -0.212217
    36  H   -0.827995
    37  C   -0.070043
    38  H   -0.706955
    39  C    1.306214
    40  H   -0.539355
    41  H   -0.492909
    42  O   -0.935096
    43  C    1.141426
    44  H   -0.083819
    45  H   -0.025386
    46  H   -0.340495
    47  N    0.441185
    48  O   -0.759517
    49  O   -0.757470
    50  N   -0.167788
    51  C    0.335443
    52  O   -0.863208
    53  C    0.483690
    54  H    0.058625
    55  H    0.056609
    56  H   -0.177289
    57  H   -0.107322
 Sum of Mulliken charges =   1.00000

 Dipole moment (field-independent basis, Debye):
    X=              1.7378    Y=              8.5189    Z=             -0.6009  Tot=              8.7151
 Unable to Open any file for archive entry.
 1\1\GINC-SE246\SP\RMP2-FC\Aug-CC-pVDZ\C19H30N3O5\OHZDE\21-Sep-2024\0\\
 #t symm=none mp2 aug-cc-pvdz geom=allcheck guess=(read,tcheck) int=(gr
 id=ultrafine)\\title\\1,1\C,0,1.261461,-0.770297,-0.448912\C,0,2.14984
 1,1.737848,-0.447677\C,0,3.538295,1.151252,-0.72914\C,0,3.729107,-0.22
 9406,-0.129815\C,0,2.705206,-1.176321,-0.744594\H,0,3.686701,1.096786,
 -1.812773\H,0,4.278573,1.849753,-0.334265\H,0,3.584026,-0.19883,0.9514
 37\H,0,2.859516,-1.207201,-1.827382\H,0,2.859839,-2.183402,-0.357628\N
 ,0,1.116322,0.692301,-0.701448\O,0,-0.087306,1.117631,-0.810194\C,0,0.
 308956,-1.509201,-1.387647\H,0,0.483939,-2.580782,-1.287515\H,0,-0.735

 Normal termination of Gaussian 16 at Sat Sep 21 02:19:33 2024.
