 Gaussian 16, Revision C.01,

 ----------------------------------------------------------------------
 #t hf aug-cc-pvdz symm=none int=(grid=ultrafine) guess=(read,tcheck) s
 table=opt
 ----------------------------------------------------------------------
 -----
 title
 -----
 Symbolic Z-matrix:
 Charge =  0 Multiplicity = 2

 SCF Done:  E(UHF) =  -915.262626088     A.U. after   16 cycles
 Normal termination of Gaussian 16 at Fri Sep 20 23:24:28 2024.
 Gaussian 16:  ES64L-G16RevC.01  3-Jul-2019

 ----------------------------------------------------------------------
 #t symm=none mp2 aug-cc-pvdz geom=allcheck guess=(read,tcheck) int=(gr
 id=ultrafine)
 ----------------------------------------------------------------------
 Structure from the checkpoint file:  "06_23P.chk"
 -----
 title
 -----
 Charge =  0 Multiplicity = 2

                          Input orientation:
 ---------------------------------------------------------------------
 Center     Atomic      Atomic             Coordinates (Angstroms)
 Number     Number       Type             X           Y           Z
 ---------------------------------------------------------------------
      1         14           0       -3.281658    0.111974   -0.099859
      2          6           0       -2.082325    1.550439   -0.324742
      3          6           0       -2.078071    2.573480    0.815639
      4          6           0       -3.261552   -0.943366   -1.660705
      5          6           0       -4.179501   -2.169111   -1.616519
      6          6           0       -5.021161    0.771455    0.221366
      7          6           0       -5.574873    1.664622   -0.894079
      8          6           0       -2.753971   -0.956729    1.387059
      9          6           0       -1.423291   -1.575369    1.183518
     10          6           0       -0.154609   -0.906034    1.586162
     11          6           0        0.978570   -1.069054    0.571770
     12          6           0        3.402009   -0.546691   -0.012434
     13          6           0        2.273704   -0.390186    1.000550
     14          6           0        4.697480    0.135821    0.411912
     15          6           0        5.825789   -0.022117   -0.600855
     16          6           0        7.122198    0.661100   -0.178729
     17          6           0        8.242967    0.495837   -1.198737
     18          1           0       -1.076983    1.140152   -0.464719
     19          1           0       -2.326694    2.051272   -1.267996
     20          1           0       -1.821758    2.111030    1.772256
     21          1           0       -1.355247    3.373666    0.639171
     22          1           0       -3.058152    3.041675    0.936598
     23          1           0       -2.228427   -1.258376   -1.840755
     24          1           0       -3.529916   -0.307650   -2.511481
     25          1           0       -4.131795   -2.744741   -2.543983
     26          1           0       -3.905996   -2.844373   -0.801706
     27          1           0       -5.223830   -1.883858   -1.464957
     28          1           0       -5.014006    1.320577    1.169123
     29          1           0       -5.690714   -0.080131    0.383253
     30          1           0       -4.943991    2.542742   -1.055002
     31          1           0       -5.631826    1.128710   -1.845013
     32          1           0       -6.580413    2.025174   -0.664061
     33          1           0       -0.337894    0.160775    1.757121
     34          1           0        0.192102   -1.298665    2.556267
     35          1           0        1.161802   -2.137013    0.407450
     36          1           0        0.656519   -0.664988   -0.394490
     37          1           0        3.079277   -0.141431   -0.978758
     38          1           0        3.592703   -1.613361   -0.179633
     39          1           0        2.594171   -0.797278    1.966809
     40          1           0        2.083900    0.676669    1.168862
     41          1           0        4.506736    1.202735    0.577906
     42          1           0        5.019721   -0.268542    1.378789
     43          1           0        6.017511   -1.089035   -0.766572
     44          1           0        5.503701    0.381346   -1.568345
     45          1           0        6.929879    1.726892   -0.014056
     46          1           0        7.443110    0.257652    0.787841
     47          1           0        9.159123    0.993468   -0.873572
     48          1           0        8.476707   -0.560290   -1.358016
     49          1           0        7.959642    0.919570   -2.165997
     50          1           0       -1.360675   -2.543662    0.697277
     51          1           0       -2.764013   -0.318255    2.278814
     52          1           0       -3.531257   -1.714671    1.532539
 ---------------------------------------------------------------------

 SCF Done:  E(UHF) =  -915.262626088     A.U. after    2 cycles
 E2 =    -0.2488676876D+01 EUMP2 =    -0.91775130296391D+03

 Alpha  occ. eigenvalues --  -68.74737 -11.22222 -11.22121 -11.22084 -11.22025
 Alpha  occ. eigenvalues --  -11.21945 -11.21939 -11.21878 -11.21750 -11.21716
 Alpha  occ. eigenvalues --  -11.21681 -11.21643 -11.21532 -11.20332 -11.20311
 Alpha  occ. eigenvalues --  -11.20293 -11.20198  -6.09595  -4.20263  -4.20160
 Alpha  occ. eigenvalues --   -4.20156  -1.09877  -1.07954  -1.04681  -1.02826
 Alpha  occ. eigenvalues --   -1.00970  -1.00550  -0.99751  -0.94469  -0.88632
 Alpha  occ. eigenvalues --   -0.85379  -0.83555  -0.82239  -0.82136  -0.78618
 Alpha  occ. eigenvalues --   -0.78511  -0.77308  -0.65843  -0.64139  -0.63874
 Alpha  occ. eigenvalues --   -0.61451  -0.61170  -0.60928  -0.59202  -0.58876
 Alpha  occ. eigenvalues --   -0.58157  -0.57362  -0.56727  -0.56430  -0.55884
 Alpha  occ. eigenvalues --   -0.54562  -0.53761  -0.53392  -0.51928  -0.51342
 Alpha  occ. eigenvalues --   -0.50382  -0.50080  -0.49606  -0.49352  -0.48779
 Alpha  occ. eigenvalues --   -0.48546  -0.48361  -0.47563  -0.47060  -0.46586
 Alpha  occ. eigenvalues --   -0.45825  -0.45575  -0.45560  -0.44191  -0.42178
 Alpha  occ. eigenvalues --   -0.39545  -0.39498  -0.29034
 Alpha virt. eigenvalues --    0.03060   0.03507   0.03711   0.03896   0.04216
 Alpha virt. eigenvalues --    0.04655   0.04786   0.05470   0.05535   0.05736
 Alpha virt. eigenvalues --    0.05812   0.06019   0.06835   0.07043   0.07302

  Beta  occ. eigenvalues --  -68.74668 -11.22259 -11.22120 -11.22079 -11.22024
  Beta  occ. eigenvalues --  -11.21945 -11.21797 -11.21745 -11.21711 -11.21679
  Beta  occ. eigenvalues --  -11.21642 -11.21532 -11.20617 -11.20317 -11.20263
  Beta  occ. eigenvalues --  -11.20201 -11.19747  -6.09483  -4.20122  -4.20102
  Beta  occ. eigenvalues --   -4.20026  -1.09499  -1.06963  -1.03583  -1.02508
  Beta  occ. eigenvalues --   -1.00960  -1.00511  -0.98614  -0.94341  -0.88330
  Beta  occ. eigenvalues --   -0.85264  -0.83388  -0.82223  -0.81720  -0.78558
  Beta  occ. eigenvalues --   -0.78372  -0.73551  -0.65688  -0.63724  -0.63254
  Beta  occ. eigenvalues --   -0.61167  -0.61002  -0.60649  -0.59033  -0.58727
  Beta  occ. eigenvalues --   -0.57837  -0.57096  -0.56603  -0.56379  -0.55205
  Beta  occ. eigenvalues --   -0.53757  -0.53510  -0.53248  -0.51636  -0.50943
  Beta  occ. eigenvalues --   -0.50303  -0.49619  -0.49562  -0.49241  -0.48731
  Beta  occ. eigenvalues --   -0.48277  -0.48090  -0.47479  -0.46749  -0.46390
  Beta  occ. eigenvalues --   -0.45670  -0.45552  -0.45546  -0.42915  -0.40703
  Beta  occ. eigenvalues --   -0.39529  -0.39317
  Beta virt. eigenvalues --    0.03063   0.03508   0.03717   0.03911   0.04219
  Beta virt. eigenvalues --    0.04655   0.04789   0.05471   0.05541   0.05744
  Beta virt. eigenvalues --    0.05811   0.06006   0.06835   0.07043   0.07306

 Mulliken charges and spin densities:
               1          2
     1  Si   1.657451   0.011573
     2  C    0.550509  -0.008092
     3  C    0.484831   0.002731
     4  C    0.412187  -0.001394
     5  C    0.396231   0.003895
     6  C    0.310377   0.004731
     7  C    0.447291  -0.000184
     8  C    0.781883  -0.265921
     9  C    0.634721   1.626478
    10  C    0.559276  -0.360972
    11  C   -0.092487   0.056799
    12  C    0.491787   0.008351
    13  C    0.238230   0.008571
    14  C    0.498456   0.001288
    15  C    0.509326  -0.000042
    16  C    0.640989  -0.000086
    17  C    0.637091   0.000009
    18  H   -0.564323  -0.003337
    19  H   -0.404243  -0.004954
    20  H   -0.203455  -0.000131
    21  H   -0.112739   0.000263
    22  H   -0.186463  -0.000341
    23  H   -0.347207  -0.002320
    24  H   -0.432714  -0.004898
    25  H   -0.116826   0.000857
    26  H   -0.150985   0.000705
    27  H   -0.148888   0.000009
    28  H   -0.434767  -0.000582
    29  H   -0.430368  -0.000529
    30  H   -0.159953  -0.000349
    31  H   -0.139362  -0.000699
    32  H   -0.123557   0.001080
    33  H   -0.425219   0.001884
    34  H   -0.135960   0.044684
    35  H   -0.284523  -0.004321
    36  H   -0.272968   0.004125
    37  H   -0.238175  -0.000066
    38  H   -0.226233   0.000468
    39  H   -0.257809  -0.002264
    40  H   -0.269852   0.000134
    41  H   -0.245613   0.000141
    42  H   -0.242404   0.000104
    43  H   -0.225546  -0.000006
    44  H   -0.228442   0.000000
    45  H   -0.195113   0.000003
    46  H   -0.198837   0.000006
    47  H   -0.075184   0.000002
    48  H   -0.093314  -0.000003
    49  H   -0.093780  -0.000001
    50  H   -0.716735  -0.137362
    51  H   -0.438038   0.012959
    52  H   -0.338558   0.007002
 Sum of Mulliken charges =  -0.00000   1.00000

 Dipole moment (field-independent basis, Debye):
    X=             -0.0236    Y=              0.1421    Z=             -0.0541  Tot=              0.1539
 Unable to Open any file for archive entry.
 1\1\GINC-SE371\SP\UMP2-FC\Aug-CC-pVDZ\C16H35Si1\OHZDE\21-Sep-2024\0\\#
 t symm=none mp2 aug-cc-pvdz geom=allcheck guess=(read,tcheck) int=(gri
 d=ultrafine)\\title\\0,2\Si,0,-3.281658,0.111974,-0.099859\C,0,-2.0823
 25,1.550439,-0.324742\C,0,-2.078071,2.57348,0.815639\C,0,-3.261552,-0.
 943366,-1.660705\C,0,-4.179501,-2.169111,-1.616519\C,0,-5.021161,0.771
 455,0.221366\C,0,-5.574873,1.664622,-0.894079\C,0,-2.753971,-0.956729,
 1.387059\C,0,-1.423291,-1.575369,1.183518\C,0,-0.154609,-0.906034,1.58
 6162\C,0,0.97857,-1.069054,0.57177\C,0,3.402009,-0.546691,-0.012434\C,
 0,2.273704,-0.390186,1.00055\C,0,4.69748,0.135821,0.411912\C,0,5.82578

 Normal termination of Gaussian 16 at Sat Sep 21 04:00:05 2024.
