 Gaussian 16, Revision C.01,

 ----------------------------------------------------------------------
 #t hf aug-cc-pvdz symm=none int=(grid=ultrafine) guess=(read,tcheck) s
 table=(opt,rrhf)
 ----------------------------------------------------------------------
 -----
 title
 -----
 Symbolic Z-matrix:
 Charge =  0 Multiplicity = 1

 SCF Done:  E(RHF) =  -1125.21537607     A.U. after   15 cycles
 Normal termination of Gaussian 16 at Fri Sep 20 23:59:40 2024.
 Gaussian 16:  ES64L-G16RevC.01  3-Jul-2019

 ----------------------------------------------------------------------
 #t symm=none mp2 aug-cc-pvdz geom=allcheck guess=(read,tcheck) int=(gr
 id=ultrafine)
 ----------------------------------------------------------------------
 Structure from the checkpoint file:  "06_29TS.chk"
 -----
 title
 -----
 Charge =  0 Multiplicity = 1

                          Input orientation:
 ---------------------------------------------------------------------
 Center     Atomic      Atomic             Coordinates (Angstroms)
 Number     Number       Type             X           Y           Z
 ---------------------------------------------------------------------
      1          6           0        1.673718    1.826226    0.076522
      2          6           0        0.938761    0.854742    1.033278
      3          6           0       -1.379889    1.449921   -0.924901
      4          1           0        2.730940    1.549870    0.051134
      5          6           0       -0.038307    1.590318    1.980383
      6          1           0       -0.667972    0.859506    2.499493
      7          1           0        0.558677    2.075856    2.760302
      8          1           0       -2.215128    1.463933   -1.630129
      9          1           0        1.701608    0.438729    1.687642
     10          6           0       -0.919443    2.665765    1.354004
     11          1           0       -1.475798    3.162477    2.155396
     12          1           0       -0.284381    3.442895    0.920670
     13          6           0       -1.921968    2.199002    0.305800
     14          1           0       -2.683026    1.587496    0.795313
     15          1           0       -2.450251    3.086145   -0.060891
     16          6           0       -0.261320    2.242496   -1.641470
     17          1           0       -0.414928    2.143317   -2.720839
     18          6           0        1.193003    1.854923   -1.373540
     19          1           0        1.377900    0.873047   -1.815002
     20          1           0        1.830949    2.546524   -1.933652
     21          1           0       -0.402705    3.307141   -1.424478
     22          1           0        1.655670    2.838138    0.492797
     23          6           0       -1.066830   -0.055568   -0.678523
     24          1           0       -0.839730   -0.473660   -1.672031
     25         14           0       -2.680925   -0.985033   -0.248910
     26          6           0       -3.236176   -0.861105    1.553565
     27          1           0       -2.402580   -0.810420    2.255099
     28          1           0       -3.859100    0.018576    1.725257
     29          1           0       -3.836227   -1.737458    1.814907
     30          6           0       -2.542998   -2.829672   -0.645763
     31          1           0       -3.550181   -3.255785   -0.655736
     32          1           0       -2.108502   -3.014036   -1.632118
     33          1           0       -1.971503   -3.396593    0.092247
     34          6           0       -4.084692   -0.338337   -1.324876
     35          1           0       -3.835659   -0.392371   -2.388146
     36          1           0       -4.982314   -0.942197   -1.165474
     37          1           0       -4.341215    0.697721   -1.095398
     38          5           0        0.205918   -0.355897    0.264425
     39          6           0        1.643333   -1.397009   -0.571471
     40          1           0        1.629088   -1.462605   -1.650811
     41          6           0        0.636693   -2.078745    0.118838
     42          1           0       -0.092224   -2.582630   -0.500403
     43          6           0        0.254590   -1.765441    1.423968
     44          1           0        0.991039   -1.491769    2.163692
     45          1           0       -0.664011   -2.203803    1.788720
     46          6           0        2.962165   -1.099541    0.003351
     47          8           0        3.292147   -1.208529    1.159300
     48          8           0        3.812323   -0.697194   -0.960753
     49          6           0        5.131246   -0.368366   -0.523291
     50          1           0        5.674842   -0.080957   -1.419382
     51          1           0        5.100711    0.458565    0.187161
     52          1           0        5.602290   -1.227584   -0.046346
 ---------------------------------------------------------------------

 SCF Done:  E(RHF) =  -1125.21537607     A.U. after    2 cycles
 E2 =    -0.3117770165D+01 EUMP2 =    -0.11283331462355D+04

 Alpha  occ. eigenvalues --  -68.75908 -20.60909 -20.54682 -11.38690 -11.29902
 Alpha  occ. eigenvalues --  -11.28968 -11.25110 -11.24314 -11.22218 -11.21147
 Alpha  occ. eigenvalues --  -11.21122 -11.21112 -11.20984 -11.20938 -11.20832
 Alpha  occ. eigenvalues --  -11.20695 -11.20083 -11.19907 -11.19518 -11.18941
 Alpha  occ. eigenvalues --   -7.60467  -6.10561  -4.21193  -4.21181  -4.21158
 Alpha  occ. eigenvalues --   -1.46440  -1.36052  -1.15704  -1.10627  -1.04138
 Alpha  occ. eigenvalues --   -1.03724  -1.01319  -0.97495  -0.94672  -0.94508
 Alpha  occ. eigenvalues --   -0.92607  -0.92063  -0.90969  -0.87419  -0.82979
 Alpha  occ. eigenvalues --   -0.79178  -0.78115  -0.76039  -0.71126  -0.70111
 Alpha  occ. eigenvalues --   -0.68389  -0.67683  -0.66291  -0.65843  -0.63542
 Alpha  occ. eigenvalues --   -0.61810  -0.61575  -0.59746  -0.59240  -0.58822
 Alpha  occ. eigenvalues --   -0.57266  -0.56968  -0.56841  -0.56223  -0.55813
 Alpha  occ. eigenvalues --   -0.55111  -0.54949  -0.53953  -0.53846  -0.53373
 Alpha  occ. eigenvalues --   -0.52824  -0.52713  -0.52412  -0.50492  -0.48350
 Alpha  occ. eigenvalues --   -0.47852  -0.46725  -0.45879  -0.45616  -0.44767
 Alpha  occ. eigenvalues --   -0.44198  -0.43872  -0.42638  -0.42361  -0.41318
 Alpha  occ. eigenvalues --   -0.40592  -0.39787  -0.37934  -0.33506
 Alpha virt. eigenvalues --    0.02733   0.03487   0.03726   0.03920   0.04621
 Alpha virt. eigenvalues --    0.04915   0.05138   0.05239   0.05291   0.06270
 Alpha virt. eigenvalues --    0.06465   0.06596   0.07030   0.07216   0.07259

 Mulliken charges:
               1
     1  C    0.542032
     2  C   -0.067068
     3  C   -0.250171
     4  H   -0.470566
     5  C    0.645665
     6  H   -0.245143
     7  H   -0.260685
     8  H   -0.314318
     9  H   -0.185586
    10  C    0.495986
    11  H   -0.248711
    12  H   -0.059571
    13  C    0.803585
    14  H   -0.451514
    15  H   -0.199913
    16  C    0.503550
    17  H   -0.232157
    18  C    0.658063
    19  H    0.045205
    20  H   -0.338027
    21  H   -0.177875
    22  H   -0.236044
    23  C    0.201719
    24  H   -0.512005
    25  Si   0.254098
    26  C    0.986997
    27  H   -0.279779
    28  H   -0.310894
    29  H   -0.451609
    30  C    1.006648
    31  H   -0.643387
    32  H   -0.312924
    33  H   -0.234968
    34  C    1.044568
    35  H   -0.347307
    36  H   -0.562930
    37  H   -0.271958
    38  B    0.024051
    39  C    0.908693
    40  H   -0.614908
    41  C    0.193480
    42  H   -0.522922
    43  C    1.330808
    44  H   -0.179672
    45  H   -0.336473
    46  C    1.163982
    47  O   -0.909043
    48  O   -1.025170
    49  C    0.856252
    50  H   -0.250382
    51  H   -0.059268
    52  H   -0.102433
 Sum of Mulliken charges =  -0.00000

 Dipole moment (field-independent basis, Debye):
    X=             -0.3744    Y=             -0.5860    Z=             -1.4286  Tot=              1.5888
 Unable to Open any file for archive entry.
 1\1\GINC-SE334\SP\RMP2-FC\Aug-CC-pVDZ\C17H31B1O2Si1\OHZDE\21-Sep-2024\
 0\\#t symm=none mp2 aug-cc-pvdz geom=allcheck guess=(read,tcheck) int=
 (grid=ultrafine)\\title\\0,1\C,0,1.673718,1.826226,0.076522\C,0,0.9387
 61,0.854742,1.033278\C,0,-1.379889,1.449921,-0.924901\H,0,2.73094,1.54
 987,0.051134\C,0,-0.038307,1.590318,1.980383\H,0,-0.667972,0.859506,2.
 499493\H,0,0.558677,2.075856,2.760302\H,0,-2.215128,1.463933,-1.630129
 \H,0,1.701608,0.438729,1.687642\C,0,-0.919443,2.665765,1.354004\H,0,-1
 .475798,3.162477,2.155396\H,0,-0.284381,3.442895,0.92067\C,0,-1.921968
 ,2.199002,0.3058\H,0,-2.683026,1.587496,0.795313\H,0,-2.450251,3.08614

 Normal termination of Gaussian 16 at Sat Sep 21 01:42:43 2024.
