 Gaussian 16, Revision C.01,

 ----------------------------------------------------------------------
 #t hf aug-cc-pvdz symm=none int=(grid=ultrafine) guess=(read,tcheck) s
 table=(opt,rrhf)
 ----------------------------------------------------------------------
 -----
 title
 -----
 Symbolic Z-matrix:
 Charge =  0 Multiplicity = 1

 SCF Done:  E(RHF) =  -904.463613671     A.U. after   16 cycles
 Normal termination of Gaussian 16 at Fri Sep 20 13:55:29 2024.
 Gaussian 16:  ES64L-G16RevC.01  3-Jul-2019

 ----------------------------------------------------------------------
 #t symm=none mp2 aug-cc-pvdz geom=allcheck guess=(read,tcheck) int=(gr
 id=ultrafine)
 ----------------------------------------------------------------------
 Structure from the checkpoint file:  "02_94R.chk"
 -----
 title
 -----
 Charge =  0 Multiplicity = 1

                          Input orientation:
 ---------------------------------------------------------------------
 Center     Atomic      Atomic             Coordinates (Angstroms)
 Number     Number       Type             X           Y           Z
 ---------------------------------------------------------------------
      1          6           0       -0.186364   -2.313925    0.550362
      2          1           0        0.219319   -3.039342    1.276711
      3          6           0       -1.135519   -1.374489    1.252034
      4          6           0        0.250298    0.604772    0.750372
      5          1           0        0.428642    1.231100   -0.121498
      6          1           0        0.364916    1.233402    1.637137
      7          6           0        1.336526   -0.490507    0.763081
      8          1           0        1.449037   -0.870772    1.794777
      9          7           0        0.876321   -1.568292   -0.107116
     10          6           0       -2.245297    0.588958    0.208580
     11          6           0       -1.819920   -1.738088    2.328713
     12          6           0       -3.472099   -0.225986    0.012499
     13          6           0       -3.554038   -1.237835   -0.842523
     14          6           0       -1.142597    0.006241    0.703024
     15          6           0       -4.772105   -2.077853   -1.059291
     16          1           0       -5.079988   -2.070534   -2.108936
     17          1           0       -4.577724   -3.121797   -0.793620
     18          1           0       -5.610415   -1.726560   -0.454757
     19          6           0        1.924940   -2.433052   -0.604296
     20          1           0        2.484326   -2.910635    0.221364
     21          1           0        1.458388   -3.234470   -1.182381
     22          6           0        2.675654    0.080638    0.348834
     23          6           0        3.397464   -0.438170   -0.724675
     24          6           0        2.871788   -1.631579   -1.476789
     25          1           0        2.333745   -1.302723   -2.371206
     26          1           0        3.704327   -2.257181   -1.808250
     27          1           0       -0.731834   -2.879849   -0.213158
     28          6           0        4.616200    0.142714   -1.071787
     29          1           0        5.175476   -0.268945   -1.905397
     30          6           0        3.202437    1.155233    1.065629
     31          1           0        2.655795    1.548634    1.915192
     32          6           0        5.123203    1.220848   -0.368133
     33          1           0        6.072701    1.658401   -0.652035
     34          6           0        4.412506    1.726731    0.713698
     35          1           0        4.803600    2.561194    1.283167
     36          6           0       -2.337866    2.041944   -0.302973
     37          6           0       -1.596226    3.051300    0.587473
     38          1           0       -0.514726    2.968896    0.522854
     39          1           0       -1.885383    2.930555    1.634300
     40          1           0       -1.860067    4.067100    0.282523
     41          6           0       -3.804958    2.503139   -0.348482
     42          1           0       -4.409681    1.880426   -1.007899
     43          1           0       -3.848781    3.528499   -0.722055
     44          1           0       -4.260018    2.492199    0.645401
     45          6           0       -1.789047    2.087647   -1.738274
     46          1           0       -2.351504    1.408890   -2.383295
     47          1           0       -0.739066    1.795558   -1.781386
     48          1           0       -1.878367    3.097635   -2.148625
     49          1           0       -1.731940   -2.736899    2.742585
     50          1           0       -2.501173   -1.053338    2.817888
     51          1           0       -2.671207   -1.496058   -1.423580
     52          1           0       -4.362513    0.052580    0.571539
 ---------------------------------------------------------------------

 SCF Done:  E(RHF) =  -904.463613673     A.U. after    3 cycles
 E2 =    -0.3302862919D+01 EUMP2 =    -0.90776647659151D+03

 Alpha  occ. eigenvalues --  -15.55287 -11.26418 -11.25627 -11.25472 -11.23994
 Alpha  occ. eigenvalues --  -11.23964 -11.23843 -11.23751 -11.23491 -11.23405
 Alpha  occ. eigenvalues --  -11.23317 -11.23246 -11.23154 -11.22974 -11.22944
 Alpha  occ. eigenvalues --  -11.22612 -11.22434 -11.22263 -11.22085 -11.21505
 Alpha  occ. eigenvalues --  -11.21168 -11.21130 -11.21064  -1.25577  -1.15944
 Alpha  occ. eigenvalues --   -1.13772  -1.09148  -1.06733  -1.05955  -1.05208
 Alpha  occ. eigenvalues --   -1.00840  -0.99487  -0.96395  -0.93189  -0.92789
 Alpha  occ. eigenvalues --   -0.91802  -0.89674  -0.85970  -0.83577  -0.82070
 Alpha  occ. eigenvalues --   -0.80668  -0.75536  -0.75210  -0.73406  -0.69241
 Alpha  occ. eigenvalues --   -0.67586  -0.66699  -0.65379  -0.64208  -0.63122
 Alpha  occ. eigenvalues --   -0.62496  -0.60737  -0.60321  -0.59743  -0.59482
 Alpha  occ. eigenvalues --   -0.58284  -0.58081  -0.57455  -0.56320  -0.56065
 Alpha  occ. eigenvalues --   -0.55225  -0.54681  -0.53801  -0.53102  -0.52573
 Alpha  occ. eigenvalues --   -0.52111  -0.51844  -0.51507  -0.51218  -0.50432
 Alpha  occ. eigenvalues --   -0.49569  -0.48743  -0.47708  -0.46638  -0.46200
 Alpha  occ. eigenvalues --   -0.45646  -0.44127  -0.42941  -0.37318  -0.35971
 Alpha  occ. eigenvalues --   -0.35462  -0.32739  -0.31927  -0.30019
 Alpha virt. eigenvalues --    0.03191   0.03546   0.03654   0.03969   0.04473
 Alpha virt. eigenvalues --    0.04597   0.05182   0.05263   0.05439   0.05917
 Alpha virt. eigenvalues --    0.06037   0.06658   0.06929   0.07086   0.07439

 Mulliken charges:
               1
     1  C    0.550042
     2  H   -0.203582
     3  C   -0.894869
     4  C   -0.228603
     5  H   -0.206096
     6  H   -0.063413
     7  C    0.026901
     8  H   -0.107242
     9  N   -0.654054
    10  C    0.080284
    11  C    1.475982
    12  C    2.076372
    13  C   -0.420070
    14  C    0.014287
    15  C    0.380296
    16  H    0.038926
    17  H    0.039647
    18  H   -0.192214
    19  C    1.127358
    20  H   -0.183312
    21  H   -0.306756
    22  C    0.921810
    23  C   -0.040504
    24  C    0.519870
    25  H    0.074670
    26  H   -0.070102
    27  H   -0.359552
    28  C    0.892353
    29  H   -0.654082
    30  C    0.578518
    31  H   -0.744187
    32  C    0.141237
    33  H   -0.480179
    34  C   -0.165433
    35  H   -0.542222
    36  C   -2.993017
    37  C    1.336925
    38  H   -0.132808
    39  H   -0.104134
    40  H   -0.089501
    41  C    1.430820
    42  H    0.093712
    43  H   -0.160301
    44  H   -0.027740
    45  C    1.099558
    46  H   -0.079992
    47  H   -0.177602
    48  H   -0.082160
    49  H   -0.617044
    50  H   -0.518315
    51  H   -0.636132
    52  H   -0.764347
 Sum of Mulliken charges =  -0.00000

 Dipole moment (field-independent basis, Debye):
    X=              0.1091    Y=             -0.6346    Z=             -0.1726  Tot=              0.6666
 Unable to Open any file for archive entry.
 1\1\GINC-SE280\SP\RMP2-FC\Aug-CC-pVDZ\C22H29N1\OHZDE\20-Sep-2024\0\\#t
  symm=none mp2 aug-cc-pvdz geom=allcheck guess=(read,tcheck) int=(grid
 =ultrafine)\\title\\0,1\C,0,-0.186364,-2.313925,0.550362\H,0,0.219319,
 -3.039342,1.276711\C,0,-1.135519,-1.374489,1.252034\C,0,0.250298,0.604
 772,0.750372\H,0,0.428642,1.2311,-0.121498\H,0,0.364916,1.233402,1.637
 137\C,0,1.336526,-0.490507,0.763081\H,0,1.449037,-0.870772,1.794777\N,
 0,0.876321,-1.568292,-0.107116\C,0,-2.245297,0.588958,0.20858\C,0,-1.8
 1992,-1.738088,2.328713\C,0,-3.472099,-0.225986,0.012499\C,0,-3.554038
 ,-1.237835,-0.842523\C,0,-1.142597,0.006241,0.703024\C,0,-4.772105,-2.

 Normal termination of Gaussian 16 at Fri Sep 20 18:19:47 2024.
