 Gaussian 16, Revision C.01,

 ----------------------------------------------------------------------
 #t hf aug-cc-pvdz symm=none int=(grid=ultrafine) guess=(read,tcheck) s
 table=(opt,rrhf)
 ----------------------------------------------------------------------
 -----
 title
 -----
 Symbolic Z-matrix:
 Charge =  1 Multiplicity = 1

 SCF Done:  E(RHF) =  -1186.75313611     A.U. after   19 cycles
 Normal termination of Gaussian 16 at Fri Sep 20 23:51:47 2024.
 Gaussian 16:  ES64L-G16RevC.01  3-Jul-2019

 ----------------------------------------------------------------------
 #t symm=none mp2 aug-cc-pvdz geom=allcheck guess=(read,tcheck) int=(gr
 id=ultrafine)
 ----------------------------------------------------------------------
 Structure from the checkpoint file:  "05_32TS.chk"
 -----
 title
 -----
 Charge =  1 Multiplicity = 1

                          Input orientation:
 ---------------------------------------------------------------------
 Center     Atomic      Atomic             Coordinates (Angstroms)
 Number     Number       Type             X           Y           Z
 ---------------------------------------------------------------------
      1          1           0        1.423947   -0.556225    1.030373
      2          6           0       -1.523818   -0.971446    1.730823
      3          6           0       -0.755979   -1.889134   -0.612342
      4          6           0       -1.874811   -1.054754   -1.238521
      5          6           0       -3.071663   -0.821515   -0.319119
      6          6           0       -2.633890   -0.206040    1.008405
      7          1           0       -1.469240   -0.085878   -1.527315
      8          1           0       -2.206548   -1.559497   -2.148381
      9          1           0       -3.569490   -1.774285   -0.127313
     10          1           0       -2.293241    0.809043    0.812400
     11          1           0       -3.491917   -0.139019    1.680768
     12          7           0       -0.453325   -1.306511    0.736509
     13          8           0        0.717495   -1.487327    1.200169
     14          6           0       -0.937820   -0.081062    2.818873
     15          1           0       -1.740546    0.198755    3.501132
     16          1           0       -0.167666   -0.594007    3.393285
     17          1           0       -0.530086    0.831072    2.393029
     18          6           0       -2.037575   -2.258037    2.400632
     19          1           0       -1.205389   -2.873088    2.745089
     20          1           0       -2.633486   -1.978336    3.270284
     21          1           0       -2.668921   -2.858213    1.751586
     22          6           0        0.482111   -1.811332   -1.496411
     23          1           0        0.230797   -2.239302   -2.467010
     24          1           0        0.786469   -0.781849   -1.648650
     25          1           0        1.314934   -2.378414   -1.083100
     26          6           0       -1.136784   -3.372784   -0.463081
     27          1           0       -1.151264   -3.823876   -1.455778
     28          1           0       -0.394735   -3.901837    0.136142
     29          1           0       -2.116252   -3.527450   -0.019591
     30          7           0       -4.077505    0.014528   -0.970726
     31          6           0       -3.869454    1.299408   -1.363514
     32          6           0       -5.031691    1.984170   -2.033249
     33          1           0       -5.922858    1.361531   -2.109265
     34          1           0       -5.272092    2.888027   -1.472984
     35          1           0       -4.723325    2.291443   -3.033057
     36          8           0       -2.803254    1.872150   -1.186943
     37          1           0       -4.979657   -0.391791   -1.154225
     38          6           0        5.114635   -0.936920   -0.482717
     39          6           0        4.057331   -0.527293    0.307676
     40          6           0        2.997278    0.193158   -0.252630
     41          6           0        3.014612    0.490488   -1.617007
     42          6           0        4.084487    0.092708   -2.401140
     43          6           0        5.131540   -0.624697   -1.838213
     44          1           0        5.929267   -1.499700   -0.045148
     45          1           0        4.047034   -0.780076    1.361600
     46          1           0        2.197816    1.049071   -2.054133
     47          1           0        4.102723    0.343762   -3.454134
     48          1           0        5.964313   -0.939815   -2.454418
     49          6           0        1.877528    0.649704    0.599799
     50          6           0        2.196532    1.405894    1.874193
     51          6           0        1.973046    2.905942    1.642275
     52          6           0        0.250645    2.366402   -0.082477
     53          6           0        0.537733    3.134524    1.186247
     54          1           0        2.675767    3.273416    0.888248
     55          1           0        2.179904    3.447849    2.565532
     56          1           0        0.754125    2.831185   -0.934655
     57          1           0       -0.806720    2.268866   -0.316208
     58          8           0        0.762427    0.991632   -0.063721
     59          1           0        0.355192    4.190848    0.976337
     60          1           0       -0.158208    2.850941    1.979405
     61          1           0        1.552816    1.074112    2.689752
     62          1           0        3.225051    1.200662    2.162885
 ---------------------------------------------------------------------

 SCF Done:  E(RHF) =  -1186.75313611     A.U. after    3 cycles
 E2 =    -0.4186878881D+01 EUMP2 =    -0.11909400149927D+04

 Alpha  occ. eigenvalues --  -20.80250 -20.73259 -20.62315 -15.79724 -15.69301
 Alpha  occ. eigenvalues --  -11.47951 -11.45609 -11.40546 -11.40359 -11.39921
 Alpha  occ. eigenvalues --  -11.38572 -11.36940 -11.36457 -11.36065 -11.35955
 Alpha  occ. eigenvalues --  -11.35396 -11.35107 -11.34815 -11.34743 -11.34488
 Alpha  occ. eigenvalues --  -11.33561 -11.33542 -11.33272 -11.33244 -11.33005
 Alpha  occ. eigenvalues --  -11.32793 -11.32245  -1.63450  -1.55300  -1.48531
 Alpha  occ. eigenvalues --   -1.34263  -1.29810  -1.28107  -1.22142  -1.21542
 Alpha  occ. eigenvalues --   -1.19450  -1.16055  -1.13552  -1.12516  -1.11101
 Alpha  occ. eigenvalues --   -1.08329  -1.06034  -1.04598  -1.04493  -1.01773
 Alpha  occ. eigenvalues --   -1.01113  -0.96589  -0.94570  -0.93769  -0.93560
 Alpha  occ. eigenvalues --   -0.90266  -0.87196  -0.86925  -0.84393  -0.82932
 Alpha  occ. eigenvalues --   -0.80831  -0.80254  -0.79214  -0.78660  -0.77727
 Alpha  occ. eigenvalues --   -0.76300  -0.75177  -0.74585  -0.73288  -0.72924
 Alpha  occ. eigenvalues --   -0.72355  -0.72209  -0.71297  -0.70678  -0.70333
 Alpha  occ. eigenvalues --   -0.69610  -0.69252  -0.68651  -0.68244  -0.67778
 Alpha  occ. eigenvalues --   -0.67736  -0.67129  -0.66210  -0.65300  -0.64312
 Alpha  occ. eigenvalues --   -0.63903  -0.63786  -0.63187  -0.62987  -0.62110
 Alpha  occ. eigenvalues --   -0.61658  -0.61509  -0.60631  -0.60571  -0.60410
 Alpha  occ. eigenvalues --   -0.59399  -0.58933  -0.58003  -0.57910  -0.56960
 Alpha  occ. eigenvalues --   -0.56714  -0.55884  -0.51472  -0.49147  -0.48860
 Alpha  occ. eigenvalues --   -0.45059  -0.42175
 Alpha virt. eigenvalues --   -0.12827  -0.04843  -0.04394  -0.04019  -0.03814
 Alpha virt. eigenvalues --   -0.03010  -0.02847  -0.02773  -0.02465  -0.02395
 Alpha virt. eigenvalues --   -0.01425  -0.01272  -0.01226  -0.00895  -0.00698

 Mulliken charges:
               1
     1  H    0.841328
     2  C   -3.787077
     3  C   -3.326086
     4  C    1.912196
     5  C   -0.540345
     6  C    1.941107
     7  H   -0.065828
     8  H   -0.135894
     9  H   -0.382024
    10  H   -0.083617
    11  H   -0.148960
    12  N    0.349549
    13  O   -1.305462
    14  C    1.678619
    15  H   -0.094818
    16  H    0.044439
    17  H   -0.501530
    18  C    1.668429
    19  H    0.032165
    20  H   -0.010239
    21  H    0.015849
    22  C    1.351321
    23  H   -0.120021
    24  H   -0.266629
    25  H    0.042770
    26  C    1.587465
    27  H   -0.017097
    28  H    0.041972
    29  H   -0.063042
    30  N   -0.101302
    31  C    0.249814
    32  C    0.720453
    33  H   -0.169831
    34  H    0.035942
    35  H    0.030479
    36  O   -0.864199
    37  H   -0.129676
    38  C   -0.134453
    39  C    0.599975
    40  C    1.237198
    41  C    1.173294
    42  C   -0.161736
    43  C    1.022542
    44  H   -0.499578
    45  H   -0.768635
    46  H   -0.796978
    47  H   -0.543820
    48  H   -0.450962
    49  C    0.258016
    50  C    0.442663
    51  C    0.524016
    52  C    1.404050
    53  C    0.209396
    54  H   -0.085916
    55  H   -0.165778
    56  H   -0.289380
    57  H   -0.535362
    58  O   -1.155246
    59  H   -0.156491
    60  H   -0.163141
    61  H   -0.183846
    62  H   -0.210049
 Sum of Mulliken charges =   1.00000

 Dipole moment (field-independent basis, Debye):
    X=             -0.5686    Y=             -0.5883    Z=              0.8849  Tot=              1.2051
 Unable to Open any file for archive entry.
 1\1\GINC-SE244\SP\RMP2-FC\Aug-CC-pVDZ\C22H35N2O3\OHZDE\21-Sep-2024\0\\
 #t symm=none mp2 aug-cc-pvdz geom=allcheck guess=(read,tcheck) int=(gr
 id=ultrafine)\\title\\1,1\H,0,1.423947,-0.556225,1.030373\C,0,-1.52381
 8,-0.971446,1.730823\C,0,-0.755979,-1.889134,-0.612342\C,0,-1.874811,-
 1.054754,-1.238521\C,0,-3.071663,-0.821515,-0.319119\C,0,-2.63389,-0.2
 0604,1.008405\H,0,-1.46924,-0.085878,-1.527315\H,0,-2.206548,-1.559497
 ,-2.148381\H,0,-3.56949,-1.774285,-0.127313\H,0,-2.293241,0.809043,0.8
 124\H,0,-3.491917,-0.139019,1.680768\N,0,-0.453325,-1.306511,0.736509\
 O,0,0.717495,-1.487327,1.200169\C,0,-0.93782,-0.081062,2.818873\H,0,-1

 Normal termination of Gaussian 16 at Sat Sep 21 03:44:19 2024.
