 Gaussian 16, Revision C.01,

 ----------------------------------------------------------------------
 #t hf aug-cc-pvdz symm=none int=(grid=ultrafine) guess=(read,tcheck) s
 table=(opt,rrhf)
 ----------------------------------------------------------------------
 -----
 title
 -----
 Symbolic Z-matrix:
 Charge =  0 Multiplicity = 1

 SCF Done:  E(RHF) =  -1375.35010810     A.U. after   18 cycles
 Normal termination of Gaussian 16 at Fri Sep 20 13:25:25 2024.
 Gaussian 16:  ES64L-G16RevC.01  3-Jul-2019

 ----------------------------------------------------------------------
 #t symm=none mp2 aug-cc-pvdz geom=allcheck guess=(read,tcheck) int=(gr
 id=ultrafine)
 ----------------------------------------------------------------------
 Structure from the checkpoint file:  "02_87TS.chk"
 -----
 title
 -----
 Charge =  0 Multiplicity = 1

                          Input orientation:
 ---------------------------------------------------------------------
 Center     Atomic      Atomic             Coordinates (Angstroms)
 Number     Number       Type             X           Y           Z
 ---------------------------------------------------------------------
      1          6           0       -0.586434   -2.193783    1.322254
      2          1           0       -0.713328   -3.207169    1.703485
      3          1           0       -0.819618   -1.509122    2.148833
      4          6           0       -1.585645   -1.923786    0.190440
      5          6           0        0.136173   -0.499745   -0.893441
      6          1           0        0.491848   -1.162863   -1.688549
      7          1           0        0.271926    0.509542   -1.266942
      8          6           0        1.018939   -0.706077    0.354507
      9          1           0        0.729328    0.043276    1.095739
     10          7           0        0.803960   -2.011217    0.971077
     11          6           0       -2.342004    0.117391   -0.905984
     12          6           0       -2.779563   -2.634226    0.168165
     13          1           0       -3.092776   -3.057436   -0.767832
     14          1           0       -3.012042   -3.266574    1.023764
     15          6           0       -3.670704   -0.017467   -0.494095
     16          1           0       -4.138479    0.879755   -0.094218
     17          6           0       -4.367452   -1.216191   -0.407085
     18          6           0       -1.318742   -0.814544   -0.629934
     19          6           0       -5.634142   -1.310435    0.399129
     20          1           0       -5.822995   -2.337623    0.715852
     21          1           0       -5.586275   -0.686130    1.292481
     22          1           0       -6.497041   -0.992689   -0.195395
     23          1           0       -4.360809   -1.827493   -1.293554
     24          6           0        2.472389   -0.490650    0.012170
     25          6           0        1.378998   -3.096623    0.191673
     26          1           0        1.009381   -3.113831   -0.846239
     27          1           0        1.080377   -4.042128    0.648432
     28          6           0        2.894121   -2.968847    0.206224
     29          1           0        3.337319   -3.670623   -0.505526
     30          6           0        3.352386   -1.564798   -0.101840
     31          1           0        3.258786   -3.245488    1.200415
     32          6           0        4.674966   -1.318725   -0.467169
     33          1           0        5.360610   -2.154793   -0.559234
     34          6           0        2.928702    0.803906   -0.226625
     35          1           0        2.240580    1.635628   -0.122796
     36          6           0        5.123690   -0.031591   -0.709720
     37          1           0        6.155482    0.139006   -0.992985
     38          6           0        4.245128    1.038235   -0.584218
     39          1           0        4.586992    2.050661   -0.762998
     40         16           0       -1.952214    1.763244   -1.509188
     41          6           0       -0.935175    2.473189   -0.226712
     42          6           0       -1.058587    2.114057    1.111496
     43          6           0       -0.261686    2.723362    2.069611
     44          6           0        0.649142    3.706866    1.707200
     45          6           0        0.759506    4.076851    0.373842
     46          6           0       -0.021949    3.458919   -0.592009
     47          1           0       -1.770576    1.351279    1.400490
     48          1           0       -0.356904    2.428626    3.108009
     49          1           0        1.270026    4.179110    2.458154
     50          1           0        1.469049    4.840502    0.078266
     51          1           0        0.084509    3.731455   -1.635441
 ---------------------------------------------------------------------

 SCF Done:  E(RHF) =  -1375.35010810     A.U. after    3 cycles
 E2 =    -0.3690781568D+01 EUMP2 =    -0.13790408896672D+04

 Alpha  occ. eigenvalues --  -91.95759 -15.55136 -11.27365 -11.27060 -11.26084
 Alpha  occ. eigenvalues --  -11.26004 -11.25807 -11.25203 -11.24839 -11.24693
 Alpha  occ. eigenvalues --  -11.24677 -11.24465 -11.24464 -11.24349 -11.24202
 Alpha  occ. eigenvalues --  -11.23977 -11.23427 -11.23427 -11.23381 -11.23075
 Alpha  occ. eigenvalues --  -11.22948 -11.22774 -11.22718 -11.22695 -11.22541
 Alpha  occ. eigenvalues --  -11.22157  -8.95904  -6.64117  -6.63949  -6.63781
 Alpha  occ. eigenvalues --   -1.25323  -1.17170  -1.15456  -1.14294  -1.07920
 Alpha  occ. eigenvalues --   -1.06919  -1.05359  -1.04970  -1.02649  -1.01911
 Alpha  occ. eigenvalues --   -0.99637  -0.97854  -0.93891  -0.92813  -0.88911
 Alpha  occ. eigenvalues --   -0.86165  -0.83919  -0.83403  -0.82638  -0.81004
 Alpha  occ. eigenvalues --   -0.78989  -0.78259  -0.73350  -0.70497  -0.69198
 Alpha  occ. eigenvalues --   -0.67693  -0.66141  -0.65797  -0.64270  -0.63490
 Alpha  occ. eigenvalues --   -0.63413  -0.62178  -0.61948  -0.60021  -0.59580
 Alpha  occ. eigenvalues --   -0.59503  -0.59131  -0.58162  -0.57902  -0.57084
 Alpha  occ. eigenvalues --   -0.56471  -0.55802  -0.55272  -0.54137  -0.53640
 Alpha  occ. eigenvalues --   -0.52406  -0.51807  -0.51424  -0.50544  -0.50273
 Alpha  occ. eigenvalues --   -0.49750  -0.49477  -0.48258  -0.47262  -0.45960
 Alpha  occ. eigenvalues --   -0.45285  -0.44889  -0.43207  -0.39327  -0.36048
 Alpha  occ. eigenvalues --   -0.34569  -0.32358  -0.31774  -0.31556  -0.29758
 Alpha  occ. eigenvalues --   -0.28378
 Alpha virt. eigenvalues --    0.02940   0.03361   0.03622   0.03921   0.04326
 Alpha virt. eigenvalues --    0.04703   0.04918   0.05199   0.05530   0.05817
 Alpha virt. eigenvalues --    0.06137   0.06358   0.06786   0.06953   0.07488

 Mulliken charges:
               1
     1  C    0.689190
     2  H   -0.254024
     3  H   -0.200937
     4  C   -0.565869
     5  C    0.253223
     6  H   -0.098956
     7  H   -0.343457
     8  C    0.608280
     9  H   -0.370040
    10  N   -0.804589
    11  C   -0.690504
    12  C    1.184558
    13  H   -0.129042
    14  H   -0.545964
    15  C    0.959453
    16  H   -0.588830
    17  C   -0.288474
    18  C    0.210254
    19  C    0.633460
    20  H   -0.067946
    21  H   -0.096133
    22  H    0.056718
    23  H   -0.214986
    24  C    1.182831
    25  C    0.995256
    26  H   -0.080321
    27  H   -0.356405
    28  C    0.392921
    29  H   -0.005488
    30  C   -0.679007
    31  H    0.113777
    32  C    0.800075
    33  H   -0.678975
    34  C    0.116202
    35  H   -0.532451
    36  C   -0.048579
    37  H   -0.482624
    38  C    0.546863
    39  H   -0.564296
    40  S    0.206165
    41  C   -0.393075
    42  C    0.681752
    43  C    0.352507
    44  C    0.710154
    45  C    0.544046
    46  C    0.813148
    47  H   -0.627318
    48  H   -0.620890
    49  H   -0.545890
    50  H   -0.557308
    51  H   -0.618452
 Sum of Mulliken charges =  -0.00000

 Dipole moment (field-independent basis, Debye):
    X=             -0.9831    Y=             -1.7053    Z=              1.2582  Tot=              2.3361
 Unable to Open any file for archive entry.
 1\1\GINC-SE255\SP\RMP2-FC\Aug-CC-pVDZ\C24H25N1S1\OHZDE\20-Sep-2024\0\\
 #t symm=none mp2 aug-cc-pvdz geom=allcheck guess=(read,tcheck) int=(gr
 id=ultrafine)\\title\\0,1\C,0,-0.586434,-2.193783,1.322254\H,0,-0.7133
 28,-3.207169,1.703485\H,0,-0.819618,-1.509122,2.148833\C,0,-1.585645,-
 1.923786,0.19044\C,0,0.136173,-0.499745,-0.893441\H,0,0.491848,-1.1628
 63,-1.688549\H,0,0.271926,0.509542,-1.266942\C,0,1.018939,-0.706077,0.
 354507\H,0,0.729328,0.043276,1.095739\N,0,0.80396,-2.011217,0.971077\C
 ,0,-2.342004,0.117391,-0.905984\C,0,-2.779563,-2.634226,0.168165\H,0,-
 3.092776,-3.057436,-0.767832\H,0,-3.012042,-3.266574,1.023764\C,0,-3.6

 Normal termination of Gaussian 16 at Fri Sep 20 18:44:46 2024.
