 Gaussian 16, Revision C.01,

 ----------------------------------------------------------------------
 #t hf aug-cc-pvdz symm=none int=(grid=ultrafine) guess=(read,tcheck) s
 table=(opt,rrhf)
 ----------------------------------------------------------------------
 -----
 title
 -----
 Symbolic Z-matrix:
 Charge =  1 Multiplicity = 1

 SCF Done:  E(RHF) =  -882.919891392     A.U. after   17 cycles
 Normal termination of Gaussian 16 at Fri Sep 20 12:34:32 2024.
 Gaussian 16:  ES64L-G16RevC.01  3-Jul-2019

 ----------------------------------------------------------------------
 #t symm=none mp2 aug-cc-pvdz geom=allcheck guess=(read,tcheck) int=(gr
 id=ultrafine)
 ----------------------------------------------------------------------
 Structure from the checkpoint file:  "02_79TS.chk"
 -----
 title
 -----
 Charge =  1 Multiplicity = 1

                          Input orientation:
 ---------------------------------------------------------------------
 Center     Atomic      Atomic             Coordinates (Angstroms)
 Number     Number       Type             X           Y           Z
 ---------------------------------------------------------------------
      1          6           0       -2.728638    2.755464   -0.070629
      2          6           0       -1.797764    1.742919    0.620243
      3          6           0       -0.375626    3.265593   -0.130697
      4          6           0       -1.729186    3.821410   -0.605798
      5          1           0       -3.320395    2.285187   -0.854208
      6          1           0       -3.417071    3.178030    0.661483
      7          1           0       -1.764025    3.932222   -1.690476
      8          1           0       -1.909886    4.805276   -0.172569
      9          6           0       -0.725224    2.650117    1.225644
     10          1           0        0.099191    2.115442    1.691147
     11          1           0       -1.141418    3.376965    1.920534
     12          1           0       -2.280229    1.006323    1.248902
     13          1           0        0.472628    3.943161   -0.177970
     14          7           0       -0.072661    2.027193   -0.891701
     15          7           0       -1.026617    1.106294   -0.471825
     16          6           0       -0.816933   -0.177488   -0.778578
     17          6           0       -1.670171   -1.249125   -0.231569
     18          6           0       -1.792118   -1.477874    1.139949
     19          6           0       -2.335085   -2.087207   -1.125162
     20          6           0       -2.588865   -2.509449    1.606136
     21          1           0       -1.239919   -0.870506    1.846545
     22          6           0       -3.140585   -3.113609   -0.655863
     23          1           0       -2.226815   -1.931781   -2.192358
     24          6           0       -3.269874   -3.323896    0.709166
     25          1           0       -2.672534   -2.686543    2.670907
     26          1           0       -3.661132   -3.753197   -1.357125
     27          1           0       -3.891866   -4.130459    1.076460
     28          1           0       -0.478239   -0.333836   -1.797509
     29          1           0       -0.091670    2.151905   -1.900930
     30          6           0        1.157304   -0.590886   -0.138937
     31          1           0        0.989682   -0.748844    0.925023
     32          6           0        1.833955    0.558947   -0.472522
     33          1           0        2.153887    0.672237   -1.506347
     34          6           0        1.435905   -1.849644   -0.925026
     35          1           0        0.606113   -2.557167   -0.856762
     36          1           0        1.567975   -1.599154   -1.983530
     37          6           0        2.575981    1.372125    0.523275
     38          1           0        2.113285    1.281061    1.509251
     39          1           0        2.617618    2.430381    0.257213
     40          6           0        4.019846    0.817743    0.603507
     41          1           0        4.549875    1.068181   -0.320481
     42          1           0        4.529074    1.361718    1.402691
     43          6           0        4.134800   -0.691740    0.860726
     44          1           0        5.127626   -0.863039    1.280623
     45          1           0        3.436130   -0.982030    1.652403
     46          6           0        2.716117   -2.521472   -0.402062
     47          1           0        2.916295   -3.390084   -1.034758
     48          1           0        2.526913   -2.918337    0.600631
     49          6           0        3.966663   -1.630373   -0.363774
     50          1           0        4.830764   -2.296800   -0.391266
     51          1           0        4.030069   -1.050044   -1.291025
 ---------------------------------------------------------------------

 SCF Done:  E(RHF) =  -882.919891391     A.U. after    2 cycles
 E2 =    -0.3223786355D+01 EUMP2 =    -0.88614367774617D+03

 Alpha  occ. eigenvalues --  -15.77320 -15.75560 -11.46884 -11.41135 -11.40462
 Alpha  occ. eigenvalues --  -11.40293 -11.37774 -11.36678 -11.36600 -11.36195
 Alpha  occ. eigenvalues --  -11.35728 -11.35498 -11.35337 -11.35306 -11.35251
 Alpha  occ. eigenvalues --  -11.35136 -11.34755 -11.34149 -11.33519 -11.32233
 Alpha  occ. eigenvalues --  -11.32084 -11.31850  -1.51401  -1.31075  -1.27258
 Alpha  occ. eigenvalues --   -1.24880  -1.24018  -1.17141  -1.16251  -1.15286
 Alpha  occ. eigenvalues --   -1.14144  -1.11026  -1.08532  -1.03722  -1.02654
 Alpha  occ. eigenvalues --   -1.00150  -0.96440  -0.95331  -0.92150  -0.90253
 Alpha  occ. eigenvalues --   -0.89951  -0.88923  -0.88222  -0.86112  -0.82825
 Alpha  occ. eigenvalues --   -0.81221  -0.79441  -0.78120  -0.75687  -0.75272
 Alpha  occ. eigenvalues --   -0.74851  -0.73758  -0.73614  -0.71992  -0.70950
 Alpha  occ. eigenvalues --   -0.69915  -0.69108  -0.68593  -0.67167  -0.66893
 Alpha  occ. eigenvalues --   -0.65934  -0.65418  -0.64518  -0.63725  -0.63323
 Alpha  occ. eigenvalues --   -0.62912  -0.62185  -0.62078  -0.61420  -0.61096
 Alpha  occ. eigenvalues --   -0.60033  -0.59557  -0.58576  -0.57754  -0.55995
 Alpha  occ. eigenvalues --   -0.55044  -0.54100  -0.51104  -0.45766  -0.45322
 Alpha  occ. eigenvalues --   -0.44077
 Alpha virt. eigenvalues --   -0.06954  -0.05874  -0.05114  -0.04600  -0.03935
 Alpha virt. eigenvalues --   -0.03317  -0.03197  -0.03146  -0.02739  -0.02622
 Alpha virt. eigenvalues --   -0.01489  -0.01296  -0.01211  -0.01062  -0.01013

 Mulliken charges:
               1
     1  C    0.400231
     2  C    0.787406
     3  C    0.442652
     4  C    0.673137
     5  H   -0.238459
     6  H   -0.166926
     7  H   -0.192548
     8  H   -0.136123
     9  C    0.990389
    10  H   -0.371151
    11  H   -0.259069
    12  H   -0.440494
    13  H   -0.484829
    14  N   -0.599252
    15  N    0.072160
    16  C    1.153346
    17  C    1.297768
    18  C    0.979759
    19  C    0.203083
    20  C    0.032811
    21  H   -0.806684
    22  C    0.211862
    23  H   -0.719501
    24  C    0.914240
    25  H   -0.577669
    26  H   -0.480147
    27  H   -0.458782
    28  H   -0.823211
    29  H   -0.028277
    30  C    0.052733
    31  H   -1.081864
    32  C    1.040697
    33  H   -0.755530
    34  C    0.271783
    35  H   -0.247497
    36  H   -0.215312
    37  C    0.382656
    38  H   -0.279819
    39  H   -0.280577
    40  C    0.348989
    41  H   -0.128992
    42  H   -0.115749
    43  C    0.692592
    44  H   -0.206393
    45  H   -0.215267
    46  C    0.329216
    47  H   -0.103711
    48  H   -0.104935
    49  C    0.694078
    50  H   -0.224753
    51  H   -0.228066
 Sum of Mulliken charges =   1.00000

 Dipole moment (field-independent basis, Debye):
    X=             -1.5241    Y=              2.7827    Z=             -0.9147  Tot=              3.3019
 Unable to Open any file for archive entry.
 1\1\GINC-SE238\SP\RMP2-FC\Aug-CC-pVDZ\C20H29N2\OHZDE\20-Sep-2024\0\\#t
  symm=none mp2 aug-cc-pvdz geom=allcheck guess=(read,tcheck) int=(grid
 =ultrafine)\\title\\1,1\C,0,-2.728638,2.755464,-0.070629\C,0,-1.797764
 ,1.742919,0.620243\C,0,-0.375626,3.265593,-0.130697\C,0,-1.729186,3.82
 141,-0.605798\H,0,-3.320395,2.285187,-0.854208\H,0,-3.417071,3.17803,0
 .661483\H,0,-1.764025,3.932222,-1.690476\H,0,-1.909886,4.805276,-0.172
 569\C,0,-0.725224,2.650117,1.225644\H,0,0.099191,2.115442,1.691147\H,0
 ,-1.141418,3.376965,1.920534\H,0,-2.280229,1.006323,1.248902\H,0,0.472
 628,3.943161,-0.17797\N,0,-0.072661,2.027193,-0.891701\N,0,-1.026617,1

 Normal termination of Gaussian 16 at Fri Sep 20 15:32:36 2024.
