                         Program Version 4.2.1 -  RELEASE  -
|  1> %pal
|  2>  nprocs 32
|  3> end
|  4> !RI-MP2 aug-cc-pVQZ aug-cc-pVQZ/C TightSCF
|  5> %maxcore 4500
|  6> *xyzfile 0 2  01_7P.xyz
|  7>
|  8>
|  9>                          ****END OF INPUT****

CARTESIAN COORDINATES (ANGSTROEM)
---------------------------------
  C     -0.006804    1.198890    0.132139
  C     -1.476971    0.766543   -0.015593
  C     -1.460475   -0.783436   -0.051090
  C     -0.001144   -1.186244    0.197931
  C      0.818638   -0.003272   -0.362991
  C      2.240990    0.013929    0.049972
  H     -1.904989    1.164910   -0.937597
  H     -2.087667    1.150163    0.803287
  H     -1.783055   -1.141680   -1.031438
  H     -2.136512   -1.224353    0.683193
  H      0.268443   -2.139259   -0.260126
  H      0.197806   -1.270671    1.271245
  H      2.497834    0.186886    1.089433
  H      3.043432   -0.213080   -0.638942
  H      0.235827    1.374859    1.185101
  H      0.227542    2.116553   -0.409566
  H      0.755935   -0.042792   -1.456792

 Total Charge           Charge          ....    0
 Multiplicity           Mult            ....    2
 Number of Electrons    NEL             ....   47
 Basis Dimension        Dim             ....  986

ORBITAL ENERGIES
----------------
                 SPIN UP ORBITALS
  NO   OCC          E(Eh)            E(eV)
   0   1.0000     -11.222991      -305.3931
   1   1.0000     -11.219596      -305.3007
   2   1.0000     -11.212918      -305.1190
   3   1.0000     -11.212257      -305.1010
   4   1.0000     -11.211747      -305.0872
   5   1.0000     -11.211232      -305.0731
   6   1.0000      -1.126434       -30.6518
   7   1.0000      -1.009138       -27.4600
   8   1.0000      -0.959996       -26.1228
   9   1.0000      -0.886531       -24.1237
  10   1.0000      -0.772617       -21.0240
  11   1.0000      -0.760825       -20.7031
  12   1.0000      -0.655195       -17.8287
  13   1.0000      -0.629907       -17.1407
  14   1.0000      -0.601457       -16.3665
  15   1.0000      -0.570776       -15.5316
  16   1.0000      -0.538789       -14.6612
  17   1.0000      -0.495476       -13.4826
  18   1.0000      -0.484158       -13.1746
  19   1.0000      -0.476354       -12.9622
  20   1.0000      -0.468286       -12.7427
  21   1.0000      -0.454448       -12.3661
  22   1.0000      -0.450106       -12.2480
  23   1.0000      -0.337937        -9.1957
  24   0.0000       0.027586         0.7507
  25   0.0000       0.032009         0.8710
  26   0.0000       0.033457         0.9104
  27   0.0000       0.034294         0.9332
  28   0.0000       0.047806         1.3009

                 SPIN DOWN ORBITALS
  NO   OCC          E(Eh)            E(eV)
   0   1.0000     -11.222900      -305.3906
   1   1.0000     -11.211875      -305.0906
   2   1.0000     -11.211362      -305.0767
   3   1.0000     -11.210494      -305.0530
   4   1.0000     -11.210365      -305.0495
   5   1.0000     -11.199600      -304.7566
   6   1.0000      -1.120074       -30.4788
   7   1.0000      -0.983559       -26.7640
   8   1.0000      -0.955959       -26.0130
   9   1.0000      -0.840570       -22.8731
  10   1.0000      -0.768505       -20.9121
  11   1.0000      -0.749682       -20.3999
  12   1.0000      -0.653028       -17.7698
  13   1.0000      -0.625740       -17.0273
  14   1.0000      -0.594682       -16.1821
  15   1.0000      -0.568344       -15.4654
  16   1.0000      -0.531338       -14.4584
  17   1.0000      -0.475796       -12.9471
  18   1.0000      -0.474403       -12.9092
  19   1.0000      -0.466943       -12.7062
  20   1.0000      -0.463285       -12.6066
  21   1.0000      -0.452074       -12.3015
  22   1.0000      -0.449090       -12.2204
  23   0.0000       0.027878         0.7586
  24   0.0000       0.032076         0.8728
  25   0.0000       0.033425         0.9096
  26   0.0000       0.033798         0.9197
  27   0.0000       0.047883         1.3030

MULLIKEN ATOMIC CHARGES AND SPIN POPULATIONS
--------------------------------------------
   0 C :   -0.575472    0.049375
   1 C :   -0.487163   -0.000963
   2 C :   -0.541813    0.003373
   3 C :   -0.576141    0.073034
   4 C :    0.145456   -0.256229
   5 C :   -0.851240    1.290646
   6 H :    0.197400    0.000019
   7 H :    0.277541    0.001519
   8 H :    0.182724   -0.000213
   9 H :    0.319859    0.002416
  10 H :    0.348424   -0.011501
  11 H :    0.191018   -0.000237
  12 H :    0.299067   -0.071074
  13 H :    0.334230   -0.080007
  14 H :    0.187148    0.000013
  15 H :    0.320926   -0.006693
  16 H :    0.228037    0.006521
Sum of atomic charges         :    0.0000000

LOEWDIN ATOMIC CHARGES AND SPIN POPULATIONS
-------------------------------------------
   0 C :    0.512974    0.023393
   1 C :    0.553350    0.003768
   2 C :    0.546686    0.006369
   3 C :    0.513140    0.031449
   4 C :    0.054183    0.133319
   5 C :    0.868338    0.459271
   6 H :   -0.268253    0.000427
   7 H :   -0.264642    0.000963
   8 H :   -0.268883    0.000763
   9 H :   -0.262165    0.001693
  10 H :   -0.251395    0.007707
  11 H :   -0.268591    0.009296
  12 H :   -0.327334    0.149521
  13 H :   -0.326800    0.154285
  14 H :   -0.274484    0.004684
  15 H :   -0.251981    0.006404
  16 H :   -0.284143    0.006687

  Mayer bond orders larger than 0.100000
B(  0-C ,  1-C ) :   0.9985 B(  0-C ,  4-C ) :   0.7560 B(  0-C , 14-H ) :   0.9957
B(  0-C , 15-H ) :   0.8716 B(  1-C ,  2-C ) :   0.9648 B(  1-C ,  6-H ) :   0.9821
B(  1-C ,  7-H ) :   0.9108 B(  2-C ,  3-C ) :   1.0009 B(  2-C ,  8-H ) :   0.9934
B(  2-C ,  9-H ) :   0.8787 B(  3-C ,  4-C ) :   0.7772 B(  3-C , 10-H ) :   0.8392
B(  3-C , 11-H ) :   0.9914 B(  4-C ,  5-C ) :   0.6955 B(  4-C , 13-H ) :  -0.1093
B(  4-C , 16-H ) :   0.9525 B(  5-C , 12-H ) :   0.9379 B(  5-C , 13-H ) :   0.9777

MP2 TOTAL ENERGY:     -234.734194323 Eh
FINAL SINGLE POINT ENERGY      -234.734194322954

DIPOLE MOMENT
-------------
                                X             Y             Z
Electronic contribution:      0.63949       0.01413      -0.34854
Nuclear contribution   :     -0.72757      -0.04083       0.31612
                        -----------------------------------------
Total Dipole Moment    :     -0.08808      -0.02670      -0.03243
                        -----------------------------------------
Magnitude (a.u.)       :      0.09758
Magnitude (Debye)      :      0.24803

Rotational constants in cm-1:     0.212580     0.102231     0.076858
Rotational constants in MHz :  6372.996784  3064.809894  2304.141869

                             ****ORCA TERMINATED NORMALLY****
TOTAL RUN TIME: 0 days 0 hours 33 minutes 43 seconds 943 msec
