                         Program Version 4.2.1 -  RELEASE  -
|  1> %pal
|  2>  nprocs 32
|  3> end
|  4> !RI-MP2 aug-cc-pVQZ aug-cc-pVQZ/C TightSCF
|  5> %maxcore 4500
|  6> *xyzfile -1 1  09_21R2.xyz
|  7>
|  8>
|  9>                          ****END OF INPUT****

CARTESIAN COORDINATES (ANGSTROEM)
---------------------------------
  C      1.799057   -1.269950   -0.000009
  N      2.724320   -0.298056   -0.000013
  C      2.235834    0.945000   -0.000010
  C      0.892149    1.262946   -0.000004
  C     -0.084233    0.245036    0.000001
  C      0.437018   -1.068633   -0.000003
  C     -1.479242    0.552141    0.000007
  N     -2.385330   -0.406119    0.000010
  O     -3.608347   -0.064911    0.000019
  H      2.974890    1.744091   -0.000013
  H      0.585842    2.303617   -0.000002
  H     -0.248308   -1.905481   -0.000001
  H      2.187718   -2.286193   -0.000012
  H     -1.809791    1.593232    0.000008

 Total Charge           Charge          ....   -1
 Multiplicity           Mult            ....    1
 Number of Electrons    NEL             ....   64
 Basis Dimension        Dim             ....  950

ORBITAL ENERGIES
----------------

  NO   OCC          E(Eh)            E(eV)
   0   2.0000     -20.341270      -553.5141
   1   2.0000     -15.465247      -420.8308
   2   2.0000     -15.413484      -419.4222
   3   2.0000     -11.138808      -303.1024
   4   2.0000     -11.135062      -303.0004
   5   2.0000     -11.122045      -302.6462
   6   2.0000     -11.089458      -301.7595
   7   2.0000     -11.084168      -301.6156
   8   2.0000     -11.057483      -300.8894
   9   2.0000      -1.224746       -33.3270
  10   2.0000      -1.115934       -30.3661
  11   2.0000      -0.971574       -26.4379
  12   2.0000      -0.893074       -24.3018
  13   2.0000      -0.880649       -23.9637
  14   2.0000      -0.730718       -19.8839
  15   2.0000      -0.709355       -19.3025
  16   2.0000      -0.619696       -16.8628
  17   2.0000      -0.550421       -14.9777
  18   2.0000      -0.520655       -14.1677
  19   2.0000      -0.505470       -13.7545
  20   2.0000      -0.458593       -12.4789
  21   2.0000      -0.451542       -12.2871
  22   2.0000      -0.444526       -12.0962
  23   2.0000      -0.411750       -11.2043
  24   2.0000      -0.374852       -10.2002
  25   2.0000      -0.366779        -9.9806
  26   2.0000      -0.340896        -9.2762
  27   2.0000      -0.283623        -7.7178
  28   2.0000      -0.262143        -7.1333
  29   2.0000      -0.216172        -5.8823
  30   2.0000      -0.181435        -4.9371
  31   2.0000      -0.115902        -3.1539
  32   0.0000       0.100867         2.7447
  33   0.0000       0.104669         2.8482
  34   0.0000       0.114829         3.1247
  35   0.0000       0.126363         3.4385
  36   0.0000       0.131631         3.5819

MULLIKEN ATOMIC CHARGES
-----------------------
   0 C :   -0.148682
   1 N :   -0.756936
   2 C :   -0.217672
   3 C :   -0.378312
   4 C :    0.284347
   5 C :   -0.313639
   6 C :   -0.267768
   7 N :   -0.106440
   8 O :   -0.785284
   9 H :    0.440231
  10 H :    0.223193
  11 H :    0.254134
  12 H :    0.463981
  13 H :    0.308848
Sum of atomic charges:   -1.0000000

LOEWDIN ATOMIC CHARGES
----------------------
   0 C :    0.023490
   1 N :    0.543312
   2 C :    0.014218
   3 C :    0.277929
   4 C :   -0.217754
   5 C :    0.277137
   6 C :   -0.069623
   7 N :   -0.175288
   8 O :    0.198011
   9 H :   -0.370597
  10 H :   -0.348976
  11 H :   -0.365104
  12 H :   -0.370581
  13 H :   -0.416174

  Mayer bond orders larger than 0.100000
B(  0-C ,  1-N ) :   1.0574 B(  0-C ,  4-C ) :  -0.2348 B(  0-C ,  5-C ) :   1.2449
B(  0-C , 12-H ) :   0.9096 B(  1-N ,  2-C ) :   1.1962 B(  1-N ,  9-H ) :  -0.1371
B(  1-N , 12-H ) :  -0.1361 B(  2-C ,  3-C ) :   1.2604 B(  2-C ,  4-C ) :  -0.2835
B(  2-C ,  9-H ) :   0.9417 B(  3-C ,  4-C ) :   1.0065 B(  3-C ,  6-C ) :  -0.2681
B(  3-C ,  9-H ) :  -0.1530 B(  3-C , 10-H ) :   1.0573 B(  4-C ,  5-C ) :   1.1914
B(  4-C ,  6-C ) :   0.9810 B(  4-C , 13-H ) :  -0.1377 B(  5-C ,  6-C ) :  -0.2125
B(  5-C , 11-H ) :   1.0109 B(  5-C , 12-H ) :  -0.1572 B(  6-C ,  7-N ) :   1.3806
B(  6-C , 13-H ) :   0.9520 B(  7-N ,  8-O ) :   1.1381

MP2 TOTAL ENERGY:     -415.698960272 Eh
FINAL SINGLE POINT ENERGY      -415.698960271589

DIPOLE MOMENT
-------------
                                X             Y             Z
Electronic contribution:     -1.12146      -0.98784       0.00001
Nuclear contribution   :      3.55140       1.41072      -0.00002
                        -----------------------------------------
Total Dipole Moment    :      2.42994       0.42288      -0.00001
                        -----------------------------------------
Magnitude (a.u.)       :      2.46646
Magnitude (Debye)      :      6.26925

Rotational constants in cm-1:     0.185534     0.030849     0.026451
Rotational constants in MHz :  5562.173958   924.837238   792.985466

                             ****ORCA TERMINATED NORMALLY****
TOTAL RUN TIME: 0 days 0 hours 26 minutes 48 seconds 527 msec
