                         Program Version 4.2.1 -  RELEASE  -
|  1> %pal
|  2>  nprocs 32
|  3> end
|  4> !RI-MP2 aug-cc-pVQZ aug-cc-pVQZ/C TightSCF
|  5> %maxcore 4500
|  6> *xyzfile 0 1  10_51R.xyz
|  7>
|  8>
|  9>                          ****END OF INPUT****

CARTESIAN COORDINATES (ANGSTROEM)
---------------------------------
  C      0.194598    1.436983    1.313328
  N     -0.315486    0.104184    1.024352
  C      0.356475   -1.046228    1.606407
  C      1.392691   -1.716861    0.701482
  C      2.458330   -0.731874    0.263187
  C      2.075704    0.297969   -0.863321
  C      2.033484    1.771485   -0.491718
  C      0.694493    2.222932    0.094542
  C      3.562929   -1.168902   -0.677184
  C      3.282891   -0.249419   -1.599500
  C     -1.522071   -0.054036    0.362950
  C     -2.355884    1.040975    0.076453
  C     -3.567983    0.865780   -0.571328
  C     -3.999171   -0.392715   -0.963733
  C     -3.181630   -1.480926   -0.694146
  C     -1.965893   -1.322712   -0.050356
  H     -0.577342    2.024173    1.825281
  H      1.010263    1.325361    2.029452
  H      0.859928   -0.707633    2.516684
  H     -0.393411   -1.772552    1.927958
  H      1.849569   -2.543451    1.257226
  H      0.912844   -2.152216   -0.180106
  H      2.232261    2.371801   -1.385683
  H      2.849172    1.989391    0.207874
  H      0.772193    3.275465    0.385899
  H     -0.065749    2.177598   -0.689069
  H     -2.067062    2.039993    0.366946
  H     -4.184738    1.735258   -0.768274
  H     -4.945826   -0.521862   -1.472293
  H     -3.487120   -2.476160   -0.996241
  H     -1.352561   -2.195816    0.117710
  H      3.732183    0.013997   -2.550201
  H      4.314349   -1.946163   -0.600912
  H      1.136692    0.012664   -1.348130
  H      2.858988   -0.213852    1.143032

 Total Charge           Charge          ....    0
 Multiplicity           Mult            ....    1
 Number of Electrons    NEL             ....  116
 Basis Dimension        Dim             .... 2154

ORBITAL ENERGIES
----------------

  NO   OCC          E(Eh)            E(eV)
   0   2.0000     -15.558441      -423.3667
   1   2.0000     -11.273382      -306.7643
   2   2.0000     -11.256853      -306.3145
   3   2.0000     -11.256289      -306.2992
   4   2.0000     -11.227181      -305.5071
   5   2.0000     -11.226744      -305.4952
   6   2.0000     -11.226695      -305.4939
   7   2.0000     -11.224113      -305.4236
   8   2.0000     -11.223382      -305.4038
   9   2.0000     -11.221696      -305.3579
  10   2.0000     -11.217572      -305.2457
  11   2.0000     -11.217451      -305.2424
  12   2.0000     -11.216280      -305.2105
  13   2.0000     -11.213923      -305.1464
  14   2.0000     -11.213779      -305.1425
  15   2.0000     -11.209291      -305.0203
  16   2.0000      -1.257189       -34.2099
  17   2.0000      -1.160390       -31.5758
  18   2.0000      -1.132839       -30.8261
  19   2.0000      -1.067212       -29.0403
  20   2.0000      -1.031900       -28.0794
  21   2.0000      -1.007613       -27.4185
  22   2.0000      -0.989287       -26.9199
  23   2.0000      -0.950358       -25.8605
  24   2.0000      -0.895850       -24.3773
  25   2.0000      -0.860177       -23.4066
  26   2.0000      -0.823375       -22.4052
  27   2.0000      -0.813381       -22.1332
  28   2.0000      -0.790600       -21.5133
  29   2.0000      -0.772006       -21.0074
  30   2.0000      -0.710179       -19.3250
  31   2.0000      -0.705506       -19.1978
  32   2.0000      -0.671797       -18.2805
  33   2.0000      -0.658824       -17.9275
  34   2.0000      -0.646881       -17.6025
  35   2.0000      -0.634276       -17.2595
  36   2.0000      -0.619841       -16.8667
  37   2.0000      -0.602787       -16.4027
  38   2.0000      -0.590748       -16.0751
  39   2.0000      -0.576034       -15.6747
  40   2.0000      -0.569397       -15.4941
  41   2.0000      -0.567613       -15.4455
  42   2.0000      -0.551719       -15.0130
  43   2.0000      -0.545555       -14.8453
  44   2.0000      -0.529190       -14.4000
  45   2.0000      -0.518536       -14.1101
  46   2.0000      -0.500747       -13.6260
  47   2.0000      -0.496879       -13.5208
  48   2.0000      -0.481207       -13.0943
  49   2.0000      -0.477495       -12.9933
  50   2.0000      -0.473765       -12.8918
  51   2.0000      -0.463093       -12.6014
  52   2.0000      -0.438513       -11.9325
  53   2.0000      -0.422945       -11.5089
  54   2.0000      -0.393849       -10.7172
  55   2.0000      -0.349776        -9.5179
  56   2.0000      -0.332266        -9.0414
  57   2.0000      -0.275610        -7.4997
  58   0.0000       0.022656         0.6165
  59   0.0000       0.025458         0.6927
  60   0.0000       0.027465         0.7474
  61   0.0000       0.027838         0.7575
  62   0.0000       0.035375         0.9626

MULLIKEN ATOMIC CHARGES
-----------------------
   0 C :   -0.345651
   1 N :    0.183273
   2 C :   -0.614721
   3 C :   -0.514117
   4 C :    0.289172
   5 C :    0.164325
   6 C :   -0.701582
   7 C :   -0.435219
   8 C :   -0.797112
   9 C :   -0.704157
  10 C :    1.320628
  11 C :   -0.435662
  12 C :   -0.538301
  13 C :   -0.502808
  14 C :   -0.534051
  15 C :   -0.499642
  16 H :    0.135463
  17 H :    0.208687
  18 H :    0.229278
  19 H :    0.261872
  20 H :    0.272905
  21 H :    0.260444
  22 H :    0.206991
  23 H :    0.193556
  24 H :    0.250390
  25 H :    0.238933
  26 H :    0.168636
  27 H :    0.175137
  28 H :    0.333620
  29 H :    0.165903
  30 H :    0.169551
  31 H :    0.347976
  32 H :    0.314104
  33 H :    0.468660
  34 H :    0.263522
Sum of atomic charges:    0.0000000

LOEWDIN ATOMIC CHARGES
----------------------
   0 C :    0.394411
   1 N :    0.514719
   2 C :    0.389417
   3 C :    0.567705
   4 C :    0.088213
   5 C :    0.097128
   6 C :    0.561243
   7 C :    0.562958
   8 C :    0.444680
   9 C :    0.444419
  10 C :   -0.205726
  11 C :    0.348201
  12 C :    0.342958
  13 C :    0.333370
  14 C :    0.342019
  15 C :    0.351634
  16 H :   -0.280251
  17 H :   -0.295356
  18 H :   -0.286602
  19 H :   -0.296377
  20 H :   -0.250913
  21 H :   -0.278631
  22 H :   -0.261465
  23 H :   -0.266674
  24 H :   -0.254749
  25 H :   -0.299112
  26 H :   -0.367470
  27 H :   -0.316708
  28 H :   -0.331626
  29 H :   -0.317214
  30 H :   -0.365759
  31 H :   -0.279304
  32 H :   -0.281211
  33 H :   -0.272600
  34 H :   -0.275327

  Mayer bond orders larger than 0.100000
B(  0-C ,  1-N ) :   0.7185 B(  0-C ,  7-C ) :   0.7116 B(  0-C , 10-C ) :  -0.1227
B(  0-C , 16-H ) :   1.1078 B(  0-C , 17-H ) :   1.0603 B(  1-N ,  2-C ) :   0.8816
B(  1-N ,  3-C ) :  -0.2468 B(  1-N ,  7-C ) :  -0.1185 B(  1-N , 10-C ) :   1.0189
B(  1-N , 11-C ) :  -0.1432 B(  2-C ,  3-C ) :   1.0063 B(  2-C ,  4-C ) :  -0.1125
B(  2-C , 10-C ) :  -0.1043 B(  2-C , 15-C ) :  -0.1128 B(  2-C , 18-H ) :   1.0254
B(  2-C , 19-H ) :   0.9518 B(  3-C ,  4-C ) :   0.6036 B(  3-C , 20-H ) :   0.9651
B(  3-C , 21-H ) :   1.0001 B(  4-C ,  5-C ) :   0.6563 B(  4-C ,  8-C ) :   0.8299
B(  4-C ,  9-C ) :  -0.4749 B(  4-C , 34-H ) :   1.0358 B(  5-C ,  6-C ) :   0.5874
B(  5-C ,  8-C ) :  -0.3965 B(  5-C ,  9-C ) :   0.9499 B(  5-C , 22-H ) :  -0.1492
B(  5-C , 23-H ) :  -0.1231 B(  5-C , 33-H ) :   0.8639 B(  6-C ,  7-C ) :   0.8781
B(  6-C , 22-H ) :   1.0477 B(  6-C , 23-H ) :   1.0714 B(  7-C , 24-H ) :   0.9890
B(  7-C , 25-H ) :   1.0154 B(  8-C ,  9-C ) :   2.1705 B(  8-C , 32-H ) :   1.0367
B(  9-C , 31-H ) :   0.9622 B( 10-C , 11-C ) :   0.8361 B( 10-C , 12-C ) :  -0.4553
B( 10-C , 13-C ) :  -0.1641 B( 10-C , 14-C ) :  -0.4970 B( 10-C , 15-C ) :   0.9726
B( 11-C , 12-C ) :   1.2444 B( 11-C , 14-C ) :   0.1144 B( 11-C , 26-H ) :   1.0673
B( 11-C , 27-H ) :  -0.1927 B( 12-C , 13-C ) :   1.2275 B( 12-C , 15-C ) :   0.1070
B( 12-C , 27-H ) :   1.2633 B( 13-C , 14-C ) :   1.2367 B( 13-C , 27-H ) :  -0.1274
B( 13-C , 28-H ) :   1.0306 B( 13-C , 29-H ) :  -0.1229 B( 14-C , 15-C ) :   1.2414
B( 14-C , 28-H ) :  -0.1083 B( 14-C , 29-H ) :   1.2536 B( 15-C , 29-H ) :  -0.1820
B( 15-C , 30-H ) :   1.0377

MP2 TOTAL ENERGY:     -636.560652543 Eh
FINAL SINGLE POINT ENERGY      -636.560652542692

DIPOLE MOMENT
-------------
                                X             Y             Z
Electronic contribution:     -5.04788      -2.36728      -1.50755
Nuclear contribution   :      5.56863       2.48838       1.83127
                        -----------------------------------------
Total Dipole Moment    :      0.52076       0.12109       0.32372
                        -----------------------------------------
Magnitude (a.u.)       :      0.62502
Magnitude (Debye)      :      1.58867

Rotational constants in cm-1:     0.032759     0.012050     0.010847
Rotational constants in MHz :   982.084444   361.264545   325.195430

                             ****ORCA TERMINATED NORMALLY****
TOTAL RUN TIME: 0 days 5 hours 33 minutes 44 seconds 900 msec
