                         Program Version 4.2.1 -  RELEASE  -
|  1> %pal
|  2>  nprocs 32
|  3> end
|  4> !RI-MP2 aug-cc-pVQZ aug-cc-pVQZ/C TightSCF
|  5> %maxcore 4500
|  6> *xyzfile 1 1  10_31R.xyz
|  7>
|  8>
|  9>                          ****END OF INPUT****

CARTESIAN COORDINATES (ANGSTROEM)
---------------------------------
  C      4.058588   -1.873412    0.211846
  C      3.300113   -1.713039   -1.112218
  C      2.320947   -0.196495    0.172472
  C      3.355778   -0.823003    1.120101
  H      3.975463   -2.889140    0.593584
  H      5.115488   -1.646378    0.075342
  H      2.888251   -1.258524    2.002685
  H      4.039834   -0.044885    1.457866
  C      3.042148   -0.202247   -1.172326
  H      2.413859    0.114061   -2.005044
  H      3.952084    0.394553   -1.148516
  H      3.742268   -2.195634   -1.979035
  H      1.818038    0.704071    0.504660
  N      1.316660   -1.272681   -0.095439
  N      1.935332   -2.259154   -0.880289
  C     -1.677357    1.566388   -0.889477
  C     -0.482262    2.156934   -0.265537
  C     -0.333085    2.276504    1.121078
  C      0.548616    2.633389   -1.079683
  C      0.793261    2.873327    1.668040
  H     -1.113817    1.917188    1.781713
  C      1.674276    3.235247   -0.534368
  H      0.446578    2.561053   -2.157010
  C      1.802060    3.358686    0.842785
  H      0.880591    2.969721    2.743552
  H      2.446974    3.622366   -1.187774
  H      2.672996    3.838975    1.270969
  C     -2.874347    1.432265   -0.321625
  C      0.126987   -1.363311    0.358765
  C     -4.082010    0.864689   -0.995790
  H     -4.840255    1.651985   -1.064519
  H     -3.828935    0.585041   -2.022928
  C     -0.748029   -2.528947    0.097815
  H     -0.117401   -3.423050    0.062116
  H     -1.168793   -2.418305   -0.909912
  C     -1.874578   -2.673992    1.127354
  H     -2.366665   -3.632924    0.947873
  H     -1.433572   -2.743033    2.125782
  C     -2.910343   -1.551685    1.088635
  H     -3.557108   -1.648082    1.964588
  H     -2.417085   -0.580976    1.193903
  C     -4.710123   -0.340893   -0.280673
  H     -5.607504   -0.620144   -0.836490
  H     -5.053835   -0.043715    0.715836
  C     -3.784362   -1.556232   -0.165705
  H     -4.380917   -2.472871   -0.161611
  H     -3.165035   -1.605251   -1.068872
  H      1.407063   -2.390119   -1.738964
  H     -0.203990   -0.518405    0.952968
  H     -1.562750    1.266872   -1.929223
  H     -3.023440    1.783338    0.697619

 Total Charge           Charge          ....    1
 Multiplicity           Mult            ....    1
 Number of Electrons    NEL             ....  162
 Basis Dimension        Dim             .... 3094

ORBITAL ENERGIES
----------------

  NO   OCC          E(Eh)            E(eV)
   0   2.0000     -15.829094      -430.7315
   1   2.0000     -15.749849      -428.5752
   2   2.0000     -11.474108      -312.2264
   3   2.0000     -11.418865      -310.7231
   4   2.0000     -11.404568      -310.3341
   5   2.0000     -11.379163      -309.6428
   6   2.0000     -11.363700      -309.2220
   7   2.0000     -11.358622      -309.0838
   8   2.0000     -11.352320      -308.9123
   9   2.0000     -11.349136      -308.8257
  10   2.0000     -11.347805      -308.7895
  11   2.0000     -11.341337      -308.6135
  12   2.0000     -11.340070      -308.5790
  13   2.0000     -11.339338      -308.5591
  14   2.0000     -11.337597      -308.5117
  15   2.0000     -11.336789      -308.4897
  16   2.0000     -11.335629      -308.4582
  17   2.0000     -11.331045      -308.3334
  18   2.0000     -11.328527      -308.2649
  19   2.0000     -11.319741      -308.0258
  20   2.0000     -11.319302      -308.0139
  21   2.0000     -11.314484      -307.8828
  22   2.0000      -1.540309       -41.9140
  23   2.0000      -1.329748       -36.1843
  24   2.0000      -1.269562       -34.5465
  25   2.0000      -1.259677       -34.2776
  26   2.0000      -1.222268       -33.2596
  27   2.0000      -1.198744       -32.6195
  28   2.0000      -1.164705       -31.6932
  29   2.0000      -1.132186       -30.8083
  30   2.0000      -1.124356       -30.5953
  31   2.0000      -1.112124       -30.2624
  32   2.0000      -1.096223       -29.8297
  33   2.0000      -1.069614       -29.1057
  34   2.0000      -1.020819       -27.7779
  35   2.0000      -0.985237       -26.8097
  36   2.0000      -0.967596       -26.3296
  37   2.0000      -0.952017       -25.9057
  38   2.0000      -0.935901       -25.4672
  39   2.0000      -0.916498       -24.9392
  40   2.0000      -0.903824       -24.5943
  41   2.0000      -0.891853       -24.2686
  42   2.0000      -0.871993       -23.7281
  43   2.0000      -0.856292       -23.3009
  44   2.0000      -0.829108       -22.5612
  45   2.0000      -0.808404       -21.9978
  46   2.0000      -0.799361       -21.7517
  47   2.0000      -0.780821       -21.2472
  48   2.0000      -0.760345       -20.6900
  49   2.0000      -0.759181       -20.6584
  50   2.0000      -0.750041       -20.4097
  51   2.0000      -0.745575       -20.2881
  52   2.0000      -0.740129       -20.1399
  53   2.0000      -0.730739       -19.8844
  54   2.0000      -0.712083       -19.3768
  55   2.0000      -0.705759       -19.2047
  56   2.0000      -0.697282       -18.9740
  57   2.0000      -0.690662       -18.7939
  58   2.0000      -0.680278       -18.5113
  59   2.0000      -0.677591       -18.4382
  60   2.0000      -0.666063       -18.1245
  61   2.0000      -0.656105       -17.8535
  62   2.0000      -0.649860       -17.6836
  63   2.0000      -0.641869       -17.4661
  64   2.0000      -0.636755       -17.3270
  65   2.0000      -0.625733       -17.0271
  66   2.0000      -0.621982       -16.9250
  67   2.0000      -0.614458       -16.7202
  68   2.0000      -0.613096       -16.6832
  69   2.0000      -0.605635       -16.4802
  70   2.0000      -0.599325       -16.3085
  71   2.0000      -0.595452       -16.2031
  72   2.0000      -0.592012       -16.1095
  73   2.0000      -0.584447       -15.9036
  74   2.0000      -0.572496       -15.5784
  75   2.0000      -0.565525       -15.3887
  76   2.0000      -0.554206       -15.0807
  77   2.0000      -0.527972       -14.3668
  78   2.0000      -0.502762       -13.6808
  79   2.0000      -0.449593       -12.2341
  80   2.0000      -0.408220       -11.1082
  81   0.0000      -0.065832        -1.7914
  82   0.0000      -0.059086        -1.6078
  83   0.0000      -0.051602        -1.4042
  84   0.0000      -0.046530        -1.2662
  85   0.0000      -0.044036        -1.1983

MULLIKEN ATOMIC CHARGES
-----------------------
   0 C :   -0.672272
   1 C :   -0.083283
   2 C :   -0.621237
   3 C :   -1.052398
   4 H :    0.342644
   5 H :    0.223958
   6 H :    0.266944
   7 H :    0.279590
   8 C :   -0.823546
   9 H :    0.369101
  10 H :    0.295179
  11 H :    0.409698
  12 H :    1.446754
  13 N :    0.299434
  14 N :   -0.858356
  15 C :   -0.211580
  16 C :    1.071270
  17 C :   -0.316883
  18 C :   -0.695052
  19 C :   -0.312690
  20 H :    0.230949
  21 C :   -0.399361
  22 H :    0.254531
  23 C :   -0.362180
  24 H :    0.194146
  25 H :    0.178011
  26 H :    0.340311
  27 C :   -0.007614
  28 C :    0.325609
  29 C :   -0.582302
  30 H :    0.290541
  31 H :    0.183381
  32 C :   -0.416756
  33 H :    0.252548
  34 H :    0.414332
  35 C :   -0.624641
  36 H :    0.181201
  37 H :    0.278691
  38 C :   -0.576117
  39 H :    0.298926
  40 H :    0.157937
  41 C :   -0.535214
  42 H :    0.210099
  43 H :    0.260409
  44 C :   -0.355163
  45 H :    0.176282
  46 H :    0.350521
  47 H :    0.167044
  48 H :    0.605440
  49 H :   -0.035035
  50 H :    0.186198
Sum of atomic charges:    1.0000000

LOEWDIN ATOMIC CHARGES
----------------------
   0 C :    0.585363
   1 C :    0.038225
   2 C :    0.044679
   3 C :    0.599106
   4 H :   -0.248772
   5 H :   -0.243466
   6 H :   -0.240781
   7 H :   -0.239358
   8 C :    0.566688
   9 H :   -0.234050
  10 H :   -0.228303
  11 H :   -0.223658
  12 H :   -0.341777
  13 N :    0.411087
  14 N :    0.858905
  15 C :    0.381670
  16 C :   -0.105213
  17 C :    0.325932
  18 C :    0.332228
  19 C :    0.362313
  20 H :   -0.323246
  21 C :    0.348481
  22 H :   -0.307719
  23 C :    0.352182
  24 H :   -0.303005
  25 H :   -0.302414
  26 H :   -0.306574
  27 C :    0.388179
  28 C :    0.352935
  29 C :    0.529353
  30 H :   -0.261843
  31 H :   -0.291261
  32 C :    0.578632
  33 H :   -0.271894
  34 H :   -0.265618
  35 C :    0.576904
  36 H :   -0.253163
  37 H :   -0.250986
  38 C :    0.539595
  39 H :   -0.247034
  40 H :   -0.325973
  41 C :    0.559348
  42 H :   -0.260150
  43 H :   -0.263541
  44 C :    0.546708
  45 H :   -0.251056
  46 H :   -0.288533
  47 H :   -0.467281
  48 H :   -0.295511
  49 H :   -0.330304
  50 H :   -0.306026

  Mayer bond orders larger than 0.100000
B(  0-C ,  1-C ) :   0.9183 B(  0-C ,  2-C ) :  -0.4717 B(  0-C ,  3-C ) :   1.2818
B(  0-C ,  4-H ) :   0.9197 B(  0-C ,  5-H ) :   1.0108 B(  0-C , 14-N ) :   0.1107
B(  1-C ,  3-C ) :  -0.1830 B(  1-C ,  8-C ) :   1.1215 B(  1-C , 11-H ) :   0.8079
B(  1-C , 14-N ) :   0.8040 B(  2-C ,  3-C ) :   0.4954 B(  2-C ,  6-H ) :  -0.1121
B(  2-C ,  8-C ) :   0.7748 B(  2-C , 10-H ) :  -0.1258 B(  2-C , 12-H ) :  -0.3893
B(  2-C , 13-N ) :   0.3976 B(  2-C , 18-C ) :   0.1333 B(  2-C , 21-C ) :   0.1093
B(  2-C , 28-C ) :  -0.2061 B(  2-C , 48-H ) :   0.2603 B(  3-C ,  6-H ) :   1.0185
B(  3-C ,  7-H ) :   0.9770 B(  3-C ,  8-C ) :   0.1316 B(  3-C , 12-H ) :  -0.2844
B(  3-C , 13-N ) :   0.1035 B(  8-C ,  9-H ) :   0.8113 B(  8-C , 10-H ) :   0.9849
B( 12-H , 18-C ) :  -0.1658 B( 12-H , 21-C ) :  -0.2097 B( 13-N , 14-N ) :   0.1788
B( 13-N , 16-C ) :   0.1052 B( 13-N , 28-C ) :   1.3168 B( 13-N , 48-H ) :   0.2396
B( 14-N , 28-C ) :   0.1019 B( 14-N , 47-H ) :   0.9585 B( 15-C , 16-C ) :   0.3271
B( 15-C , 17-C ) :  -0.4355 B( 15-C , 18-C ) :  -0.5233 B( 15-C , 27-C ) :   1.1710
B( 15-C , 29-C ) :  -0.3554 B( 15-C , 49-H ) :   1.3400 B( 16-C , 17-C ) :   1.1811
B( 16-C , 18-C ) :   0.9812 B( 16-C , 19-C ) :  -0.4472 B( 16-C , 20-H ) :  -0.1035
B( 16-C , 21-C ) :  -0.3951 B( 16-C , 22-H ) :  -0.1382 B( 16-C , 27-C ) :  -0.3602
B( 16-C , 49-H ) :  -0.1722 B( 17-C , 19-C ) :   1.3397 B( 17-C , 20-H ) :   0.9804
B( 17-C , 50-H ) :  -0.1431 B( 18-C , 19-C ) :   0.2174 B( 18-C , 21-C ) :   1.5167
B( 18-C , 22-H ) :   1.0482 B( 18-C , 23-C ) :   0.1811 B( 18-C , 25-H ) :  -0.1123
B( 19-C , 23-C ) :   1.2836 B( 19-C , 24-H ) :   1.1811 B( 21-C , 23-C ) :   1.1842
B( 21-C , 25-H ) :   1.2526 B( 23-C , 26-H ) :   1.0253 B( 27-C , 29-C ) :   0.6629
B( 27-C , 30-H ) :  -0.1940 B( 27-C , 41-C ) :  -0.1606 B( 27-C , 50-H ) :   1.1020
B( 28-C , 32-C ) :   0.7036 B( 28-C , 34-H ) :   0.1131 B( 28-C , 35-C ) :  -0.2778
B( 28-C , 48-H ) :   0.3176 B( 29-C , 30-H ) :   0.9987 B( 29-C , 31-H ) :   1.0726
B( 29-C , 41-C ) :   1.0070 B( 32-C , 33-H ) :   1.0433 B( 32-C , 34-H ) :   0.7539
B( 32-C , 35-C ) :   0.9202 B( 32-C , 36-H ) :  -0.1022 B( 35-C , 36-H ) :   1.1054
B( 35-C , 37-H ) :   0.9801 B( 35-C , 38-C ) :   0.8559 B( 38-C , 39-H ) :   0.9414
B( 38-C , 40-H ) :   1.0023 B( 38-C , 44-C ) :   0.8200 B( 41-C , 42-H ) :   1.0528
B( 41-C , 43-H ) :   0.9369 B( 41-C , 44-C ) :   0.8031 B( 42-H , 44-C ) :  -0.1146
B( 44-C , 45-H ) :   1.0350 B( 44-C , 46-H ) :   0.9101

MP2 TOTAL ENERGY:     -887.211812236 Eh
FINAL SINGLE POINT ENERGY      -887.211812236391

DIPOLE MOMENT
-------------
                                X             Y             Z
Electronic contribution:      9.58603       7.43883      -1.15650
Nuclear contribution   :     -8.25608      -8.99746       0.90092
                        -----------------------------------------
Total Dipole Moment    :      1.32995      -1.55864      -0.25558
                        -----------------------------------------
Magnitude (a.u.)       :      2.06481
Magnitude (Debye)      :      5.24834

Rotational constants in cm-1:     0.011783     0.007438     0.005276
Rotational constants in MHz :   353.236068   222.994492   158.163755

                             ****ORCA TERMINATED NORMALLY****
TOTAL RUN TIME: 0 days 13 hours 6 minutes 7 seconds 720 msec
