                         Program Version 4.2.1 -  RELEASE  -
|  1> %pal
|  2>  nprocs 32
|  3> end
|  4> !RI-MP2 aug-cc-pVQZ aug-cc-pVQZ/C TightSCF
|  5> %maxcore 4500
|  6> *xyzfile 0 1  08_1P1.xyz
|  7>
|  8>
|  9>                          ****END OF INPUT****

CARTESIAN COORDINATES (ANGSTROEM)
---------------------------------
  C     -0.635750    0.000000    0.000000
  F      0.752071    0.000000    0.000000
  H     -0.984716   -0.626482   -0.821610
  H     -0.984712   -0.398294    0.953356
  H     -0.984708    1.024779   -0.131744

 Total Charge           Charge          ....    0
 Multiplicity           Mult            ....    1
 Number of Electrons    NEL             ....   18
 Basis Dimension        Dim             ....  298

ORBITAL ENERGIES
----------------

  NO   OCC          E(Eh)            E(eV)
   0   2.0000     -26.274363      -714.9618
   1   2.0000     -11.306298      -307.6600
   2   2.0000      -1.583886       -43.0997
   3   2.0000      -0.954520       -25.9738
   4   2.0000      -0.694393       -18.8954
   5   2.0000      -0.694393       -18.8954
   6   2.0000      -0.672243       -18.2927
   7   2.0000      -0.531765       -14.4701
   8   2.0000      -0.531765       -14.4701
   9   0.0000       0.025627         0.6973
  10   0.0000       0.041813         1.1378
  11   0.0000       0.041813         1.1378
  12   0.0000       0.064938         1.7670
  13   0.0000       0.106164         2.8889

MULLIKEN ATOMIC CHARGES
-----------------------
   0 C :   -0.226765
   1 F :   -0.566351
   2 H :    0.264372
   3 H :    0.264372
   4 H :    0.264372
Sum of atomic charges:    0.0000000

LOEWDIN ATOMIC CHARGES
----------------------
   0 C :    0.364389
   1 F :    0.715965
   2 H :   -0.360117
   3 H :   -0.360118
   4 H :   -0.360119

  Mayer bond orders larger than 0.100000
B(  0-C ,  1-F ) :   0.6349 B(  0-C ,  2-H ) :   0.9093 B(  0-C ,  3-H ) :   0.9093
B(  0-C ,  4-H ) :   0.9093

MP2 TOTAL ENERGY:     -139.581243004 Eh
FINAL SINGLE POINT ENERGY      -139.581243003577

DIPOLE MOMENT
-------------
                                X             Y             Z
Electronic contribution:      2.86001      -0.00000      -0.00000
Nuclear contribution   :     -3.67214       0.00000       0.00000
                        -----------------------------------------
Total Dipole Moment    :     -0.81213      -0.00000      -0.00000
                        -----------------------------------------
Magnitude (a.u.)       :      0.81213
Magnitude (Debye)      :      2.06428

Rotational constants in cm-1:     5.221999     0.853562     0.853562
Rotational constants in MHz : 156551.595956 25589.148265 25589.144460

                             ****ORCA TERMINATED NORMALLY****
TOTAL RUN TIME: 0 days 0 hours 0 minutes 23 seconds 721 msec
