                         Program Version 4.2.1 -  RELEASE  -
|  1> %pal
|  2>  nprocs 32
|  3> end
|  4> !RI-MP2 aug-cc-pVQZ aug-cc-pVQZ/C TightSCF
|  5> %maxcore 4500
|  6> *xyzfile -1 1  05_6R.xyz
|  7>
|  8>
|  9>                          ****END OF INPUT****

CARTESIAN COORDINATES (ANGSTROEM)
---------------------------------
  C      1.075372    0.593011    1.070561
  C      2.400034    0.861951    0.344585
  C      3.262960   -0.389376    0.095361
  C      2.336297   -1.332404   -0.764449
  C      0.902274   -1.426701   -0.341781
  C      0.305638   -0.558970    0.472502
  H      0.306315   -2.251280   -0.737622
  C     -1.169823   -0.650551    0.790263
  C     -2.025300   -0.056133   -0.333804
  H     -1.393212   -0.123082    1.724642
  H     -1.481857   -1.685477    0.934655
  C     -3.526989   -0.190041   -0.057081
  O     -4.031191   -1.151571    0.455482
  O     -4.239688    0.858934   -0.477431
  N     -1.729463    1.338834   -0.683787
  H     -1.848609   -0.653247   -1.233619
  O      4.459293   -0.236543   -0.413208
  O      2.673236    1.996721    0.023440
  H     -3.565539    1.485831   -0.830121
  H     -1.455642    1.864108    0.140364
  H     -0.944726    1.390619   -1.322680
  H      2.408545   -0.963628   -1.795585
  H      2.809257   -2.318530   -0.767668
  H      0.496836    1.522242    1.055312
  H      1.287847    0.379685    2.125786
  H      3.231045   -0.864118    1.129829

 Total Charge           Charge          ....   -1
 Multiplicity           Mult            ....    1
 Number of Electrons    NEL             ....  106
 Basis Dimension        Dim             .... 1672

ORBITAL ENERGIES
----------------

  NO   OCC          E(Eh)            E(eV)
   0   2.0000     -20.515164      -558.2460
   1   2.0000     -20.454997      -556.6088
   2   2.0000     -20.392598      -554.9108
   3   2.0000     -20.245150      -550.8985
   4   2.0000     -15.491687      -421.5502
   5   2.0000     -11.292611      -307.2876
   6   2.0000     -11.202800      -304.8437
   7   2.0000     -11.165638      -303.8324
   8   2.0000     -11.146619      -303.3149
   9   2.0000     -11.127714      -302.8005
  10   2.0000     -11.117076      -302.5110
  11   2.0000     -11.115533      -302.4690
  12   2.0000     -11.102109      -302.1037
  13   2.0000     -11.079087      -301.4773
  14   2.0000      -1.375322       -37.4244
  15   2.0000      -1.278335       -34.7853
  16   2.0000      -1.234387       -33.5894
  17   2.0000      -1.136968       -30.9385
  18   2.0000      -1.073482       -29.2109
  19   2.0000      -1.010071       -27.4854
  20   2.0000      -0.931276       -25.3413
  21   2.0000      -0.872020       -23.7289
  22   2.0000      -0.842907       -22.9367
  23   2.0000      -0.779309       -21.2061
  24   2.0000      -0.723919       -19.6988
  25   2.0000      -0.701512       -19.0891
  26   2.0000      -0.658605       -17.9216
  27   2.0000      -0.625478       -17.0201
  28   2.0000      -0.601253       -16.3609
  29   2.0000      -0.582467       -15.8497
  30   2.0000      -0.551690       -15.0122
  31   2.0000      -0.547090       -14.8871
  32   2.0000      -0.537429       -14.6242
  33   2.0000      -0.521087       -14.1795
  34   2.0000      -0.506649       -13.7866
  35   2.0000      -0.494014       -13.4428
  36   2.0000      -0.480961       -13.0876
  37   2.0000      -0.465338       -12.6625
  38   2.0000      -0.453811       -12.3488
  39   2.0000      -0.442716       -12.0469
  40   2.0000      -0.422369       -11.4933
  41   2.0000      -0.402230       -10.9452
  42   2.0000      -0.391023       -10.6403
  43   2.0000      -0.383323       -10.4308
  44   2.0000      -0.379602       -10.3295
  45   2.0000      -0.372890       -10.1469
  46   2.0000      -0.341950        -9.3049
  47   2.0000      -0.337291        -9.1782
  48   2.0000      -0.326419        -8.8823
  49   2.0000      -0.271644        -7.3918
  50   2.0000      -0.229359        -6.2412
  51   2.0000      -0.158980        -4.3261
  52   2.0000      -0.158197        -4.3048
  53   0.0000       0.091350         2.4858
  54   0.0000       0.097593         2.6556
  55   0.0000       0.099826         2.7164
  56   0.0000       0.111439         3.0324
  57   0.0000       0.112389         3.0583

MULLIKEN ATOMIC CHARGES
-----------------------
   0 C :   -0.706951
   1 C :    0.866804
   2 C :    0.763883
   3 C :   -0.739170
   4 C :   -0.331515
   5 C :    0.202949
   6 H :    0.233739
   7 C :   -0.387991
   8 C :   -0.086017
   9 H :    0.243202
  10 H :    0.190638
  11 C :    1.304839
  12 O :   -0.870600
  13 O :   -0.953880
  14 N :   -0.740623
  15 H :    0.275082
  16 O :   -1.242063
  17 O :   -1.015556
  18 H :    0.400581
  19 H :    0.297897
  20 H :    0.207547
  21 H :    0.249318
  22 H :    0.204036
  23 H :    0.238197
  24 H :    0.343715
  25 H :    0.051941
Sum of atomic charges:   -1.0000000

LOEWDIN ATOMIC CHARGES
----------------------
   0 C :    0.433750
   1 C :   -0.704557
   2 C :   -0.709846
   3 C :    0.424464
   4 C :    0.391695
   5 C :   -0.031889
   6 H :   -0.304944
   7 C :    0.481745
   8 C :   -0.054836
   9 H :   -0.273990
  10 H :   -0.296092
  11 C :   -1.023311
  12 O :    0.672452
  13 O :    1.247141
  14 N :    1.315928
  15 H :   -0.293910
  16 O :    0.524392
  17 O :    0.700147
  18 H :   -0.974986
  19 H :   -0.479613
  20 H :   -0.448382
  21 H :   -0.305548
  22 H :   -0.304207
  23 H :   -0.349815
  24 H :   -0.272300
  25 H :   -0.363491

  Mayer bond orders larger than 0.100000
B(  0-C ,  1-C ) :   1.1845 B(  0-C ,  2-C ) :  -0.1130 B(  0-C ,  5-C ) :   0.4698
B(  0-C , 17-O ) :   0.2701 B(  0-C , 23-H ) :   0.9471 B(  0-C , 24-H ) :   0.8671
B(  1-C ,  2-C ) :   0.9929 B(  1-C ,  5-C ) :  -0.1630 B(  1-C , 16-O ) :   0.2244
B(  1-C , 17-O ) :   0.6055 B(  1-C , 24-H ) :   0.1074 B(  2-C ,  3-C ) :   0.9509
B(  2-C , 16-O ) :   0.5477 B(  2-C , 25-H ) :   1.0945 B(  3-C ,  4-C ) :   0.7131
B(  3-C ,  5-C ) :  -0.1829 B(  3-C , 16-O ) :   0.2393 B(  3-C , 21-H ) :   0.9024
B(  3-C , 22-H ) :   1.0332 B(  4-C ,  5-C ) :   1.5481 B(  4-C ,  6-H ) :   0.9939
B(  4-C ,  7-C ) :  -0.2234 B(  4-C , 22-H ) :  -0.1164 B(  5-C ,  6-H ) :  -0.1021
B(  5-C ,  7-C ) :   0.6755 B(  5-C , 17-O ) :   0.1548 B(  7-C ,  8-C ) :   0.8996
B(  7-C ,  9-H ) :   0.9851 B(  7-C , 10-H ) :   0.9700 B(  8-C , 11-C ) :   1.2155
B(  8-C , 12-O ) :   0.3612 B(  8-C , 13-O ) :   0.1534 B(  8-C , 14-N ) :   0.7563
B(  8-C , 15-H ) :   0.8557 B( 11-C , 12-O ) :   1.1481 B( 11-C , 13-O ) :   0.5815
B( 12-O , 13-O ) :   0.1742 B( 13-O , 18-H ) :   0.7132 B( 14-N , 18-H ) :   0.1680
B( 14-N , 19-H ) :   0.8691 B( 14-N , 20-H ) :   1.0277

MP2 TOTAL ENERGY:     -704.819384826 Eh
FINAL SINGLE POINT ENERGY      -704.819384825958

DIPOLE MOMENT
-------------
                                X             Y             Z
Electronic contribution:     -4.74002       2.20608      -0.07209
Nuclear contribution   :     -0.17694      -2.17485       0.41071
                        -----------------------------------------
Total Dipole Moment    :     -4.91696       0.03123       0.33861
                        -----------------------------------------
Magnitude (a.u.)       :      4.92870
Magnitude (Debye)      :     12.52777

Rotational constants in cm-1:     0.058311     0.010246     0.009403
Rotational constants in MHz :  1748.114689   307.181544   281.885412

                             ****ORCA TERMINATED NORMALLY****
TOTAL RUN TIME: 0 days 2 hours 15 minutes 12 seconds 12 msec
