                         Program Version 4.2.1 -  RELEASE  -
|  1> %pal
|  2>  nprocs 32
|  3> end
|  4> !RI-MP2 aug-cc-pVQZ aug-cc-pVQZ/C TightSCF
|  5> %maxcore 4500
|  6> *xyzfile 0 1  02_17TS.xyz
|  7>
|  8>
|  9>                          ****END OF INPUT****

CARTESIAN COORDINATES (ANGSTROEM)
---------------------------------
  C      2.015726   -1.055015    0.309805
  C      0.593081   -1.206975   -0.157600
  C     -0.342686    0.710203    0.734776
  C      2.631363    0.230356   -0.240560
  H      2.035543   -1.019315    1.403286
  C      1.993017    1.522939    0.256820
  H      3.688544    0.253628    0.029668
  H      2.576588    0.236171   -1.333164
  C      0.501924    1.669063   -0.054888
  H      2.120949    1.583228    1.349852
  C     -0.270233   -2.213947    0.214970
  C     -1.621969   -2.114852   -0.184157
  C     -1.712070    0.565171    0.626291
  C     -2.070401   -1.004489   -0.851618
  C      0.134017   -3.260454    1.218679
  H     -0.719799   -3.868705    1.519227
  H      0.558521   -2.803166    2.117069
  H      0.906875   -3.915736    0.814643
  H      0.180000    2.684690    0.187083
  H      0.341549    1.562102   -1.132870
  C     -3.484952   -0.585615   -1.053396
  H     -3.854535   -0.804641   -2.056782
  H     -4.162034   -1.040909   -0.327323
  C     -2.541876    1.456100   -0.253445
  O      2.833294   -2.190660    0.021436
  O      2.743795    2.565272   -0.342742
  O     -2.404407    2.643264   -0.345963
  O     -3.545126    0.848254   -0.937205
  C      2.913658   -2.570420   -1.335784
  H      3.378008   -1.796377   -1.955583
  H      3.538900   -3.461459   -1.368870
  H      1.928090   -2.813998   -1.747815
  C      2.650175    3.815549    0.299809
  H      2.923498    3.735200    1.359779
  H      1.647872    4.250481    0.225791
  H      3.354628    4.480644   -0.197549
  C     -2.442321    0.003866    1.827123
  H     -2.497668    0.756499    2.618211
  H     -1.900200   -0.858632    2.219135
  H     -3.461985   -0.309052    1.601578
  H      0.373050   -0.679260   -1.074427
  H      0.077879    0.407641    1.688628
  H     -1.392493   -0.495318   -1.527207
  H     -2.340945   -2.781629    0.282478

 Total Charge           Charge          ....    0
 Multiplicity           Mult            ....    1
 Number of Electrons    NEL             ....  152
 Basis Dimension        Dim             .... 2704

ORBITAL ENERGIES
----------------

  NO   OCC          E(Eh)            E(eV)
   0   2.0000     -20.596086      -560.4480
   1   2.0000     -20.554159      -559.3071
   2   2.0000     -20.553640      -559.2930
   3   2.0000     -20.537015      -558.8406
   4   2.0000     -11.377856      -309.6072
   5   2.0000     -11.305787      -307.6461
   6   2.0000     -11.288518      -307.1762
   7   2.0000     -11.285704      -307.0996
   8   2.0000     -11.268557      -306.6330
   9   2.0000     -11.267891      -306.6149
  10   2.0000     -11.260525      -306.4145
  11   2.0000     -11.256764      -306.3121
  12   2.0000     -11.255002      -306.2642
  13   2.0000     -11.246486      -306.0324
  14   2.0000     -11.238782      -305.8228
  15   2.0000     -11.235683      -305.7385
  16   2.0000     -11.235466      -305.7326
  17   2.0000     -11.229102      -305.5594
  18   2.0000     -11.225772      -305.4688
  19   2.0000     -11.221430      -305.3506
  20   2.0000      -1.455719       -39.6121
  21   2.0000      -1.378216       -37.5032
  22   2.0000      -1.373767       -37.3821
  23   2.0000      -1.361840       -37.0576
  24   2.0000      -1.149473       -31.2788
  25   2.0000      -1.106362       -30.1056
  26   2.0000      -1.087648       -29.5964
  27   2.0000      -1.047997       -28.5174
  28   2.0000      -1.014220       -27.5983
  29   2.0000      -0.979342       -26.6493
  30   2.0000      -0.960310       -26.1314
  31   2.0000      -0.934346       -25.4248
  32   2.0000      -0.919005       -25.0074
  33   2.0000      -0.913699       -24.8630
  34   2.0000      -0.868787       -23.6409
  35   2.0000      -0.838447       -22.8153
  36   2.0000      -0.809027       -22.0148
  37   2.0000      -0.792404       -21.5624
  38   2.0000      -0.743332       -20.2271
  39   2.0000      -0.731265       -19.8987
  40   2.0000      -0.691221       -18.8091
  41   2.0000      -0.690391       -18.7865
  42   2.0000      -0.679252       -18.4834
  43   2.0000      -0.672900       -18.3105
  44   2.0000      -0.660036       -17.9605
  45   2.0000      -0.651487       -17.7279
  46   2.0000      -0.645921       -17.5764
  47   2.0000      -0.639043       -17.3892
  48   2.0000      -0.622940       -16.9511
  49   2.0000      -0.618494       -16.8301
  50   2.0000      -0.615316       -16.7436
  51   2.0000      -0.599351       -16.3092
  52   2.0000      -0.593399       -16.1472
  53   2.0000      -0.588317       -16.0089
  54   2.0000      -0.581245       -15.8165
  55   2.0000      -0.573510       -15.6060
  56   2.0000      -0.565183       -15.3794
  57   2.0000      -0.558292       -15.1919
  58   2.0000      -0.544376       -14.8132
  59   2.0000      -0.539895       -14.6913
  60   2.0000      -0.534852       -14.5541
  61   2.0000      -0.529673       -14.4131
  62   2.0000      -0.523013       -14.2319
  63   2.0000      -0.511815       -13.9272
  64   2.0000      -0.504427       -13.7262
  65   2.0000      -0.502938       -13.6856
  66   2.0000      -0.485179       -13.2024
  67   2.0000      -0.471187       -12.8217
  68   2.0000      -0.463782       -12.6201
  69   2.0000      -0.456943       -12.4341
  70   2.0000      -0.450732       -12.2650
  71   2.0000      -0.436794       -11.8858
  72   2.0000      -0.427743       -11.6395
  73   2.0000      -0.417034       -11.3481
  74   2.0000      -0.316018        -8.5993
  75   2.0000      -0.309394        -8.4190
  76   0.0000       0.018558         0.5050
  77   0.0000       0.023649         0.6435
  78   0.0000       0.025741         0.7004
  79   0.0000       0.028181         0.7669
  80   0.0000       0.034708         0.9445

MULLIKEN ATOMIC CHARGES
-----------------------
   0 C :    1.403384
   1 C :    0.453512
   2 C :    0.572635
   3 C :   -0.922671
   4 H :    0.162167
   5 C :    1.640453
   6 H :    0.151551
   7 H :    0.234382
   8 C :   -0.847489
   9 H :    0.171814
  10 C :    0.550168
  11 C :   -0.850573
  12 C :   -0.536848
  13 C :   -0.241646
  14 C :   -1.200249
  15 H :    0.233843
  16 H :    0.121068
  17 H :    0.273773
  18 H :    0.340462
  19 H :    0.185197
  20 C :   -0.196366
  21 H :    0.405945
  22 H :    0.112977
  23 C :    1.846801
  24 O :   -1.264517
  25 O :   -1.181796
  26 O :   -1.145275
  27 O :   -1.163806
  28 C :   -0.796116
  29 H :    0.257534
  30 H :    0.417717
  31 H :    0.157995
  32 C :   -0.794620
  33 H :    0.224109
  34 H :    0.235722
  35 H :    0.418744
  36 C :   -1.162560
  37 H :    0.249746
  38 H :    0.262687
  39 H :    0.212981
  40 H :    0.365461
  41 H :    0.308289
  42 H :    0.275976
  43 H :    0.057438
Sum of atomic charges:   -0.0000000

LOEWDIN ATOMIC CHARGES
----------------------
   0 C :   -0.207808
   1 C :    0.267885
   2 C :    0.323626
   3 C :    0.501704
   4 H :   -0.324491
   5 C :   -0.210147
   6 H :   -0.260263
   7 H :   -0.286822
   8 C :    0.520426
   9 H :   -0.292715
  10 C :   -0.020988
  11 C :    0.381855
  12 C :   -0.159955
  13 C :    0.253875
  14 C :    0.926957
  15 H :   -0.295526
  16 H :   -0.276419
  17 H :   -0.282025
  18 H :   -0.312760
  19 H :   -0.256950
  20 C :    0.216871
  21 H :   -0.287694
  22 H :   -0.306054
  23 C :   -1.065904
  24 O :    0.917427
  25 O :    0.919751
  26 O :    0.710375
  27 O :    0.872970
  28 C :    0.578696
  29 H :   -0.309289
  30 H :   -0.314663
  31 H :   -0.310701
  32 C :    0.588557
  33 H :   -0.299461
  34 H :   -0.313009
  35 H :   -0.318031
  36 C :    0.912167
  37 H :   -0.249197
  38 H :   -0.288830
  39 H :   -0.299809
  40 H :   -0.393507
  41 H :   -0.298117
  42 H :   -0.346927
  43 H :   -0.305079

  Mayer bond orders larger than 0.100000
B(  0-C ,  1-C ) :   1.0001 B(  0-C ,  3-C ) :   1.1359 B(  0-C ,  4-H ) :   0.8251
B(  0-C , 24-O ) :  -0.9156 B(  0-C , 28-C ) :  -0.2124 B(  1-C ,  2-C ) :   0.1787
B(  1-C ,  3-C ) :  -0.1299 B(  1-C ,  4-H ) :   0.1698 B(  1-C , 10-C ) :   0.7118
B(  1-C , 11-C ) :  -0.7616 B(  1-C , 12-C ) :   0.1419 B(  1-C , 24-O ) :   0.6878
B(  1-C , 40-H ) :   1.0281 B(  1-C , 42-H ) :  -0.1135 B(  2-C ,  8-C ) :   0.4380
B(  2-C , 11-C ) :   0.1330 B(  2-C , 12-C ) :   0.6280 B(  2-C , 23-C ) :  -0.1260
B(  2-C , 26-O ) :   0.1692 B(  2-C , 36-C ) :  -0.1701 B(  2-C , 41-H ) :   1.0251
B(  3-C ,  5-C ) :   0.8910 B(  3-C ,  6-H ) :   1.0787 B(  3-C ,  7-H ) :   0.9436
B(  3-C ,  8-C ) :   0.1275 B(  3-C , 24-O ) :   0.2629 B(  3-C , 25-O ) :   0.3324
B(  5-C ,  8-C ) :   1.0553 B(  5-C ,  9-H ) :   1.0502 B(  5-C , 25-O ) :  -0.7428
B(  5-C , 32-C ) :  -0.5743 B(  5-C , 34-H ) :  -0.1539 B(  8-C , 12-C ) :   0.1920
B(  8-C , 18-H ) :   0.8417 B(  8-C , 19-H ) :   1.0297 B(  8-C , 25-O ) :   0.4466
B(  8-C , 32-C ) :   0.1137 B( 10-C , 11-C ) :   1.0680 B( 10-C , 13-C ) :  -0.5520
B( 10-C , 14-C ) :   0.1535 B( 10-C , 15-H ) :  -0.1366 B( 10-C , 16-H ) :  -0.2203
B( 10-C , 17-H ) :  -0.2028 B( 11-C , 13-C ) :   1.5468 B( 11-C , 22-H ) :   0.1327
B( 11-C , 40-H ) :  -0.1219 B( 11-C , 43-H ) :   1.3020 B( 12-C , 20-C ) :  -0.1777
B( 12-C , 23-C ) :   1.4329 B( 12-C , 26-O ) :   0.8493 B( 12-C , 27-O ) :  -0.1726
B( 12-C , 36-C ) :   0.5024 B( 12-C , 37-H ) :  -0.1817 B( 12-C , 38-H ) :  -0.1371
B( 12-C , 39-H ) :  -0.1674 B( 12-C , 41-H ) :  -0.1481 B( 13-C , 20-C ) :   0.4424
B( 13-C , 21-H ) :  -0.2157 B( 13-C , 22-H ) :  -0.2315 B( 13-C , 40-H ) :  -0.1624
B( 13-C , 42-H ) :   1.0736 B( 14-C , 15-H ) :   1.1204 B( 14-C , 16-H ) :   1.2213
B( 14-C , 17-H ) :   1.1066 B( 20-C , 21-H ) :   0.9664 B( 20-C , 22-H ) :   1.2094
B( 20-C , 27-O ) :   0.5114 B( 20-C , 42-H ) :  -0.1801 B( 23-C , 27-O ) :   0.7504
B( 24-O , 28-C ) :   1.0446 B( 25-O , 32-C ) :   1.1441 B( 26-O , 27-O ) :   0.1561
B( 27-O , 42-H ) :   0.1554 B( 28-C , 29-H ) :   0.9810 B( 28-C , 30-H ) :   0.8644
B( 28-C , 31-H ) :   1.0195 B( 32-C , 33-H ) :   0.9600 B( 32-C , 34-H ) :   0.9569
B( 32-C , 35-H ) :   0.8905 B( 36-C , 37-H ) :   1.0882 B( 36-C , 38-H ) :   0.9979
B( 36-C , 39-H ) :   1.1520

MP2 TOTAL ENERGY:     -923.463093100 Eh
FINAL SINGLE POINT ENERGY      -923.463093099675

DIPOLE MOMENT
-------------
                                X             Y             Z
Electronic contribution:     -9.43336       5.46469      -4.20181
Nuclear contribution   :      9.46415      -6.75777       4.75454
                        -----------------------------------------
Total Dipole Moment    :      0.03079      -1.29309       0.55273
                        -----------------------------------------
Magnitude (a.u.)       :      1.40660
Magnitude (Debye)      :      3.57530

Rotational constants in cm-1:     0.013289     0.010136     0.006588
Rotational constants in MHz :   398.386664   303.857354   197.512371

                             ****ORCA TERMINATED NORMALLY****
TOTAL RUN TIME: 0 days 12 hours 58 minutes 8 seconds 319 msec
