                         Program Version 4.2.1 -  RELEASE  -
|  1> %pal
|  2>  nprocs 32
|  3> end
|  4> !RI-MP2 aug-cc-pVQZ aug-cc-pVQZ/C TightSCF
|  5> %maxcore 4500
|  6> *xyzfile 0 1  06_12TS.xyz
|  7>
|  8>
|  9>                          ****END OF INPUT****

CARTESIAN COORDINATES (ANGSTROEM)
---------------------------------
  C     -0.569558   -0.961519    0.916453
  H      0.195540   -1.499377    1.489716
  B      0.032560   -0.063096   -0.236416
  C     -1.326339   -0.058512    1.908381
  H     -0.580697    0.549949    2.432772
  H     -1.817390   -0.667349    2.676227
  C     -1.445843   -2.025285    0.213301
  H     -0.774873   -2.700462   -0.330927
  C      1.537713    3.462684   -0.063551
  H      1.624710    3.705414    0.989806
  H      1.446426    4.288715   -0.756398
  C      1.541231    2.204636   -0.493626
  C      1.683992    1.035997    0.378368
  H      1.451010    2.004329   -1.555358
  H     -1.960818   -2.643093    0.957879
  H      2.024649    1.226122    1.390766
  C      1.977113   -0.224356   -0.127393
  O      1.171341   -0.679548   -1.050102
  O      2.831962   -1.036401    0.455054
  C      2.786306   -2.429034    0.098079
  H      1.785854   -2.828359    0.254856
  H      3.076717   -2.560454   -0.942749
  H      3.501086   -2.913992    0.756507
  C     -2.475532   -1.465695   -0.781617
  H     -2.845728   -2.287226   -1.402493
  H     -3.346364   -1.096597   -0.240951
  C     -1.091532    0.733077   -0.993187
  H     -0.704726    1.390320   -1.775719
  C     -1.930875   -0.360610   -1.699851
  H     -1.297440   -0.821568   -2.466229
  H     -2.765814    0.104581   -2.235712
  C     -1.876017    1.601857    0.007688
  H     -2.735151    2.064407   -0.491544
  H     -1.220031    2.425042    0.306837
  C     -2.363369    0.878844    1.273138
  H     -2.656414    1.629553    2.013467
  H     -3.273506    0.320613    1.054623

 Total Charge           Charge          ....    0
 Multiplicity           Mult            ....    1
 Number of Electrons    NEL             ....  120
 Basis Dimension        Dim             .... 2246

ORBITAL ENERGIES
----------------

  NO   OCC          E(Eh)            E(eV)
   0   2.0000     -20.626991      -561.2890
   1   2.0000     -20.584901      -560.1436
   2   2.0000     -11.405360      -310.3556
   3   2.0000     -11.302693      -307.5619
   4   2.0000     -11.241788      -305.9046
   5   2.0000     -11.229710      -305.5759
   6   2.0000     -11.209975      -305.0389
   7   2.0000     -11.209278      -305.0200
   8   2.0000     -11.206567      -304.9462
   9   2.0000     -11.205146      -304.9075
  10   2.0000     -11.204238      -304.8828
  11   2.0000     -11.201082      -304.7969
  12   2.0000     -11.199862      -304.7637
  13   2.0000     -11.186117      -304.3897
  14   2.0000     -11.182114      -304.2808
  15   2.0000      -7.606901      -206.9943
  16   2.0000      -1.494890       -40.6780
  17   2.0000      -1.400976       -38.1225
  18   2.0000      -1.104852       -30.0646
  19   2.0000      -1.092989       -29.7417
  20   2.0000      -1.030687       -28.0464
  21   2.0000      -1.022268       -27.8173
  22   2.0000      -1.016022       -27.6474
  23   2.0000      -0.955506       -26.0006
  24   2.0000      -0.922452       -25.1012
  25   2.0000      -0.903418       -24.5833
  26   2.0000      -0.821803       -22.3624
  27   2.0000      -0.786905       -21.4128
  28   2.0000      -0.781580       -21.2679
  29   2.0000      -0.769611       -20.9422
  30   2.0000      -0.742025       -20.1915
  31   2.0000      -0.735248       -20.0071
  32   2.0000      -0.703663       -19.1476
  33   2.0000      -0.701043       -19.0764
  34   2.0000      -0.662597       -18.0302
  35   2.0000      -0.636321       -17.3152
  36   2.0000      -0.621920       -16.9233
  37   2.0000      -0.621570       -16.9138
  38   2.0000      -0.605553       -16.4779
  39   2.0000      -0.584841       -15.9143
  40   2.0000      -0.575799       -15.6683
  41   2.0000      -0.571315       -15.5463
  42   2.0000      -0.566282       -15.4093
  43   2.0000      -0.553868       -15.0715
  44   2.0000      -0.541926       -14.7465
  45   2.0000      -0.536902       -14.6098
  46   2.0000      -0.529355       -14.4045
  47   2.0000      -0.514183       -13.9916
  48   2.0000      -0.501838       -13.6557
  49   2.0000      -0.494972       -13.4689
  50   2.0000      -0.490260       -13.3406
  51   2.0000      -0.472196       -12.8491
  52   2.0000      -0.462278       -12.5792
  53   2.0000      -0.455854       -12.4044
  54   2.0000      -0.447302       -12.1717
  55   2.0000      -0.433726       -11.8023
  56   2.0000      -0.411032       -11.1847
  57   2.0000      -0.404292       -11.0014
  58   2.0000      -0.371953       -10.1214
  59   2.0000      -0.305912        -8.3243
  60   0.0000       0.019468         0.5298
  61   0.0000       0.026703         0.7266
  62   0.0000       0.027963         0.7609
  63   0.0000       0.029291         0.7971
  64   0.0000       0.038354         1.0437

MULLIKEN ATOMIC CHARGES
-----------------------
   0 C :    0.141389
   1 H :    0.527160
   2 B :    2.213104
   3 C :   -0.656293
   4 H :    0.087380
   5 H :    0.076225
   6 C :   -0.746048
   7 H :    0.146613
   8 C :   -0.939959
   9 H :    0.284271
  10 H :    0.255213
  11 C :   -0.345868
  12 C :   -0.609576
  13 H :    0.333869
  14 H :    0.136200
  15 H :    0.190733
  16 C :    1.966385
  17 O :   -1.544724
  18 O :   -0.999993
  19 C :   -0.838479
  20 H :    0.329469
  21 H :    0.320372
  22 H :    0.456546
  23 C :   -0.594750
  24 H :    0.177309
  25 H :    0.161352
  26 C :    0.168293
  27 H :    0.394493
  28 C :   -0.736262
  29 H :    0.122695
  30 H :    0.115497
  31 C :   -0.743741
  32 H :    0.095866
  33 H :    0.206751
  34 C :   -0.473075
  35 H :    0.155984
  36 H :    0.165599
Sum of atomic charges:   -0.0000000

LOEWDIN ATOMIC CHARGES
----------------------
   0 C :    0.287311
   1 H :   -0.285786
   2 B :   -1.293267
   3 C :    0.572311
   4 H :   -0.259283
   5 H :   -0.246728
   6 C :    0.573741
   7 H :   -0.262512
   8 C :    0.807557
   9 H :   -0.344747
  10 H :   -0.348591
  11 C :    0.319481
  12 C :    0.317071
  13 H :   -0.328080
  14 H :   -0.244621
  15 H :   -0.297286
  16 C :   -0.867415
  17 O :    1.052044
  18 O :    0.938651
  19 C :    0.645213
  20 H :   -0.320777
  21 H :   -0.290481
  22 H :   -0.306448
  23 C :    0.580629
  24 H :   -0.252113
  25 H :   -0.305489
  26 C :    0.304635
  27 H :   -0.291025
  28 C :    0.579016
  29 H :   -0.253047
  30 H :   -0.245866
  31 C :    0.570182
  32 H :   -0.243949
  33 H :   -0.282072
  34 C :    0.579360
  35 H :   -0.252288
  36 H :   -0.305330

  Mayer bond orders larger than 0.100000
B(  0-C ,  1-H ) :   0.7287 B(  0-C ,  2-B ) :   0.7014 B(  0-C ,  3-C ) :   0.4269
B(  0-C ,  4-H ) :  -0.1885 B(  0-C ,  5-H ) :  -0.1510 B(  0-C ,  6-C ) :   0.5812
B(  0-C ,  7-H ) :  -0.1145 B(  0-C , 17-O ) :  -0.3205 B(  0-C , 26-C ) :   0.1247
B(  0-C , 34-C ) :  -0.1055 B(  1-H ,  2-B ) :   0.1313 B(  1-H ,  3-C ) :  -0.1060
B(  2-B ,  3-C ) :  -0.1618 B(  2-B ,  6-C ) :  -0.1488 B(  2-B , 11-C ) :  -0.2684
B(  2-B , 12-C ) :  -0.1236 B(  2-B , 17-O ) :   0.1793 B(  2-B , 18-O ) :   0.1491
B(  2-B , 23-C ) :  -0.1511 B(  2-B , 26-C ) :   0.7044 B(  2-B , 28-C ) :  -0.2174
B(  2-B , 31-C ) :  -0.2357 B(  3-C ,  4-H ) :   1.2954 B(  3-C ,  5-H ) :   1.2217
B(  3-C , 34-C ) :   0.8296 B(  6-C ,  7-H ) :   1.2278 B(  6-C , 14-H ) :   1.1204
B(  6-C , 23-C ) :   0.8593 B(  8-C ,  9-H ) :   1.0098 B(  8-C , 10-H ) :   1.1280
B(  8-C , 11-C ) :   1.4587 B(  8-C , 12-C ) :  -0.1930 B( 10-H , 11-C ) :  -0.1817
B( 11-C , 12-C ) :   1.1343 B( 11-C , 13-H ) :   0.9555 B( 11-C , 16-C ) :  -0.2050
B( 12-C , 15-H ) :   1.0498 B( 12-C , 16-C ) :   1.2900 B( 12-C , 18-O ) :   0.2049
B( 16-C , 17-O ) :   1.0055 B( 16-C , 19-C ) :  -0.2526 B( 17-O , 26-C ) :  -0.1428
B( 18-O , 19-C ) :   0.9911 B( 19-C , 20-H ) :   0.9085 B( 19-C , 21-H ) :   0.9225
B( 19-C , 22-H ) :   0.8365 B( 23-C , 24-H ) :   1.0458 B( 23-C , 25-H ) :   1.1562
B( 23-C , 26-C ) :  -0.1040 B( 23-C , 28-C ) :   0.8655 B( 26-C , 27-H ) :   0.8234
B( 26-C , 28-C ) :   0.5030 B( 26-C , 29-H ) :  -0.1499 B( 26-C , 30-H ) :  -0.1216
B( 26-C , 31-C ) :   0.6130 B( 26-C , 33-H ) :  -0.1597 B( 26-C , 34-C ) :  -0.1585
B( 27-H , 28-C ) :  -0.1270 B( 28-C , 29-H ) :   1.2612 B( 28-C , 30-H ) :   1.1658
B( 31-C , 32-H ) :   1.1870 B( 31-C , 33-H ) :   1.1240 B( 31-C , 34-C ) :   0.8095
B( 34-C , 35-H ) :   1.0807 B( 34-C , 36-H ) :   1.1573

MP2 TOTAL ENERGY:     -682.123534091 Eh
FINAL SINGLE POINT ENERGY      -682.123534091307

DIPOLE MOMENT
-------------
                                X             Y             Z
Electronic contribution:     11.64825      -0.43729      -2.23106
Nuclear contribution   :    -11.09453      -0.29245       2.36151
                        -----------------------------------------
Total Dipole Moment    :      0.55372      -0.72974       0.13045
                        -----------------------------------------
Magnitude (a.u.)       :      0.92528
Magnitude (Debye)      :      2.35188

Rotational constants in cm-1:     0.022580     0.017309     0.012769
Rotational constants in MHz :   676.939908   518.899965   382.808155

                             ****ORCA TERMINATED NORMALLY****
TOTAL RUN TIME: 0 days 6 hours 37 minutes 40 seconds 11 msec
