                         Program Version 4.2.1 -  RELEASE  -
|  1> %pal
|  2>  nprocs 32
|  3> end
|  4> !RI-MP2 aug-cc-pVQZ aug-cc-pVQZ/C TightSCF
|  5> %maxcore 4500
|  6> *xyzfile -1 1  08_11P2.xyz
|  7>
|  8>
|  9>                          ****END OF INPUT****

CARTESIAN COORDINATES (ANGSTROEM)
---------------------------------
  O      2.141791    0.612321   -0.939810
  P      1.964502   -0.577876   -0.017879
  O      2.831974   -1.773916   -0.018348
  O      1.883446    0.032779    1.508659
  O      0.399689   -1.097711   -0.254679
  C     -0.540532   -0.199192   -0.809021
  C     -1.047543    0.844494    0.217070
  O     -2.474284    0.759685    0.200882
  C     -2.821131   -0.583598   -0.133091
  C     -1.809483   -0.955648   -1.216062
  H     -2.161651   -0.603396   -2.187725
  H     -1.605309   -2.023939   -1.280649
  H     -0.082421    0.301408   -1.663913
  H      1.638276    0.967629    1.468782
  C     -0.642013    2.281241   -0.072337
  H     -0.669663    0.562203    1.204885
  O      0.718863    2.523614    0.201231
  H     -1.228830    2.943614    0.568537
  H     -0.890859    2.521103   -1.115936
  H      1.285690    1.939905   -0.372492
  C     -2.755434   -1.497042    1.083752
  H     -3.845338   -0.544162   -0.512618
  H     -3.122444   -2.494142    0.825537
  H     -3.371927   -1.096057    1.891313
  H     -1.728062   -1.601731    1.437113

 Total Charge           Charge          ....   -1
 Multiplicity           Mult            ....    1
 Number of Electrons    NEL             ....  112
 Basis Dimension        Dim             .... 1596

ORBITAL ENERGIES
----------------

  NO   OCC          E(Eh)            E(eV)
   0   2.0000     -79.895581     -2174.0693
   1   2.0000     -20.446003      -556.3640
   2   2.0000     -20.415764      -555.5412
   3   2.0000     -20.413858      -555.4893
   4   2.0000     -20.412465      -555.4514
   5   2.0000     -20.337976      -553.4245
   6   2.0000     -20.323349      -553.0264
   7   2.0000     -11.177471      -304.1544
   8   2.0000     -11.160288      -303.6869
   9   2.0000     -11.155651      -303.5607
  10   2.0000     -11.154756      -303.5363
  11   2.0000     -11.115660      -302.4725
  12   2.0000     -11.114019      -302.4278
  13   2.0000      -7.411865      -201.6871
  14   2.0000      -5.311127      -144.5231
  15   2.0000      -5.310541      -144.5072
  16   2.0000      -5.308985      -144.4648
  17   2.0000      -1.278597       -34.7924
  18   2.0000      -1.253435       -34.1077
  19   2.0000      -1.222876       -33.2762
  20   2.0000      -1.201084       -32.6832
  21   2.0000      -1.129775       -30.7427
  22   2.0000      -1.097708       -29.8701
  23   2.0000      -0.953060       -25.9341
  24   2.0000      -0.918864       -25.0036
  25   2.0000      -0.852329       -23.1930
  26   2.0000      -0.769407       -20.9366
  27   2.0000      -0.688101       -18.7242
  28   2.0000      -0.680859       -18.5271
  29   2.0000      -0.626496       -17.0478
  30   2.0000      -0.596374       -16.2282
  31   2.0000      -0.570302       -15.5187
  32   2.0000      -0.556396       -15.1403
  33   2.0000      -0.524697       -14.2777
  34   2.0000      -0.514761       -14.0074
  35   2.0000      -0.493767       -13.4361
  36   2.0000      -0.481908       -13.1134
  37   2.0000      -0.474548       -12.9131
  38   2.0000      -0.471370       -12.8266
  39   2.0000      -0.449427       -12.2295
  40   2.0000      -0.437547       -11.9063
  41   2.0000      -0.431632       -11.7453
  42   2.0000      -0.425870       -11.5885
  43   2.0000      -0.400618       -10.9014
  44   2.0000      -0.396372       -10.7858
  45   2.0000      -0.384147       -10.4532
  46   2.0000      -0.371974       -10.1219
  47   2.0000      -0.360984        -9.8229
  48   2.0000      -0.333958        -9.0875
  49   2.0000      -0.332073        -9.0362
  50   2.0000      -0.316097        -8.6014
  51   2.0000      -0.306922        -8.3518
  52   2.0000      -0.302495        -8.2313
  53   2.0000      -0.296826        -8.0771
  54   2.0000      -0.279090        -7.5944
  55   2.0000      -0.270721        -7.3667
  56   0.0000       0.087169         2.3720
  57   0.0000       0.097931         2.6649
  58   0.0000       0.100058         2.7227
  59   0.0000       0.108596         2.9551
  60   0.0000       0.114123         3.1054

MULLIKEN ATOMIC CHARGES
-----------------------
   0 O :   -1.289491
   1 P :    2.595044
   2 O :   -1.414821
   3 O :   -1.068959
   4 O :   -1.170713
   5 C :    0.774803
   6 C :    0.971056
   7 O :   -1.264254
   8 C :    0.302140
   9 C :   -0.874353
  10 H :    0.253409
  11 H :    0.282848
  12 H :    0.359395
  13 H :    0.415914
  14 C :   -0.126977
  15 H :    0.298280
  16 O :   -1.126179
  17 H :    0.317290
  18 H :    0.145471
  19 H :    0.502932
  20 C :   -1.097432
  21 H :    0.441851
  22 H :    0.245441
  23 H :    0.285601
  24 H :    0.241705
Sum of atomic charges:   -1.0000000

LOEWDIN ATOMIC CHARGES
----------------------
   0 O :    0.472094
   1 P :   -1.170736
   2 O :    0.182687
   3 O :    1.073695
   4 O :    0.699031
   5 C :   -0.339623
   6 C :   -0.263543
   7 O :    0.919049
   8 C :   -0.227690
   9 C :    0.506595
  10 H :   -0.264531
  11 H :   -0.280366
  12 H :   -0.366720
  13 H :   -1.023651
  14 C :    0.171789
  15 H :   -0.345192
  16 O :    1.277123
  17 H :   -0.319872
  18 H :   -0.293606
  19 H :   -1.169873
  20 C :    0.920149
  21 H :   -0.301733
  22 H :   -0.278840
  23 H :   -0.278862
  24 H :   -0.297373

  Mayer bond orders larger than 0.100000
B(  0-O ,  1-P ) :   1.1755 B(  0-O ,  5-C ) :  -0.1022 B(  1-P ,  2-O ) :   0.9820
B(  1-P ,  3-O ) :   0.6126 B(  1-P ,  4-O ) :   0.7055 B(  2-O ,  4-O ) :  -0.1906
B(  3-O , 13-H ) :   0.8462 B(  4-O ,  5-C ) :   0.2129 B(  4-O ,  9-C ) :   0.1129
B(  5-C ,  6-C ) :   0.9715 B(  5-C ,  7-O ) :   0.1291 B(  5-C ,  9-C ) :   0.4626
B(  5-C , 12-H ) :   0.9034 B(  6-C ,  7-O ) :   0.1556 B(  6-C ,  9-C ) :  -0.1298
B(  6-C , 14-C ) :   0.3878 B(  6-C , 15-H ) :   0.9845 B(  6-C , 16-O ) :  -0.1085
B(  6-C , 17-H ) :  -0.1028 B(  6-C , 18-H ) :  -0.1835 B(  7-O ,  8-C ) :   0.6027
B(  7-O ,  9-C ) :   0.1770 B(  8-C ,  9-C ) :   1.0675 B(  8-C , 20-C ) :   0.7837
B(  8-C , 21-H ) :   0.7589 B(  9-C , 10-H ) :   1.0208 B(  9-C , 11-H ) :   0.9902
B( 14-C , 16-O ) :   0.6744 B( 14-C , 17-H ) :   0.9733 B( 14-C , 18-H ) :   1.1544
B( 16-O , 19-H ) :   0.6071 B( 20-C , 22-H ) :   0.9995 B( 20-C , 23-H ) :   0.9850
B( 20-C , 24-H ) :   0.9393

MP2 TOTAL ENERGY:    -1027.454190475 Eh
FINAL SINGLE POINT ENERGY     -1027.454190475275

DIPOLE MOMENT
-------------
                                X             Y             Z
Electronic contribution:     13.66930      -0.91179      -0.46634
Nuclear contribution   :    -17.34511       1.42129       0.28719
                        -----------------------------------------
Total Dipole Moment    :     -3.67580       0.50950      -0.17914
                        -----------------------------------------
Magnitude (a.u.)       :      3.71527
Magnitude (Debye)      :      9.44346

Rotational constants in cm-1:     0.036675     0.018683     0.014885
Rotational constants in MHz :  1099.500668   560.100474   446.233677

                             ****ORCA TERMINATED NORMALLY****
TOTAL RUN TIME: 0 days 1 hours 55 minutes 34 seconds 612 msec
