                         Program Version 4.2.1 -  RELEASE  -
|  1> %pal
|  2>  nprocs 32
|  3> end
|  4> !RI-MP2 aug-cc-pVQZ aug-cc-pVQZ/C TightSCF
|  5> %maxcore 4500
|  6> *xyzfile 0 2  01_36P.xyz
|  7>
|  8>
|  9>                          ****END OF INPUT****

CARTESIAN COORDINATES (ANGSTROEM)
---------------------------------
  C      0.906243    0.057226   -0.171446
  C      1.392244   -0.786800   -1.365421
  C      2.934893   -0.659482   -1.365427
  H      0.943316   -0.462662   -2.306496
  H      1.094690   -1.825036   -1.206782
  C      3.294027    0.112872   -0.082823
  H      3.299740   -0.144603   -2.255595
  H      3.394247   -1.649227   -1.364750
  C      2.076857   -0.038486    0.836049
  H      3.441235    1.174877   -0.306060
  H      4.211375   -0.244931    0.386930
  C      2.002027    0.937753    1.947770
  H      1.439385    0.714200    2.844484
  H      2.421508    1.931589    1.837612
  C     -0.397525   -0.463854    0.406045
  O     -0.394403   -1.397423    1.195804
  N     -1.560380    0.117325    0.003323
  C     -1.676277    2.573408   -0.380309
  C     -1.660025    1.177566   -0.991417
  H     -0.746869    2.773378    0.156236
  H     -2.499862    2.678964    0.328609
  H     -1.797570    3.332804   -1.156259
  H     -0.848194    1.082973   -1.711148
  H     -2.579650    1.006889   -1.556776
  C     -3.373391   -1.560833   -0.225931
  C     -2.809804   -0.388007    0.565111
  H     -4.318445   -1.896422    0.207023
  H     -2.671243   -2.394804   -0.205809
  H     -3.558694   -1.286057   -1.267418
  H     -2.615136   -0.691625    1.592355
  H     -3.521908    0.440426    0.588470
  H      0.814849    1.102987   -0.470236
  H      2.039496   -1.053784    1.242715

 Total Charge           Charge          ....    0
 Multiplicity           Mult            ....    2
 Number of Electrons    NEL             ....  101
 Basis Dimension        Dim             .... 1960

ORBITAL ENERGIES
----------------
                 SPIN UP ORBITALS
  NO   OCC          E(Eh)            E(eV)
   0   1.0000     -20.499199      -557.8116
   1   1.0000     -15.574244      -423.7967
   2   1.0000     -11.332534      -308.3739
   3   1.0000     -11.270421      -306.6837
   4   1.0000     -11.253006      -306.2099
   5   1.0000     -11.231829      -305.6336
   6   1.0000     -11.224947      -305.4463
   7   1.0000     -11.223498      -305.4069
   8   1.0000     -11.222387      -305.3767
   9   1.0000     -11.219120      -305.2878
  10   1.0000     -11.217698      -305.2491
  11   1.0000     -11.215024      -305.1763
  12   1.0000     -11.210257      -305.0466
  13   1.0000      -1.370728       -37.2994
  14   1.0000      -1.241545       -33.7842
  15   1.0000      -1.137530       -30.9538
  16   1.0000      -1.041115       -28.3302
  17   1.0000      -1.014877       -27.6162
  18   1.0000      -1.011421       -27.5222
  19   1.0000      -0.975868       -26.5547
  20   1.0000      -0.897958       -24.4347
  21   1.0000      -0.874384       -23.7932
  22   1.0000      -0.862787       -23.4776
  23   1.0000      -0.790498       -21.5105
  24   1.0000      -0.770007       -20.9529
  25   1.0000      -0.720583       -19.6081
  26   1.0000      -0.703397       -19.1404
  27   1.0000      -0.666874       -18.1466
  28   1.0000      -0.636988       -17.3333
  29   1.0000      -0.631075       -17.1724
  30   1.0000      -0.608497       -16.5580
  31   1.0000      -0.603096       -16.4111
  32   1.0000      -0.601714       -16.3735
  33   1.0000      -0.592619       -16.1260
  34   1.0000      -0.573088       -15.5945
  35   1.0000      -0.555670       -15.1206
  36   1.0000      -0.550427       -14.9779
  37   1.0000      -0.533711       -14.5230
  38   1.0000      -0.528337       -14.3768
  39   1.0000      -0.518294       -14.1035
  40   1.0000      -0.506123       -13.7723
  41   1.0000      -0.495435       -13.4815
  42   1.0000      -0.491014       -13.3612
  43   1.0000      -0.484234       -13.1767
  44   1.0000      -0.480083       -13.0637
  45   1.0000      -0.472244       -12.8504
  46   1.0000      -0.460088       -12.5196
  47   1.0000      -0.453493       -12.3402
  48   1.0000      -0.406319       -11.0565
  49   1.0000      -0.365216        -9.9380
  50   1.0000      -0.341585        -9.2950
  51   0.0000       0.020220         0.5502
  52   0.0000       0.026856         0.7308
  53   0.0000       0.028239         0.7684
  54   0.0000       0.030763         0.8371
  55   0.0000       0.039056         1.0628

                 SPIN DOWN ORBITALS
  NO   OCC          E(Eh)            E(eV)
   0   1.0000     -20.499242      -557.8127
   1   1.0000     -15.574219      -423.7960
   2   1.0000     -11.332672      -308.3777
   3   1.0000     -11.270420      -306.6837
   4   1.0000     -11.253007      -306.2099
   5   1.0000     -11.229098      -305.5593
   6   1.0000     -11.224932      -305.4459
   7   1.0000     -11.223439      -305.4053
   8   1.0000     -11.222369      -305.3762
   9   1.0000     -11.217721      -305.2497
  10   1.0000     -11.214340      -305.1577
  11   1.0000     -11.210257      -305.0466
  12   1.0000     -11.199033      -304.7412
  13   1.0000      -1.370724       -37.2993
  14   1.0000      -1.241519       -33.7835
  15   1.0000      -1.131965       -30.8023
  16   1.0000      -1.041027       -28.3278
  17   1.0000      -1.011552       -27.5257
  18   1.0000      -0.989703       -26.9312
  19   1.0000      -0.973647       -26.4943
  20   1.0000      -0.877482       -23.8775
  21   1.0000      -0.872322       -23.7371
  22   1.0000      -0.839573       -22.8459
  23   1.0000      -0.787256       -21.4223
  24   1.0000      -0.758682       -20.6448
  25   1.0000      -0.718311       -19.5462
  26   1.0000      -0.702104       -19.1052
  27   1.0000      -0.665892       -18.1198
  28   1.0000      -0.634054       -17.2535
  29   1.0000      -0.629264       -17.1232
  30   1.0000      -0.607591       -16.5334
  31   1.0000      -0.602717       -16.4008
  32   1.0000      -0.595823       -16.2132
  33   1.0000      -0.591215       -16.0878
  34   1.0000      -0.571371       -15.5478
  35   1.0000      -0.550861       -14.9897
  36   1.0000      -0.546400       -14.8683
  37   1.0000      -0.532559       -14.4917
  38   1.0000      -0.527762       -14.3611
  39   1.0000      -0.516875       -14.0649
  40   1.0000      -0.504439       -13.7265
  41   1.0000      -0.493446       -13.4274
  42   1.0000      -0.486455       -13.2371
  43   1.0000      -0.478697       -13.0260
  44   1.0000      -0.472441       -12.8558
  45   1.0000      -0.460402       -12.5282
  46   1.0000      -0.457885       -12.4597
  47   1.0000      -0.451832       -12.2950
  48   1.0000      -0.405493       -11.0340
  49   1.0000      -0.365237        -9.9386
  50   0.0000       0.020264         0.5514
  51   0.0000       0.026850         0.7306
  52   0.0000       0.028380         0.7723
  53   0.0000       0.030672         0.8346
  54   0.0000       0.038969         1.0604

MULLIKEN ATOMIC CHARGES AND SPIN POPULATIONS
--------------------------------------------
   0 C :    0.643582    0.102730
   1 C :   -0.828913   -0.004669
   2 C :   -0.540571   -0.003648
   3 H :    0.333873    0.004736
   4 H :    0.280815   -0.000757
   5 C :   -0.655678    0.021528
   6 H :    0.241255    0.000626
   7 H :    0.211699   -0.000354
   8 C :    0.074965   -0.259478
   9 H :    0.138782    0.002013
  10 H :    0.300733   -0.005560
  11 C :   -0.949409    1.304968
  12 H :    0.302759   -0.085850
  13 H :    0.292274   -0.085836
  14 C :    1.648323   -0.020062
  15 O :   -1.142985   -0.001084
  16 N :   -0.274147   -0.015080
  17 C :   -1.044680   -0.003530
  18 C :   -0.560480   -0.001429
  19 H :    0.275146   -0.003776
  20 H :    0.229863   -0.000443
  21 H :    0.357607    0.000082
  22 H :    0.279342    0.001608
  23 H :    0.309851   -0.000171
  24 C :   -0.920333    0.000036
  25 C :   -0.748286    0.000145
  26 H :    0.332555   -0.000088
  27 H :    0.250271    0.000072
  28 H :    0.200231    0.000025
  29 H :    0.335005   -0.000242
  30 H :    0.290672    0.000355
  31 H :    0.087806    0.030614
  32 H :    0.248072    0.022517
Sum of atomic charges         :    0.0000000

LOEWDIN ATOMIC CHARGES AND SPIN POPULATIONS
-------------------------------------------
   0 C :    0.061089    0.035813
   1 C :    0.566793    0.006485
   2 C :    0.579760    0.001813
   3 H :   -0.249913    0.001523
   4 H :   -0.264079    0.000818
   5 C :    0.532205    0.015039
   6 H :   -0.260237    0.000373
   7 H :   -0.261525    0.000139
   8 C :    0.052310    0.135338
   9 H :   -0.270636    0.001114
  10 H :   -0.247567    0.004142
  11 C :    0.887939    0.456906
  12 H :   -0.315967    0.150474
  13 H :   -0.322360    0.151644
  14 C :   -0.813013    0.008398
  15 O :    0.777360   -0.000238
  16 N :    0.460985    0.000825
  17 C :    0.961485    0.001024
  18 C :    0.370220    0.000569
  19 H :   -0.282220    0.001498
  20 H :   -0.279896    0.000108
  21 H :   -0.269935    0.000095
  22 H :   -0.317452    0.000102
  23 H :   -0.282387    0.000004
  24 C :    0.944167    0.000005
  25 C :    0.342424    0.000221
  26 H :   -0.276196   -0.000001
  27 H :   -0.286824   -0.000001
  28 H :   -0.283609   -0.000001
  29 H :   -0.319439    0.000043
  30 H :   -0.288646    0.000030
  31 H :   -0.331701    0.013279
  32 H :   -0.313138    0.012416

  Mayer bond orders larger than 0.100000
B(  0-C ,  1-C ) :   0.5145 B(  0-C ,  2-C ) :  -0.1403 B(  0-C ,  5-C ) :  -0.1682
B(  0-C ,  8-C ) :   0.4873 B(  0-C , 14-C ) :   0.9231 B(  0-C , 15-O ) :   0.2774
B(  0-C , 16-N ) :  -0.1918 B(  0-C , 18-C ) :  -0.1741 B(  0-C , 31-H ) :   1.1064
B(  0-C , 32-H ) :  -0.1160 B(  1-C ,  2-C ) :   1.0034 B(  1-C ,  3-H ) :   0.8627
B(  1-C ,  4-H ) :   0.9768 B(  1-C , 14-C ) :   0.1388 B(  2-C ,  5-C ) :   1.0362
B(  2-C ,  6-H ) :   0.9790 B(  2-C ,  7-H ) :   1.0099 B(  2-C ,  8-C ) :  -0.1063
B(  5-C ,  8-C ) :   0.7335 B(  5-C ,  9-H ) :   1.0886 B(  5-C , 10-H ) :   0.9261
B(  8-C ,  9-H ) :  -0.1273 B(  8-C , 11-C ) :   0.5790 B(  8-C , 12-H ) :  -0.1530
B(  8-C , 32-H ) :   1.0800 B( 11-C , 12-H ) :   1.0399 B( 11-C , 13-H ) :   0.9555
B( 14-C , 15-O ) :   0.1878 B( 14-C , 16-N ) :   1.2074 B( 14-C , 25-C ) :  -0.1909
B( 15-O , 16-N ) :   0.6108 B( 16-N , 17-C ) :  -0.1192 B( 16-N , 18-C ) :   0.4501
B( 16-N , 24-C ) :  -0.2012 B( 16-N , 25-C ) :   0.6019 B( 17-C , 18-C ) :   0.8911
B( 17-C , 19-H ) :   0.9602 B( 17-C , 20-H ) :   1.0184 B( 17-C , 21-H ) :   0.9035
B( 18-C , 22-H ) :   0.9512 B( 18-C , 23-H ) :   0.9263 B( 24-C , 25-C ) :   1.1043
B( 24-C , 26-H ) :   0.9469 B( 24-C , 27-H ) :   0.9531 B( 24-C , 28-H ) :   0.9796
B( 25-C , 29-H ) :   0.9094 B( 25-C , 30-H ) :   0.9233

MP2 TOTAL ENERGY:     -560.162308933 Eh
FINAL SINGLE POINT ENERGY      -560.162308933482

DIPOLE MOMENT
-------------
                                X             Y             Z
Electronic contribution:      1.83486      -3.70689       3.76512
Nuclear contribution   :     -2.15725       4.75402      -4.79089
                        -----------------------------------------
Total Dipole Moment    :     -0.32239       1.04713      -1.02576
                        -----------------------------------------
Magnitude (a.u.)       :      1.50087
Magnitude (Debye)      :      3.81491

Rotational constants in cm-1:     0.040139     0.016409     0.015520
Rotational constants in MHz :  1203.346554   491.928483   465.276699

                             ****ORCA TERMINATED NORMALLY****
TOTAL RUN TIME: 0 days 5 hours 3 minutes 18 seconds 991 msec
