                         Program Version 4.2.1 -  RELEASE  -
|  1> %pal
|  2>  nprocs 32
|  3> end
|  4> !RI-MP2 aug-cc-pVQZ aug-cc-pVQZ/C TightSCF
|  5> %maxcore 4500
|  6> *xyzfile 0 1  02_9R.xyz
|  7>
|  8>
|  9>                          ****END OF INPUT****

CARTESIAN COORDINATES (ANGSTROEM)
---------------------------------
  C     -2.774445   -0.812664    0.821724
  C     -2.770408    0.674099    1.214484
  C     -1.504553    1.305588    0.730349
  C     -0.620721   -2.041920   -1.006535
  C     -2.912725   -1.063774   -0.686577
  H     -3.620767    1.173267    0.736733
  H     -1.847224   -1.259343    1.192121
  H     -3.592495   -1.315416    1.348668
  H     -2.496902   -0.198406   -1.214562
  H     -2.382506   -3.161558   -0.539846
  H     -2.341725   -2.510638   -2.174939
  C     -2.091539   -2.286652   -1.131672
  C     -1.404947    2.285837   -0.163390
  C      0.203148   -2.688341   -0.183276
  C      2.133622   -1.141153   -0.010336
  C      1.618836   -2.376757    0.021561
  C     -4.377778   -1.199771   -1.092579
  H     -4.484816   -1.278683   -2.177057
  H     -4.964954   -0.339246   -0.761434
  H     -4.821416   -2.094790   -0.646092
  C     -0.085300    2.806292   -0.596840
  O      0.959055    2.326624   -0.206351
  C     -0.107872    3.964084   -1.561327
  C      3.543388   -0.789745    0.168035
  C      3.873352    0.509447    0.133231
  H      3.063439    1.217455   -0.020055
  C      5.227136    1.123997    0.284205
  H      5.476442    1.718154   -0.600530
  H      6.023638    0.396559    0.434252
  H      5.238236    1.814804    1.133102
  C      4.521475   -1.911328    0.378541
  H      5.543781   -1.556486    0.487249
  H      4.495880   -2.610252   -0.462033
  H      4.268981   -2.481589    1.277060
  C     -2.892206    0.835833    2.731969
  H     -2.061286    0.340079    3.241108
  H     -2.885655    1.887840    3.023104
  H     -3.820999    0.386659    3.090376
  H     -0.655829    4.804027   -1.125863
  H     -0.635373    3.676240   -2.474978
  H      0.907750    4.269359   -1.803264
  H      1.465663   -0.297699   -0.164799
  H      2.265455   -3.221182    0.240599
  H     -0.217696   -1.238790   -1.620716
  H     -0.192610   -3.525883    0.389544
  H     -2.292277    2.729613   -0.605474
  H     -0.577958    0.904492    1.139131

 Total Charge           Charge          ....    0
 Multiplicity           Mult            ....    1
 Number of Electrons    NEL             ....  144
 Basis Dimension        Dim             .... 2808

ORBITAL ENERGIES
----------------

  NO   OCC          E(Eh)            E(eV)
   0   2.0000     -20.535004      -558.7859
   1   2.0000     -11.329415      -308.2891
   2   2.0000     -11.253044      -306.2109
   3   2.0000     -11.239377      -305.8390
   4   2.0000     -11.232136      -305.6420
   5   2.0000     -11.227713      -305.5216
   6   2.0000     -11.224513      -305.4345
   7   2.0000     -11.220970      -305.3381
   8   2.0000     -11.218641      -305.2747
   9   2.0000     -11.218393      -305.2680
  10   2.0000     -11.217606      -305.2466
  11   2.0000     -11.215218      -305.1816
  12   2.0000     -11.215120      -305.1789
  13   2.0000     -11.213394      -305.1320
  14   2.0000     -11.212871      -305.1177
  15   2.0000     -11.210051      -305.0410
  16   2.0000     -11.207930      -304.9833
  17   2.0000     -11.206623      -304.9477
  18   2.0000     -11.204916      -304.9013
  19   2.0000      -1.382607       -37.6226
  20   2.0000      -1.130322       -30.7576
  21   2.0000      -1.106657       -30.1137
  22   2.0000      -1.089460       -29.6457
  23   2.0000      -1.059156       -28.8211
  24   2.0000      -1.038150       -28.2495
  25   2.0000      -1.002550       -27.2808
  26   2.0000      -0.995313       -27.0838
  27   2.0000      -0.962178       -26.1822
  28   2.0000      -0.929394       -25.2901
  29   2.0000      -0.919445       -25.0194
  30   2.0000      -0.886479       -24.1223
  31   2.0000      -0.865225       -23.5440
  32   2.0000      -0.805802       -21.9270
  33   2.0000      -0.783724       -21.3262
  34   2.0000      -0.767573       -20.8867
  35   2.0000      -0.735149       -20.0044
  36   2.0000      -0.723228       -19.6800
  37   2.0000      -0.693237       -18.8639
  38   2.0000      -0.666272       -18.1302
  39   2.0000      -0.658813       -17.9272
  40   2.0000      -0.651830       -17.7372
  41   2.0000      -0.630627       -17.1602
  42   2.0000      -0.616302       -16.7704
  43   2.0000      -0.605298       -16.4710
  44   2.0000      -0.603282       -16.4161
  45   2.0000      -0.602661       -16.3992
  46   2.0000      -0.582203       -15.8426
  47   2.0000      -0.570319       -15.5192
  48   2.0000      -0.566742       -15.4218
  49   2.0000      -0.564134       -15.3509
  50   2.0000      -0.559180       -15.2161
  51   2.0000      -0.557632       -15.1739
  52   2.0000      -0.544533       -14.8175
  53   2.0000      -0.544130       -14.8065
  54   2.0000      -0.542407       -14.7597
  55   2.0000      -0.523113       -14.2346
  56   2.0000      -0.516661       -14.0591
  57   2.0000      -0.509209       -13.8563
  58   2.0000      -0.506830       -13.7915
  59   2.0000      -0.498974       -13.5778
  60   2.0000      -0.496500       -13.5104
  61   2.0000      -0.489232       -13.3127
  62   2.0000      -0.482402       -13.1268
  63   2.0000      -0.463075       -12.6009
  64   2.0000      -0.459899       -12.5145
  65   2.0000      -0.456117       -12.4116
  66   2.0000      -0.448931       -12.2160
  67   2.0000      -0.418743       -11.3946
  68   2.0000      -0.413918       -11.2633
  69   2.0000      -0.371837       -10.1182
  70   2.0000      -0.355303        -9.6683
  71   2.0000      -0.273738        -7.4488
  72   0.0000       0.018295         0.4978
  73   0.0000       0.024429         0.6647
  74   0.0000       0.026459         0.7200
  75   0.0000       0.027361         0.7445
  76   0.0000       0.033723         0.9177

MULLIKEN ATOMIC CHARGES
-----------------------
   0 C :   -0.448896
   1 C :    0.153137
   2 C :    0.234397
   3 C :   -0.367820
   4 C :    0.467746
   5 H :    0.163950
   6 H :    0.428384
   7 H :    0.160775
   8 H :    0.313570
   9 H :    0.096023
  10 H :    0.218781
  11 C :   -0.492015
  12 C :   -0.699887
  13 C :   -0.471362
  14 C :   -0.924328
  15 C :    0.191443
  16 C :   -1.160538
  17 H :    0.262162
  18 H :    0.190024
  19 H :    0.244553
  20 C :    1.067257
  21 O :   -1.083243
  22 C :   -0.961993
  23 C :    0.403230
  24 C :   -0.626287
  25 H :    0.479564
  26 C :   -0.907086
  27 H :    0.252801
  28 H :    0.245511
  29 H :    0.252552
  30 C :   -0.749349
  31 H :    0.341770
  32 H :    0.196108
  33 H :    0.193796
  34 C :   -1.149427
  35 H :    0.214553
  36 H :    0.260406
  37 H :    0.204728
  38 H :    0.297110
  39 H :    0.255694
  40 H :    0.345524
  41 H :    0.671188
  42 H :    0.241894
  43 H :    0.216558
  44 H :    0.184670
  45 H :    0.193803
  46 H :    0.398569
Sum of atomic charges:    0.0000000

LOEWDIN ATOMIC CHARGES
----------------------
   0 C :    0.514970
   1 C :    0.110588
   2 C :    0.351537
   3 C :    0.374121
   4 C :    0.119733
   5 H :   -0.289903
   6 H :   -0.295687
   7 H :   -0.261946
   8 H :   -0.304835
   9 H :   -0.281897
  10 H :   -0.270922
  11 C :    0.503382
  12 C :    0.367909
  13 C :    0.370484
  14 C :    0.334316
  15 C :    0.364313
  16 C :    0.939610
  17 H :   -0.268543
  18 H :   -0.270996
  19 H :   -0.269273
  20 C :   -0.662233
  21 O :    0.772887
  22 C :    0.884664
  23 C :   -0.027900
  24 C :    0.394784
  25 H :   -0.411258
  26 C :    0.913401
  27 H :   -0.286640
  28 H :   -0.334223
  29 H :   -0.286163
  30 C :    0.880851
  31 H :   -0.329692
  32 H :   -0.280344
  33 H :   -0.281279
  34 C :    0.942947
  35 H :   -0.270091
  36 H :   -0.266486
  37 H :   -0.270455
  38 H :   -0.292597
  39 H :   -0.292976
  40 H :   -0.315289
  41 H :   -0.388361
  42 H :   -0.359061
  43 H :   -0.305613
  44 H :   -0.324431
  45 H :   -0.330685
  46 H :   -0.310721

  Mayer bond orders larger than 0.100000
B(  0-C ,  1-C ) :   0.6761 B(  0-C ,  4-C ) :   0.8072 B(  0-C ,  6-H ) :   0.7220
B(  0-C ,  7-H ) :   1.1115 B(  1-C ,  2-C ) :   0.6901 B(  1-C ,  5-H ) :   1.1310
B(  1-C , 12-C ) :  -0.2802 B(  1-C , 34-C ) :   0.4510 B(  1-C , 35-H ) :  -0.1877
B(  1-C , 36-H ) :  -0.1394 B(  1-C , 37-H ) :  -0.1450 B(  2-C ,  6-H ) :   0.1105
B(  2-C , 12-C ) :   1.0119 B(  2-C , 20-C ) :  -0.2704 B(  2-C , 34-C ) :  -0.1540
B(  2-C , 46-H ) :   0.8148 B(  3-C , 11-C ) :   0.8572 B(  3-C , 13-C ) :   1.6608
B(  3-C , 15-C ) :  -0.3858 B(  3-C , 43-H ) :   1.0110 B(  4-C ,  8-H ) :   0.9081
B(  4-C ,  9-H ) :  -0.2061 B(  4-C , 10-H ) :  -0.1395 B(  4-C , 11-C ) :   0.4303
B(  4-C , 16-C ) :   0.1219 B(  4-C , 17-H ) :  -0.1798 B(  4-C , 18-H ) :  -0.2182
B(  4-C , 19-H ) :  -0.1459 B(  9-H , 11-C ) :   1.2037 B( 10-H , 11-C ) :   1.0838
B( 11-C , 13-C ) :  -0.1861 B( 11-C , 16-C ) :   0.2312 B( 12-C , 20-C ) :   0.5676
B( 12-C , 21-O ) :   0.4846 B( 12-C , 22-C ) :  -0.1925 B( 12-C , 45-H ) :   1.0253
B( 12-C , 46-H ) :  -0.1223 B( 13-C , 14-C ) :  -0.4687 B( 13-C , 15-C ) :   0.6847
B( 13-C , 42-H ) :  -0.1465 B( 13-C , 43-H ) :   0.1118 B( 13-C , 44-H ) :   1.0801
B( 14-C , 15-C ) :   1.6064 B( 14-C , 23-C ) :   0.7953 B( 14-C , 24-C ) :  -0.3774
B( 14-C , 41-H ) :   0.3322 B( 15-C , 23-C ) :  -0.6016 B( 15-C , 42-H ) :   0.9681
B( 15-C , 44-H ) :  -0.2613 B( 16-C , 17-H ) :   1.0784 B( 16-C , 18-H ) :   1.1639
B( 16-C , 19-H ) :   1.0633 B( 20-C , 21-O ) :   0.9302 B( 20-C , 22-C ) :   0.9832
B( 22-C , 38-H ) :   0.9672 B( 22-C , 39-H ) :   0.9602 B( 22-C , 40-H ) :   0.9693
B( 23-C , 24-C ) :   1.3965 B( 23-C , 25-H ) :  -0.2089 B( 23-C , 26-C ) :  -0.1145
B( 23-C , 30-C ) :   0.5592 B( 23-C , 32-H ) :  -0.1245 B( 23-C , 33-H ) :  -0.1223
B( 24-C , 25-H ) :   0.7527 B( 24-C , 26-C ) :   0.7686 B( 24-C , 27-H ) :  -0.1234
B( 24-C , 29-H ) :  -0.1219 B( 26-C , 27-H ) :   1.0134 B( 26-C , 28-H ) :   1.0001
B( 26-C , 29-H ) :   1.0191 B( 30-C , 31-H ) :   0.9499 B( 30-C , 32-H ) :   1.0577
B( 30-C , 33-H ) :   1.0544 B( 34-C , 35-H ) :   1.0498 B( 34-C , 36-H ) :   1.0909
B( 34-C , 37-H ) :   1.1303

MP2 TOTAL ENERGY:     -776.523102280 Eh
FINAL SINGLE POINT ENERGY      -776.523102279547

DIPOLE MOMENT
-------------
                                X             Y             Z
Electronic contribution:      4.12298       2.32125      -1.50806
Nuclear contribution   :     -5.32544      -1.80149       1.38965
                        -----------------------------------------
Total Dipole Moment    :     -1.20246       0.51976      -0.11841
                        -----------------------------------------
Magnitude (a.u.)       :      1.31532
Magnitude (Debye)      :      3.34329

Rotational constants in cm-1:     0.013232     0.007218     0.005501
Rotational constants in MHz :   396.684546   216.397080   164.904619

                             ****ORCA TERMINATED NORMALLY****
TOTAL RUN TIME: 0 days 9 hours 23 minutes 41 seconds 733 msec
