                         Program Version 4.2.1 -  RELEASE  -
|  1> %pal
|  2>  nprocs 32
|  3> end
|  4> !RI-MP2 aug-cc-pVQZ aug-cc-pVQZ/C TightSCF
|  5> %maxcore 4500
|  6> *xyzfile 0 1  04_57P2.xyz
|  7>
|  8>
|  9>                          ****END OF INPUT****

CARTESIAN COORDINATES (ANGSTROEM)
---------------------------------
  O     -0.968361   -1.746238   -0.160858
  O     -1.217838   -0.409329    0.269620
  C     -0.198969    0.439921   -0.277470
  C      1.109495    0.203917    0.416628
  C     -0.724031    1.848742   -0.076246
  H     -0.107864    0.207249   -1.342426
  H     -1.685011    1.970257   -0.576522
  H     -0.015426    2.569075   -0.487327
  H     -0.855477    2.061388    0.986629
  C      2.181222   -0.305949   -0.170895
  H      1.136507    0.475295    1.470133
  H      2.167308   -0.587141   -1.218721
  H      3.109391   -0.456926    0.367238
  H     -0.466134   -2.114453    0.578790

 Total Charge           Charge          ....    0
 Multiplicity           Mult            ....    1
 Number of Electrons    NEL             ....   48
 Basis Dimension        Dim             ....  848

ORBITAL ENERGIES
----------------

  NO   OCC          E(Eh)            E(eV)
   0   2.0000     -20.615979      -560.9893
   1   2.0000     -20.614926      -560.9606
   2   2.0000     -11.290631      -307.2337
   3   2.0000     -11.238833      -305.8242
   4   2.0000     -11.235812      -305.7420
   5   2.0000     -11.223197      -305.3987
   6   2.0000      -1.477414       -40.2025
   7   2.0000      -1.225244       -33.3406
   8   2.0000      -1.074510       -29.2389
   9   2.0000      -0.995197       -27.0807
  10   2.0000      -0.860533       -23.4163
  11   2.0000      -0.779251       -21.2045
  12   2.0000      -0.724678       -19.7195
  13   2.0000      -0.668360       -18.1870
  14   2.0000      -0.636676       -17.3248
  15   2.0000      -0.632300       -17.2057
  16   2.0000      -0.611449       -16.6384
  17   2.0000      -0.551457       -15.0059
  18   2.0000      -0.541614       -14.7381
  19   2.0000      -0.518638       -14.1128
  20   2.0000      -0.505872       -13.7655
  21   2.0000      -0.477117       -12.9830
  22   2.0000      -0.450856       -12.2684
  23   2.0000      -0.384882       -10.4732
  24   0.0000       0.024740         0.6732
  25   0.0000       0.031636         0.8609
  26   0.0000       0.032770         0.8917
  27   0.0000       0.038982         1.0607
  28   0.0000       0.048549         1.3211

MULLIKEN ATOMIC CHARGES
-----------------------
   0 O :   -0.502949
   1 O :   -0.475947
   2 C :    0.574246
   3 C :   -0.509743
   4 C :   -0.878718
   5 H :    0.358918
   6 H :    0.274464
   7 H :    0.270664
   8 H :    0.249919
   9 C :   -0.776130
  10 H :    0.387181
  11 H :    0.309163
  12 H :    0.357028
  13 H :    0.361903
Sum of atomic charges:    0.0000000

LOEWDIN ATOMIC CHARGES
----------------------
   0 O :    0.930923
   1 O :    0.548700
   2 C :   -0.358011
   3 C :    0.307961
   4 C :    0.878921
   5 H :   -0.345299
   6 H :   -0.285522
   7 H :   -0.281672
   8 H :   -0.289831
   9 C :    0.800004
  10 H :   -0.324844
  11 H :   -0.345112
  12 H :   -0.347197
  13 H :   -0.889022

  Mayer bond orders larger than 0.100000
B(  0-O ,  1-O ) :   0.8440 B(  0-O , 13-H ) :   0.8723 B(  1-O ,  2-C ) :   0.5597
B(  1-O ,  3-C ) :   0.1137 B(  2-C ,  3-C ) :   0.7116 B(  2-C ,  4-C ) :   0.8595
B(  2-C ,  5-H ) :   0.8499 B(  3-C ,  9-C ) :   1.7765 B(  3-C , 10-H ) :   0.8522
B(  4-C ,  6-H ) :   0.9707 B(  4-C ,  7-H ) :   0.9744 B(  4-C ,  8-H ) :   0.9237
B(  9-C , 11-H ) :   0.9218 B(  9-C , 12-H ) :   0.9539

MP2 TOTAL ENERGY:     -307.105148637 Eh
FINAL SINGLE POINT ENERGY      -307.105148637239

DIPOLE MOMENT
-------------
                                X             Y             Z
Electronic contribution:     -2.50365      -3.90247       0.42579
Nuclear contribution   :      3.32411       4.18555      -0.22560
                        -----------------------------------------
Total Dipole Moment    :      0.82046       0.28308       0.20019
                        -----------------------------------------
Magnitude (a.u.)       :      0.89071
Magnitude (Debye)      :      2.26401

Rotational constants in cm-1:     0.132407     0.111545     0.066527
Rotational constants in MHz :  3969.456215  3344.047704  1994.420640

                             ****ORCA TERMINATED NORMALLY****
TOTAL RUN TIME: 0 days 0 hours 13 minutes 6 seconds 997 msec
