                         Program Version 4.2.1 -  RELEASE  -
|  1> %pal
|  2>  nprocs 32
|  3> end
|  4> !RI-MP2 aug-cc-pVQZ aug-cc-pVQZ/C TightSCF
|  5> %maxcore 4500
|  6> *xyzfile 0 1  05_36P2.xyz
|  7>
|  8>
|  9>                          ****END OF INPUT****

CARTESIAN COORDINATES (ANGSTROEM)
---------------------------------
  N     -0.475797    1.760828    0.227829
  C      0.762523    1.117322    0.144457
  C      1.884288    1.715498    0.735253
  C      3.119329    1.107422    0.700384
  C      3.280647   -0.129107    0.076194
  C      2.181850   -0.735072   -0.508531
  C      0.932558   -0.114570   -0.475251
  O      4.542677   -0.651773    0.096742
  C      4.746316   -1.902845   -0.519250
  C     -1.579070    1.391402   -0.637569
  C     -2.268506    0.114096   -0.185426
  C     -2.284664   -0.265343    1.150986
  C     -2.959491   -1.411526    1.548140
  C     -3.625132   -2.192253    0.613127
  C     -3.609258   -1.821335   -0.724869
  C     -2.932220   -0.676069   -1.118636
  C     -2.580180    2.544438   -0.673227
  H      4.511520   -1.866020   -1.588310
  H     -4.119334   -2.428229   -1.463571
  H      4.144058   -2.685261   -0.045571
  H      5.801298   -2.136304   -0.392025
  H     -2.959423   -1.700055    2.592677
  H     -4.147803   -3.088888    0.923733
  H     -2.957220    2.747814    0.331666
  H     -3.429887    2.292285   -1.307348
  H     -2.114927    3.451491   -1.068294
  H     -1.746580    0.337198    1.872065
  H     -2.912698   -0.395746   -2.167256
  H      1.775284    2.674019    1.231887
  H      0.091696   -0.622363   -0.925935
  H      2.267933   -1.695290   -0.997521
  H      3.983290    1.574870    1.155786
  H     -0.399780    2.753283    0.385686
  H     -1.212196    1.223234   -1.661098

 Total Charge           Charge          ....    0
 Multiplicity           Mult            ....    1
 Number of Electrons    NEL             ....  122
 Basis Dimension        Dim             .... 2142

ORBITAL ENERGIES
----------------

  NO   OCC          E(Eh)            E(eV)
   0   2.0000     -20.570286      -559.7459
   1   2.0000     -15.556487      -423.3135
   2   2.0000     -11.279086      -306.9195
   3   2.0000     -11.275222      -306.8144
   4   2.0000     -11.270442      -306.6843
   5   2.0000     -11.263017      -306.4823
   6   2.0000     -11.233275      -305.6730
   7   2.0000     -11.231525      -305.6253
   8   2.0000     -11.229540      -305.5713
   9   2.0000     -11.228183      -305.5344
  10   2.0000     -11.227247      -305.5089
  11   2.0000     -11.224996      -305.4477
  12   2.0000     -11.224046      -305.4218
  13   2.0000     -11.223703      -305.4125
  14   2.0000     -11.222758      -305.3868
  15   2.0000     -11.222603      -305.3825
  16   2.0000     -11.219161      -305.2889
  17   2.0000      -1.399343       -38.0780
  18   2.0000      -1.245152       -33.8823
  19   2.0000      -1.155344       -31.4385
  20   2.0000      -1.131680       -30.7946
  21   2.0000      -1.055574       -28.7236
  22   2.0000      -1.015482       -27.6327
  23   2.0000      -1.012746       -27.5582
  24   2.0000      -1.001240       -27.2451
  25   2.0000      -0.974681       -26.5224
  26   2.0000      -0.925499       -25.1841
  27   2.0000      -0.872792       -23.7499
  28   2.0000      -0.830973       -22.6119
  29   2.0000      -0.824913       -22.4470
  30   2.0000      -0.802520       -21.8377
  31   2.0000      -0.779216       -21.2035
  32   2.0000      -0.718255       -19.5447
  33   2.0000      -0.698856       -19.0168
  34   2.0000      -0.687818       -18.7165
  35   2.0000      -0.673990       -18.3402
  36   2.0000      -0.649903       -17.6848
  37   2.0000      -0.647765       -17.6266
  38   2.0000      -0.630796       -17.1648
  39   2.0000      -0.617686       -16.8081
  40   2.0000      -0.604823       -16.4581
  41   2.0000      -0.599434       -16.3114
  42   2.0000      -0.586831       -15.9685
  43   2.0000      -0.582470       -15.8498
  44   2.0000      -0.565486       -15.3877
  45   2.0000      -0.562814       -15.3150
  46   2.0000      -0.549138       -14.9428
  47   2.0000      -0.536251       -14.5921
  48   2.0000      -0.522384       -14.2148
  49   2.0000      -0.518066       -14.0973
  50   2.0000      -0.510955       -13.9038
  51   2.0000      -0.499607       -13.5950
  52   2.0000      -0.489275       -13.3139
  53   2.0000      -0.481350       -13.0982
  54   2.0000      -0.471941       -12.8422
  55   2.0000      -0.469785       -12.7835
  56   2.0000      -0.408973       -11.1287
  57   2.0000      -0.339541        -9.2394
  58   2.0000      -0.334749        -9.1090
  59   2.0000      -0.325185        -8.8487
  60   2.0000      -0.273192        -7.4339
  61   0.0000       0.021269         0.5788
  62   0.0000       0.025134         0.6839
  63   0.0000       0.027169         0.7393
  64   0.0000       0.028365         0.7719
  65   0.0000       0.034853         0.9484

MULLIKEN ATOMIC CHARGES
-----------------------
   0 N :   -0.751400
   1 C :    0.939957
   2 C :   -0.818656
   3 C :   -0.484789
   4 C :    1.203471
   5 C :   -0.683857
   6 C :   -0.219916
   7 O :   -0.875496
   8 C :   -0.739361
   9 C :    0.909791
  10 C :    1.418857
  11 C :   -0.958993
  12 C :   -0.269337
  13 C :   -0.372453
  14 C :   -0.289172
  15 C :   -0.702522
  16 C :   -1.107751
  17 H :    0.251527
  18 H :    0.217114
  19 H :    0.247636
  20 H :    0.505469
  21 H :    0.181755
  22 H :    0.352988
  23 H :    0.252025
  24 H :    0.276584
  25 H :    0.239069
  26 H :    0.194485
  27 H :    0.221497
  28 H :    0.101088
  29 H :    0.270310
  30 H :    0.091939
  31 H :    0.208095
  32 H :    0.182386
  33 H :    0.007660
Sum of atomic charges:   -0.0000000

LOEWDIN ATOMIC CHARGES
----------------------
   0 N :    0.868373
   1 C :   -0.209705
   2 C :    0.349190
   3 C :    0.323050
   4 C :   -0.459367
   5 C :    0.339823
   6 C :    0.358584
   7 O :    0.869190
   8 C :    0.557969
   9 C :   -0.080118
  10 C :   -0.111827
  11 C :    0.348793
  12 C :    0.355766
  13 C :    0.337583
  14 C :    0.348397
  15 C :    0.345233
  16 C :    0.938785
  17 H :   -0.307408
  18 H :   -0.319637
  19 H :   -0.307330
  20 H :   -0.319522
  21 H :   -0.317873
  22 H :   -0.323387
  23 H :   -0.264988
  24 H :   -0.271639
  25 H :   -0.263869
  26 H :   -0.319692
  27 H :   -0.304781
  28 H :   -0.314586
  29 H :   -0.348164
  30 H :   -0.352392
  31 H :   -0.322524
  32 H :   -0.523446
  33 H :   -0.298479

  Mayer bond orders larger than 0.100000
B(  0-N ,  1-C ) :   0.7309 B(  0-N ,  9-C ) :   0.6304 B(  0-N , 10-C ) :  -0.2187
B(  0-N , 32-H ) :   1.1434 B(  1-C ,  2-C ) :   1.2326 B(  1-C ,  3-C ) :  -0.3589
B(  1-C ,  5-C ) :  -0.5848 B(  1-C ,  6-C ) :   1.3169 B(  1-C ,  9-C ) :  -0.1280
B(  1-C , 32-H ) :  -0.1792 B(  2-C ,  3-C ) :   1.3810 B(  2-C ,  4-C ) :  -0.1028
B(  2-C ,  5-C ) :   0.1468 B(  2-C ,  6-C ) :  -0.1600 B(  2-C , 28-H ) :   1.1747
B(  2-C , 31-H ) :  -0.1176 B(  3-C ,  4-C ) :   1.1797 B(  3-C ,  7-O ) :   0.2678
B(  3-C , 28-H ) :  -0.1707 B(  3-C , 31-H ) :   1.0754 B(  4-C ,  5-C ) :   1.5695
B(  4-C ,  6-C ) :  -0.3581 B(  4-C ,  7-O ) :  -0.2576 B(  4-C ,  8-C ) :  -0.2364
B(  4-C , 30-H ) :  -0.1109 B(  4-C , 31-H ) :  -0.1360 B(  5-C ,  6-C ) :   0.4800
B(  5-C ,  7-O ) :   0.3248 B(  5-C ,  8-C ) :   0.2322 B(  5-C , 29-H ) :  -0.1663
B(  5-C , 30-H ) :   1.2635 B(  6-C , 29-H ) :   0.8867 B(  6-C , 30-H ) :  -0.2419
B(  7-O ,  8-C ) :   0.9234 B(  8-C , 17-H ) :   0.9259 B(  8-C , 19-H ) :   0.9254
B(  8-C , 20-H ) :   0.7509 B(  9-C , 10-C ) :   0.4560 B(  9-C , 11-C ) :  -0.2217
B(  9-C , 15-C ) :  -0.1604 B(  9-C , 16-C ) :   0.2595 B(  9-C , 23-H ) :  -0.1765
B(  9-C , 25-H ) :  -0.1324 B(  9-C , 32-H ) :  -0.1042 B(  9-C , 33-H ) :   1.2537
B( 10-C , 11-C ) :   0.6179 B( 10-C , 12-C ) :  -0.4704 B( 10-C , 14-C ) :  -0.3662
B( 10-C , 15-C ) :   0.4989 B( 10-C , 27-H ) :  -0.1247 B( 10-C , 33-H ) :  -0.1277
B( 11-C , 12-C ) :   1.5008 B( 11-C , 14-C ) :   0.1128 B( 11-C , 21-H ) :  -0.1286
B( 11-C , 26-H ) :   1.0593 B( 12-C , 13-C ) :   1.1271 B( 12-C , 15-C ) :   0.1097
B( 12-C , 21-H ) :   1.1958 B( 13-C , 14-C ) :   1.0829 B( 13-C , 15-C ) :   0.1368
B( 13-C , 18-H ) :  -0.1084 B( 13-C , 22-H ) :   1.0096 B( 14-C , 15-C ) :   1.4575
B( 14-C , 18-H ) :   1.1755 B( 15-C , 18-H ) :  -0.1496 B( 15-C , 27-H ) :   1.0549
B( 16-C , 23-H ) :   1.0417 B( 16-C , 24-H ) :   1.0261 B( 16-C , 25-H ) :   1.1075

MP2 TOTAL ENERGY:     -710.565444685 Eh
FINAL SINGLE POINT ENERGY      -710.565444684732

DIPOLE MOMENT
-------------
                                X             Y             Z
Electronic contribution:      2.99644      -0.40363       2.72932
Nuclear contribution   :     -3.38279       0.43959      -3.14552
                        -----------------------------------------
Total Dipole Moment    :     -0.38635       0.03596      -0.41620
                        -----------------------------------------
Magnitude (a.u.)       :      0.56902
Magnitude (Debye)      :      1.44634

Rotational constants in cm-1:     0.027600     0.008272     0.007089
Rotational constants in MHz :   827.416585   247.987888   212.512286

                             ****ORCA TERMINATED NORMALLY****
TOTAL RUN TIME: 0 days 4 hours 15 minutes 47 seconds 339 msec
