                         Program Version 4.2.1 -  RELEASE  -
|  1> %pal
|  2>  nprocs 32
|  3> end
|  4> !RI-MP2 aug-cc-pVQZ aug-cc-pVQZ/C TightSCF
|  5> %maxcore 4500
|  6> *xyzfile 0 1  03_12R1.xyz
|  7>
|  8>
|  9>                          ****END OF INPUT****

CARTESIAN COORDINATES (ANGSTROEM)
---------------------------------
  C      2.528616    0.008368    0.000061
  C      3.089589   -0.616341   -1.265909
  C      1.012332    0.014220    0.000018
  C      3.089506   -0.616179    1.266150
  H      2.710059   -0.092247   -2.143495
  H      2.804114   -1.666476   -1.339432
  H      4.178251   -0.550253   -1.256446
  C      0.303515    1.210673   -0.000041
  C      0.312899   -1.192665    0.000044
  H      2.804004   -1.666297    1.339798
  H      2.709933   -0.091957    2.143641
  H      4.178170   -0.550113    1.256743
  C     -1.069468   -1.211024    0.000016
  C     -1.746706   -0.003336   -0.000045
  C     -1.082654    1.208663   -0.000075
  H      0.842474    2.147015   -0.000062
  H     -1.649142    2.128919   -0.000125
  H      0.847885   -2.134195    0.000088
  H     -1.625885   -2.137211    0.000040
  N     -3.219010   -0.012843   -0.000076
  O     -3.775874   -1.093837    0.000041
  O     -3.790718    1.059704   -0.000219
  F      2.960019    1.351279   -0.000012

 Total Charge           Charge          ....    0
 Multiplicity           Mult            ....    1
 Number of Electrons    NEL             ....   96
 Basis Dimension        Dim             .... 1500

ORBITAL ENERGIES
----------------

  NO   OCC          E(Eh)            E(eV)
   0   2.0000     -26.284826      -715.2465
   1   2.0000     -20.598327      -560.5090
   2   2.0000     -20.598114      -560.5032
   3   2.0000     -15.851598      -431.3439
   4   2.0000     -11.343559      -308.6739
   5   2.0000     -11.306147      -307.6559
   6   2.0000     -11.277634      -306.8800
   7   2.0000     -11.273959      -306.7800
   8   2.0000     -11.272475      -306.7396
   9   2.0000     -11.264118      -306.5122
  10   2.0000     -11.257969      -306.3449
  11   2.0000     -11.240740      -305.8761
  12   2.0000     -11.240726      -305.8757
  13   2.0000      -1.612616       -43.8815
  14   2.0000      -1.598483       -43.4969
  15   2.0000      -1.403838       -38.2004
  16   2.0000      -1.207241       -32.8507
  17   2.0000      -1.128073       -30.6964
  18   2.0000      -1.066566       -29.0227
  19   2.0000      -1.054241       -28.6874
  20   2.0000      -0.972687       -26.4682
  21   2.0000      -0.962412       -26.1886
  22   2.0000      -0.872424       -23.7399
  23   2.0000      -0.854443       -23.2506
  24   2.0000      -0.805384       -21.9156
  25   2.0000      -0.784751       -21.3542
  26   2.0000      -0.732698       -19.9377
  27   2.0000      -0.731608       -19.9081
  28   2.0000      -0.724165       -19.7055
  29   2.0000      -0.691677       -18.8215
  30   2.0000      -0.690286       -18.7836
  31   2.0000      -0.658847       -17.9281
  32   2.0000      -0.643708       -17.5162
  33   2.0000      -0.628480       -17.1018
  34   2.0000      -0.614902       -16.7323
  35   2.0000      -0.599710       -16.3189
  36   2.0000      -0.587340       -15.9823
  37   2.0000      -0.570265       -15.5177
  38   2.0000      -0.558776       -15.2051
  39   2.0000      -0.536603       -14.6017
  40   2.0000      -0.529708       -14.4141
  41   2.0000      -0.507978       -13.8228
  42   2.0000      -0.502693       -13.6790
  43   2.0000      -0.494679       -13.4609
  44   2.0000      -0.493423       -13.4267
  45   2.0000      -0.456390       -12.4190
  46   2.0000      -0.372321       -10.1314
  47   2.0000      -0.371424       -10.1070
  48   0.0000       0.018068         0.4917
  49   0.0000       0.027605         0.7512
  50   0.0000       0.028004         0.7620
  51   0.0000       0.028923         0.7870
  52   0.0000       0.037668         1.0250

MULLIKEN ATOMIC CHARGES
-----------------------
   0 C :    1.559415
   1 C :   -0.992542
   2 C :    0.548258
   3 C :   -0.992538
   4 H :    0.289269
   5 H :    0.229367
   6 H :    0.319492
   7 C :   -0.707392
   8 C :   -0.266448
   9 H :    0.229372
  10 H :    0.289264
  11 H :    0.319460
  12 C :   -0.099492
  13 C :   -0.159826
  14 C :   -0.080793
  15 H :    0.121261
  16 H :    0.301178
  17 H :    0.185103
  18 H :    0.251209
  19 N :    0.787254
  20 O :   -0.631639
  21 O :   -0.630880
  22 F :   -0.868353
Sum of atomic charges:   -0.0000000

LOEWDIN ATOMIC CHARGES
----------------------
   0 C :   -0.848466
   1 C :    0.895004
   2 C :   -0.111616
   3 C :    0.895006
   4 H :   -0.270352
   5 H :   -0.284941
   6 H :   -0.278135
   7 C :    0.367893
   8 C :    0.359780
   9 H :   -0.284941
  10 H :   -0.270353
  11 H :   -0.278134
  12 C :    0.343528
  13 C :   -0.296488
  14 C :    0.340493
  15 H :   -0.349665
  16 H :   -0.342766
  17 H :   -0.315160
  18 H :   -0.342871
  19 N :   -0.845313
  20 O :    0.547064
  21 O :    0.548297
  22 F :    0.822137

  Mayer bond orders larger than 0.100000
B(  0-C ,  1-C ) :   0.7046 B(  0-C ,  2-C ) :   0.7631 B(  0-C ,  3-C ) :   0.7047
B(  0-C ,  7-C ) :  -0.2397 B(  0-C ,  8-C ) :  -0.1503 B(  0-C , 22-F ) :  -0.3050
B(  1-C ,  3-C ) :   0.1031 B(  1-C ,  4-H ) :   0.9683 B(  1-C ,  5-H ) :   1.0026
B(  1-C ,  6-H ) :   0.9510 B(  1-C , 22-F ) :   0.1076 B(  2-C ,  7-C ) :   0.7999
B(  2-C ,  8-C ) :   0.8267 B(  2-C , 12-C ) :  -0.3536 B(  2-C , 13-C ) :  -0.2438
B(  2-C , 14-C ) :  -0.3560 B(  2-C , 22-F ) :   0.2372 B(  3-C ,  9-H ) :   1.0026
B(  3-C , 10-H ) :   0.9683 B(  3-C , 11-H ) :   0.9511 B(  3-C , 22-F ) :   0.1076
B(  7-C , 12-C ) :   0.1722 B(  7-C , 14-C ) :   1.3389 B(  7-C , 15-H ) :   1.1488
B(  7-C , 16-H ) :  -0.1356 B(  7-C , 21-O ) :  -0.1107 B(  8-C , 12-C ) :   1.3224
B(  8-C , 13-C ) :  -0.1644 B(  8-C , 14-C ) :   0.1220 B(  8-C , 17-H ) :   1.1144
B(  8-C , 20-O ) :  -0.1282 B( 12-C , 13-C ) :   1.0715 B( 12-C , 17-H ) :  -0.1358
B( 12-C , 18-H ) :   1.0009 B( 12-C , 19-N ) :  -0.1118 B( 13-C , 14-C ) :   1.2141
B( 13-C , 16-H ) :  -0.1117 B( 13-C , 19-N ) :   0.7636 B( 13-C , 20-O ) :   0.3581
B( 13-C , 21-O ) :   0.3808 B( 14-C , 15-H ) :  -0.1496 B( 14-C , 16-H ) :   0.9437
B( 15-H , 22-F ) :   0.1355 B( 19-N , 20-O ) :   1.1572 B( 19-N , 21-O ) :   1.1440

MP2 TOTAL ENERGY:     -652.990257192 Eh
FINAL SINGLE POINT ENERGY      -652.990257191513

DIPOLE MOMENT
-------------
                                X             Y             Z
Electronic contribution:    -12.52447       5.14135      -0.00065
Nuclear contribution   :     14.50612      -5.85420       0.00075
                        -----------------------------------------
Total Dipole Moment    :      1.98165      -0.71285       0.00009
                        -----------------------------------------
Magnitude (a.u.)       :      2.10597
Magnitude (Debye)      :      5.35294

Rotational constants in cm-1:     0.073468     0.013158     0.012028
Rotational constants in MHz :  2202.513270   394.466379   360.600786

                             ****ORCA TERMINATED NORMALLY****
TOTAL RUN TIME: 0 days 1 hours 44 minutes 45 seconds 392 msec
