                         Program Version 4.2.1 -  RELEASE  -
|  1> %pal
|  2>  nprocs 32
|  3> end
|  4> !RI-MP2 aug-cc-pVQZ aug-cc-pVQZ/C TightSCF
|  5> %maxcore 4500
|  6> *xyzfile -2 1  10_91TS.xyz
|  7>
|  8>
|  9>                          ****END OF INPUT****

CARTESIAN COORDINATES (ANGSTROEM)
---------------------------------
  O     -1.317004    1.300023    0.901601
  C     -1.275564    0.017465    0.737721
  C     -0.165819   -0.694425    1.141107
  H      0.548200   -0.257759    1.825217
  H     -0.149002   -1.767947    1.001779
  C     -2.342892   -0.649044   -0.161315
  O     -2.679970    0.008897   -1.172788
  O     -2.750753   -1.773021    0.207121
  C     -0.284632    2.038766   -0.526018
  C      0.969905    1.477960   -0.298519
  H      1.672544    1.982548    0.358060
  H     -0.455249    3.080691   -0.277220
  H     -0.958480    1.616820   -1.263962
  C      1.203938    0.135105   -0.524730
  H      0.624491   -0.390468   -1.273598
  C      2.558071   -0.499532   -0.172270
  O      2.909519   -1.440827   -0.919803
  O      3.180640    0.002221    0.790603

 Total Charge           Charge          ....   -2
 Multiplicity           Mult            ....    1
 Number of Electrons    NEL             ....   90
 Basis Dimension        Dim             .... 1236

ORBITAL ENERGIES
----------------

  NO   OCC          E(Eh)            E(eV)
   0   2.0000     -20.282902      -551.9258
   1   2.0000     -20.216388      -550.1159
   2   2.0000     -20.214318      -550.0596
   3   2.0000     -20.208527      -549.9020
   4   2.0000     -20.207570      -549.8759
   5   2.0000     -11.061570      -301.0006
   6   2.0000     -11.048347      -300.6408
   7   2.0000     -11.032634      -300.2132
   8   2.0000     -11.016916      -299.7855
   9   2.0000     -11.005588      -299.4773
  10   2.0000     -10.961396      -298.2748
  11   2.0000     -10.956368      -298.1379
  12   2.0000      -1.102494       -30.0004
  13   2.0000      -1.096515       -29.8377
  14   2.0000      -1.072868       -29.1942
  15   2.0000      -0.994470       -27.0609
  16   2.0000      -0.986467       -26.8431
  17   2.0000      -0.830028       -22.5862
  18   2.0000      -0.742894       -20.2152
  19   2.0000      -0.677025       -18.4228
  20   2.0000      -0.553825       -15.0704
  21   2.0000      -0.535222       -14.5641
  22   2.0000      -0.459297       -12.4981
  23   2.0000      -0.423017       -11.5109
  24   2.0000      -0.384856       -10.4725
  25   2.0000      -0.380930       -10.3656
  26   2.0000      -0.367532       -10.0010
  27   2.0000      -0.358499        -9.7553
  28   2.0000      -0.326902        -8.8954
  29   2.0000      -0.322126        -8.7655
  30   2.0000      -0.316567        -8.6142
  31   2.0000      -0.301582        -8.2065
  32   2.0000      -0.288380        -7.8472
  33   2.0000      -0.273650        -7.4464
  34   2.0000      -0.262877        -7.1533
  35   2.0000      -0.257879        -7.0173
  36   2.0000      -0.207003        -5.6328
  37   2.0000      -0.140677        -3.8280
  38   2.0000      -0.133650        -3.6368
  39   2.0000      -0.132088        -3.5943
  40   2.0000      -0.119781        -3.2594
  41   2.0000      -0.115952        -3.1552
  42   2.0000      -0.108873        -2.9626
  43   2.0000      -0.099096        -2.6965
  44   2.0000      -0.049161        -1.3377
  45   0.0000       0.171692         4.6720
  46   0.0000       0.194120         5.2823
  47   0.0000       0.199065         5.4168
  48   0.0000       0.205407         5.5894
  49   0.0000       0.212280         5.7764

MULLIKEN ATOMIC CHARGES
-----------------------
   0 O :   -1.007611
   1 C :    0.656052
   2 C :   -0.826609
   3 H :    0.334500
   4 H :    0.345146
   5 C :    1.146678
   6 O :   -1.052264
   7 O :   -0.994688
   8 C :   -0.468748
   9 C :   -0.323944
  10 H :    0.301398
  11 H :    0.348514
  12 H :    0.288476
  13 C :   -0.366681
  14 H :    0.375620
  15 C :    1.306210
  16 O :   -1.045170
  17 O :   -1.016879
Sum of atomic charges:   -2.0000000

LOEWDIN ATOMIC CHARGES
----------------------
   0 O :    0.711171
   1 C :   -0.819706
   2 C :    0.596562
   3 H :   -0.371966
   4 H :   -0.346018
   5 C :   -1.550671
   6 O :    0.497238
   7 O :    0.466524
   8 C :    0.482865
   9 C :    0.249666
  10 H :   -0.371701
  11 H :   -0.321495
  12 H :   -0.415921
  13 C :    0.101536
  14 H :   -0.352221
  15 C :   -1.530785
  16 O :    0.478345
  17 O :    0.496577

  Mayer bond orders larger than 0.100000
B(  0-O ,  1-C ) :   0.6727 B(  0-O ,  8-C ) :   0.3613 B(  1-C ,  2-C ) :   1.5432
B(  1-C ,  5-C ) :   1.0275 B(  2-C ,  3-H ) :   0.8694 B(  2-C ,  4-H ) :   0.9019
B(  2-C ,  8-C ) :   0.1225 B(  2-C , 13-C ) :   0.2892 B(  5-C ,  6-O ) :   1.1957
B(  5-C ,  7-O ) :   1.1747 B(  6-O ,  7-O ) :   0.1178 B(  8-C ,  9-C ) :   1.2729
B(  8-C , 11-H ) :   0.9270 B(  8-C , 12-H ) :   0.9555 B(  8-C , 13-C ) :  -0.1151
B(  9-C , 10-H ) :   0.9117 B(  9-C , 11-H ) :  -0.1070 B(  9-C , 13-C ) :   1.1103
B(  9-C , 15-C ) :  -0.1501 B( 13-C , 14-H ) :   0.8334 B( 13-C , 15-C ) :   1.1393
B( 13-C , 16-O ) :   0.1175 B( 15-C , 16-O ) :   1.0552 B( 15-C , 17-O ) :   1.2312
B( 16-O , 17-O ) :   0.1830

MP2 TOTAL ENERGY:     -645.563643116 Eh
FINAL SINGLE POINT ENERGY      -645.563643115568

DIPOLE MOMENT
-------------
                                X             Y             Z
Electronic contribution:     -1.37141      -1.93297      -0.03334
Nuclear contribution   :      1.23587       4.11320       0.35676
                        -----------------------------------------
Total Dipole Moment    :     -0.13554       2.18023       0.32343
                        -----------------------------------------
Magnitude (a.u.)       :      2.20825
Magnitude (Debye)      :      5.61292

Rotational constants in cm-1:     0.053044     0.019665     0.017200
Rotational constants in MHz :  1590.210251   589.548443   515.644734

                             ****ORCA TERMINATED NORMALLY****
TOTAL RUN TIME: 0 days 0 hours 55 minutes 21 seconds 864 msec
