                         Program Version 4.2.1 -  RELEASE  -
|  1> %pal
|  2>  nprocs 32
|  3> end
|  4> !RI-MP2 aug-cc-pVQZ aug-cc-pVQZ/C TightSCF
|  5> %maxcore 4500
|  6> *xyzfile 0 1  05_25R1.xyz
|  7>
|  8>
|  9>                          ****END OF INPUT****

CARTESIAN COORDINATES (ANGSTROEM)
---------------------------------
  C      2.445836   -0.303180   -0.869809
  C      0.981464   -0.111176   -0.564605
  C      0.463807    1.175887   -0.395837
  C      0.117146   -1.184865   -0.444265
  C     -0.871514    1.374304   -0.118474
  H      1.130019    2.027498   -0.472979
  C     -1.237941   -1.004923   -0.172208
  H      0.498138   -2.193880   -0.561222
  C     -1.733415    0.281125   -0.007599
  H     -1.279888    2.368023    0.015168
  H     -1.881563   -1.868776   -0.086377
  O      3.302711    0.334223    0.057561
  C      3.255258   -0.233921    1.346619
  H      3.532800   -1.296108    1.319001
  H      3.974923    0.305780    1.960238
  H      2.259756   -0.142715    1.794415
  O     -3.031448    0.576198    0.264490
  C     -3.948914   -0.490453    0.384916
  H     -4.913946   -0.035624    0.596332
  H     -4.015675   -1.065382   -0.543906
  H     -3.676629   -1.159471    1.207129
  H      2.674771   -1.376823   -0.920067
  H      2.696830    0.137322   -1.836562

 Total Charge           Charge          ....    0
 Multiplicity           Mult            ....    1
 Number of Electrons    NEL             ....   82
 Basis Dimension        Dim             .... 1432

ORBITAL ENERGIES
----------------

  NO   OCC          E(Eh)            E(eV)
   0   2.0000     -20.583111      -560.0949
   1   2.0000     -20.550913      -559.2188
   2   2.0000     -11.298326      -307.4431
   3   2.0000     -11.284393      -307.0639
   4   2.0000     -11.275756      -306.8289
   5   2.0000     -11.262808      -306.4766
   6   2.0000     -11.237475      -305.7872
   7   2.0000     -11.233625      -305.6825
   8   2.0000     -11.229088      -305.5590
   9   2.0000     -11.226213      -305.4808
  10   2.0000     -11.225606      -305.4643
  11   2.0000      -1.413648       -38.4673
  12   2.0000      -1.372389       -37.3446
  13   2.0000      -1.154838       -31.4247
  14   2.0000      -1.042428       -28.3659
  15   2.0000      -1.021366       -27.7928
  16   2.0000      -0.969949       -26.3937
  17   2.0000      -0.936428       -25.4815
  18   2.0000      -0.869088       -23.6491
  19   2.0000      -0.838327       -22.8120
  20   2.0000      -0.790248       -21.5037
  21   2.0000      -0.721423       -19.6309
  22   2.0000      -0.682334       -18.5672
  23   2.0000      -0.665613       -18.1122
  24   2.0000      -0.658724       -17.9248
  25   2.0000      -0.653354       -17.7787
  26   2.0000      -0.638692       -17.3797
  27   2.0000      -0.623234       -16.9591
  28   2.0000      -0.593671       -16.1546
  29   2.0000      -0.586396       -15.9567
  30   2.0000      -0.579476       -15.7683
  31   2.0000      -0.536914       -14.6102
  32   2.0000      -0.524441       -14.2708
  33   2.0000      -0.522771       -14.2253
  34   2.0000      -0.518781       -14.1168
  35   2.0000      -0.483165       -13.1476
  36   2.0000      -0.471856       -12.8399
  37   2.0000      -0.463011       -12.5992
  38   2.0000      -0.423021       -11.5110
  39   2.0000      -0.343102        -9.3363
  40   2.0000      -0.310877        -8.4594
  41   0.0000       0.022009         0.5989
  42   0.0000       0.028028         0.7627
  43   0.0000       0.030848         0.8394
  44   0.0000       0.034486         0.9384
  45   0.0000       0.039654         1.0790

MULLIKEN ATOMIC CHARGES
-----------------------
   0 C :    0.087299
   1 C :    0.477830
   2 C :   -0.405069
   3 C :   -0.515396
   4 C :   -0.576296
   5 H :    0.286520
   6 C :   -0.474108
   7 H :    0.151613
   8 C :    1.143765
   9 H :    0.188199
  10 H :    0.165626
  11 O :   -0.903267
  12 C :   -0.648875
  13 H :    0.230549
  14 H :    0.448785
  15 H :    0.287241
  16 O :   -0.832334
  17 C :   -0.711233
  18 H :    0.502944
  19 H :    0.256883
  20 H :    0.244775
  21 H :    0.150539
  22 H :    0.444011
Sum of atomic charges:    0.0000000

LOEWDIN ATOMIC CHARGES
----------------------
   0 C :    0.127034
   1 C :   -0.111390
   2 C :    0.337829
   3 C :    0.346021
   4 C :    0.335631
   5 H :   -0.304819
   6 C :    0.337838
   7 H :   -0.311280
   8 C :   -0.460317
   9 H :   -0.323153
  10 H :   -0.357365
  11 O :    0.879251
  12 C :    0.561134
  13 H :   -0.302784
  14 H :   -0.320975
  15 H :   -0.313555
  16 O :    0.877405
  17 C :    0.569110
  18 H :   -0.317415
  19 H :   -0.306033
  20 H :   -0.306084
  21 H :   -0.324386
  22 H :   -0.311696

  Mayer bond orders larger than 0.100000
B(  0-C ,  1-C ) :   0.7871 B(  0-C ,  2-C ) :  -0.1034 B(  0-C ,  3-C ) :  -0.1142
B(  0-C , 11-O ) :   0.5489 B(  0-C , 21-H ) :   1.1358 B(  0-C , 22-H ) :   0.7620
B(  1-C ,  2-C ) :   0.9905 B(  1-C ,  3-C ) :   0.9376 B(  1-C ,  4-C ) :  -0.2010
B(  1-C ,  6-C ) :  -0.5016 B(  1-C , 21-H ) :  -0.1248 B(  2-C ,  4-C ) :   1.3651
B(  2-C ,  5-H ) :   1.0293 B(  2-C ,  6-C ) :   0.1224 B(  2-C ,  8-C ) :  -0.2388
B(  3-C ,  4-C ) :   0.1968 B(  3-C ,  6-C ) :   1.0233 B(  3-C ,  7-H ) :   1.1492
B(  3-C , 10-H ) :  -0.1526 B(  4-C ,  5-H ) :  -0.1354 B(  4-C ,  8-C ) :   1.1288
B(  4-C ,  9-H ) :   1.0607 B(  4-C , 16-O ) :   0.2414 B(  6-C ,  7-H ) :  -0.2057
B(  6-C ,  8-C ) :   1.3103 B(  6-C , 10-H ) :   1.1888 B(  6-C , 16-O ) :   0.1901
B(  6-C , 17-C ) :   0.1769 B(  8-C ,  9-H ) :  -0.1123 B(  8-C , 10-H ) :  -0.1057
B(  8-C , 17-C ) :  -0.1643 B( 11-O , 12-C ) :   0.8755 B( 12-C , 13-H ) :   0.9680
B( 12-C , 14-H ) :   0.8236 B( 12-C , 15-H ) :   0.8608 B( 16-O , 17-C ) :   0.9296
B( 17-C , 18-H ) :   0.7482 B( 17-C , 19-H ) :   0.9237 B( 17-C , 20-H ) :   0.9221

MP2 TOTAL ENERGY:     -499.785076107 Eh
FINAL SINGLE POINT ENERGY      -499.785076107083

DIPOLE MOMENT
-------------
                                X             Y             Z
Electronic contribution:     -1.59582       3.51107      -2.33523
Nuclear contribution   :      1.01574      -4.33675       2.50568
                        -----------------------------------------
Total Dipole Moment    :     -0.58008      -0.82567       0.17045
                        -----------------------------------------
Magnitude (a.u.)       :      1.02337
Magnitude (Debye)      :      2.60120

Rotational constants in cm-1:     0.103054     0.017684     0.016849
Rotational constants in MHz :  3089.472226   530.156898   505.117874

                             ****ORCA TERMINATED NORMALLY****
TOTAL RUN TIME: 0 days 1 hours 10 minutes 41 seconds 426 msec
