                         Program Version 4.2.1 -  RELEASE  -
|  1> %pal
|  2>  nprocs 32
|  3> end
|  4> !RI-MP2 aug-cc-pVQZ aug-cc-pVQZ/C TightSCF
|  5> %maxcore 4500
|  6> *xyzfile 0 1  10_18P.xyz
|  7>
|  8>
|  9>                          ****END OF INPUT****

CARTESIAN COORDINATES (ANGSTROEM)
---------------------------------
  C     -5.967721   -1.529844   -0.854710
  C     -5.133723   -0.544391   -0.345309
  C     -3.976442   -0.886473    0.345547
  C     -3.667107   -2.230641    0.529610
  C     -4.500602   -3.215858    0.021777
  C     -5.651657   -2.868549   -0.672885
  H     -6.867773   -1.250769   -1.389067
  H     -5.383741    0.501386   -0.485435
  H     -2.777614   -2.509976    1.081128
  H     -4.252484   -4.259353    0.173399
  H     -6.302805   -3.639613   -1.066292
  C     -3.048400    0.200741    0.827539
  C     -1.835509    0.413366   -0.098835
  C     -1.252587    2.656479    0.704772
  C     -0.710132    2.004667   -1.572434
  C     -1.369408    4.118994    0.295462
  H     -0.233177    2.461285    1.074042
  H     -1.930423    2.446030    1.533070
  C     -0.826531    3.443364   -2.056002
  H      0.344973    1.798437   -1.327197
  H     -1.003321    1.309983   -2.361993
  C     -0.503091    4.416407   -0.925242
  H     -0.153215    3.596060   -2.903141
  H     -1.847247    3.613774   -2.411382
  H     -0.644644    5.448605   -1.253804
  H      0.553883    4.314348   -0.652443
  N     -1.578932    1.782981   -0.419102
  N     -0.818882   -0.256716    0.755893
  N     -1.265609   -0.389326    2.048983
  N     -2.472169   -0.145371    2.145279
  C      0.536916   -0.379505    0.485087
  C      0.951795   -0.976271   -0.703580
  C      1.533594    0.084622    1.341840
  C      2.285771   -1.087294   -1.032535
  C      2.870325   -0.067396    1.025079
  C      3.278569   -0.646335   -0.167828
  F      0.032900   -1.452149   -1.550621
  F      2.603816   -1.679366   -2.180650
  F      3.769103    0.427659    1.875200
  F      1.215818    0.732010    2.460732
  C      4.718350   -0.758261   -0.551514
  O      5.152269   -0.437838   -1.622423
  O      5.446298   -1.261760    0.442610
  C      6.854421   -1.367121    0.192496
  H      7.272782   -0.383343   -0.017531
  H      7.279498   -1.780374    1.102337
  H      7.037704   -2.025988   -0.655456
  H     -3.605523    1.131273    0.931267
  H     -2.416722    4.337534    0.065479
  H     -1.080825    4.751820    1.138273
  H     -1.944441   -0.142906   -1.026094

 Total Charge           Charge          ....    0
 Multiplicity           Mult            ....    1
 Number of Electrons    NEL             ....  226
 Basis Dimension        Dim             .... 3400

ORBITAL ENERGIES
----------------

  NO   OCC          E(Eh)            E(eV)
   0   2.0000     -26.341673      -716.7934
   1   2.0000     -26.340853      -716.7710
   2   2.0000     -26.339641      -716.7381
   3   2.0000     -26.335758      -716.6324
   4   2.0000     -20.618702      -561.0634
   5   2.0000     -20.561627      -559.5103
   6   2.0000     -15.678563      -426.6354
   7   2.0000     -15.629861      -425.3101
   8   2.0000     -15.614743      -424.8988
   9   2.0000     -15.563043      -423.4919
  10   2.0000     -11.406570      -310.3885
  11   2.0000     -11.373744      -309.4953
  12   2.0000     -11.373254      -309.4820
  13   2.0000     -11.361008      -309.1487
  14   2.0000     -11.360259      -309.1284
  15   2.0000     -11.336872      -308.4920
  16   2.0000     -11.318522      -307.9926
  17   2.0000     -11.295694      -307.3715
  18   2.0000     -11.292657      -307.2888
  19   2.0000     -11.281475      -306.9846
  20   2.0000     -11.260257      -306.4072
  21   2.0000     -11.257694      -306.3374
  22   2.0000     -11.250950      -306.1539
  23   2.0000     -11.241109      -305.8861
  24   2.0000     -11.239993      -305.8558
  25   2.0000     -11.239629      -305.8459
  26   2.0000     -11.238072      -305.8035
  27   2.0000     -11.237611      -305.7909
  28   2.0000     -11.225507      -305.4616
  29   2.0000     -11.225157      -305.4521
  30   2.0000     -11.224608      -305.4371
  31   2.0000      -1.671467       -45.4829
  32   2.0000      -1.670293       -45.4510
  33   2.0000      -1.655763       -45.0556
  34   2.0000      -1.653591       -44.9965
  35   2.0000      -1.485542       -40.4236
  36   2.0000      -1.449293       -39.4373
  37   2.0000      -1.382825       -37.6286
  38   2.0000      -1.276499       -34.7353
  39   2.0000      -1.247763       -33.9533
  40   2.0000      -1.197989       -32.5989
  41   2.0000      -1.169881       -31.8341
  42   2.0000      -1.107735       -30.1430
  43   2.0000      -1.086236       -29.5580
  44   2.0000      -1.067012       -29.0349
  45   2.0000      -1.065352       -28.9897
  46   2.0000      -1.031488       -28.0682
  47   2.0000      -1.024624       -27.8814
  48   2.0000      -1.005586       -27.3634
  49   2.0000      -0.998445       -27.1691
  50   2.0000      -0.942854       -25.6564
  51   2.0000      -0.913270       -24.8513
  52   2.0000      -0.905561       -24.6416
  53   2.0000      -0.868026       -23.6202
  54   2.0000      -0.860250       -23.4086
  55   2.0000      -0.843164       -22.9437
  56   2.0000      -0.837469       -22.7887
  57   2.0000      -0.832579       -22.6556
  58   2.0000      -0.823871       -22.4187
  59   2.0000      -0.808800       -22.0086
  60   2.0000      -0.791987       -21.5511
  61   2.0000      -0.787739       -21.4355
  62   2.0000      -0.770514       -20.9668
  63   2.0000      -0.752456       -20.4754
  64   2.0000      -0.750473       -20.4214
  65   2.0000      -0.742745       -20.2111
  66   2.0000      -0.741911       -20.1884
  67   2.0000      -0.737150       -20.0589
  68   2.0000      -0.734911       -19.9979
  69   2.0000      -0.717204       -19.5161
  70   2.0000      -0.715502       -19.4698
  71   2.0000      -0.711347       -19.3567
  72   2.0000      -0.694526       -18.8990
  73   2.0000      -0.692476       -18.8432
  74   2.0000      -0.689012       -18.7490
  75   2.0000      -0.682870       -18.5818
  76   2.0000      -0.678617       -18.4661
  77   2.0000      -0.651767       -17.7355
  78   2.0000      -0.645386       -17.5618
  79   2.0000      -0.642345       -17.4791
  80   2.0000      -0.636210       -17.3121
  81   2.0000      -0.633705       -17.2440
  82   2.0000      -0.620823       -16.8934
  83   2.0000      -0.613176       -16.6854
  84   2.0000      -0.610145       -16.6029
  85   2.0000      -0.605405       -16.4739
  86   2.0000      -0.595363       -16.2007
  87   2.0000      -0.594395       -16.1743
  88   2.0000      -0.579184       -15.7604
  89   2.0000      -0.572261       -15.5720
  90   2.0000      -0.568522       -15.4703
  91   2.0000      -0.565571       -15.3900
  92   2.0000      -0.558354       -15.1936
  93   2.0000      -0.546399       -14.8683
  94   2.0000      -0.544014       -14.8034
  95   2.0000      -0.535900       -14.5826
  96   2.0000      -0.519611       -14.1393
  97   2.0000      -0.510389       -13.8884
  98   2.0000      -0.504877       -13.7384
  99   2.0000      -0.499923       -13.6036
 100   2.0000      -0.498509       -13.5651
 101   2.0000      -0.479907       -13.0589
 102   2.0000      -0.479173       -13.0390
 103   2.0000      -0.477128       -12.9833
 104   2.0000      -0.465651       -12.6710
 105   2.0000      -0.458745       -12.4831
 106   2.0000      -0.442133       -12.0311
 107   2.0000      -0.423222       -11.5164
 108   2.0000      -0.381137       -10.3713
 109   2.0000      -0.369985       -10.0678
 110   2.0000      -0.350524        -9.5382
 111   2.0000      -0.344929        -9.3860
 112   2.0000      -0.332103        -9.0370
 113   0.0000       0.019494         0.5305
 114   0.0000       0.023417         0.6372
 115   0.0000       0.024170         0.6577
 116   0.0000       0.029317         0.7978
 117   0.0000       0.030026         0.8170

MULLIKEN ATOMIC CHARGES
-----------------------
   0 C :   -0.462661
   1 C :   -0.565755
   2 C :    0.334490
   3 C :   -0.396128
   4 C :   -0.522529
   5 C :   -0.335198
   6 H :    0.225733
   7 H :    0.266220
   8 H :    0.361211
   9 H :    0.188532
  10 H :    0.362350
  11 C :    0.933398
  12 C :    0.895719
  13 C :   -0.593760
  14 C :   -0.736568
  15 C :   -0.555056
  16 H :    0.359521
  17 H :    0.272054
  18 C :   -0.554923
  19 H :    0.339698
  20 H :    0.268111
  21 C :   -0.546562
  22 H :    0.217592
  23 H :    0.152159
  24 H :    0.231541
  25 H :    0.091592
  26 N :   -0.110581
  27 N :    0.088533
  28 N :   -0.099434
  29 N :   -0.893970
  30 C :   -0.494448
  31 C :    0.680798
  32 C :    1.098213
  33 C :    1.419804
  34 C :    1.319834
  35 C :   -1.144310
  36 F :   -0.904570
  37 F :   -0.840997
  38 F :   -0.826017
  39 F :   -0.832370
  40 C :    1.739303
  41 O :   -0.945675
  42 O :   -0.780690
  43 C :   -0.837977
  44 H :    0.360817
  45 H :    0.433368
  46 H :    0.330956
  47 H :    0.575163
  48 H :    0.145890
  49 H :    0.208408
  50 H :    0.079174
Sum of atomic charges:    0.0000000

LOEWDIN ATOMIC CHARGES
----------------------
   0 C :    0.351483
   1 C :    0.359964
   2 C :   -0.084484
   3 C :    0.347344
   4 C :    0.358341
   5 C :    0.341860
   6 H :   -0.318474
   7 H :   -0.308100
   8 H :   -0.327436
   9 H :   -0.316368
  10 H :   -0.320576
  11 C :   -0.148979
  12 C :   -0.197653
  13 C :    0.362580
  14 C :    0.372660
  15 C :    0.553391
  16 H :   -0.274243
  17 H :   -0.302600
  18 C :    0.549900
  19 H :   -0.270334
  20 H :   -0.273818
  21 C :    0.540909
  22 H :   -0.254616
  23 H :   -0.258989
  24 H :   -0.255811
  25 H :   -0.262293
  26 N :    0.560320
  27 N :    0.210913
  28 N :    0.245871
  29 N :    0.399412
  30 C :   -0.377561
  31 C :   -0.741326
  32 C :   -0.740156
  33 C :   -0.755587
  34 C :   -0.750585
  35 C :   -0.249518
  36 F :    0.845099
  37 F :    0.828394
  38 F :    0.825190
  39 F :    0.834285
  40 C :   -1.137658
  41 O :    0.729643
  42 O :    0.842776
  43 C :    0.593945
  44 H :   -0.311282
  45 H :   -0.318536
  46 H :   -0.311974
  47 H :   -0.333572
  48 H :   -0.258206
  49 H :   -0.253847
  50 H :   -0.339697

  Mayer bond orders larger than 0.100000
B(  0-C ,  1-C ) :   1.2500 B(  0-C ,  2-C ) :  -0.3175 B(  0-C ,  5-C ) :   1.1920
B(  0-C ,  6-H ) :   1.1864 B(  1-C ,  2-C ) :   0.7769 B(  1-C ,  4-C ) :   0.1436
B(  1-C ,  6-H ) :  -0.1605 B(  1-C ,  7-H ) :   1.0286 B(  2-C ,  3-C ) :   0.9804
B(  2-C ,  4-C ) :  -0.4066 B(  2-C , 11-C ) :   0.2570 B(  2-C , 47-H ) :  -0.1520
B(  2-C , 50-H ) :   0.1346 B(  3-C ,  4-C ) :   1.2812 B(  3-C ,  8-H ) :   0.9190
B(  3-C ,  9-H ) :  -0.1541 B(  3-C , 11-C ) :  -0.3049 B(  3-C , 12-C ) :  -0.1114
B(  3-C , 50-H ) :   0.1186 B(  4-C ,  5-C ) :   1.2171 B(  4-C ,  9-H ) :   1.2279
B(  4-C , 10-H ) :  -0.1192 B(  5-C , 10-H ) :   0.9897 B( 11-C , 12-C ) :   0.8846
B( 11-C , 28-N ) :  -0.3121 B( 11-C , 47-H ) :   0.9698 B( 11-C , 50-H ) :  -0.1076
B( 12-C , 14-C ) :  -0.3029 B( 12-C , 26-N ) :   0.6556 B( 12-C , 27-N ) :   0.5847
B( 12-C , 28-N ) :   0.1456 B( 12-C , 36-F ) :  -0.4507 B( 12-C , 50-H ) :   0.8519
B( 13-C , 15-C ) :   0.3970 B( 13-C , 16-H ) :   0.9001 B( 13-C , 17-H ) :   0.9788
B( 13-C , 21-C ) :  -0.1115 B( 13-C , 26-N ) :   0.7166 B( 13-C , 48-H ) :  -0.1492
B( 13-C , 49-H ) :  -0.1359 B( 14-C , 18-C ) :   0.5018 B( 14-C , 19-H ) :   0.9041
B( 14-C , 20-H ) :   1.0102 B( 14-C , 21-C ) :  -0.1684 B( 14-C , 23-H ) :  -0.1201
B( 14-C , 26-N ) :   1.0892 B( 14-C , 36-F ) :   0.1057 B( 15-C , 21-C ) :   0.9268
B( 15-C , 26-N ) :  -0.1099 B( 15-C , 48-H ) :   1.1643 B( 15-C , 49-H ) :   1.0934
B( 18-C , 21-C ) :   0.9209 B( 18-C , 22-H ) :   1.0574 B( 18-C , 23-H ) :   1.1393
B( 18-C , 26-N ) :  -0.1388 B( 21-C , 24-H ) :   0.9932 B( 21-C , 25-H ) :   1.1113
B( 26-N , 27-N ) :   0.2182 B( 27-N , 28-N ) :   0.5979 B( 27-N , 29-N ) :   0.2084
B( 27-N , 30-C ) :   0.6482 B( 27-N , 32-C ) :  -0.2404 B( 27-N , 39-F ) :  -0.2279
B( 28-N , 29-N ) :   1.1302 B( 28-N , 30-C ) :  -0.2930 B( 28-N , 47-H ) :   0.1003
B( 29-N , 47-H ) :  -0.2804 B( 30-C , 31-C ) :   1.0328 B( 30-C , 32-C ) :   1.2287
B( 30-C , 33-C ) :  -0.3911 B( 30-C , 34-C ) :  -0.3318 B( 30-C , 36-F ) :   0.5270
B( 30-C , 39-F ) :   0.8617 B( 31-C , 33-C ) :   1.7085 B( 31-C , 34-C ) :   0.1128
B( 31-C , 36-F ) :  -0.2394 B( 31-C , 37-F ) :   0.4352 B( 32-C , 33-C ) :   0.2335
B( 32-C , 34-C ) :   1.7650 B( 32-C , 35-C ) :  -0.2217 B( 32-C , 38-F ) :   0.1977
B( 32-C , 39-F ) :  -0.7183 B( 33-C , 35-C ) :   1.0931 B( 33-C , 37-F ) :  -0.8076
B( 33-C , 40-C ) :  -0.2520 B( 34-C , 35-C ) :   1.0126 B( 34-C , 38-F ) :  -0.4465
B( 34-C , 39-F ) :   0.2273 B( 34-C , 40-C ) :  -0.4596 B( 35-C , 37-F ) :   0.4573
B( 35-C , 38-F ) :   0.2431 B( 35-C , 40-C ) :   1.6119 B( 35-C , 41-O ) :   0.4329
B( 36-F , 50-H ) :   0.1050 B( 40-C , 41-O ) :   0.8417 B( 40-C , 42-O ) :   0.7204
B( 40-C , 43-C ) :  -0.1889 B( 41-O , 42-O ) :   0.1366 B( 42-O , 43-C ) :   0.9456
B( 43-C , 44-H ) :   0.8745 B( 43-C , 45-H ) :   0.8287 B( 43-C , 46-H ) :   0.9015

MP2 TOTAL ENERGY:    -1578.772434114 Eh
FINAL SINGLE POINT ENERGY     -1578.772434113649

DIPOLE MOMENT
-------------
                                X             Y             Z
Electronic contribution:     24.53185     -20.73427       8.29945
Nuclear contribution   :    -24.65608      21.05121      -8.79216
                        -----------------------------------------
Total Dipole Moment    :     -0.12423       0.31694      -0.49271
                        -----------------------------------------
Magnitude (a.u.)       :      0.59887
Magnitude (Debye)      :      1.52222

Rotational constants in cm-1:     0.007708     0.002996     0.002644
Rotational constants in MHz :   231.086404    89.808982    79.261828

                             ****ORCA TERMINATED NORMALLY****
TOTAL RUN TIME: 0 days 19 hours 12 minutes 52 seconds 58 msec
