                         Program Version 4.2.1 -  RELEASE  -
|  1> %pal
|  2>  nprocs 32
|  3> end
|  4> !RI-MP2 aug-cc-pVQZ aug-cc-pVQZ/C TightSCF
|  5> %maxcore 4500
|  6> *xyzfile 0 1  02_49P.xyz
|  7>
|  8>
|  9>                          ****END OF INPUT****

CARTESIAN COORDINATES (ANGSTROEM)
---------------------------------
  C      1.729226   -1.108455   -1.431072
  C      0.640042   -0.263728    0.770836
  C      0.802761    0.813543   -0.287127
  C      1.352691    0.355549   -1.415020
  C      2.706083   -1.255683   -0.281137
  C      2.047037   -0.762552    1.035181
  O      2.595573   -0.798283    2.099652
  O      3.820109   -1.691522   -0.334907
  C      0.455679    2.255114    0.030929
  C     -1.005391    2.375078    0.489295
  H     -1.215483    3.409196    0.771957
  H     -1.695694    2.090876   -0.305128
  H     -1.220363    1.746350    1.354534
  C      0.664167    3.155671   -1.187416
  H      0.399978    4.184546   -0.934789
  H      1.704983    3.152852   -1.517640
  H      0.034838    2.845785   -2.024892
  C      1.382101    2.727562    1.165609
  H      1.153619    3.763778    1.425786
  H      1.263286    2.124906    2.068012
  H      2.429993    2.674147    0.862661
  C     -4.331832   -0.296096   -0.015995
  C     -3.799459   -0.832983    1.148647
  C     -3.523011   -0.158959   -1.133826
  H     -4.422136   -0.952428    2.027131
  C     -2.470409   -1.225148    1.187252
  H     -3.927932    0.257267   -2.048666
  C     -2.190809   -0.548477   -1.088494
  C     -1.644247   -1.085843    0.073274
  H     -2.063048   -1.647437    2.100034
  C     -0.184254   -1.465907    0.201048
  H     -1.575882   -0.414200   -1.968498
  C      0.491115   -1.972658   -1.093445
  H     -5.370858    0.007621   -0.052408
  H      1.574156    0.979768   -2.269650
  H     -0.129933   -2.254314    0.955536
  H      0.202909    0.094900    1.699071
  H     -0.195857   -1.944801   -1.936979
  H      0.796462   -3.014390   -0.976010
  H      2.202568   -1.422151   -2.359244

 Total Charge           Charge          ....    0
 Multiplicity           Mult            ....    1
 Number of Electrons    NEL             ....  144
 Basis Dimension        Dim             .... 2520

ORBITAL ENERGIES
----------------

  NO   OCC          E(Eh)            E(eV)
   0   2.0000     -20.567321      -559.6653
   1   2.0000     -20.565193      -559.6074
   2   2.0000     -11.339957      -308.5759
   3   2.0000     -11.338368      -308.5327
   4   2.0000     -11.263796      -306.5035
   5   2.0000     -11.257853      -306.3418
   6   2.0000     -11.257117      -306.3217
   7   2.0000     -11.256040      -306.2924
   8   2.0000     -11.252781      -306.2037
   9   2.0000     -11.252372      -306.1926
  10   2.0000     -11.249767      -306.1217
  11   2.0000     -11.244423      -305.9763
  12   2.0000     -11.244017      -305.9653
  13   2.0000     -11.243042      -305.9387
  14   2.0000     -11.241751      -305.9036
  15   2.0000     -11.241350      -305.8927
  16   2.0000     -11.241007      -305.8834
  17   2.0000     -11.220875      -305.3355
  18   2.0000     -11.219577      -305.3002
  19   2.0000     -11.217105      -305.2330
  20   2.0000      -1.422194       -38.6999
  21   2.0000      -1.395491       -37.9732
  22   2.0000      -1.200556       -32.6688
  23   2.0000      -1.166445       -31.7406
  24   2.0000      -1.118077       -30.4244
  25   2.0000      -1.070848       -29.1392
  26   2.0000      -1.035857       -28.1871
  27   2.0000      -1.027337       -27.9553
  28   2.0000      -1.006014       -27.3750
  29   2.0000      -0.959171       -26.1004
  30   2.0000      -0.941359       -25.6157
  31   2.0000      -0.940290       -25.5866
  32   2.0000      -0.871308       -23.7095
  33   2.0000      -0.848250       -23.0821
  34   2.0000      -0.836941       -22.7743
  35   2.0000      -0.818132       -22.2625
  36   2.0000      -0.789670       -21.4880
  37   2.0000      -0.744522       -20.2595
  38   2.0000      -0.717061       -19.5122
  39   2.0000      -0.701822       -19.0976
  40   2.0000      -0.687558       -18.7094
  41   2.0000      -0.668895       -18.2016
  42   2.0000      -0.659609       -17.9489
  43   2.0000      -0.646908       -17.6033
  44   2.0000      -0.642724       -17.4894
  45   2.0000      -0.632346       -17.2070
  46   2.0000      -0.614410       -16.7189
  47   2.0000      -0.610769       -16.6199
  48   2.0000      -0.606733       -16.5101
  49   2.0000      -0.601686       -16.3727
  50   2.0000      -0.594949       -16.1894
  51   2.0000      -0.585247       -15.9254
  52   2.0000      -0.575159       -15.6509
  53   2.0000      -0.553727       -15.0677
  54   2.0000      -0.551209       -14.9992
  55   2.0000      -0.546547       -14.8723
  56   2.0000      -0.537173       -14.6172
  57   2.0000      -0.527465       -14.3531
  58   2.0000      -0.523043       -14.2327
  59   2.0000      -0.516630       -14.0582
  60   2.0000      -0.511882       -13.9290
  61   2.0000      -0.506525       -13.7833
  62   2.0000      -0.500361       -13.6155
  63   2.0000      -0.488486       -13.2924
  64   2.0000      -0.480071       -13.0634
  65   2.0000      -0.465521       -12.6675
  66   2.0000      -0.464432       -12.6378
  67   2.0000      -0.444340       -12.0911
  68   2.0000      -0.410052       -11.1581
  69   2.0000      -0.358573        -9.7573
  70   2.0000      -0.347670        -9.4606
  71   2.0000      -0.338542        -9.2122
  72   0.0000       0.015889         0.4324
  73   0.0000       0.021730         0.5913
  74   0.0000       0.024631         0.6702
  75   0.0000       0.026432         0.7193
  76   0.0000       0.033714         0.9174

MULLIKEN ATOMIC CHARGES
-----------------------
   0 C :   -0.309060
   1 C :   -0.079871
   2 C :    1.050854
   3 C :   -0.931273
   4 C :    1.414059
   5 C :    1.520993
   6 O :   -1.129504
   7 O :   -1.091519
   8 C :    1.515637
   9 C :   -1.326082
  10 H :    0.166476
  11 H :    0.326632
  12 H :    0.177534
  13 C :   -1.397830
  14 H :    0.204505
  15 H :    0.160433
  16 H :    0.170867
  17 C :   -1.162408
  18 H :    0.192022
  19 H :    0.184773
  20 H :    0.213962
  21 C :   -0.336446
  22 C :   -0.408442
  23 C :   -0.453149
  24 H :    0.222468
  25 C :   -0.722750
  26 H :    0.161116
  27 C :   -0.302614
  28 C :    0.636101
  29 H :    0.199452
  30 C :    0.587304
  31 H :    0.091646
  32 C :   -0.891747
  33 H :    0.340590
  34 H :    0.022665
  35 H :    0.401241
  36 H :    0.007031
  37 H :    0.216387
  38 H :    0.185772
  39 H :    0.172177
Sum of atomic charges:   -0.0000000

LOEWDIN ATOMIC CHARGES
----------------------
   0 C :    0.107904
   1 C :    0.075534
   2 C :   -0.037581
   3 C :    0.413806
   4 C :   -0.657581
   5 C :   -0.651575
   6 O :    0.760996
   7 O :    0.746176
   8 C :   -0.270189
   9 C :    0.922433
  10 H :   -0.258557
  11 H :   -0.281620
  12 H :   -0.278108
  13 C :    0.897342
  14 H :   -0.264752
  15 H :   -0.271620
  16 H :   -0.263396
  17 C :    0.927702
  18 H :   -0.262387
  19 H :   -0.274089
  20 H :   -0.253998
  21 C :    0.346739
  22 C :    0.357666
  23 C :    0.358312
  24 H :   -0.314716
  25 C :    0.358998
  26 H :   -0.310276
  27 C :    0.343591
  28 C :   -0.046564
  29 H :   -0.301854
  30 C :    0.160174
  31 H :   -0.324086
  32 C :    0.569358
  33 H :   -0.318096
  34 H :   -0.292186
  35 H :   -0.287153
  36 H :   -0.313843
  37 H :   -0.297776
  38 H :   -0.237327
  39 H :   -0.277403

  Mayer bond orders larger than 0.100000
B(  0-C ,  1-C ) :   0.1485 B(  0-C ,  2-C ) :  -0.2499 B(  0-C ,  3-C ) :   1.1711
B(  0-C ,  4-C ) :   1.0140 B(  0-C ,  5-C ) :  -0.2206 B(  0-C ,  7-O ) :   0.2997
B(  0-C , 32-C ) :   1.0594 B(  0-C , 39-H ) :   1.0597 B(  1-C ,  2-C ) :   0.2550
B(  1-C ,  3-C ) :  -0.2467 B(  1-C ,  4-C ) :  -0.2055 B(  1-C ,  5-C ) :   0.8666
B(  1-C ,  6-O ) :   0.4863 B(  1-C ,  7-O ) :   0.1571 B(  1-C ,  8-C ) :   0.1197
B(  1-C , 25-C ) :   0.1086 B(  1-C , 30-C ) :   0.8314 B(  1-C , 36-H ) :   1.0301
B(  2-C ,  3-C ) :   1.0905 B(  2-C ,  5-C ) :   0.1013 B(  2-C ,  6-O ) :   0.1730
B(  2-C ,  8-C ) :   0.5310 B(  2-C , 13-C ) :  -0.2129 B(  2-C , 17-C ) :  -0.1917
B(  2-C , 27-C ) :   0.1079 B(  2-C , 32-C ) :   0.1641 B(  2-C , 34-H ) :  -0.2015
B(  3-C ,  4-C ) :   0.1317 B(  3-C ,  8-C ) :  -0.2402 B(  3-C , 30-C ) :  -0.2107
B(  3-C , 34-H ) :   1.4472 B(  3-C , 39-H ) :  -0.1781 B(  4-C ,  5-C ) :   1.2815
B(  4-C ,  6-O ) :   0.3182 B(  4-C ,  7-O ) :  -0.1368 B(  5-C ,  6-O ) :  -0.2335
B(  5-C ,  7-O ) :   0.4418 B(  5-C , 30-C ) :   0.3982 B(  6-O ,  7-O ) :   0.1131
B(  6-O , 30-C ) :   0.1387 B(  6-O , 35-H ) :  -0.1095 B(  6-O , 36-H ) :   0.3226
B(  7-O , 32-C ) :   0.1055 B(  7-O , 39-H ) :   0.1155 B(  8-C ,  9-C ) :   0.3111
B(  8-C , 11-H ) :  -0.1631 B(  8-C , 12-H ) :  -0.1425 B(  8-C , 14-H ) :  -0.1681
B(  8-C , 15-H ) :  -0.2066 B(  8-C , 16-H ) :  -0.2099 B(  8-C , 17-C ) :   0.2270
B(  8-C , 18-H ) :  -0.1522 B(  8-C , 19-H ) :  -0.1528 B(  8-C , 20-H ) :  -0.1668
B(  9-C , 10-H ) :   1.1322 B(  9-C , 11-H ) :   1.0085 B(  9-C , 12-H ) :   1.1279
B(  9-C , 13-C ) :   0.1720 B(  9-C , 17-C ) :   0.1183 B( 11-H , 12-H ) :   0.1366
B( 13-C , 14-H ) :   1.1710 B( 13-C , 15-H ) :   1.2542 B( 13-C , 16-H ) :   1.1990
B( 13-C , 17-C ) :   0.1634 B( 17-C , 18-H ) :   1.1550 B( 17-C , 19-H ) :   1.1165
B( 17-C , 20-H ) :   1.1260 B( 21-C , 22-C ) :   1.1249 B( 21-C , 23-C ) :   1.1722
B( 21-C , 33-H ) :   1.0620 B( 22-C , 24-H ) :   1.1928 B( 22-C , 25-C ) :   1.3240
B( 22-C , 27-C ) :   0.1232 B( 22-C , 28-C ) :  -0.3246 B( 23-C , 25-C ) :   0.1509
B( 23-C , 26-H ) :   1.1892 B( 23-C , 27-C ) :   1.3180 B( 23-C , 28-C ) :  -0.3825
B( 23-C , 33-H ) :  -0.1215 B( 24-H , 25-C ) :  -0.1816 B( 25-C , 28-C ) :   0.8074
B( 25-C , 29-H ) :   1.1038 B( 25-C , 30-C ) :  -0.4993 B( 27-C , 28-C ) :   1.1360
B( 27-C , 30-C ) :  -0.5108 B( 27-C , 31-H ) :   1.1298 B( 28-C , 29-H ) :  -0.1366
B( 28-C , 35-H ) :  -0.2053 B( 30-C , 32-C ) :   0.5370 B( 30-C , 35-H ) :   0.9723
B( 30-C , 37-H ) :  -0.1349 B( 30-C , 38-H ) :  -0.1152 B( 32-C , 37-H ) :   1.0967
B( 32-C , 38-H ) :   1.0699

MP2 TOTAL ENERGY:     -846.946961040 Eh
FINAL SINGLE POINT ENERGY      -846.946961039787

DIPOLE MOMENT
-------------
                                X             Y             Z
Electronic contribution:      7.97374     -15.04672       2.14061
Nuclear contribution   :    -10.03065      15.76465      -3.12548
                        -----------------------------------------
Total Dipole Moment    :     -2.05691       0.71792      -0.98486
                        -----------------------------------------
Magnitude (a.u.)       :      2.39087
Magnitude (Debye)      :      6.07710

Rotational constants in cm-1:     0.017253     0.009835     0.008134
Rotational constants in MHz :   517.220720   294.842805   243.862270

                             ****ORCA TERMINATED NORMALLY****
TOTAL RUN TIME: 0 days 11 hours 23 minutes 27 seconds 534 msec
