                         Program Version 4.2.1 -  RELEASE  -
|  1> %pal
|  2>  nprocs 32
|  3> end
|  4> !RI-MP2 aug-cc-pVQZ aug-cc-pVQZ/C TightSCF
|  5> %maxcore 4500
|  6> *xyzfile 0 1  04_40R1.xyz
|  7>
|  8>
|  9>                          ****END OF INPUT****

CARTESIAN COORDINATES (ANGSTROEM)
---------------------------------
  H      3.139346    0.770403   -0.000029
  O      2.756681   -0.110618   -0.000044
  C      1.390969   -0.026178   -0.000022
  C      0.673981   -1.212795   -0.000010
  C     -0.712350   -1.185668    0.000009
  C     -1.390969    0.026175    0.000021
  C     -0.673980    1.212795    0.000011
  C      0.712348    1.185667   -0.000012
  H      1.266409    2.118747   -0.000022
  H     -1.266408   -2.118749    0.000016
  H      1.211251   -2.152326   -0.000018
  H     -1.211253    2.152324    0.000020
  O     -2.756680    0.110621    0.000039
  H     -3.139349   -0.770399    0.000086

 Total Charge           Charge          ....    0
 Multiplicity           Mult            ....    1
 Number of Electrons    NEL             ....   58
 Basis Dimension        Dim             ....  916

ORBITAL ENERGIES
----------------

  NO   OCC          E(Eh)            E(eV)
   0   2.0000     -20.584446      -560.1313
   1   2.0000     -20.584446      -560.1313
   2   2.0000     -11.293955      -307.3241
   3   2.0000     -11.293935      -307.3236
   4   2.0000     -11.238923      -305.8266
   5   2.0000     -11.238898      -305.8260
   6   2.0000     -11.234246      -305.6994
   7   2.0000     -11.234234      -305.6991
   8   2.0000      -1.402522       -38.1646
   9   2.0000      -1.401092       -38.1256
  10   2.0000      -1.149953       -31.2918
  11   2.0000      -1.028436       -27.9852
  12   2.0000      -1.000057       -27.2129
  13   2.0000      -0.865525       -23.5521
  14   2.0000      -0.824852       -22.4454
  15   2.0000      -0.747609       -20.3435
  16   2.0000      -0.734435       -19.9850
  17   2.0000      -0.668867       -18.2008
  18   2.0000      -0.625407       -17.0182
  19   2.0000      -0.618594       -16.8328
  20   2.0000      -0.598908       -16.2971
  21   2.0000      -0.596601       -16.2343
  22   2.0000      -0.579198       -15.7608
  23   2.0000      -0.551800       -15.0152
  24   2.0000      -0.550500       -14.9799
  25   2.0000      -0.496676       -13.5152
  26   2.0000      -0.467674       -12.7261
  27   2.0000      -0.350608        -9.5405
  28   2.0000      -0.299722        -8.1559
  29   0.0000       0.023768         0.6468
  30   0.0000       0.024864         0.6766
  31   0.0000       0.033052         0.8994
  32   0.0000       0.041745         1.1359
  33   0.0000       0.047144         1.2829

MULLIKEN ATOMIC CHARGES
-----------------------
   0 H :    0.361706
   1 O :   -0.812199
   2 C :    0.977545
   3 C :   -0.467924
   4 C :   -0.579832
   5 C :    0.977551
   6 C :   -0.467917
   7 C :   -0.579862
   8 H :    0.186429
   9 H :    0.186436
  10 H :    0.334274
  11 H :    0.334289
  12 O :   -0.812203
  13 H :    0.361708
Sum of atomic charges:    0.0000000

LOEWDIN ATOMIC CHARGES
----------------------
   0 H :   -0.810563
   1 O :    1.267037
   2 C :   -0.446331
   3 C :    0.313222
   4 C :    0.321066
   5 C :   -0.446332
   6 C :    0.313223
   7 C :    0.321066
   8 H :   -0.321235
   9 H :   -0.321236
  10 H :   -0.323196
  11 H :   -0.323196
  12 O :    1.267037
  13 H :   -0.810561

  Mayer bond orders larger than 0.100000
B(  0-H ,  1-O ) :   0.8968 B(  0-H ,  2-C ) :  -0.1063 B(  1-O ,  3-C ) :   0.3047
B(  1-O ,  7-C ) :   0.2104 B(  2-C ,  3-C ) :   1.3586 B(  2-C ,  4-C ) :  -0.1708
B(  2-C ,  5-C ) :   0.1545 B(  2-C ,  6-C ) :  -0.1382 B(  2-C ,  7-C ) :   1.2886
B(  3-C ,  4-C ) :   1.2159 B(  3-C ,  5-C ) :  -0.1382 B(  3-C ,  9-H ) :  -0.1412
B(  3-C , 10-H ) :   0.9192 B(  4-C ,  5-C ) :   1.2886 B(  4-C ,  9-H ) :   1.1161
B(  4-C , 10-H ) :  -0.1216 B(  4-C , 12-O ) :   0.2104 B(  5-C ,  6-C ) :   1.3586
B(  5-C ,  7-C ) :  -0.1708 B(  5-C , 13-H ) :  -0.1063 B(  6-C ,  7-C ) :   1.2160
B(  6-C ,  8-H ) :  -0.1412 B(  6-C , 11-H ) :   0.9192 B(  6-C , 12-O ) :   0.3047
B(  7-C ,  8-H ) :   1.1161 B(  7-C , 11-H ) :  -0.1216 B( 12-O , 13-H ) :   0.8968

MP2 TOTAL ENERGY:     -382.113001494 Eh
FINAL SINGLE POINT ENERGY      -382.113001494328

DIPOLE MOMENT
-------------
                                X             Y             Z
Electronic contribution:     -0.00000       0.00000      -0.00001
Nuclear contribution   :     -0.00000       0.00000       0.00005
                        -----------------------------------------
Total Dipole Moment    :     -0.00001       0.00000       0.00004
                        -----------------------------------------
Magnitude (a.u.)       :      0.00004
Magnitude (Debye)      :      0.00010

Rotational constants in cm-1:     0.189413     0.049742     0.039396
Rotational constants in MHz :  5678.471587  1491.238771  1181.073791

                             ****ORCA TERMINATED NORMALLY****
TOTAL RUN TIME: 0 days 0 hours 18 minutes 11 seconds 325 msec
