                         Program Version 4.2.1 -  RELEASE  -
|  1> %pal
|  2>  nprocs 32
|  3> end
|  4> !RI-MP2 aug-cc-pVQZ aug-cc-pVQZ/C TightSCF
|  5> %maxcore 4500
|  6> *xyzfile 0 1  10_21P.xyz
|  7>
|  8>
|  9>                          ****END OF INPUT****

CARTESIAN COORDINATES (ANGSTROEM)
---------------------------------
  C     -0.123589   -0.325306   -1.155652
  C     -1.185874   -1.415089   -0.987064
  C      1.178888   -1.025940   -0.671098
  N      0.783926   -2.444767   -0.484854
  N     -0.413351   -2.643115   -0.674002
  C      2.043004   -0.498408    0.424771
  C      2.808690    0.644970    0.217538
  C      2.040232   -1.102381    1.677867
  C      3.551646    1.185983    1.254541
  H      2.826415    1.117429   -0.757296
  C      2.785883   -0.560676    2.714643
  H      1.462811   -2.003812    1.838207
  C      3.539445    0.585897    2.506347
  H      4.143755    2.076396    1.083240
  H      2.781580   -1.039324    3.686327
  H      4.122538    1.007366    3.316143
  C     -2.229607   -1.176632    0.057239
  C     -3.420322   -0.284644   -0.206399
  C     -2.286617   -1.726741    1.265032
  C     -4.019143   -0.088475    1.197972
  H     -4.115873   -0.797037   -0.882537
  H     -3.151321    0.660128   -0.682199
  C     -3.507119   -1.284898    2.026490
  H     -1.578705   -2.451086    1.647679
  H     -5.106568   -0.011810    1.188373
  H     -3.285513   -1.014761    3.061811
  C      1.607839   -0.852154   -2.137084
  C     -0.435606    1.074803   -0.737216
  C     -0.645052    2.059574   -1.696175
  C     -0.539818    1.400306    0.613590
  C     -0.973847    3.351912   -1.309713
  H     -0.546192    1.810631   -2.744344
  C     -0.867296    2.690990    0.995313
  H     -0.362741    0.646839    1.368389
  C     -1.089516    3.669881    0.035290
  H     -1.137579    4.111306   -2.064534
  H     -0.941558    2.934934    2.048061
  H     -1.344074    4.678830    0.336275
  O      0.395452   -0.375419   -2.535543
  O      2.577167   -1.025242   -2.787168
  H     -4.240034   -2.099101    2.066503
  H     -3.627466    0.838207    1.622328
  H     -1.667778   -1.582500   -1.956137

 Total Charge           Charge          ....    0
 Multiplicity           Mult            ....    1
 Number of Electrons    NEL             ....  174
 Basis Dimension        Dim             .... 2828

ORBITAL ENERGIES
----------------

  NO   OCC          E(Eh)            E(eV)
   0   2.0000     -20.613370      -560.9183
   1   2.0000     -20.564766      -559.5957
   2   2.0000     -15.643397      -425.6785
   3   2.0000     -15.641879      -425.6372
   4   2.0000     -11.394290      -310.0544
   5   2.0000     -11.333758      -308.4072
   6   2.0000     -11.308102      -307.7091
   7   2.0000     -11.291226      -307.2499
   8   2.0000     -11.259046      -306.3742
   9   2.0000     -11.258596      -306.3620
  10   2.0000     -11.247309      -306.0548
  11   2.0000     -11.247079      -306.0486
  12   2.0000     -11.246941      -306.0448
  13   2.0000     -11.246698      -306.0382
  14   2.0000     -11.246232      -306.0255
  15   2.0000     -11.246116      -306.0224
  16   2.0000     -11.245041      -305.9931
  17   2.0000     -11.244554      -305.9799
  18   2.0000     -11.244373      -305.9749
  19   2.0000     -11.243690      -305.9564
  20   2.0000     -11.243336      -305.9467
  21   2.0000     -11.233480      -305.6785
  22   2.0000     -11.231450      -305.6233
  23   2.0000     -11.231362      -305.6209
  24   2.0000     -11.227206      -305.5078
  25   2.0000      -1.488287       -40.4984
  26   2.0000      -1.408873       -38.3374
  27   2.0000      -1.389711       -37.8160
  28   2.0000      -1.181506       -32.1504
  29   2.0000      -1.176638       -32.0180
  30   2.0000      -1.158270       -31.5181
  31   2.0000      -1.104182       -30.0463
  32   2.0000      -1.091247       -29.6943
  33   2.0000      -1.039250       -28.2794
  34   2.0000      -1.031421       -28.0664
  35   2.0000      -1.031204       -28.0605
  36   2.0000      -1.009242       -27.4629
  37   2.0000      -0.974915       -26.5288
  38   2.0000      -0.962944       -26.2030
  39   2.0000      -0.903150       -24.5759
  40   2.0000      -0.867981       -23.6190
  41   2.0000      -0.847605       -23.0645
  42   2.0000      -0.844425       -22.9780
  43   2.0000      -0.830591       -22.6015
  44   2.0000      -0.811647       -22.0860
  45   2.0000      -0.802318       -21.8322
  46   2.0000      -0.756532       -20.5863
  47   2.0000      -0.749218       -20.3873
  48   2.0000      -0.731388       -19.9021
  49   2.0000      -0.715871       -19.4798
  50   2.0000      -0.706700       -19.2303
  51   2.0000      -0.693209       -18.8632
  52   2.0000      -0.681586       -18.5469
  53   2.0000      -0.662578       -18.0297
  54   2.0000      -0.658947       -17.9309
  55   2.0000      -0.647280       -17.6134
  56   2.0000      -0.642752       -17.4902
  57   2.0000      -0.639271       -17.3954
  58   2.0000      -0.634910       -17.2768
  59   2.0000      -0.610877       -16.6228
  60   2.0000      -0.607607       -16.5338
  61   2.0000      -0.601288       -16.3619
  62   2.0000      -0.599098       -16.3023
  63   2.0000      -0.589201       -16.0330
  64   2.0000      -0.578351       -15.7377
  65   2.0000      -0.560940       -15.2640
  66   2.0000      -0.556159       -15.1339
  67   2.0000      -0.541820       -14.7437
  68   2.0000      -0.527076       -14.3425
  69   2.0000      -0.522587       -14.2203
  70   2.0000      -0.516915       -14.0660
  71   2.0000      -0.514781       -14.0079
  72   2.0000      -0.509795       -13.8722
  73   2.0000      -0.508942       -13.8490
  74   2.0000      -0.498665       -13.5694
  75   2.0000      -0.497695       -13.5430
  76   2.0000      -0.492398       -13.3988
  77   2.0000      -0.487741       -13.2721
  78   2.0000      -0.486455       -13.2371
  79   2.0000      -0.474326       -12.9071
  80   2.0000      -0.448458       -12.2032
  81   2.0000      -0.406073       -11.0498
  82   2.0000      -0.362791        -9.8720
  83   2.0000      -0.353107        -9.6085
  84   2.0000      -0.352313        -9.5869
  85   2.0000      -0.342842        -9.3292
  86   2.0000      -0.339940        -9.2502
  87   0.0000       0.015528         0.4225
  88   0.0000       0.021322         0.5802
  89   0.0000       0.023079         0.6280
  90   0.0000       0.027272         0.7421
  91   0.0000       0.031150         0.8476

MULLIKEN ATOMIC CHARGES
-----------------------
   0 C :    2.684148
   1 C :    0.537621
   2 C :    0.881990
   3 N :   -0.730303
   4 N :   -0.770138
   5 C :    0.320044
   6 C :   -0.533359
   7 C :   -0.353646
   8 C :   -0.465951
   9 H :    0.247781
  10 C :   -0.459692
  11 H :    0.190747
  12 C :   -0.328498
  13 H :    0.193162
  14 H :    0.213552
  15 H :    0.372099
  16 C :    0.572115
  17 C :   -0.726405
  18 C :   -0.785204
  19 C :   -0.750737
  20 H :    0.224752
  21 H :    0.377539
  22 C :   -0.588879
  23 H :    0.204646
  24 H :    0.295641
  25 H :    0.250927
  26 C :    1.745309
  27 C :   -0.170042
  28 C :   -0.631247
  29 C :   -0.590452
  30 C :   -0.443533
  31 H :    0.208257
  32 C :   -0.211751
  33 H :    0.266033
  34 C :   -0.371384
  35 H :    0.233210
  36 H :    0.200773
  37 H :    0.285321
  38 O :   -1.432169
  39 O :   -1.130943
  40 H :    0.302047
  41 H :    0.281585
  42 H :    0.385032
Sum of atomic charges:    0.0000000

LOEWDIN ATOMIC CHARGES
----------------------
   0 C :   -0.648954
   1 C :   -0.090067
   2 C :   -0.552296
   3 N :    0.404116
   4 N :    0.418133
   5 C :   -0.108058
   6 C :    0.343583
   7 C :    0.340988
   8 C :    0.368481
   9 H :   -0.307291
  10 C :    0.362513
  11 H :   -0.331648
  12 C :    0.350649
  13 H :   -0.311674
  14 H :   -0.315258
  15 H :   -0.316571
  16 C :   -0.057273
  17 C :    0.523229
  18 C :    0.412994
  19 C :    0.530788
  20 H :   -0.245825
  21 H :   -0.283105
  22 C :    0.527286
  23 H :   -0.291626
  24 H :   -0.251637
  25 H :   -0.268513
  26 C :   -1.066661
  27 C :   -0.099132
  28 C :    0.356046
  29 C :    0.321077
  30 C :    0.363638
  31 H :   -0.328315
  32 C :    0.371591
  33 H :   -0.315692
  34 C :    0.354054
  35 H :   -0.314651
  36 H :   -0.306786
  37 H :   -0.315665
  38 O :    0.899929
  39 O :    0.710179
  40 H :   -0.264242
  41 H :   -0.272903
  42 H :   -0.295431

  Mayer bond orders larger than 0.100000
B(  0-C ,  1-C ) :   0.8154 B(  0-C ,  2-C ) :   0.4014 B(  0-C ,  3-N ) :   0.2361
B(  0-C ,  6-C ) :  -0.1101 B(  0-C , 16-C ) :  -0.1888 B(  0-C , 18-C ) :  -0.1338
B(  0-C , 26-C ) :  -0.4453 B(  0-C , 27-C ) :  -0.5586 B(  0-C , 28-C ) :  -0.5342
B(  0-C , 29-C ) :  -0.2588 B(  0-C , 38-O ) :  -1.6628 B(  0-C , 39-O ) :   0.3577
B(  1-C ,  2-C ) :  -0.1289 B(  1-C ,  4-N ) :   0.3126 B(  1-C , 16-C ) :   0.4216
B(  1-C , 18-C ) :  -0.3148 B(  1-C , 29-C ) :  -0.1870 B(  1-C , 38-O ) :   0.3835
B(  1-C , 42-H ) :   0.9274 B(  2-C ,  3-N ) :  -0.1254 B(  2-C ,  4-N ) :  -0.2004
B(  2-C ,  5-C ) :  -0.1348 B(  2-C ,  6-C ) :  -0.2766 B(  2-C ,  7-C ) :  -0.5561
B(  2-C , 26-C ) :   1.6579 B(  2-C , 28-C ) :   0.1199 B(  2-C , 38-O ) :   0.2616
B(  2-C , 39-O ) :   0.4867 B(  3-N ,  4-N ) :   1.3690 B(  3-N ,  5-C ) :  -0.1862
B(  5-C ,  6-C ) :   1.0505 B(  5-C ,  7-C ) :   1.3422 B(  5-C ,  8-C ) :  -0.3526
B(  5-C , 10-C ) :  -0.2738 B(  5-C , 12-C ) :   0.1637 B(  5-C , 29-C ) :   0.1338
B(  5-C , 39-O ) :   0.1340 B(  6-C ,  8-C ) :   1.3126 B(  6-C ,  9-H ) :   1.0546
B(  6-C , 13-H ) :  -0.1216 B(  7-C , 10-C ) :   1.1610 B(  7-C , 11-H ) :   1.0126
B(  7-C , 14-H ) :  -0.1388 B(  8-C , 12-C ) :   1.2026 B(  8-C , 13-H ) :   1.2054
B( 10-C , 12-C ) :   1.2046 B( 10-C , 14-H ) :   1.1823 B( 12-C , 15-H ) :   1.0008
B( 16-C , 17-C ) :   0.6258 B( 16-C , 18-C ) :   1.1326 B( 16-C , 19-C ) :  -0.1478
B( 16-C , 22-C ) :  -0.4323 B( 16-C , 29-C ) :   0.1272 B( 17-C , 19-C ) :   1.0260
B( 17-C , 20-H ) :   0.9889 B( 17-C , 21-H ) :   0.7189 B( 18-C , 22-C ) :   0.8694
B( 18-C , 23-H ) :   1.1299 B( 19-C , 22-C ) :   1.0975 B( 19-C , 24-H ) :   0.9581
B( 19-C , 41-H ) :   0.9464 B( 22-C , 25-H ) :   1.0225 B( 22-C , 40-H ) :   0.9652
B( 26-C , 27-C ) :  -0.1184 B( 26-C , 38-O ) :   1.3135 B( 26-C , 39-O ) :   0.1136
B( 27-C , 28-C ) :   1.5717 B( 27-C , 29-C ) :   0.3778 B( 27-C , 30-C ) :  -0.2632
B( 27-C , 32-C ) :  -0.4995 B( 27-C , 38-O ) :   0.3628 B( 28-C , 30-C ) :   1.3484
B( 28-C , 31-H ) :   1.0480 B( 28-C , 32-C ) :   0.2206 B( 28-C , 35-H ) :  -0.1313
B( 28-C , 38-O ) :  -0.1460 B( 29-C , 32-C ) :   1.7374 B( 29-C , 33-H ) :   0.9915
B( 29-C , 34-C ) :   0.1167 B( 30-C , 32-C ) :   0.1282 B( 30-C , 34-C ) :   1.1076
B( 30-C , 35-H ) :   1.1605 B( 30-C , 37-H ) :  -0.1041 B( 31-H , 38-O ) :   0.1020
B( 32-C , 34-C ) :   1.0131 B( 32-C , 36-H ) :   1.1247 B( 32-C , 37-H ) :  -0.1623
B( 34-C , 37-H ) :   1.1424

MP2 TOTAL ENERGY:    -1069.181314258 Eh
FINAL SINGLE POINT ENERGY     -1069.181314257558

DIPOLE MOMENT
-------------
                                X             Y             Z
Electronic contribution:     14.25410      -7.25253     -12.33516
Nuclear contribution   :    -15.54788       8.73441      13.93200
                        -----------------------------------------
Total Dipole Moment    :     -1.29378       1.48187       1.59684
                        -----------------------------------------
Magnitude (a.u.)       :      2.53371
Magnitude (Debye)      :      6.44019

Rotational constants in cm-1:     0.009913     0.007135     0.006736
Rotational constants in MHz :   297.178230   213.904102   201.954818

                             ****ORCA TERMINATED NORMALLY****
TOTAL RUN TIME: 0 days 15 hours 6 minutes 10 seconds 394 msec
