                         Program Version 4.2.1 -  RELEASE  -
|  1> %pal
|  2>  nprocs 32
|  3> end
|  4> !RI-MP2 aug-cc-pVQZ aug-cc-pVQZ/C TightSCF
|  5> %maxcore 4500
|  6> *xyzfile 0 1  06_26TS.xyz
|  7>
|  8>
|  9>                          ****END OF INPUT****

CARTESIAN COORDINATES (ANGSTROEM)
---------------------------------
  C      1.871802   -2.468434    0.087719
  C      1.607128   -1.395582    1.160803
  C      1.424471    0.424994   -1.330839
  H      0.946328   -2.998360   -0.158761
  C      2.872854   -0.544919    1.435013
  H      2.979699   -0.419053    2.516614
  H      3.762734   -1.095522    1.112626
  H      1.201108    1.077799   -2.179638
  H      1.406641   -1.945647    2.088199
  H      0.174873    0.217825    1.936958
  C      2.879334    0.862242    0.833512
  H      2.105957    1.439803    1.341853
  H      3.824188    1.346369    1.102505
  C      2.688721    1.028877   -0.678555
  H      2.686631    2.107992   -0.866494
  H      3.569471    0.648960   -1.206249
  C      1.682670   -0.947154   -1.988777
  H      0.719186   -1.388321   -2.266206
  C      2.496625   -1.973427   -1.210296
  H      2.661618   -2.838139   -1.860801
  H      3.492357   -1.568263   -1.007962
  H      2.212128   -0.760494   -2.929977
  H      2.546823   -3.219401    0.515862
  C      0.153703    0.449098   -0.432104
  H     -0.622057    0.003488   -1.065875
  Si    -0.533855    2.206066   -0.196039
  C      0.182626    3.168363    1.259153
  H      1.224120    3.450889    1.094897
  H     -0.389033    4.091098    1.393591
  H      0.134244    2.611910    2.197967
  C     -0.226880    3.236289   -1.745208
  H     -0.721088    4.207478   -1.653320
  H     -0.626835    2.747985   -2.638042
  H      0.835227    3.423611   -1.917920
  C     -2.402665    2.157942    0.040483
  H     -2.896921    1.796373   -0.864001
  H     -2.713450    1.511912    0.861302
  H     -2.775136    3.167022    0.238194
  B      0.339182   -0.427305    0.913928
  C     -1.347213   -0.873457    2.005305
  C     -1.118346   -1.800612    1.062060
  H     -0.565322   -2.694831    1.311306
  C     -1.891041   -0.205585    2.978528
  H     -2.796761   -0.601934    3.425390
  H     -1.492464    0.726397    3.350415
  C     -1.886447   -1.910850   -0.200957
  O     -1.674330   -2.760599   -1.025358
  O     -2.842436   -0.985750   -0.311848
  C     -3.592183   -1.009309   -1.530286
  H     -4.091184   -1.970179   -1.650127
  H     -4.318081   -0.206136   -1.440844
  H     -2.933767   -0.839087   -2.382243

 Total Charge           Charge          ....    0
 Multiplicity           Mult            ....    1
 Number of Electrons    NEL             ....  168
 Basis Dimension        Dim             .... 3110

ORBITAL ENERGIES
----------------

  NO   OCC          E(Eh)            E(eV)
   0   2.0000     -68.732575     -1870.3085
   1   2.0000     -20.609434      -560.8112
   2   2.0000     -20.548930      -559.1648
   3   2.0000     -11.393182      -310.0242
   4   2.0000     -11.331599      -308.3485
   5   2.0000     -11.291056      -307.2452
   6   2.0000     -11.279431      -306.9289
   7   2.0000     -11.269446      -306.6572
   8   2.0000     -11.209732      -305.0323
   9   2.0000     -11.202156      -304.8262
  10   2.0000     -11.200851      -304.7907
  11   2.0000     -11.200249      -304.7743
  12   2.0000     -11.195343      -304.6408
  13   2.0000     -11.194904      -304.6288
  14   2.0000     -11.194453      -304.6166
  15   2.0000     -11.186549      -304.4015
  16   2.0000     -11.186026      -304.3872
  17   2.0000     -11.183738      -304.3250
  18   2.0000     -11.183725      -304.3246
  19   2.0000     -11.172400      -304.0165
  20   2.0000      -7.572974      -206.0711
  21   2.0000      -6.081464      -165.4850
  22   2.0000      -4.187999      -113.9612
  23   2.0000      -4.187948      -113.9599
  24   2.0000      -4.187518      -113.9482
  25   2.0000      -1.475644       -40.1543
  26   2.0000      -1.371115       -37.3099
  27   2.0000      -1.144638       -31.1472
  28   2.0000      -1.099544       -29.9201
  29   2.0000      -1.037946       -28.2439
  30   2.0000      -1.032892       -28.1064
  31   2.0000      -1.029191       -28.0057
  32   2.0000      -0.974609       -26.5205
  33   2.0000      -0.963269       -26.2119
  34   2.0000      -0.938139       -25.5281
  35   2.0000      -0.913855       -24.8673
  36   2.0000      -0.911792       -24.8111
  37   2.0000      -0.902341       -24.5539
  38   2.0000      -0.860797       -23.4235
  39   2.0000      -0.830321       -22.5942
  40   2.0000      -0.785933       -21.3863
  41   2.0000      -0.778943       -21.1961
  42   2.0000      -0.767628       -20.8882
  43   2.0000      -0.712182       -19.3795
  44   2.0000      -0.703442       -19.1416
  45   2.0000      -0.693035       -18.8584
  46   2.0000      -0.688812       -18.7435
  47   2.0000      -0.676382       -18.4053
  48   2.0000      -0.654979       -17.8229
  49   2.0000      -0.647268       -17.6131
  50   2.0000      -0.628788       -17.1102
  51   2.0000      -0.613181       -16.6855
  52   2.0000      -0.603812       -16.4306
  53   2.0000      -0.597888       -16.2694
  54   2.0000      -0.585547       -15.9335
  55   2.0000      -0.569614       -15.5000
  56   2.0000      -0.564249       -15.3540
  57   2.0000      -0.562301       -15.3010
  58   2.0000      -0.558880       -15.2079
  59   2.0000      -0.554756       -15.0957
  60   2.0000      -0.550430       -14.9780
  61   2.0000      -0.546061       -14.8591
  62   2.0000      -0.541473       -14.7342
  63   2.0000      -0.536831       -14.6079
  64   2.0000      -0.527023       -14.3410
  65   2.0000      -0.526010       -14.3134
  66   2.0000      -0.520061       -14.1516
  67   2.0000      -0.493543       -13.4300
  68   2.0000      -0.482354       -13.1255
  69   2.0000      -0.479273       -13.0417
  70   2.0000      -0.473774       -12.8920
  71   2.0000      -0.469874       -12.7859
  72   2.0000      -0.466125       -12.6839
  73   2.0000      -0.455030       -12.3820
  74   2.0000      -0.448039       -12.1918
  75   2.0000      -0.432246       -11.7620
  76   2.0000      -0.426996       -11.6191
  77   2.0000      -0.420254       -11.4357
  78   2.0000      -0.417384       -11.3576
  79   2.0000      -0.406464       -11.0605
  80   2.0000      -0.400322       -10.8933
  81   2.0000      -0.390968       -10.6388
  82   2.0000      -0.382779       -10.4160
  83   2.0000      -0.360808        -9.8181
  84   0.0000       0.015581         0.4240
  85   0.0000       0.023498         0.6394
  86   0.0000       0.024630         0.6702
  87   0.0000       0.026620         0.7244
  88   0.0000       0.034037         0.9262

MULLIKEN ATOMIC CHARGES
-----------------------
   0 C :   -0.805575
   1 C :    0.325721
   2 C :    1.067868
   3 H :    0.147467
   4 C :   -0.674896
   5 H :   -0.054146
   6 H :    0.045259
   7 H :    0.399729
   8 H :    0.364878
   9 H :   -0.269537
  10 C :   -0.736795
  11 H :    0.376766
  12 H :    0.018889
  13 C :   -0.420077
  14 H :    0.049820
  15 H :    0.032852
  16 C :   -0.913974
  17 H :    0.210285
  18 C :   -0.490723
  19 H :    0.079697
  20 H :    0.133635
  21 H :   -0.073202
  22 H :   -0.005107
  23 C :   -1.208632
  24 H :    0.091671
  25 Si:    1.508147
  26 C :   -1.039128
  27 H :    0.217045
  28 H :    0.104776
  29 H :    0.306675
  30 C :   -0.871083
  31 H :    0.158010
  32 H :    0.253749
  33 H :    0.261568
  34 C :   -1.118468
  35 H :    0.279795
  36 H :    0.306858
  37 H :    0.153433
  38 B :    1.821542
  39 C :    0.244653
  40 C :    0.112968
  41 H :    0.634286
  42 C :   -1.149498
  43 H :    0.172165
  44 H :    0.224407
  45 C :    1.805216
  46 O :   -1.234409
  47 O :   -0.928113
  48 C :   -1.083350
  49 H :    0.380577
  50 H :    0.400992
  51 H :    0.385316
Sum of atomic charges:   -0.0000000

LOEWDIN ATOMIC CHARGES
----------------------
   0 C :    0.564424
   1 C :    0.325859
   2 C :    0.159000
   3 H :   -0.300074
   4 C :    0.589347
   5 H :   -0.250512
   6 H :   -0.273817
   7 H :   -0.337176
   8 H :   -0.287075
   9 H :   -0.226810
  10 C :    0.576742
  11 H :   -0.354827
  12 H :   -0.242296
  13 C :    0.586746
  14 H :   -0.270355
  15 H :   -0.265589
  16 C :    0.581868
  17 H :   -0.266688
  18 C :    0.568725
  19 H :   -0.250855
  20 H :   -0.298081
  21 H :   -0.253791
  22 H :   -0.246991
  23 C :    0.414870
  24 H :   -0.403398
  25 Si:    0.186560
  26 C :    1.016483
  27 H :   -0.333840
  28 H :   -0.325679
  29 H :   -0.332157
  30 C :    1.009637
  31 H :   -0.327322
  32 H :   -0.320884
  33 H :   -0.336258
  34 C :    0.998214
  35 H :   -0.351473
  36 H :   -0.364105
  37 H :   -0.326441
  38 B :   -0.640975
  39 C :    0.209781
  40 C :    0.268887
  41 H :   -0.345882
  42 C :    0.877723
  43 H :   -0.316119
  44 H :   -0.318900
  45 C :   -1.085815
  46 O :    0.773510
  47 O :    0.872903
  48 C :    0.595895
  49 H :   -0.304604
  50 H :   -0.318575
  51 H :   -0.299811

  Mayer bond orders larger than 0.100000
B(  0-C ,  1-C ) :   0.2155 B(  0-C ,  3-H ) :   1.2553 B(  0-C , 18-C ) :   0.8093
B(  0-C , 22-H ) :   1.3220 B(  0-C , 38-B ) :  -0.1643 B(  1-C ,  3-H ) :  -0.2158
B(  1-C ,  4-C ) :   0.2591 B(  1-C ,  5-H ) :  -0.2047 B(  1-C ,  6-H ) :  -0.2887
B(  1-C ,  8-H ) :   1.0247 B(  1-C , 10-C ) :   0.1417 B(  1-C , 18-C ) :  -0.2807
B(  1-C , 22-H ) :  -0.1074 B(  1-C , 25-Si) :   0.2308 B(  1-C , 38-B ) :   0.5476
B(  1-C , 39-C ) :   0.1995 B(  1-C , 42-C ) :   0.1114 B(  2-C ,  7-H ) :   0.9863
B(  2-C , 13-C ) :   0.3565 B(  2-C , 14-H ) :  -0.2281 B(  2-C , 15-H ) :  -0.2566
B(  2-C , 16-C ) :   0.1821 B(  2-C , 17-H ) :  -0.1519 B(  2-C , 18-C ) :  -0.2057
B(  2-C , 21-H ) :  -0.1672 B(  2-C , 23-C ) :   0.5041 B(  2-C , 24-H ) :  -0.1516
B(  2-C , 25-Si) :  -0.1977 B(  2-C , 38-B ) :  -0.1241 B(  3-H , 38-B ) :  -0.1268
B(  4-C ,  5-H ) :   1.4466 B(  4-C ,  6-H ) :   1.4300 B(  4-C ,  8-H ) :  -0.1597
B(  4-C , 10-C ) :   0.7963 B(  4-C , 11-H ) :  -0.1600 B(  4-C , 38-B ) :  -0.2274
B(  7-H , 13-C ) :  -0.1207 B(  8-H , 38-B ) :  -0.1695 B(  9-H , 23-C ) :  -0.2745
B(  9-H , 38-B ) :   0.9067 B( 10-C , 11-H ) :   0.8843 B( 10-C , 12-H ) :   1.2145
B( 10-C , 13-C ) :   0.5431 B( 10-C , 38-B ) :   0.1186 B( 12-H , 13-C ) :  -0.1116
B( 13-C , 14-H ) :   1.2951 B( 13-C , 15-H ) :   1.4007 B( 13-C , 23-C ) :  -0.1340
B( 16-C , 17-H ) :   1.2302 B( 16-C , 18-C ) :   0.7219 B( 16-C , 21-H ) :   1.4104
B( 16-C , 23-C ) :  -0.2639 B( 17-H , 23-C ) :  -0.1433 B( 18-C , 19-H ) :   1.1409
B( 18-C , 20-H ) :   1.1965 B( 18-C , 23-C ) :   0.1015 B( 18-C , 38-B ) :   0.1561
B( 23-C , 24-H ) :   1.1808 B( 23-C , 25-Si) :   0.7477 B( 23-C , 26-C ) :   0.1659
B( 23-C , 30-C ) :   0.1535 B( 23-C , 34-C ) :   0.2262 B( 23-C , 36-H ) :  -0.1070
B( 23-C , 38-B ) :   0.5721 B( 23-C , 45-C ) :  -0.2577 B( 23-C , 46-O ) :   0.1867
B( 24-H , 25-Si) :   0.2534 B( 24-H , 30-C ) :   0.1483 B( 24-H , 38-B ) :  -0.1251
B( 24-H , 48-C ) :  -0.1099 B( 25-Si, 26-C ) :   0.3731 B( 25-Si, 27-H ) :  -0.1014
B( 25-Si, 28-H ) :  -0.1331 B( 25-Si, 30-C ) :   0.3745 B( 25-Si, 31-H ) :  -0.1504
B( 25-Si, 32-H ) :  -0.1442 B( 25-Si, 33-H ) :  -0.1516 B( 25-Si, 34-C ) :   0.3839
B( 25-Si, 35-H ) :  -0.1345 B( 25-Si, 37-H ) :  -0.1266 B( 25-Si, 38-B ) :  -0.3321
B( 25-Si, 39-C ) :  -0.1214 B( 26-C , 27-H ) :   1.0462 B( 26-C , 28-H ) :   1.1889
B( 26-C , 29-H ) :   0.9519 B( 30-C , 31-H ) :   1.1651 B( 30-C , 32-H ) :   1.0512
B( 30-C , 33-H ) :   1.0389 B( 34-C , 35-H ) :   0.9572 B( 34-C , 36-H ) :   0.8981
B( 34-C , 37-H ) :   1.2109 B( 38-B , 39-C ) :  -0.3522 B( 38-B , 42-C ) :  -0.1750
B( 38-B , 45-C ) :   0.4279 B( 38-B , 47-O ) :  -0.2540 B( 39-C , 40-C ) :   0.9041
B( 39-C , 41-H ) :  -0.2225 B( 39-C , 42-C ) :   1.5309 B( 39-C , 43-H ) :  -0.3112
B( 39-C , 44-H ) :  -0.2629 B( 39-C , 45-C ) :  -0.1291 B( 39-C , 47-O ) :   0.1539
B( 40-C , 41-H ) :   0.6664 B( 40-C , 42-C ) :  -0.5672 B( 40-C , 45-C ) :   1.3507
B( 40-C , 46-O ) :   0.1575 B( 40-C , 47-O ) :  -0.1779 B( 42-C , 43-H ) :   1.2532
B( 42-C , 44-H ) :   1.2963 B( 45-C , 46-O ) :   0.3826 B( 45-C , 47-O ) :   0.8436
B( 45-C , 48-C ) :  -0.1607 B( 46-O , 47-O ) :   0.1788 B( 46-O , 48-C ) :   0.1317
B( 47-O , 48-C ) :   0.8501 B( 48-C , 49-H ) :   0.9223 B( 48-C , 50-H ) :   0.9060
B( 48-C , 51-H ) :   0.8568

MP2 TOTAL ENERGY:    -1129.307638607 Eh
FINAL SINGLE POINT ENERGY     -1129.307638606893

DIPOLE MOMENT
-------------
                                X             Y             Z
Electronic contribution:    -10.64059     -12.20046       3.34643
Nuclear contribution   :      9.50592      12.54827      -2.41677
                        -----------------------------------------
Total Dipole Moment    :     -1.13467       0.34780       0.92966
                        -----------------------------------------
Magnitude (a.u.)       :      1.50755
Magnitude (Debye)      :      3.83190

Rotational constants in cm-1:     0.010928     0.009719     0.007595
Rotational constants in MHz :   327.598671   291.366926   227.680560

                             ****ORCA TERMINATED NORMALLY****
TOTAL RUN TIME: 0 days 22 hours 55 minutes 4 seconds 396 msec
