                         Program Version 4.2.1 -  RELEASE  -
|  1> %pal
|  2>  nprocs 32
|  3> end
|  4> !RI-MP2 aug-cc-pVQZ aug-cc-pVQZ/C TightSCF
|  5> %maxcore 4500
|  6> *xyzfile 0 2  04_27TS.xyz
|  7>
|  8>
|  9>                          ****END OF INPUT****

CARTESIAN COORDINATES (ANGSTROEM)
---------------------------------
  N     -1.487980    0.917013   -0.475854
  H     -0.547958    0.543186   -0.503194
  C     -2.601610   -0.003810   -0.650095
  H     -3.312256    0.475263   -1.333382
  C     -2.124951   -1.293847   -1.298988
  C     -3.392143   -0.309109    0.639887
  H     -2.976704   -1.959360   -1.431564
  H     -1.685265   -1.090434   -2.274627
  S     -0.932018   -2.238160   -0.297502
  O     -3.662136   -1.454277    0.945698
  H      0.228621   -1.831598   -1.087789
  N     -3.778220    0.772675    1.342060
  H     -3.656110    1.705919    0.963640
  H     -4.355220    0.621031    2.154051
  C     -1.633565    2.251271   -0.402048
  H     -0.674197    2.788405   -0.384513
  O     -2.707069    2.827485   -0.348310
  O      0.968939   -0.725899   -1.378379
  O      2.218166   -0.937505   -0.841319
  C      2.537649    0.029152    0.106230
  Cl     2.429185    1.667390   -0.590424
  Cl     1.462139   -0.078478    1.522314
  Cl     4.196870   -0.353032    0.550613

 Total Charge           Charge          ....    0
 Multiplicity           Mult            ....    2
 Number of Electrons    NEL             ....  151
 Basis Dimension        Dim             .... 1584

ORBITAL ENERGIES
----------------
                 SPIN UP ORBITALS
  NO   OCC          E(Eh)            E(eV)
   0   1.0000    -104.893084     -2854.2859
   1   1.0000    -104.892727     -2854.2762
   2   1.0000    -104.886277     -2854.1007
   3   1.0000     -91.968059     -2502.5781
   4   1.0000     -20.749171      -564.6136
   5   1.0000     -20.726457      -563.9956
   6   1.0000     -20.542892      -559.0005
   7   1.0000     -20.522522      -558.4462
   8   1.0000     -15.608669      -424.7335
   9   1.0000     -15.575183      -423.8223
  10   1.0000     -11.520696      -313.4941
  11   1.0000     -11.368033      -309.3399
  12   1.0000     -11.354236      -308.9645
  13   1.0000     -11.302746      -307.5634
  14   1.0000     -11.279029      -306.9180
  15   1.0000     -10.618657      -288.9483
  16   1.0000     -10.618469      -288.9432
  17   1.0000     -10.612002      -288.7673
  18   1.0000      -8.970031      -244.0870
  19   1.0000      -8.085581      -220.0198
  20   1.0000      -8.085477      -220.0170
  21   1.0000      -8.083551      -219.9646
  22   1.0000      -8.083504      -219.9633
  23   1.0000      -8.083459      -219.9621
  24   1.0000      -8.083402      -219.9606
  25   1.0000      -8.078994      -219.8406
  26   1.0000      -8.076878      -219.7830
  27   1.0000      -8.076874      -219.7829
  28   1.0000      -6.657761      -181.1669
  29   1.0000      -6.649321      -180.9372
  30   1.0000      -6.648199      -180.9067
  31   1.0000      -1.622629       -44.1540
  32   1.0000      -1.407640       -38.3038
  33   1.0000      -1.389573       -37.8122
  34   1.0000      -1.348523       -36.6952
  35   1.0000      -1.265008       -34.4226
  36   1.0000      -1.217784       -33.1376
  37   1.0000      -1.210766       -32.9466
  38   1.0000      -1.145889       -31.1812
  39   1.0000      -1.141438       -31.0601
  40   1.0000      -1.091228       -29.6938
  41   1.0000      -0.990902       -26.9638
  42   1.0000      -0.892515       -24.2866
  43   1.0000      -0.879393       -23.9295
  44   1.0000      -0.853740       -23.2315
  45   1.0000      -0.820474       -22.3262
  46   1.0000      -0.790729       -21.5168
  47   1.0000      -0.762262       -20.7422
  48   1.0000      -0.757786       -20.6204
  49   1.0000      -0.747390       -20.3375
  50   1.0000      -0.737894       -20.0791
  51   1.0000      -0.690323       -18.7846
  52   1.0000      -0.684213       -18.6184
  53   1.0000      -0.674396       -18.3512
  54   1.0000      -0.639207       -17.3937
  55   1.0000      -0.626572       -17.0499
  56   1.0000      -0.622975       -16.9520
  57   1.0000      -0.599141       -16.3034
  58   1.0000      -0.586962       -15.9721
  59   1.0000      -0.583329       -15.8732
  60   1.0000      -0.569808       -15.5053
  61   1.0000      -0.563065       -15.3218
  62   1.0000      -0.553622       -15.0648
  63   1.0000      -0.530405       -14.4330
  64   1.0000      -0.527103       -14.3432
  65   1.0000      -0.520174       -14.1547
  66   1.0000      -0.498869       -13.5749
  67   1.0000      -0.492961       -13.4142
  68   1.0000      -0.488068       -13.2810
  69   1.0000      -0.477207       -12.9855
  70   1.0000      -0.465590       -12.6694
  71   1.0000      -0.453632       -12.3440
  72   1.0000      -0.446247       -12.1430
  73   1.0000      -0.414829       -11.2881
  74   1.0000      -0.405491       -11.0340
  75   1.0000      -0.372535       -10.1372
  76   0.0000       0.023436         0.6377
  77   0.0000       0.030422         0.8278
  78   0.0000       0.032869         0.8944
  79   0.0000       0.037935         1.0323
  80   0.0000       0.045640         1.2419

                 SPIN DOWN ORBITALS
  NO   OCC          E(Eh)            E(eV)
   0   1.0000    -104.893174     -2854.2884
   1   1.0000    -104.892696     -2854.2754
   2   1.0000    -104.886245     -2854.0998
   3   1.0000     -91.964382     -2502.4780
   4   1.0000     -20.724974      -563.9552
   5   1.0000     -20.711215      -563.5808
   6   1.0000     -20.542891      -559.0005
   7   1.0000     -20.522360      -558.4418
   8   1.0000     -15.608741      -424.7354
   9   1.0000     -15.575182      -423.8223
  10   1.0000     -11.520848      -313.4982
  11   1.0000     -11.368035      -309.3400
  12   1.0000     -11.354260      -308.9651
  13   1.0000     -11.302730      -307.5629
  14   1.0000     -11.279224      -306.9233
  15   1.0000     -10.618751      -288.9509
  16   1.0000     -10.618444      -288.9426
  17   1.0000     -10.611970      -288.7664
  18   1.0000      -8.966111      -243.9803
  19   1.0000      -8.085867      -220.0276
  20   1.0000      -8.085356      -220.0137
  21   1.0000      -8.083666      -219.9677
  22   1.0000      -8.083573      -219.9652
  23   1.0000      -8.083415      -219.9609
  24   1.0000      -8.083381      -219.9600
  25   1.0000      -8.078846      -219.8366
  26   1.0000      -8.076887      -219.7833
  27   1.0000      -8.076835      -219.7819
  28   1.0000      -6.647826      -180.8965
  29   1.0000      -6.646424      -180.8584
  30   1.0000      -6.639832      -180.6790
  31   1.0000      -1.578677       -42.9580
  32   1.0000      -1.407641       -38.3039
  33   1.0000      -1.389291       -37.8045
  34   1.0000      -1.293103       -35.1871
  35   1.0000      -1.265032       -34.4233
  36   1.0000      -1.210834       -32.9485
  37   1.0000      -1.189482       -32.3675
  38   1.0000      -1.144112       -31.1329
  39   1.0000      -1.140868       -31.0446
  40   1.0000      -1.084777       -29.5183
  41   1.0000      -0.974720       -26.5235
  42   1.0000      -0.883117       -24.0308
  43   1.0000      -0.858387       -23.3579
  44   1.0000      -0.853403       -23.2223
  45   1.0000      -0.790824       -21.5194
  46   1.0000      -0.755920       -20.5696
  47   1.0000      -0.753579       -20.5059
  48   1.0000      -0.744658       -20.2632
  49   1.0000      -0.736959       -20.0537
  50   1.0000      -0.725889       -19.7524
  51   1.0000      -0.684156       -18.6168
  52   1.0000      -0.676019       -18.3954
  53   1.0000      -0.637307       -17.3420
  54   1.0000      -0.623742       -16.9729
  55   1.0000      -0.621838       -16.9211
  56   1.0000      -0.606091       -16.4926
  57   1.0000      -0.587364       -15.9830
  58   1.0000      -0.579599       -15.7717
  59   1.0000      -0.575232       -15.6529
  60   1.0000      -0.565024       -15.3751
  61   1.0000      -0.553135       -15.0516
  62   1.0000      -0.529940       -14.4204
  63   1.0000      -0.525420       -14.2974
  64   1.0000      -0.522466       -14.2170
  65   1.0000      -0.499569       -13.5940
  66   1.0000      -0.492149       -13.3921
  67   1.0000      -0.489059       -13.3080
  68   1.0000      -0.477330       -12.9888
  69   1.0000      -0.464973       -12.6526
  70   1.0000      -0.451961       -12.2985
  71   1.0000      -0.448470       -12.2035
  72   1.0000      -0.415013       -11.2931
  73   1.0000      -0.405280       -11.0282
  74   1.0000      -0.363905        -9.9024
  75   0.0000      -0.000919        -0.0250
  76   0.0000       0.023716         0.6453
  77   0.0000       0.030489         0.8296
  78   0.0000       0.032983         0.8975
  79   0.0000       0.038032         1.0349

MULLIKEN ATOMIC CHARGES AND SPIN POPULATIONS
--------------------------------------------
   0 N :   -0.563346    0.000857
   1 H :    0.433821   -0.000656
   2 C :    0.101080    0.008525
   3 H :    0.362525   -0.000252
   4 C :   -0.558768   -0.062294
   5 C :    1.119150   -0.002092
   6 H :    0.277113    0.011762
   7 H :    0.211969    0.007031
   8 S :    0.076919    0.421714
   9 O :   -0.900350    0.002059
  10 H :    0.020319   -0.213451
  11 N :   -0.845444   -0.000204
  12 H :    0.376778    0.000164
  13 H :    0.130984   -0.000250
  14 C :    0.386185    0.001280
  15 H :    0.497697    0.000207
  16 O :   -0.873792    0.000009
  17 O :   -0.181761    0.855914
  18 O :   -0.320940   -0.029120
  19 C :    0.800154   -0.002562
  20 Cl:   -0.198793    0.003628
  21 Cl:   -0.166387    0.003191
  22 Cl:   -0.185111   -0.005461
Sum of atomic charges         :   -0.0000000

LOEWDIN ATOMIC CHARGES AND SPIN POPULATIONS
-------------------------------------------
   0 N :    0.799068   -0.001637
   1 H :   -0.713371   -0.004132
   2 C :   -0.154709    0.001132
   3 H :   -0.304104    0.000082
   4 C :    0.104925    0.043706
   5 C :   -0.847380    0.001102
   6 H :   -0.386757    0.009103
   7 H :   -0.346079    0.001372
   8 S :    1.552346    0.189344
   9 O :    0.708642    0.004398
  10 H :   -1.244887    0.047394
  11 N :    1.244525   -0.000109
  12 H :   -0.688765   -0.000014
  13 H :   -0.479055   -0.000018
  14 C :   -0.385912   -0.000203
  15 H :   -0.357999   -0.000009
  16 O :    0.758671    0.000007
  17 O :    0.577488    0.635987
  18 O :    0.177079    0.078462
  19 C :   -3.001849   -0.003361
  20 Cl:    0.981663    0.003162
  21 Cl:    1.005756   -0.000484
  22 Cl:    1.000706   -0.005285

  Mayer bond orders larger than 0.100000
B(  0-N ,  1-H ) :   0.8217 B(  0-N ,  2-C ) :   0.6726 B(  0-N , 14-C ) :   1.2644
B(  0-N , 16-O ) :   0.1251 B(  2-C ,  3-H ) :   0.7901 B(  2-C ,  4-C ) :   0.8551
B(  2-C ,  5-C ) :   1.0127 B(  2-C ,  9-O ) :   0.2076 B(  2-C , 11-N ) :  -0.1139
B(  4-C ,  6-H ) :   0.8929 B(  4-C ,  7-H ) :   1.0274 B(  4-C ,  8-S ) :   0.9219
B(  5-C ,  9-O ) :   1.0522 B(  5-C , 11-N ) :   1.0984 B(  8-S , 10-H ) :   0.7803
B(  9-O , 11-N ) :   0.1852 B( 10-H , 17-O ) :   0.1480 B( 11-N , 12-H ) :   0.8111
B( 11-N , 13-H ) :   1.1247 B( 14-C , 15-H ) :   0.7828 B( 14-C , 16-O ) :   1.3469
B( 17-O , 18-O ) :   0.8148 B( 18-O , 19-C ) :   0.7861 B( 19-C , 20-Cl) :   0.8122
B( 19-C , 21-Cl) :   0.8549 B( 19-C , 22-Cl) :   0.6863

MP2 TOTAL ENERGY:    -2381.718149131 Eh
FINAL SINGLE POINT ENERGY     -2381.718149131338

DIPOLE MOMENT
-------------
                                X             Y             Z
Electronic contribution:     28.36068       1.06251       5.18817
Nuclear contribution   :    -27.16965      -0.41919      -5.72752
                        -----------------------------------------
Total Dipole Moment    :      1.19102       0.64332      -0.53935
                        -----------------------------------------
Magnitude (a.u.)       :      1.45715
Magnitude (Debye)      :      3.70379

Rotational constants in cm-1:     0.020726     0.007416     0.006481
Rotational constants in MHz :   621.343542   222.317693   194.281046

                             ****ORCA TERMINATED NORMALLY****
TOTAL RUN TIME: 0 days 12 hours 59 minutes 4 seconds 772 msec
