                         Program Version 4.2.1 -  RELEASE  -
|  1> %pal
|  2>  nprocs 32
|  3> end
|  4> !RI-MP2 aug-cc-pVQZ aug-cc-pVQZ/C TightSCF
|  5> %maxcore 4500
|  6> *xyzfile 0 1  02_32P.xyz
|  7>
|  8>
|  9>                          ****END OF INPUT****

CARTESIAN COORDINATES (ANGSTROEM)
---------------------------------
  C      1.433790   -0.013726   -0.117256
  N      1.145066   -0.823724    1.076949
  N     -0.035288   -1.159503    1.189375
  C     -0.915349   -0.699417    0.101689
  N     -0.267402   -1.126797   -1.184703
  N      0.903113   -0.783563   -1.295119
  C      0.558687    1.239136   -0.059729
  C     -0.873019    0.844360    0.046931
  C     -0.223578    1.593360    1.177623
  H     -0.508078    2.633115    1.275330
  H     -0.004034    1.098476    2.112019
  C     -2.274879   -1.332794    0.235176
  H     -2.896682   -1.094500   -0.626751
  H     -2.167804   -2.415756    0.295891
  H     -2.765747   -0.980709    1.143426
  C      2.912094    0.219446   -0.267841
  H      3.290427    0.778861    0.588353
  H      3.437369   -0.734207   -0.323662
  H      3.111952    0.781073   -1.180984
  C     -1.940665    1.503179   -0.789415
  H     -1.974185    1.078044   -1.794767
  H     -2.927474    1.392465   -0.335879
  H     -1.735040    2.570954   -0.880868
  H      0.858387    2.026030   -0.740682

 Total Charge           Charge          ....    0
 Multiplicity           Mult            ....    1
 Number of Electrons    NEL             ....   88
 Basis Dimension        Dim             .... 1512

ORBITAL ENERGIES
----------------

  NO   OCC          E(Eh)            E(eV)
   0   2.0000     -15.632188      -425.3735
   1   2.0000     -15.631382      -425.3515
   2   2.0000     -15.630729      -425.3338
   3   2.0000     -15.629735      -425.3067
   4   2.0000     -11.310454      -307.7731
   5   2.0000     -11.310422      -307.7722
   6   2.0000     -11.264195      -306.5143
   7   2.0000     -11.254954      -306.2629
   8   2.0000     -11.246684      -306.0378
   9   2.0000     -11.235440      -305.7319
  10   2.0000     -11.227628      -305.5193
  11   2.0000     -11.227409      -305.5133
  12   2.0000      -1.433587       -39.0099
  13   2.0000      -1.348594       -36.6971
  14   2.0000      -1.191117       -32.4120
  15   2.0000      -1.144356       -31.1395
  16   2.0000      -1.041953       -28.3530
  17   2.0000      -0.986853       -26.8536
  18   2.0000      -0.930601       -25.3229
  19   2.0000      -0.908954       -24.7339
  20   2.0000      -0.905709       -24.6456
  21   2.0000      -0.840168       -22.8621
  22   2.0000      -0.800470       -21.7819
  23   2.0000      -0.737237       -20.0612
  24   2.0000      -0.717126       -19.5140
  25   2.0000      -0.679658       -18.4944
  26   2.0000      -0.641296       -17.4506
  27   2.0000      -0.619031       -16.8447
  28   2.0000      -0.598122       -16.2757
  29   2.0000      -0.581075       -15.8119
  30   2.0000      -0.578700       -15.7472
  31   2.0000      -0.569110       -15.4863
  32   2.0000      -0.563484       -15.3332
  33   2.0000      -0.557978       -15.1834
  34   2.0000      -0.548644       -14.9294
  35   2.0000      -0.541171       -14.7260
  36   2.0000      -0.528097       -14.3702
  37   2.0000      -0.518184       -14.1005
  38   2.0000      -0.490350       -13.3431
  39   2.0000      -0.477665       -12.9979
  40   2.0000      -0.459883       -12.5141
  41   2.0000      -0.419414       -11.4128
  42   2.0000      -0.414677       -11.2839
  43   2.0000      -0.351173        -9.5559
  44   0.0000       0.020181         0.5492
  45   0.0000       0.025741         0.7004
  46   0.0000       0.030282         0.8240
  47   0.0000       0.030920         0.8414
  48   0.0000       0.039975         1.0878

MULLIKEN ATOMIC CHARGES
-----------------------
   0 C :    1.275773
   1 N :   -0.538483
   2 N :   -0.531027
   3 C :    1.808631
   4 N :   -0.344027
   5 N :   -0.525649
   6 C :   -0.195177
   7 C :    0.239837
   8 C :   -0.904140
   9 H :    0.188436
  10 H :    0.316508
  11 C :   -1.110570
  12 H :    0.203478
  13 H :    0.233626
  14 H :    0.203289
  15 C :   -1.093164
  16 H :    0.205185
  17 H :    0.196429
  18 H :    0.220973
  19 C :   -0.850717
  20 H :    0.168786
  21 H :    0.207854
  22 H :    0.245436
  23 H :    0.378712
Sum of atomic charges:    0.0000000

LOEWDIN ATOMIC CHARGES
----------------------
   0 C :   -0.745874
   1 N :    0.391882
   2 N :    0.390494
   3 C :   -0.749445
   4 N :    0.386542
   5 N :    0.392042
   6 C :    0.122962
   7 C :   -0.296388
   8 C :    0.644672
   9 H :   -0.254901
  10 H :   -0.292651
  11 C :    0.881738
  12 H :   -0.292528
  13 H :   -0.277346
  14 H :   -0.266340
  15 C :    0.887659
  16 H :   -0.274330
  17 H :   -0.280941
  18 H :   -0.281300
  19 C :    0.955317
  20 H :   -0.263278
  21 H :   -0.270531
  22 H :   -0.274757
  23 H :   -0.232701

  Mayer bond orders larger than 0.100000
B(  0-C ,  1-N ) :   0.3605 B(  0-C ,  3-C ) :   0.2373 B(  0-C ,  5-N ) :   0.4433
B(  0-C ,  6-C ) :   0.8610 B(  0-C , 16-H ) :  -0.1962 B(  0-C , 17-H ) :  -0.2812
B(  0-C , 18-H ) :  -0.1975 B(  1-N ,  2-N ) :   1.0306 B(  1-N ,  3-C ) :  -0.1466
B(  1-N ,  7-C ) :   0.1130 B(  2-N ,  3-C ) :   0.2296 B(  3-C ,  4-N ) :   0.1973
B(  3-C ,  5-N ) :  -0.1151 B(  3-C ,  7-C ) :   0.5360 B(  3-C ,  8-C ) :  -0.1314
B(  3-C , 11-C ) :  -0.1064 B(  3-C , 12-H ) :  -0.2030 B(  3-C , 13-H ) :  -0.2347
B(  3-C , 14-H ) :  -0.2174 B(  4-N ,  5-N ) :   1.0629 B(  4-N ,  7-C ) :   0.1468
B(  4-N , 11-C ) :   0.1166 B(  5-N , 15-C ) :   0.1172 B(  6-C ,  7-C ) :   0.3783
B(  6-C ,  8-C ) :   0.9738 B(  6-C , 23-H ) :   0.8476 B(  7-C ,  8-C ) :   0.7440
B(  7-C , 19-C ) :   0.2179 B(  7-C , 20-H ) :  -0.2092 B(  7-C , 21-H ) :  -0.1691
B(  7-C , 22-H ) :  -0.1012 B(  8-C ,  9-H ) :   1.1056 B(  8-C , 10-H ) :   0.9776
B( 11-C , 12-H ) :   1.1416 B( 11-C , 13-H ) :   1.1146 B( 11-C , 14-H ) :   1.1562
B( 15-C , 16-H ) :   1.1264 B( 15-C , 17-H ) :   1.1811 B( 15-C , 18-H ) :   1.1092
B( 19-C , 20-H ) :   1.1560 B( 19-C , 21-H ) :   1.1245 B( 19-C , 22-H ) :   1.0178

MP2 TOTAL ENERGY:     -530.098707391 Eh
FINAL SINGLE POINT ENERGY      -530.098707391183

DIPOLE MOMENT
-------------
                                X             Y             Z
Electronic contribution:      3.84529      -5.83230       0.51081
Nuclear contribution   :     -4.29819       7.15683      -0.47286
                        -----------------------------------------
Total Dipole Moment    :     -0.45290       1.32453       0.03795
                        -----------------------------------------
Magnitude (a.u.)       :      1.40033
Magnitude (Debye)      :      3.55936

Rotational constants in cm-1:     0.052932     0.035263     0.030257
Rotational constants in MHz :  1586.853900  1057.162905   907.071585

                             ****ORCA TERMINATED NORMALLY****
TOTAL RUN TIME: 0 days 2 hours 14 minutes 2 seconds 491 msec
