                         Program Version 4.2.1 -  RELEASE  -
|  1> %pal
|  2>  nprocs 32
|  3> end
|  4> !RI-MP2 aug-cc-pVQZ aug-cc-pVQZ/C TightSCF
|  5> %maxcore 4500
|  6> *xyzfile -1 1  05_10R1.xyz
|  7>
|  8>
|  9>                          ****END OF INPUT****

CARTESIAN COORDINATES (ANGSTROEM)
---------------------------------
  C      0.959655   -0.602248   -0.224955
  C      0.979663    0.808458   -0.290834
  N     -0.202046    1.464139   -0.582680
  N     -0.255538   -1.280166   -0.427594
  C     -1.458843   -0.583790   -0.190584
  C     -1.404938    0.790600   -0.236804
  N     -2.546484   -1.309542    0.054470
  C     -3.714093   -0.660053    0.282503
  N     -3.674528    0.741710    0.286046
  C     -2.565776    1.538045    0.037540
  C     -0.266003   -2.723318   -0.388113
  H      0.408266   -3.120810   -1.151820
  H     -1.283709   -3.052311   -0.573663
  H      0.044877   -3.112199    0.591260
  H     -4.546060    1.214358    0.471540
  O     -4.794104   -1.211764    0.494729
  O     -2.638081    2.778436    0.058475
  C      2.153431   -1.266807    0.012143
  C      3.371609   -0.593274    0.167582
  C      3.385475    0.794695    0.105535
  C      2.183555    1.472146   -0.111860
  C      4.635864   -1.376087    0.404111
  H      5.109407   -1.109999    1.355094
  H      5.379839   -1.198540   -0.379906
  H      4.430192   -2.447562    0.426852
  C      4.666088    1.568277    0.272658
  H      5.405194    1.297957   -0.488512
  H      5.130097    1.378817    1.246019
  H      4.485738    2.641482    0.194238
  H      2.183495    2.556827   -0.160676
  H      2.153730   -2.346653    0.073452
  H     -0.247541    2.452408   -0.374743

 Total Charge           Charge          ....   -1
 Multiplicity           Mult            ....    1
 Number of Electrons    NEL             ....  136
 Basis Dimension        Dim             .... 2118

ORBITAL ENERGIES
----------------

  NO   OCC          E(Eh)            E(eV)
   0   2.0000     -20.365319      -554.1685
   1   2.0000     -20.350318      -553.7603
   2   2.0000     -15.469012      -420.9332
   3   2.0000     -15.448759      -420.3821
   4   2.0000     -15.445961      -420.3060
   5   2.0000     -15.380531      -418.5255
   6   2.0000     -11.216612      -305.2195
   7   2.0000     -11.201852      -304.8179
   8   2.0000     -11.189902      -304.4927
   9   2.0000     -11.166984      -303.8691
  10   2.0000     -11.165867      -303.8387
  11   2.0000     -11.140946      -303.1606
  12   2.0000     -11.139904      -303.1322
  13   2.0000     -11.139043      -303.1088
  14   2.0000     -11.134888      -302.9957
  15   2.0000     -11.129257      -302.8425
  16   2.0000     -11.125747      -302.7470
  17   2.0000     -11.120451      -302.6028
  18   2.0000     -11.093999      -301.8830
  19   2.0000      -1.242031       -33.7974
  20   2.0000      -1.212878       -33.0041
  21   2.0000      -1.185556       -32.2606
  22   2.0000      -1.116187       -30.3730
  23   2.0000      -1.096449       -29.8359
  24   2.0000      -1.052463       -28.6390
  25   2.0000      -1.030962       -28.0539
  26   2.0000      -0.942834       -25.6558
  27   2.0000      -0.935311       -25.4511
  28   2.0000      -0.883989       -24.0546
  29   2.0000      -0.853037       -23.2123
  30   2.0000      -0.844243       -22.9730
  31   2.0000      -0.790202       -21.5025
  32   2.0000      -0.741813       -20.1858
  33   2.0000      -0.721887       -19.6435
  34   2.0000      -0.696895       -18.9635
  35   2.0000      -0.657138       -17.8816
  36   2.0000      -0.625483       -17.0202
  37   2.0000      -0.598026       -16.2731
  38   2.0000      -0.569038       -15.4843
  39   2.0000      -0.556126       -15.1330
  40   2.0000      -0.537614       -14.6292
  41   2.0000      -0.532784       -14.4978
  42   2.0000      -0.515454       -14.0262
  43   2.0000      -0.507180       -13.8011
  44   2.0000      -0.505518       -13.7559
  45   2.0000      -0.490072       -13.3355
  46   2.0000      -0.482336       -13.1250
  47   2.0000      -0.477881       -13.0038
  48   2.0000      -0.467963       -12.7339
  49   2.0000      -0.459967       -12.5163
  50   2.0000      -0.454856       -12.3773
  51   2.0000      -0.451992       -12.2993
  52   2.0000      -0.439263       -11.9529
  53   2.0000      -0.436333       -11.8732
  54   2.0000      -0.427263       -11.6264
  55   2.0000      -0.398373       -10.8403
  56   2.0000      -0.394653       -10.7391
  57   2.0000      -0.387580       -10.5466
  58   2.0000      -0.359342        -9.7782
  59   2.0000      -0.348517        -9.4836
  60   2.0000      -0.306529        -8.3411
  61   2.0000      -0.287578        -7.8254
  62   2.0000      -0.276090        -7.5128
  63   2.0000      -0.270938        -7.3726
  64   2.0000      -0.267455        -7.2778
  65   2.0000      -0.220715        -6.0060
  66   2.0000      -0.183630        -4.9968
  67   2.0000      -0.116563        -3.1718
  68   0.0000       0.076913         2.0929
  69   0.0000       0.082833         2.2540
  70   0.0000       0.096393         2.6230
  71   0.0000       0.098337         2.6759
  72   0.0000       0.104285         2.8377

MULLIKEN ATOMIC CHARGES
-----------------------
   0 C :    0.514400
   1 C :    0.950107
   2 N :   -0.802011
   3 N :   -0.340218
   4 C :    1.034103
   5 C :   -0.720131
   6 N :   -0.955169
   7 C :    1.129733
   8 N :   -0.817799
   9 C :    1.665557
  10 C :   -1.035028
  11 H :    0.280589
  12 H :    0.379497
  13 H :    0.322954
  14 H :   -0.027193
  15 O :   -0.992564
  16 O :   -1.000578
  17 C :   -0.581620
  18 C :    0.573411
  19 C :    0.300794
  20 C :   -0.629712
  21 C :   -0.999084
  22 H :    0.173655
  23 H :    0.171187
  24 H :    0.243705
  25 C :   -0.972488
  26 H :    0.169005
  27 H :    0.180322
  28 H :    0.285665
  29 H :    0.123043
  30 H :    0.101234
  31 H :    0.274634
Sum of atomic charges:   -1.0000000

LOEWDIN ATOMIC CHARGES
----------------------
   0 C :   -0.202427
   1 C :   -0.215470
   2 N :    0.841130
   3 N :    0.455934
   4 C :   -0.542135
   5 C :   -0.315790
   6 N :    0.528726
   7 C :   -1.176673
   8 N :    0.732492
   9 C :   -0.923517
  10 C :    0.732432
  11 H :   -0.286393
  12 H :   -0.369986
  13 H :   -0.266028
  14 H :   -0.542376
  15 O :    0.571741
  16 O :    0.636149
  17 C :    0.352805
  18 C :   -0.066298
  19 C :   -0.076991
  20 C :    0.363113
  21 C :    0.886443
  22 H :   -0.287468
  23 H :   -0.287043
  24 H :   -0.308960
  25 C :    0.887905
  26 H :   -0.286936
  27 H :   -0.286919
  28 H :   -0.309401
  29 H :   -0.321897
  30 H :   -0.366664
  31 H :   -0.549496

  Mayer bond orders larger than 0.100000
B(  0-C ,  1-C ) :   1.4954 B(  0-C ,  2-N ) :   0.4283 B(  0-C ,  3-N ) :   0.3600
B(  0-C ,  5-C ) :   0.1259 B(  0-C , 10-C ) :  -0.2194 B(  0-C , 17-C ) :   1.4561
B(  0-C , 18-C ) :  -0.6163 B(  0-C , 20-C ) :  -0.2968 B(  0-C , 30-H ) :  -0.1110
B(  1-C ,  3-N ) :   0.2565 B(  1-C ,  5-C ) :  -0.1941 B(  1-C , 17-C ) :  -0.1559
B(  1-C , 18-C ) :   0.2032 B(  1-C , 19-C ) :  -0.4014 B(  1-C , 20-C ) :   1.1180
B(  1-C , 29-H ) :  -0.2309 B(  1-C , 31-H ) :  -0.1820 B(  2-N ,  3-N ) :  -0.1467
B(  2-N ,  5-C ) :   0.6364 B(  2-N ,  9-C ) :  -0.1069 B(  2-N , 31-H ) :   0.9857
B(  3-N ,  4-C ) :   1.1795 B(  3-N ,  5-C ) :  -0.1169 B(  3-N ,  6-N ) :   0.1344
B(  3-N , 10-C ) :   0.8952 B(  3-N , 17-C ) :  -0.2364 B(  4-C ,  5-C ) :   1.1943
B(  4-C ,  6-N ) :   0.5153 B(  4-C ,  9-C ) :  -0.3970 B(  5-C ,  6-N ) :   0.1402
B(  5-C ,  8-N ) :  -0.1241 B(  5-C ,  9-C ) :   1.7638 B(  5-C , 16-O ) :   0.7938
B(  5-C , 20-C ) :  -0.1341 B(  6-N ,  7-C ) :   1.5502 B(  6-N , 12-H ) :   0.1150
B(  7-C ,  8-N ) :   1.0584 B(  7-C , 15-O ) :   1.0076 B(  8-N ,  9-C ) :   0.9281
B(  8-N , 14-H ) :   1.3133 B(  8-N , 15-O ) :   0.1744 B(  8-N , 16-O ) :   0.2844
B(  9-C , 14-H ) :  -0.1295 B(  9-C , 16-O ) :   0.2786 B( 10-C , 11-H ) :   0.9762
B( 10-C , 12-H ) :   0.7990 B( 10-C , 13-H ) :   0.9715 B( 17-C , 18-C ) :   0.6564
B( 17-C , 19-C ) :  -0.1662 B( 17-C , 20-C ) :   0.2405 B( 17-C , 21-C ) :  -0.2853
B( 17-C , 30-H ) :   1.0284 B( 18-C , 19-C ) :   0.8444 B( 18-C , 21-C ) :   0.5547
B( 18-C , 22-H ) :  -0.2018 B( 18-C , 23-H ) :  -0.1872 B( 18-C , 27-H ) :   0.1029
B( 19-C , 20-C ) :   0.9409 B( 19-C , 22-H ) :   0.1179 B( 19-C , 25-C ) :   0.6566
B( 19-C , 26-H ) :  -0.1670 B( 19-C , 27-H ) :  -0.1775 B( 19-C , 29-H ) :  -0.1078
B( 20-C , 25-C ) :  -0.2682 B( 20-C , 29-H ) :   1.0646 B( 21-C , 22-H ) :   1.0996
B( 21-C , 23-H ) :   1.1035 B( 21-C , 24-H ) :   1.0583 B( 25-C , 26-H ) :   1.1079
B( 25-C , 27-H ) :   1.0897 B( 25-C , 28-H ) :   1.0124

MP2 TOTAL ENERGY:     -871.429979080 Eh
FINAL SINGLE POINT ENERGY      -871.429979080449

DIPOLE MOMENT
-------------
                                X             Y             Z
Electronic contribution:    -23.30473       4.50580      -1.37202
Nuclear contribution   :     28.08366      -4.75379       1.21602
                        -----------------------------------------
Total Dipole Moment    :      4.77893      -0.24798      -0.15600
                        -----------------------------------------
Magnitude (a.u.)       :      4.78790
Magnitude (Debye)      :     12.16988

Rotational constants in cm-1:     0.028893     0.007686     0.006195
Rotational constants in MHz :   866.180284   230.420674   185.730692

                             ****ORCA TERMINATED NORMALLY****
TOTAL RUN TIME: 0 days 4 hours 57 minutes 45 seconds 987 msec
