                         Program Version 4.2.1 -  RELEASE  -
|  1> %pal
|  2>  nprocs 32
|  3> end
|  4> !RI-MP2 aug-cc-pVQZ aug-cc-pVQZ/C TightSCF
|  5> %maxcore 4500
|  6> *xyzfile 0 1  04_47R1.xyz
|  7>
|  8>
|  9>                          ****END OF INPUT****

CARTESIAN COORDINATES (ANGSTROEM)
---------------------------------
  C     -0.515389    0.705590    0.007206
  C     -0.531708   -0.680780    0.007770
  N     -1.614249   -1.430424    0.005109
  C     -2.767462   -0.757484   -0.006682
  C     -2.862279    0.633156   -0.010121
  C     -1.705480    1.402746    0.000218
  C      0.896217    1.179545    0.018036
  C      0.887912   -1.181622    0.015855
  H     -3.668200   -1.361621   -0.013043
  H     -3.838936    1.099231   -0.020378
  H     -1.728380    2.485319   -0.000019
  O      1.324272   -2.289383   -0.033752
  O      1.329811    2.293709   -0.029530
  N      1.649767    0.000519    0.112651
  O      2.988675   -0.001511   -0.148220
  H      3.433976   -0.043031    0.707449

 Total Charge           Charge          ....    0
 Multiplicity           Mult            ....    1
 Number of Electrons    NEL             ....   84
 Basis Dimension        Dim             .... 1144

ORBITAL ENERGIES
----------------

  NO   OCC          E(Eh)            E(eV)
   0   2.0000     -20.641605      -561.6866
   1   2.0000     -20.570992      -559.7651
   2   2.0000     -20.570290      -559.7460
   3   2.0000     -15.675939      -426.5640
   4   2.0000     -15.605776      -424.6547
   5   2.0000     -11.395105      -310.0766
   6   2.0000     -11.391454      -309.9772
   7   2.0000     -11.319700      -308.0247
   8   2.0000     -11.313760      -307.8631
   9   2.0000     -11.299999      -307.4886
  10   2.0000     -11.283799      -307.0478
  11   2.0000     -11.279482      -306.9303
  12   2.0000      -1.498189       -40.7678
  13   2.0000      -1.426498       -38.8170
  14   2.0000      -1.417793       -38.5801
  15   2.0000      -1.312826       -35.7238
  16   2.0000      -1.237665       -33.6786
  17   2.0000      -1.134868       -30.8813
  18   2.0000      -1.075154       -29.2564
  19   2.0000      -0.950902       -25.8753
  20   2.0000      -0.926316       -25.2063
  21   2.0000      -0.873144       -23.7595
  22   2.0000      -0.819800       -22.3079
  23   2.0000      -0.764466       -20.8022
  24   2.0000      -0.752246       -20.4697
  25   2.0000      -0.723214       -19.6797
  26   2.0000      -0.705974       -19.2105
  27   2.0000      -0.679494       -18.4900
  28   2.0000      -0.664712       -18.0877
  29   2.0000      -0.647351       -17.6153
  30   2.0000      -0.629097       -17.1186
  31   2.0000      -0.621771       -16.9192
  32   2.0000      -0.589306       -16.0358
  33   2.0000      -0.572862       -15.5884
  34   2.0000      -0.563803       -15.3419
  35   2.0000      -0.553372       -15.0580
  36   2.0000      -0.506873       -13.7927
  37   2.0000      -0.453764       -12.3476
  38   2.0000      -0.449498       -12.2315
  39   2.0000      -0.436573       -11.8798
  40   2.0000      -0.423828       -11.5329
  41   2.0000      -0.385696       -10.4953
  42   0.0000       0.015833         0.4308
  43   0.0000       0.027364         0.7446
  44   0.0000       0.029360         0.7989
  45   0.0000       0.033791         0.9195
  46   0.0000       0.040133         1.0921

MULLIKEN ATOMIC CHARGES
-----------------------
   0 C :   -0.267513
   1 C :    0.104382
   2 N :   -0.563185
   3 C :   -0.385717
   4 C :   -0.411495
   5 C :    0.025505
   6 C :    1.218172
   7 C :    1.317079
   8 H :    0.490157
   9 H :    0.284557
  10 H :    0.358654
  11 O :   -0.792502
  12 O :   -0.818418
  13 N :   -0.097017
  14 O :   -0.765586
  15 H :    0.302928
Sum of atomic charges:   -0.0000000

LOEWDIN ATOMIC CHARGES
----------------------
   0 C :   -0.169925
   1 C :   -0.423815
   2 N :    0.630855
   3 C :    0.110404
   4 C :    0.365691
   5 C :    0.378200
   6 C :   -0.875894
   7 C :   -0.865306
   8 H :   -0.338590
   9 H :   -0.318205
  10 H :   -0.288206
  11 O :    0.708678
  12 O :    0.705986
  13 N :    0.017043
  14 O :    1.140377
  15 H :   -0.777293

  Mayer bond orders larger than 0.100000
B(  0-C ,  1-C ) :   1.0210 B(  0-C ,  4-C ) :  -0.1542 B(  0-C ,  5-C ) :   1.0430
B(  0-C ,  6-C ) :   1.2804 B(  0-C ,  7-C ) :  -0.3548 B(  0-C , 10-H ) :  -0.1001
B(  0-C , 12-O ) :   0.5824 B(  0-C , 13-N ) :  -0.1488 B(  1-C ,  2-N ) :   0.9631
B(  1-C ,  3-C ) :   0.1232 B(  1-C ,  5-C ) :  -0.2743 B(  1-C ,  6-C ) :  -0.1643
B(  1-C ,  7-C ) :   1.3044 B(  1-C , 11-O ) :   0.6306 B(  1-C , 13-N ) :  -0.1099
B(  2-N ,  3-C ) :   1.3850 B(  3-C ,  4-C ) :   1.2430 B(  3-C ,  8-H ) :   0.8398
B(  4-C ,  5-C ) :   1.2573 B(  4-C ,  9-H ) :   1.0466 B(  4-C , 10-H ) :  -0.1045
B(  5-C ,  6-C ) :  -0.1491 B(  5-C , 10-H ) :   0.9199 B(  6-C , 12-O ) :   0.7401
B(  6-C , 13-N ) :   1.1324 B(  7-C , 11-O ) :   0.7733 B(  7-C , 13-N ) :   1.0818
B( 11-O , 13-N ) :   0.2831 B( 12-O , 13-N ) :   0.2761 B( 13-N , 14-O ) :   0.3735
B( 14-O , 15-H ) :   0.9753

MP2 TOTAL ENERGY:     -603.420508921 Eh
FINAL SINGLE POINT ENERGY      -603.420508921287

DIPOLE MOMENT
-------------
                                X             Y             Z
Electronic contribution:      3.98318      -1.26065      -0.05867
Nuclear contribution   :     -5.49095       2.08737       0.64534
                        -----------------------------------------
Total Dipole Moment    :     -1.50777       0.82673       0.58667
                        -----------------------------------------
Magnitude (a.u.)       :      1.81687
Magnitude (Debye)      :      4.61812

Rotational constants in cm-1:     0.058665     0.029619     0.019731
Rotational constants in MHz :  1758.717759   887.950990   591.513913

                             ****ORCA TERMINATED NORMALLY****
TOTAL RUN TIME: 0 days 0 hours 43 minutes 42 seconds 857 msec
