                         Program Version 4.2.1 -  RELEASE  -
|  1> %pal
|  2>  nprocs 32
|  3> end
|  4> !RI-MP2 aug-cc-pVQZ aug-cc-pVQZ/C TightSCF
|  5> %maxcore 4500
|  6> *xyzfile 0 1  06_5R2.xyz
|  7>
|  8>
|  9>                          ****END OF INPUT****

CARTESIAN COORDINATES (ANGSTROEM)
---------------------------------
  B      0.000034   -0.000008   -0.000001
  Cl    -0.926831   -1.475182    0.000000
  Cl    -0.814155    1.540236    0.000000
  Cl     1.740976   -0.065052    0.000000

 Total Charge           Charge          ....    0
 Multiplicity           Mult            ....    1
 Number of Electrons    NEL             ....   56
 Basis Dimension        Dim             ....  332

ORBITAL ENERGIES
----------------

  NO   OCC          E(Eh)            E(eV)
   0   2.0000    -104.859788     -2853.3799
   1   2.0000    -104.859781     -2853.3797
   2   2.0000    -104.859779     -2853.3796
   3   2.0000     -10.587400      -288.0978
   4   2.0000     -10.587393      -288.0976
   5   2.0000     -10.587381      -288.0973
   6   2.0000      -8.054231      -219.1668
   7   2.0000      -8.054223      -219.1666
   8   2.0000      -8.054221      -219.1665
   9   2.0000      -8.053064      -219.1350
  10   2.0000      -8.053057      -219.1348
  11   2.0000      -8.053054      -219.1347
  12   2.0000      -8.052821      -219.1284
  13   2.0000      -8.052814      -219.1282
  14   2.0000      -8.052812      -219.1281
  15   2.0000      -7.773180      -211.5190
  16   2.0000      -1.180772       -32.1304
  17   2.0000      -1.119965       -30.4758
  18   2.0000      -1.119954       -30.4755
  19   2.0000      -0.706169       -19.2158
  20   2.0000      -0.611739       -16.6463
  21   2.0000      -0.611733       -16.6461
  22   2.0000      -0.556294       -15.1375
  23   2.0000      -0.493557       -13.4304
  24   2.0000      -0.493553       -13.4303
  25   2.0000      -0.484284       -13.1780
  26   2.0000      -0.484278       -13.1779
  27   2.0000      -0.458772       -12.4838
  28   0.0000       0.033912         0.9228
  29   0.0000       0.040038         1.0895
  30   0.0000       0.041610         1.1323
  31   0.0000       0.041610         1.1323
  32   0.0000       0.072884         1.9833

MULLIKEN ATOMIC CHARGES
-----------------------
   0 B :    0.423273
   1 Cl:   -0.141099
   2 Cl:   -0.141109
   3 Cl:   -0.141065
Sum of atomic charges:    0.0000000

LOEWDIN ATOMIC CHARGES
----------------------
   0 B :   -3.321811
   1 Cl:    1.107260
   2 Cl:    1.107245
   3 Cl:    1.107306

  Mayer bond orders larger than 0.100000
B(  0-B ,  1-Cl) :   1.1637 B(  0-B ,  2-Cl) :   1.1637 B(  0-B ,  3-Cl) :   1.1637

MP2 TOTAL ENERGY:    -1404.117825863 Eh
FINAL SINGLE POINT ENERGY     -1404.117825862940

DIPOLE MOMENT
-------------
                                X             Y             Z
Electronic contribution:      0.00012      -0.00003      -0.00000
Nuclear contribution   :     -0.00001       0.00000       0.00000
                        -----------------------------------------
Total Dipole Moment    :      0.00011      -0.00003      -0.00000
                        -----------------------------------------
Magnitude (a.u.)       :      0.00011
Magnitude (Debye)      :      0.00028

Rotational constants in cm-1:     0.104441     0.104438     0.052220
Rotational constants in MHz :  3131.076019  3130.979140  1565.513789

                             ****ORCA TERMINATED NORMALLY****
TOTAL RUN TIME: 0 days 0 hours 1 minutes 10 seconds 167 msec
