                         Program Version 4.2.1 -  RELEASE  -
|  1> %pal
|  2>  nprocs 32
|  3> end
|  4> !RI-MP2 aug-cc-pVQZ aug-cc-pVQZ/C TightSCF
|  5> %maxcore 4500
|  6> *xyzfile 0 1  10_6P.xyz
|  7>
|  8>
|  9>                          ****END OF INPUT****

CARTESIAN COORDINATES (ANGSTROEM)
---------------------------------
  C      0.267692   -0.995981   -0.414318
  C      0.679605    0.374305    0.135839
  C     -0.753605   -1.801109    0.373124
  H     -0.574953   -2.850807    0.127166
  H     -0.538286   -1.698263    1.442456
  C      0.062138    1.599496   -0.524451
  H      0.044769    1.442748   -1.607640
  H      0.733221    2.446093   -0.353115
  C     -1.323343    2.003814   -0.026620
  H     -1.289337    2.155065    1.058781
  H     -1.536655    2.987459   -0.454539
  C     -2.498623    1.080510   -0.367607
  H     -3.398714    1.700122   -0.349133
  H     -2.405549    0.735096   -1.403609
  C     -2.222577   -1.487003    0.105153
  H     -2.809027   -2.258631    0.612248
  H     -2.429809   -1.612512   -0.964077
  C     -2.750937   -0.122829    0.560313
  H     -3.833242   -0.225931    0.672742
  H     -2.374407    0.100465    1.565345
  N      2.124527    0.312437   -0.108162
  N      2.504596   -0.989909   -0.274458
  N      1.548672   -1.748725   -0.466916
  C      3.026691    1.112723    0.687698
  H      4.048082    0.850935    0.418589
  H      2.870038    2.170355    0.475177
  H      2.884955    0.942377    1.763834
  H     -0.062553   -0.900164   -1.456511
  H      0.504656    0.415404    1.224242

 Total Charge           Charge          ....    0
 Multiplicity           Mult            ....    1
 Number of Electrons    NEL             ....   92
 Basis Dimension        Dim             .... 1742

ORBITAL ENERGIES
----------------

  NO   OCC          E(Eh)            E(eV)
   0   2.0000     -15.647524      -425.7908
   1   2.0000     -15.590301      -424.2336
   2   2.0000     -15.588164      -424.1755
   3   2.0000     -11.266620      -306.5803
   4   2.0000     -11.257839      -306.3414
   5   2.0000     -11.257416      -306.3299
   6   2.0000     -11.227860      -305.5256
   7   2.0000     -11.225671      -305.4660
   8   2.0000     -11.222830      -305.3887
   9   2.0000     -11.222514      -305.3801
  10   2.0000     -11.221822      -305.3613
  11   2.0000     -11.221553      -305.3540
  12   2.0000      -1.417720       -38.5781
  13   2.0000      -1.202589       -32.7241
  14   2.0000      -1.121234       -30.5103
  15   2.0000      -1.064612       -28.9696
  16   2.0000      -1.057331       -28.7714
  17   2.0000      -0.959875       -26.1195
  18   2.0000      -0.945558       -25.7299
  19   2.0000      -0.919945       -25.0330
  20   2.0000      -0.815173       -22.1820
  21   2.0000      -0.810739       -22.0613
  22   2.0000      -0.782147       -21.2833
  23   2.0000      -0.775220       -21.0948
  24   2.0000      -0.680169       -18.5084
  25   2.0000      -0.675839       -18.3905
  26   2.0000      -0.637257       -17.3406
  27   2.0000      -0.633030       -17.2256
  28   2.0000      -0.620686       -16.8897
  29   2.0000      -0.609750       -16.5922
  30   2.0000      -0.585629       -15.9358
  31   2.0000      -0.574128       -15.6228
  32   2.0000      -0.560881       -15.2623
  33   2.0000      -0.555699       -15.1213
  34   2.0000      -0.545254       -14.8371
  35   2.0000      -0.527546       -14.3553
  36   2.0000      -0.509590       -13.8666
  37   2.0000      -0.498487       -13.5645
  38   2.0000      -0.489260       -13.3134
  39   2.0000      -0.486119       -13.2280
  40   2.0000      -0.473492       -12.8844
  41   2.0000      -0.466996       -12.7076
  42   2.0000      -0.448081       -12.1929
  43   2.0000      -0.439803       -11.9677
  44   2.0000      -0.397294       -10.8109
  45   2.0000      -0.350022        -9.5246
  46   0.0000       0.021025         0.5721
  47   0.0000       0.026243         0.7141
  48   0.0000       0.027404         0.7457
  49   0.0000       0.032112         0.8738
  50   0.0000       0.039628         1.0783

MULLIKEN ATOMIC CHARGES
-----------------------
   0 C :    0.607333
   1 C :    0.965095
   2 C :   -0.675398
   3 H :    0.221990
   4 H :    0.231219
   5 C :   -0.712865
   6 H :    0.211230
   7 H :    0.207986
   8 C :   -0.497437
   9 H :    0.258293
  10 H :    0.187079
  11 C :   -0.473633
  12 H :    0.195015
  13 H :    0.323360
  14 C :   -0.580679
  15 H :    0.181221
  16 H :    0.280991
  17 C :   -0.461733
  18 H :    0.227315
  19 H :    0.318985
  20 N :   -0.388462
  21 N :   -0.401932
  22 N :   -0.576206
  23 C :   -1.003557
  24 H :    0.353740
  25 H :    0.292098
  26 H :    0.302663
  27 H :    0.253536
  28 H :    0.152754
Sum of atomic charges:    0.0000000

LOEWDIN ATOMIC CHARGES
----------------------
   0 C :   -0.119213
   1 C :   -0.068667
   2 C :    0.526679
   3 H :   -0.286258
   4 H :   -0.268170
   5 C :    0.550433
   6 H :   -0.262850
   7 H :   -0.288154
   8 C :    0.560908
   9 H :   -0.269019
  10 H :   -0.270500
  11 C :    0.563731
  12 H :   -0.276486
  13 H :   -0.273390
  14 C :    0.555020
  15 H :   -0.270837
  16 H :   -0.270383
  17 C :    0.561912
  18 H :   -0.276375
  19 H :   -0.273490
  20 N :    0.231296
  21 N :    0.231865
  22 N :    0.393747
  23 C :    0.751232
  24 H :   -0.308315
  25 H :   -0.301082
  26 H :   -0.272662
  27 H :   -0.295234
  28 H :   -0.275739

  Mayer bond orders larger than 0.100000
B(  0-C ,  1-C ) :   0.9122 B(  0-C ,  2-C ) :   0.6346 B(  0-C , 22-N ) :  -0.1261
B(  0-C , 27-H ) :   0.9688 B(  1-C ,  5-C ) :   0.4989 B(  1-C ,  7-H ) :  -0.1323
B(  1-C , 21-N ) :  -0.1198 B(  1-C , 22-N ) :   0.1681 B(  1-C , 23-C ) :  -0.2322
B(  1-C , 28-H ) :   1.1286 B(  2-C ,  3-H ) :   1.0425 B(  2-C ,  4-H ) :   0.9893
B(  2-C , 14-C ) :   0.8063 B(  2-C , 22-N ) :   0.3608 B(  5-C ,  6-H ) :   1.0168
B(  5-C ,  7-H ) :   1.0683 B(  5-C ,  8-C ) :   0.7482 B(  5-C , 20-N ) :   0.3084
B(  8-C ,  9-H ) :   0.9537 B(  8-C , 10-H ) :   1.0641 B(  8-C , 11-C ) :   0.7628
B( 11-C , 12-H ) :   1.0916 B( 11-C , 13-H ) :   0.9181 B( 11-C , 17-C ) :   0.7924
B( 14-C , 15-H ) :   1.0701 B( 14-C , 16-H ) :   0.9332 B( 14-C , 17-C ) :   0.7634
B( 17-C , 18-H ) :   1.0591 B( 17-C , 19-H ) :   0.9318 B( 20-N , 21-N ) :   0.7366
B( 20-N , 23-C ) :   0.9585 B( 21-N , 22-N ) :   1.5179 B( 23-C , 24-H ) :   0.9546
B( 23-C , 25-H ) :   0.9474 B( 23-C , 26-H ) :   0.9480

MP2 TOTAL ENERGY:     -516.495017824 Eh
FINAL SINGLE POINT ENERGY      -516.495017824234

DIPOLE MOMENT
-------------
                                X             Y             Z
Electronic contribution:      9.55494      -5.48488      -2.41849
Nuclear contribution   :    -10.46530       6.59657       2.85840
                        -----------------------------------------
Total Dipole Moment    :     -0.91036       1.11169       0.43991
                        -----------------------------------------
Magnitude (a.u.)       :      1.50271
Magnitude (Debye)      :      3.81958

Rotational constants in cm-1:     0.049829     0.024535     0.017921
Rotational constants in MHz :  1493.848850   735.554072   537.262880

                             ****ORCA TERMINATED NORMALLY****
TOTAL RUN TIME: 0 days 2 hours 52 minutes 10 seconds 627 msec
