                         Program Version 4.2.1 -  RELEASE  -
|  1> %pal
|  2>  nprocs 32
|  3> end
|  4> !RI-MP2 aug-cc-pVQZ aug-cc-pVQZ/C TightSCF
|  5> %maxcore 4500
|  6> *xyzfile 0 1  09_11TS.xyz
|  7>
|  8>
|  9>                          ****END OF INPUT****

CARTESIAN COORDINATES (ANGSTROEM)
---------------------------------
  C      2.125135   -1.201140   -0.341756
  C      3.494051   -1.078406   -0.504822
  C      4.147442    0.108811   -0.195138
  C      3.400263    1.176367    0.287996
  C      2.030891    1.066754    0.459071
  C      1.359790   -0.131266    0.155183
  H      1.629528   -2.130260   -0.595756
  H      4.059069   -1.923097   -0.882963
  H      5.217985    0.200384   -0.328732
  H      3.890938    2.110823    0.536611
  H      1.462509    1.908601    0.836001
  C     -0.046535   -0.242487    0.309781
  C     -1.031175   -0.505460    1.050668
  H     -1.300891   -0.832118    2.044045
  H     -2.499376   -1.116678   -1.167100
  P     -2.718841   -0.236339   -0.095830
  C     -2.521448    1.407239   -0.846308
  H     -2.906663    2.163456   -0.160402
  H     -1.456481    1.570534   -1.007331
  H     -3.050408    1.480584   -1.796247
  C     -4.544770   -0.377997    0.168234
  H     -4.786757   -1.377865    0.529154
  H     -4.856428    0.344439    0.923963
  H     -5.102273   -0.188207   -0.751251

 Total Charge           Charge          ....    0
 Multiplicity           Mult            ....    1
 Number of Electrons    NEL             ....   88
 Basis Dimension        Dim             .... 1482

ORBITAL ENERGIES
----------------

  NO   OCC          E(Eh)            E(eV)
   0   2.0000     -79.992591     -2176.7091
   1   2.0000     -11.256163      -306.2958
   2   2.0000     -11.240509      -305.8698
   3   2.0000     -11.239836      -305.8515
   4   2.0000     -11.235031      -305.7207
   5   2.0000     -11.210663      -305.0577
   6   2.0000     -11.210430      -305.0513
   7   2.0000     -11.199601      -304.7566
   8   2.0000     -11.199065      -304.7420
   9   2.0000     -11.194977      -304.6308
  10   2.0000     -11.180870      -304.2469
  11   2.0000      -7.532132      -204.9597
  12   2.0000      -5.427190      -147.6813
  13   2.0000      -5.426587      -147.6649
  14   2.0000      -5.425960      -147.6479
  15   2.0000      -1.131273       -30.7835
  16   2.0000      -1.053460       -28.6661
  17   2.0000      -1.027758       -27.9667
  18   2.0000      -0.988740       -26.9050
  19   2.0000      -0.974139       -26.5077
  20   2.0000      -0.962804       -26.1992
  21   2.0000      -0.828118       -22.5342
  22   2.0000      -0.798931       -21.7400
  23   2.0000      -0.784586       -21.3497
  24   2.0000      -0.716359       -19.4931
  25   2.0000      -0.670323       -18.2404
  26   2.0000      -0.628060       -17.0904
  27   2.0000      -0.624002       -16.9800
  28   2.0000      -0.613870       -16.7043
  29   2.0000      -0.600558       -16.3420
  30   2.0000      -0.588323       -16.0091
  31   2.0000      -0.582386       -15.8475
  32   2.0000      -0.573854       -15.6154
  33   2.0000      -0.559419       -15.2226
  34   2.0000      -0.524282       -14.2664
  35   2.0000      -0.508397       -13.8342
  36   2.0000      -0.495454       -13.4820
  37   2.0000      -0.484315       -13.1789
  38   2.0000      -0.467803       -12.7296
  39   2.0000      -0.463170       -12.6035
  40   2.0000      -0.368985       -10.0406
  41   2.0000      -0.348137        -9.4733
  42   2.0000      -0.316219        -8.6048
  43   2.0000      -0.221840        -6.0366
  44   0.0000       0.013958         0.3798
  45   0.0000       0.026233         0.7138
  46   0.0000       0.027151         0.7388
  47   0.0000       0.031309         0.8520
  48   0.0000       0.037511         1.0207

MULLIKEN ATOMIC CHARGES
-----------------------
   0 C :   -0.621341
   1 C :   -0.197679
   2 C :   -0.401644
   3 C :   -0.224141
   4 C :   -0.602294
   5 C :    0.447373
   6 H :    0.251495
   7 H :    0.245931
   8 H :    0.345519
   9 H :    0.238777
  10 H :    0.249341
  11 C :    0.218409
  12 C :   -0.989725
  13 H :    0.378868
  14 H :   -0.202586
  15 P :    1.250279
  16 C :   -1.245636
  17 H :    0.298603
  18 H :    0.445917
  19 H :    0.348793
  20 C :   -1.170886
  21 H :    0.343961
  22 H :    0.288744
  23 H :    0.303920
Sum of atomic charges:   -0.0000000

LOEWDIN ATOMIC CHARGES
----------------------
   0 C :    0.300441
   1 C :    0.313015
   2 C :    0.315313
   3 C :    0.313045
   4 C :    0.298530
   5 C :   -0.214352
   6 H :   -0.329622
   7 H :   -0.325442
   8 H :   -0.337116
   9 H :   -0.325603
  10 H :   -0.330080
  11 C :    0.020641
  12 C :    0.290600
  13 H :   -0.421073
  14 H :   -0.291789
  15 P :    1.064639
  16 C :    0.847407
  17 H :   -0.328723
  18 H :   -0.372376
  19 H :   -0.326794
  20 C :    0.872873
  21 H :   -0.349059
  22 H :   -0.346792
  23 H :   -0.337681

  Mayer bond orders larger than 0.100000
B(  0-C ,  1-C ) :   1.3463 B(  0-C ,  2-C ) :   0.1308 B(  0-C ,  3-C ) :   0.1431
B(  0-C ,  4-C ) :   0.2791 B(  0-C ,  5-C ) :   1.1231 B(  0-C ,  6-H ) :   1.0017
B(  0-C ,  7-H ) :  -0.1541 B(  0-C , 11-C ) :  -0.4620 B(  1-C ,  2-C ) :   1.1235
B(  1-C ,  3-C ) :  -0.1521 B(  1-C ,  4-C ) :   0.1345 B(  1-C ,  5-C ) :  -0.3366
B(  1-C ,  7-H ) :   1.1377 B(  2-C ,  3-C ) :   1.1610 B(  2-C ,  4-C ) :   0.1096
B(  2-C ,  7-H ) :  -0.1005 B(  2-C ,  8-H ) :   0.9646 B(  3-C ,  4-C ) :   1.3025
B(  3-C ,  5-C ) :  -0.3023 B(  3-C ,  9-H ) :   1.1489 B(  4-C ,  5-C ) :   1.0384
B(  4-C ,  9-H ) :  -0.1649 B(  4-C , 10-H ) :   0.9995 B(  4-C , 11-C ) :  -0.3298
B(  5-C , 11-C ) :   1.0770 B(  5-C , 12-C ) :  -0.2232 B(  5-C , 15-P ) :   0.1195
B( 11-C , 12-C ) :   1.8000 B( 11-C , 15-P ) :  -0.3425 B( 12-C , 13-H ) :   0.8714
B( 12-C , 15-P ) :   1.0502 B( 14-H , 15-P ) :   0.9282 B( 15-P , 16-C ) :   0.8270
B( 15-P , 20-C ) :   1.1239 B( 16-C , 17-H ) :   0.8958 B( 16-C , 18-H ) :   0.8041
B( 16-C , 19-H ) :   0.8766 B( 20-C , 21-H ) :   0.8720 B( 20-C , 22-H ) :   0.8694
B( 20-C , 23-H ) :   0.9094

MP2 TOTAL ENERGY:     -728.937242720 Eh
FINAL SINGLE POINT ENERGY      -728.937242720076

DIPOLE MOMENT
-------------
                                X             Y             Z
Electronic contribution:      4.56872      -2.33376       1.65012
Nuclear contribution   :     -7.15677       2.45174      -1.74014
                        -----------------------------------------
Total Dipole Moment    :     -2.58805       0.11797      -0.09002
                        -----------------------------------------
Magnitude (a.u.)       :      2.59230
Magnitude (Debye)      :      6.58910

Rotational constants in cm-1:     0.099724     0.012080     0.011451
Rotational constants in MHz :  2989.640426   362.146699   343.292793

                             ****ORCA TERMINATED NORMALLY****
TOTAL RUN TIME: 0 days 1 hours 25 minutes 28 seconds 82 msec
