                         Program Version 4.2.1 -  RELEASE  -
|  1> %pal
|  2>  nprocs 32
|  3> end
|  4> !RI-MP2 aug-cc-pVQZ aug-cc-pVQZ/C TightSCF
|  5> %maxcore 4500
|  6> *xyzfile 0 1  02_12R.xyz
|  7>
|  8>
|  9>                          ****END OF INPUT****

CARTESIAN COORDINATES (ANGSTROEM)
---------------------------------
  C     -3.063485   -1.324088   -0.548451
  C     -2.015348   -2.315183   -1.088923
  C     -0.680200   -1.664720   -1.259534
  C     -1.842403    1.252671    0.769236
  C     -2.824140   -1.007410    0.936827
  H     -2.357921   -2.697731   -2.056321
  H     -1.941120   -3.175474   -0.415367
  H     -2.944011   -0.396247   -1.118325
  H     -3.504917   -1.609611    1.547325
  C     -1.879911    2.158558   -0.203720
  C      0.395965   -1.871020   -0.499776
  C      1.649072   -1.154441   -0.660554
  C      2.697348   -1.286639    0.162034
  C     -0.692555    2.857756   -0.742855
  C     -4.483971   -1.833383   -0.778310
  H     -4.694546   -1.959937   -1.842739
  H     -5.223389   -1.138323   -0.372060
  H     -4.633486   -2.800273   -0.288372
  O     -0.813923    3.610488   -1.687200
  C     -3.007371    0.476016    1.299654
  H     -3.923760    0.846054    0.827472
  H     -1.811235   -1.301342    1.228785
  C      3.971822   -0.576141    0.059479
  C      4.910524   -0.816123    0.985811
  H      4.658246   -1.535474    1.762006
  C      4.141795    0.380492   -1.087429
  H      5.118982    0.856945   -1.090036
  H      3.385980    1.169218   -1.050829
  H      4.019077   -0.137554   -2.042157
  C      6.277883   -0.225445    1.102946
  H      6.395713    0.280806    2.065955
  H      6.506058    0.493903    0.318410
  H      7.039028   -1.010995    1.068943
  C      0.657670    2.618546   -0.108203
  H      0.653626    2.946258    0.933957
  H      1.406772    3.182911   -0.659569
  H      0.915366    1.557691   -0.115851
  C     -3.121527    0.661191    2.814093
  H     -3.237391    1.713790    3.079037
  H     -3.982063    0.113355    3.204102
  H     -2.227981    0.282913    3.319122
  H     -0.886012    1.000805    1.223485
  H     -2.813925    2.423653   -0.690066
  H      2.612340   -1.980793    0.995345
  H      1.702765   -0.470009   -1.502319
  H     -0.617515   -0.917537   -2.049324
  H      0.349692   -2.604725    0.303053

 Total Charge           Charge          ....    0
 Multiplicity           Mult            ....    1
 Number of Electrons    NEL             ....  144
 Basis Dimension        Dim             .... 2808

ORBITAL ENERGIES
----------------

  NO   OCC          E(Eh)            E(eV)
   0   2.0000     -20.531570      -558.6924
   1   2.0000     -11.321177      -308.0649
   2   2.0000     -11.252157      -306.1868
   3   2.0000     -11.241310      -305.8916
   4   2.0000     -11.236704      -305.7663
   5   2.0000     -11.232203      -305.6438
   6   2.0000     -11.230733      -305.6038
   7   2.0000     -11.230215      -305.5897
   8   2.0000     -11.230008      -305.5840
   9   2.0000     -11.229399      -305.5675
  10   2.0000     -11.228785      -305.5508
  11   2.0000     -11.227966      -305.5285
  12   2.0000     -11.225972      -305.4742
  13   2.0000     -11.223746      -305.4137
  14   2.0000     -11.223685      -305.4120
  15   2.0000     -11.223542      -305.4081
  16   2.0000     -11.223098      -305.3960
  17   2.0000     -11.219765      -305.3053
  18   2.0000     -11.215932      -305.2010
  19   2.0000      -1.376204       -37.4484
  20   2.0000      -1.134754       -30.8782
  21   2.0000      -1.123504       -30.5721
  22   2.0000      -1.099582       -29.9211
  23   2.0000      -1.070986       -29.1430
  24   2.0000      -1.041153       -28.3312
  25   2.0000      -1.016117       -27.6500
  26   2.0000      -0.983697       -26.7678
  27   2.0000      -0.977930       -26.6108
  28   2.0000      -0.933833       -25.4109
  29   2.0000      -0.932723       -25.3807
  30   2.0000      -0.902399       -24.5555
  31   2.0000      -0.869130       -23.6502
  32   2.0000      -0.807402       -21.9705
  33   2.0000      -0.783272       -21.3139
  34   2.0000      -0.773387       -21.0449
  35   2.0000      -0.755947       -20.5704
  36   2.0000      -0.731776       -19.9126
  37   2.0000      -0.713894       -19.4260
  38   2.0000      -0.668220       -18.1832
  39   2.0000      -0.665266       -18.1028
  40   2.0000      -0.651162       -17.7190
  41   2.0000      -0.640980       -17.4419
  42   2.0000      -0.630193       -17.1484
  43   2.0000      -0.605351       -16.4724
  44   2.0000      -0.602037       -16.3823
  45   2.0000      -0.594638       -16.1809
  46   2.0000      -0.592822       -16.1315
  47   2.0000      -0.583570       -15.8797
  48   2.0000      -0.581891       -15.8340
  49   2.0000      -0.567112       -15.4319
  50   2.0000      -0.565791       -15.3960
  51   2.0000      -0.560115       -15.2415
  52   2.0000      -0.552392       -15.0313
  53   2.0000      -0.545942       -14.8558
  54   2.0000      -0.539380       -14.6773
  55   2.0000      -0.537083       -14.6148
  56   2.0000      -0.521819       -14.1994
  57   2.0000      -0.521019       -14.1776
  58   2.0000      -0.512355       -13.9419
  59   2.0000      -0.506595       -13.7851
  60   2.0000      -0.498777       -13.5724
  61   2.0000      -0.496006       -13.4970
  62   2.0000      -0.491697       -13.3797
  63   2.0000      -0.478642       -13.0245
  64   2.0000      -0.466180       -12.6854
  65   2.0000      -0.464186       -12.6311
  66   2.0000      -0.459403       -12.5010
  67   2.0000      -0.445622       -12.1260
  68   2.0000      -0.407813       -11.0972
  69   2.0000      -0.376276       -10.2390
  70   2.0000      -0.370606       -10.0847
  71   2.0000      -0.284998        -7.7552
  72   0.0000       0.018666         0.5079
  73   0.0000       0.022192         0.6039
  74   0.0000       0.026183         0.7125
  75   0.0000       0.026862         0.7310
  76   0.0000       0.032799         0.8925

MULLIKEN ATOMIC CHARGES
-----------------------
   0 C :    0.425468
   1 C :   -0.505822
   2 C :   -0.168981
   3 C :    0.251416
   4 C :   -0.523854
   5 H :    0.223247
   6 H :    0.112037
   7 H :    0.309809
   8 H :    0.213536
   9 C :   -1.145327
  10 C :   -0.287638
  11 C :    0.116974
  12 C :   -0.235551
  13 C :    1.425931
  14 C :   -1.145926
  15 H :    0.265547
  16 H :    0.183872
  17 H :    0.244201
  18 O :   -0.986038
  19 C :    0.283365
  20 H :    0.204094
  21 H :    0.431319
  22 C :    0.165981
  23 C :   -0.403102
  24 H :    0.166133
  25 C :   -0.787453
  26 H :    0.289981
  27 H :    0.301133
  28 H :    0.203520
  29 C :   -0.825569
  30 H :    0.244750
  31 H :    0.259496
  32 H :    0.254507
  33 C :   -0.990102
  34 H :    0.410322
  35 H :    0.237556
  36 H :    0.082286
  37 C :   -1.112470
  38 H :    0.238202
  39 H :    0.227235
  40 H :    0.194146
  41 H :    0.403258
  42 H :    0.190590
  43 H :    0.149158
  44 H :    0.232754
  45 H :    0.095177
  46 H :    0.080831
Sum of atomic charges:   -0.0000000

LOEWDIN ATOMIC CHARGES
----------------------
   0 C :    0.124315
   1 C :    0.507344
   2 C :    0.391239
   3 C :    0.355621
   4 C :    0.516221
   5 H :   -0.273934
   6 H :   -0.279101
   7 H :   -0.304472
   8 H :   -0.267679
   9 C :    0.362486
  10 C :    0.370586
  11 C :    0.342554
  12 C :    0.347678
  13 C :   -0.665833
  14 C :    0.941100
  15 H :   -0.268186
  16 H :   -0.267655
  17 H :   -0.268556
  18 O :    0.720191
  19 C :    0.110845
  20 H :   -0.287214
  21 H :   -0.295101
  22 C :   -0.038832
  23 C :    0.389764
  24 H :   -0.338367
  25 C :    0.887575
  26 H :   -0.324655
  27 H :   -0.294540
  28 H :   -0.273450
  29 C :    0.910469
  30 H :   -0.286429
  31 H :   -0.333400
  32 H :   -0.285752
  33 C :    0.867370
  34 H :   -0.278913
  35 H :   -0.313593
  36 H :   -0.333778
  37 C :    0.942142
  38 H :   -0.266130
  39 H :   -0.270492
  40 H :   -0.270840
  41 H :   -0.320436
  42 H :   -0.341352
  43 H :   -0.349357
  44 H :   -0.363208
  45 H :   -0.300190
  46 H :   -0.326056

  Mayer bond orders larger than 0.100000
B(  0-C ,  1-C ) :   0.4884 B(  0-C ,  2-C ) :  -0.1176 B(  0-C ,  4-C ) :   0.8809
B(  0-C ,  5-H ) :  -0.1127 B(  0-C ,  6-H ) :  -0.1633 B(  0-C ,  7-H ) :   0.9410
B(  0-C , 14-C ) :   0.1949 B(  0-C , 15-H ) :  -0.1563 B(  0-C , 16-H ) :  -0.1759
B(  0-C , 17-H ) :  -0.1573 B(  1-C ,  2-C ) :   1.0204 B(  1-C ,  5-H ) :   1.0816
B(  1-C ,  6-H ) :   1.1809 B(  1-C , 10-C ) :  -0.3748 B(  1-C , 14-C ) :   0.1825
B(  2-C ,  5-H ) :  -0.1332 B(  2-C , 10-C ) :   1.2986 B(  2-C , 11-C ) :  -0.6175
B(  2-C , 45-H ) :   1.1464 B(  3-C ,  9-C ) :   0.7658 B(  3-C , 13-C ) :  -0.5244
B(  3-C , 19-C ) :   0.5531 B(  3-C , 37-C ) :  -0.1138 B(  3-C , 41-H ) :   0.8726
B(  4-C ,  8-H ) :   1.0489 B(  4-C , 19-C ) :   0.7082 B(  4-C , 21-H ) :   0.6911
B(  9-C , 13-C ) :   1.4549 B(  9-C , 18-O ) :   0.3222 B(  9-C , 19-C ) :  -0.2813
B(  9-C , 33-C ) :   0.1545 B(  9-C , 41-H ) :  -0.1591 B(  9-C , 42-H ) :   1.0385
B( 10-C , 11-C ) :   0.5635 B( 10-C , 12-C ) :  -0.7514 B( 10-C , 44-H ) :  -0.1367
B( 10-C , 46-H ) :   1.2416 B( 11-C , 12-C ) :   1.1851 B( 11-C , 22-C ) :  -0.7764
B( 11-C , 44-H ) :   0.9525 B( 12-C , 22-C ) :   1.0278 B( 12-C , 23-C ) :  -0.5158
B( 12-C , 43-H ) :   1.1025 B( 13-C , 18-O ) :   0.3418 B( 13-C , 33-C ) :   1.0621
B( 14-C , 15-H ) :   1.0728 B( 14-C , 16-H ) :   1.1576 B( 14-C , 17-H ) :   1.0657
B( 18-O , 33-C ) :   0.1203 B( 18-O , 36-H ) :   0.2410 B( 18-O , 42-H ) :   0.1158
B( 19-C , 20-H ) :   1.0937 B( 19-C , 37-C ) :   0.4870 B( 19-C , 38-H ) :  -0.1253
B( 19-C , 39-H ) :  -0.1338 B( 19-C , 40-H ) :  -0.2076 B( 22-C , 23-C ) :   1.4986
B( 22-C , 25-C ) :   0.6462 B( 22-C , 26-H ) :  -0.1093 B( 22-C , 29-C ) :  -0.1844
B( 23-C , 24-H ) :   1.1125 B( 23-C , 25-C ) :  -0.1092 B( 23-C , 29-C ) :   0.8180
B( 23-C , 30-H ) :  -0.1176 B( 23-C , 32-H ) :  -0.1147 B( 25-C , 26-H ) :   1.0171
B( 25-C , 27-H ) :   0.8642 B( 25-C , 28-H ) :   1.0566 B( 29-C , 30-H ) :   1.0198
B( 29-C , 31-H ) :   0.9579 B( 29-C , 32-H ) :   1.0229 B( 33-C , 34-H ) :   0.7996
B( 33-C , 35-H ) :   1.0392 B( 33-C , 36-H ) :   0.8633 B( 34-H , 36-H ) :   0.1034
B( 37-C , 38-H ) :   1.1117 B( 37-C , 39-H ) :   1.0699 B( 37-C , 40-H ) :   1.0785

MP2 TOTAL ENERGY:     -776.527347577 Eh
FINAL SINGLE POINT ENERGY      -776.527347577211

DIPOLE MOMENT
-------------
                                X             Y             Z
Electronic contribution:      0.13955       5.94965      -5.58736
Nuclear contribution   :     -0.05032      -7.07290       6.80939
                        -----------------------------------------
Total Dipole Moment    :      0.08923      -1.12325       1.22203
                        -----------------------------------------
Magnitude (a.u.)       :      1.66223
Magnitude (Debye)      :      4.22506

Rotational constants in cm-1:     0.014414     0.005914     0.005077
Rotational constants in MHz :   432.121014   177.307690   152.217074

                             ****ORCA TERMINATED NORMALLY****
TOTAL RUN TIME: 0 days 9 hours 6 minutes 17 seconds 180 msec
