                         Program Version 4.2.1 -  RELEASE  -
|  1> %pal
|  2>  nprocs 32
|  3> end
|  4> !RI-MP2 aug-cc-pVQZ aug-cc-pVQZ/C TightSCF
|  5> %maxcore 4500
|  6> *xyzfile 0 2  03_6R2.xyz
|  7>
|  8>
|  9>                          ****END OF INPUT****

CARTESIAN COORDINATES (ANGSTROEM)
---------------------------------
  C     -0.009278    0.027567   -0.227698
  C      1.221978   -0.769494    0.033070
  C     -1.359003   -0.536358    0.025966
  O      0.052491    1.372689    0.058964
  H      1.127506   -1.773936   -0.381751
  H      1.420487   -0.871963    1.112632
  H      2.106283   -0.307894   -0.418496
  H     -1.448472   -1.535882   -0.402134
  H     -2.130280    0.100700   -0.410591
  H     -1.568901   -0.613393    1.104607
  H      0.951273    1.690564   -0.064007

 Total Charge           Charge          ....    0
 Multiplicity           Mult            ....    2
 Number of Electrons    NEL             ....   33
 Basis Dimension        Dim             ....  642

ORBITAL ENERGIES
----------------
                 SPIN UP ORBITALS
  NO   OCC          E(Eh)            E(eV)
   0   1.0000     -20.570709      -559.7575
   1   1.0000     -11.274713      -306.8006
   2   1.0000     -11.223580      -305.4091
   3   1.0000     -11.212308      -305.1024
   4   1.0000      -1.388817       -37.7916
   5   1.0000      -1.049671       -28.5630
   6   1.0000      -0.950854       -25.8741
   7   1.0000      -0.797762       -21.7082
   8   1.0000      -0.682839       -18.5810
   9   1.0000      -0.640660       -17.4332
  10   1.0000      -0.623178       -16.9575
  11   1.0000      -0.551745       -15.0138
  12   1.0000      -0.541995       -14.7484
  13   1.0000      -0.538496       -14.6532
  14   1.0000      -0.523273       -14.2390
  15   1.0000      -0.492067       -13.3898
  16   1.0000      -0.308615        -8.3979
  17   0.0000       0.025125         0.6837
  18   0.0000       0.034095         0.9278
  19   0.0000       0.037839         1.0297
  20   0.0000       0.040874         1.1122
  21   0.0000       0.055101         1.4994

                 SPIN DOWN ORBITALS
  NO   OCC          E(Eh)            E(eV)
   0   1.0000     -20.566032      -559.6302
   1   1.0000     -11.249635      -306.1181
   2   1.0000     -11.225761      -305.4685
   3   1.0000     -11.214746      -305.1688
   4   1.0000      -1.371907       -37.3315
   5   1.0000      -1.021505       -27.7966
   6   1.0000      -0.949503       -25.8373
   7   1.0000      -0.773668       -21.0526
   8   1.0000      -0.660759       -17.9802
   9   1.0000      -0.614325       -16.7166
  10   1.0000      -0.583828       -15.8868
  11   1.0000      -0.540394       -14.7049
  12   1.0000      -0.536197       -14.5906
  13   1.0000      -0.526176       -14.3180
  14   1.0000      -0.501352       -13.6425
  15   1.0000      -0.481363       -13.0986
  16   0.0000       0.024806         0.6750
  17   0.0000       0.034040         0.9263
  18   0.0000       0.037887         1.0310
  19   0.0000       0.040807         1.1104
  20   0.0000       0.055149         1.5007

MULLIKEN ATOMIC CHARGES AND SPIN POPULATIONS
--------------------------------------------
   0 C :    0.508685    1.040930
   1 C :   -0.794804   -0.142500
   2 C :   -0.788682   -0.144389
   3 O :   -0.818130    0.061303
   4 H :    0.274875    0.003010
   5 H :    0.234050    0.086299
   6 H :    0.258382    0.009789
   7 H :    0.260732    0.005087
   8 H :    0.281909    0.012349
   9 H :    0.242612    0.075790
  10 H :    0.340371   -0.007669
Sum of atomic charges         :    0.0000000

LOEWDIN ATOMIC CHARGES AND SPIN POPULATIONS
-------------------------------------------
   0 C :   -0.331026    0.474989
   1 C :    0.868569    0.122000
   2 C :    0.853391    0.119298
   3 O :    1.243764    0.158549
   4 H :   -0.310263    0.012011
   5 H :   -0.283200    0.028639
   6 H :   -0.307602    0.013535
   7 H :   -0.314252    0.012160
   8 H :   -0.313273    0.013066
   9 H :   -0.288243    0.026830
  10 H :   -0.817863    0.018922

  Mayer bond orders larger than 0.100000
B(  0-C ,  1-C ) :   0.8675 B(  0-C ,  2-C ) :   0.7829 B(  0-C ,  3-O ) :   0.6118
B(  1-C ,  4-H ) :   0.9608 B(  1-C ,  5-H ) :   0.8844 B(  1-C ,  6-H ) :   0.9766
B(  2-C ,  7-H ) :   0.9892 B(  2-C ,  8-H ) :   0.9657 B(  2-C ,  9-H ) :   0.8901
B(  3-O , 10-H ) :   0.9041

MP2 TOTAL ENERGY:     -193.384751425 Eh
FINAL SINGLE POINT ENERGY      -193.384751425458

DIPOLE MOMENT
-------------
                                X             Y             Z
Electronic contribution:      0.04978       3.12336      -0.59436
Nuclear contribution   :      0.48115      -3.45100       0.56764
                        -----------------------------------------
Total Dipole Moment    :      0.53093      -0.32764      -0.02671
                        -----------------------------------------
Magnitude (a.u.)       :      0.62446
Magnitude (Debye)      :      1.58724

Rotational constants in cm-1:     0.312174     0.272269     0.155718
Rotational constants in MHz :  9358.738631  8162.429007  4668.319090

                             ****ORCA TERMINATED NORMALLY****
TOTAL RUN TIME: 0 days 0 hours 7 minutes 6 seconds 588 msec
