                         Program Version 4.2.1 -  RELEASE  -
|  1> %pal
|  2>  nprocs 32
|  3> end
|  4> !RI-MP2 aug-cc-pVQZ aug-cc-pVQZ/C TightSCF
|  5> %maxcore 4500
|  6> *xyzfile 0 1  05_23R1.xyz
|  7>
|  8>
|  9>                          ****END OF INPUT****

CARTESIAN COORDINATES (ANGSTROEM)
---------------------------------
  C     -1.374708    0.583860   -0.160744
  C      0.102894    0.253520   -0.085056
  C      0.986845    0.724621   -1.047611
  C      0.598510   -0.499150    0.976144
  C      2.347280    0.459865   -0.951009
  H      0.607937    1.302011   -1.884553
  C      1.954576   -0.771149    1.072253
  H     -0.091941   -0.881723    1.718664
  C      2.834054   -0.289323    0.109961
  H      3.025351    0.833303   -1.709150
  H      2.328641   -1.361626    1.900294
  H      3.893600   -0.502024    0.185610
  O     -2.188101   -0.528224    0.170063
  C     -2.144661   -1.568649   -0.780208
  H     -1.140340   -1.996800   -0.868943
  H     -2.833776   -2.340461   -0.440766
  H     -2.464105   -1.212431   -1.768055
  C     -1.751885    1.700624    0.796853
  H     -1.549306    1.394030    1.824573
  H     -1.170266    2.598943    0.584013
  H     -2.814119    1.930989    0.704472
  H     -1.604302    0.896259   -1.190151

 Total Charge           Charge          ....    0
 Multiplicity           Mult            ....    1
 Number of Electrons    NEL             ....   74
 Basis Dimension        Dim             .... 1352

ORBITAL ENERGIES
----------------

  NO   OCC          E(Eh)            E(eV)
   0   2.0000     -20.552036      -559.2493
   1   2.0000     -11.283518      -307.0401
   2   2.0000     -11.264705      -306.5282
   3   2.0000     -11.234220      -305.6987
   4   2.0000     -11.233665      -305.6836
   5   2.0000     -11.232890      -305.6625
   6   2.0000     -11.231224      -305.6171
   7   2.0000     -11.230533      -305.5984
   8   2.0000     -11.227714      -305.5216
   9   2.0000     -11.212160      -305.0984
  10   2.0000      -1.376493       -37.4563
  11   2.0000      -1.157463       -31.4962
  12   2.0000      -1.059195       -28.8222
  13   2.0000      -1.015894       -27.6439
  14   2.0000      -0.992417       -27.0050
  15   2.0000      -0.913908       -24.8687
  16   2.0000      -0.859081       -23.3768
  17   2.0000      -0.829061       -22.5599
  18   2.0000      -0.784349       -21.3432
  19   2.0000      -0.705909       -19.2088
  20   2.0000      -0.670935       -18.2571
  21   2.0000      -0.652394       -17.7525
  22   2.0000      -0.631622       -17.1873
  23   2.0000      -0.618408       -16.8277
  24   2.0000      -0.612315       -16.6619
  25   2.0000      -0.585972       -15.9451
  26   2.0000      -0.582636       -15.8543
  27   2.0000      -0.545798       -14.8519
  28   2.0000      -0.528769       -14.3885
  29   2.0000      -0.514773       -14.0077
  30   2.0000      -0.500841       -13.6286
  31   2.0000      -0.494444       -13.4545
  32   2.0000      -0.488634       -13.2964
  33   2.0000      -0.464867       -12.6497
  34   2.0000      -0.423668       -11.5286
  35   2.0000      -0.338498        -9.2110
  36   2.0000      -0.331262        -9.0141
  37   0.0000       0.023537         0.6405
  38   0.0000       0.028040         0.7630
  39   0.0000       0.030449         0.8285
  40   0.0000       0.034322         0.9339
  41   0.0000       0.040788         1.1099

MULLIKEN ATOMIC CHARGES
-----------------------
   0 C :    1.073693
   1 C :    0.958688
   2 C :   -0.863317
   3 C :   -0.555363
   4 C :   -0.263502
   5 H :    0.202543
   6 C :   -0.296424
   7 H :    0.323644
   8 C :   -0.411938
   9 H :    0.226694
  10 H :    0.201913
  11 H :    0.335336
  12 O :   -1.015917
  13 C :   -0.745873
  14 H :    0.276957
  15 H :    0.430010
  16 H :    0.246620
  17 C :   -1.007165
  18 H :    0.248307
  19 H :    0.242195
  20 H :    0.286659
  21 H :    0.106238
Sum of atomic charges:    0.0000000

LOEWDIN ATOMIC CHARGES
----------------------
   0 C :   -0.298368
   1 C :   -0.123756
   2 C :    0.347828
   3 C :    0.332073
   4 C :    0.346184
   5 H :   -0.310406
   6 C :    0.351861
   7 H :   -0.311463
   8 C :    0.336494
   9 H :   -0.320127
  10 H :   -0.318645
  11 H :   -0.323043
  12 O :    0.893156
  13 C :    0.576025
  14 H :   -0.311479
  15 H :   -0.316704
  16 H :   -0.299119
  17 C :    0.912265
  18 H :   -0.285366
  19 H :   -0.274783
  20 H :   -0.277190
  21 H :   -0.325436

  Mayer bond orders larger than 0.100000
B(  0-C ,  1-C ) :   0.6565 B(  0-C ,  2-C ) :  -0.1854 B(  0-C ,  3-C ) :  -0.2118
B(  0-C , 12-O ) :   0.1490 B(  0-C , 13-C ) :  -0.1417 B(  0-C , 17-C ) :   0.5422
B(  0-C , 19-H ) :  -0.1043 B(  0-C , 21-H ) :   1.1595 B(  1-C ,  2-C ) :   0.5738
B(  1-C ,  3-C ) :   0.7600 B(  1-C ,  4-C ) :  -0.4481 B(  1-C ,  5-H ) :  -0.1086
B(  1-C ,  6-C ) :  -0.4071 B(  1-C , 21-H ) :  -0.1373 B(  2-C ,  4-C ) :   1.5394
B(  2-C ,  5-H ) :   1.0838 B(  2-C ,  6-C ) :   0.1873 B(  2-C ,  8-C ) :   0.2001
B(  2-C ,  9-H ) :  -0.1317 B(  3-C ,  4-C ) :   0.1443 B(  3-C ,  6-C ) :   1.4149
B(  3-C ,  7-H ) :   0.9407 B(  3-C ,  8-C ) :   0.1068 B(  3-C , 10-H ) :  -0.1441
B(  4-C ,  8-C ) :   1.1056 B(  4-C ,  9-H ) :   1.1428 B(  6-C ,  8-C ) :   1.1269
B(  6-C , 10-H ) :   1.1712 B(  8-C ,  9-H ) :  -0.1127 B(  8-C , 11-H ) :   1.0238
B( 12-O , 13-C ) :   0.9889 B( 12-O , 17-C ) :   0.1514 B( 13-C , 14-H ) :   0.8818
B( 13-C , 15-H ) :   0.8459 B( 13-C , 16-H ) :   0.9583 B( 17-C , 18-H ) :   0.9572
B( 17-C , 19-H ) :   1.0445 B( 17-C , 20-H ) :   0.9987

MP2 TOTAL ENERGY:     -424.657525813 Eh
FINAL SINGLE POINT ENERGY      -424.657525813382

DIPOLE MOMENT
-------------
                                X             Y             Z
Electronic contribution:      4.15750      -0.64694       0.57480
Nuclear contribution   :     -3.92574       0.66547      -0.96055
                        -----------------------------------------
Total Dipole Moment    :      0.23176       0.01853      -0.38575
                        -----------------------------------------
Magnitude (a.u.)       :      0.45040
Magnitude (Debye)      :      1.14482

Rotational constants in cm-1:     0.079739     0.029872     0.028117
Rotational constants in MHz :  2390.510137   895.527537   842.939134

                             ****ORCA TERMINATED NORMALLY****
TOTAL RUN TIME: 0 days 1 hours 7 minutes 3 seconds 735 msec
