                         Program Version 4.2.1 -  RELEASE  -
|  1> %pal
|  2>  nprocs 32
|  3> end
|  4> !RI-MP2 aug-cc-pVQZ aug-cc-pVQZ/C TightSCF
|  5> %maxcore 4500
|  6> *xyzfile 0 1  03_34R1.xyz
|  7>
|  8>
|  9>                          ****END OF INPUT****

CARTESIAN COORDINATES (ANGSTROEM)
---------------------------------
  Cl     2.814985   -0.816210   -0.995123
  C      2.007584    0.312431    0.230458
  C      0.507511    0.114292    0.128286
  C      2.475865    1.715332   -0.121152
  C      2.525266   -0.091920    1.606060
  C     -0.362669    1.165414   -0.108491
  C     -0.047444   -1.156472    0.320222
  H      2.156449    2.005229   -1.121608
  H      3.563767    1.758797   -0.082856
  H      2.080994    2.433763    0.600953
  H      2.265249   -1.122153    1.843974
  H      2.072802    0.557059    2.359990
  H      3.609656    0.013233    1.654244
  C     -1.743590    0.978887   -0.150316
  C     -2.270709   -0.288210    0.045267
  C     -1.407735   -1.360323    0.279654
  H      0.604824   -2.005906    0.480069
  H     -2.383040    1.829482   -0.338256
  O     -3.594817   -0.584798    0.024084
  H     -1.833140   -2.345752    0.420014
  H      0.016068    2.165689   -0.266953
  C     -4.510668    0.461716   -0.224097
  H     -5.499127    0.008824   -0.201349
  H     -4.341785    0.913267   -1.206430
  H     -4.449388    1.235529    0.547288

 Total Charge           Charge          ....    0
 Multiplicity           Mult            ....    1
 Number of Electrons    NEL             ....   98
 Basis Dimension        Dim             .... 1562

ORBITAL ENERGIES
----------------

  NO   OCC          E(Eh)            E(eV)
   0   2.0000    -104.805604     -2851.9055
   1   2.0000     -20.585776      -560.1675
   2   2.0000     -11.310443      -307.7728
   3   2.0000     -11.301266      -307.5231
   4   2.0000     -11.286157      -307.1119
   5   2.0000     -11.241768      -305.9041
   6   2.0000     -11.238687      -305.8202
   7   2.0000     -11.237501      -305.7880
   8   2.0000     -11.231103      -305.6139
   9   2.0000     -11.228303      -305.5377
  10   2.0000     -11.227941      -305.5278
  11   2.0000     -11.227122      -305.5055
  12   2.0000     -10.531742      -286.5833
  13   2.0000      -7.998617      -217.6534
  14   2.0000      -7.997131      -217.6130
  15   2.0000      -7.997114      -217.6125
  16   2.0000      -1.416549       -38.5463
  17   2.0000      -1.176874       -32.0244
  18   2.0000      -1.131087       -30.7784
  19   2.0000      -1.035725       -28.1835
  20   2.0000      -1.023134       -27.8409
  21   2.0000      -1.004858       -27.3436
  22   2.0000      -0.953891       -25.9567
  23   2.0000      -0.945729       -25.7346
  24   2.0000      -0.845791       -23.0151
  25   2.0000      -0.829989       -22.5852
  26   2.0000      -0.764116       -20.7926
  27   2.0000      -0.724548       -19.7160
  28   2.0000      -0.676083       -18.3972
  29   2.0000      -0.660714       -17.9789
  30   2.0000      -0.658969       -17.9314
  31   2.0000      -0.631063       -17.1721
  32   2.0000      -0.617964       -16.8156
  33   2.0000      -0.600881       -16.3508
  34   2.0000      -0.595898       -16.2152
  35   2.0000      -0.577333       -15.7100
  36   2.0000      -0.567794       -15.4504
  37   2.0000      -0.550958       -14.9923
  38   2.0000      -0.532118       -14.4797
  39   2.0000      -0.528221       -14.3736
  40   2.0000      -0.511308       -13.9134
  41   2.0000      -0.507880       -13.8201
  42   2.0000      -0.487835       -13.2747
  43   2.0000      -0.479722       -13.0539
  44   2.0000      -0.463763       -12.6196
  45   2.0000      -0.426540       -11.6067
  46   2.0000      -0.422697       -11.5022
  47   2.0000      -0.345666        -9.4061
  48   2.0000      -0.312942        -8.5156
  49   0.0000       0.020903         0.5688
  50   0.0000       0.026790         0.7290
  51   0.0000       0.029463         0.8017
  52   0.0000       0.034906         0.9498
  53   0.0000       0.036872         1.0033

MULLIKEN ATOMIC CHARGES
-----------------------
   0 Cl:   -0.620304
   1 C :    1.075194
   2 C :    0.531249
   3 C :   -1.038496
   4 C :   -1.072666
   5 C :   -0.372297
   6 C :   -0.394521
   7 H :    0.258732
   8 H :    0.307220
   9 H :    0.179957
  10 H :    0.265569
  11 H :    0.294803
  12 H :    0.309321
  13 C :   -0.593590
  14 C :    1.257854
  15 C :   -0.478511
  16 H :    0.187777
  17 H :    0.153180
  18 O :   -0.845510
  19 H :    0.193015
  20 H :    0.121458
  21 C :   -0.729738
  22 H :    0.498289
  23 H :    0.256164
  24 H :    0.255853
Sum of atomic charges:    0.0000000

LOEWDIN ATOMIC CHARGES
----------------------
   0 Cl:    1.206895
   1 C :   -0.889383
   2 C :   -0.188860
   3 C :    0.777056
   4 C :    0.804652
   5 C :    0.345833
   6 C :    0.295902
   7 H :   -0.296529
   8 H :   -0.301926
   9 H :   -0.280460
  10 H :   -0.312699
  11 H :   -0.267079
  12 H :   -0.296001
  13 C :    0.351016
  14 C :   -0.455077
  15 C :    0.345638
  16 H :   -0.340034
  17 H :   -0.354362
  18 O :    0.879581
  19 H :   -0.320322
  20 H :   -0.347690
  21 C :    0.571787
  22 H :   -0.316858
  23 H :   -0.305325
  24 H :   -0.305756

  Mayer bond orders larger than 0.100000
B(  0-Cl,  1-C ) :   0.4307 B(  0-Cl,  2-C ) :  -0.2204 B(  0-Cl,  6-C ) :   0.1129
B(  1-C ,  2-C ) :   0.5767 B(  1-C ,  3-C ) :   0.5460 B(  1-C ,  4-C ) :   0.6903
B(  1-C ,  5-C ) :  -0.2771 B(  1-C ,  6-C ) :  -0.1450 B(  1-C ,  8-H ) :  -0.1188
B(  2-C ,  5-C ) :   1.0890 B(  2-C ,  6-C ) :   0.9816 B(  2-C , 13-C ) :  -0.4464
B(  2-C , 14-C ) :  -0.1008 B(  2-C , 15-C ) :  -0.3138 B(  2-C , 16-H ) :  -0.1611
B(  3-C ,  7-H ) :   1.0249 B(  3-C ,  8-H ) :   1.0124 B(  3-C ,  9-H ) :   1.0285
B(  4-C , 10-H ) :   1.0072 B(  4-C , 11-H ) :   0.9265 B(  4-C , 12-H ) :   0.9773
B(  5-C , 13-C ) :   0.7209 B(  5-C , 14-C ) :  -0.2587 B(  5-C , 15-C ) :   0.2055
B(  5-C , 17-H ) :  -0.2007 B(  5-C , 20-H ) :   1.1445 B(  6-C , 13-C ) :   0.1291
B(  6-C , 14-C ) :  -0.2240 B(  6-C , 15-C ) :   1.2179 B(  6-C , 16-H ) :   1.1271
B(  6-C , 19-H ) :  -0.1180 B( 13-C , 14-C ) :   1.4771 B( 13-C , 17-H ) :   1.2187
B( 13-C , 18-O ) :   0.2304 B( 13-C , 20-H ) :  -0.2082 B( 13-C , 21-C ) :   0.2321
B( 14-C , 15-C ) :   1.1416 B( 14-C , 18-O ) :  -0.1199 B( 14-C , 19-H ) :  -0.1103
B( 14-C , 21-C ) :  -0.2160 B( 15-C , 16-H ) :  -0.1601 B( 15-C , 18-O ) :   0.2465
B( 15-C , 19-H ) :   1.0880 B( 18-O , 21-C ) :   0.9378 B( 21-C , 22-H ) :   0.7559
B( 21-C , 23-H ) :   0.9217 B( 21-C , 24-H ) :   0.9215

MP2 TOTAL ENERGY:     -923.045582687 Eh
FINAL SINGLE POINT ENERGY      -923.045582687424

DIPOLE MOMENT
-------------
                                X             Y             Z
Electronic contribution:      5.51714      -7.57550      -5.55683
Nuclear contribution   :     -6.19990       8.57691       6.09278
                        -----------------------------------------
Total Dipole Moment    :     -0.68276       1.00140       0.53595
                        -----------------------------------------
Magnitude (a.u.)       :      1.32522
Magnitude (Debye)      :      3.36845

Rotational constants in cm-1:     0.065993     0.013311     0.012472
Rotational constants in MHz :  1978.411396   399.055383   373.904620

                             ****ORCA TERMINATED NORMALLY****
TOTAL RUN TIME: 0 days 1 hours 39 minutes 33 seconds 236 msec
