                         Program Version 4.2.1 -  RELEASE  -
|  1> %pal
|  2>  nprocs 32
|  3> end
|  4> !RI-MP2 aug-cc-pVQZ aug-cc-pVQZ/C TightSCF
|  5> %maxcore 4500
|  6> *xyzfile 0 1  10_48P.xyz
|  7>
|  8>
|  9>                          ****END OF INPUT****

CARTESIAN COORDINATES (ANGSTROEM)
---------------------------------
  C      2.890504    0.290101   -0.237477
  C      2.016332    1.099158    0.745281
  C      0.589101    0.824801    0.385144
  C      0.170435   -0.593242    0.266321
  C      0.986000   -1.335543   -0.757088
  C      2.465494   -1.179834   -0.363140
  H      2.225012    0.769869    1.769026
  H      2.258140    2.162655    0.677614
  H      2.819897    0.763180   -1.223001
  H      3.939269    0.345893    0.066464
  H      0.713890   -2.391935   -0.802345
  H      0.844302   -0.911519   -1.761523
  H      2.626986   -1.688015    0.593602
  H      3.102925   -1.677641   -1.099117
  C     -2.601883    0.259645   -0.665209
  C     -1.466302    1.235848   -1.091061
  C     -1.072436   -0.857161    0.694879
  C     -2.168425   -1.182573   -0.252297
  H     -3.290424    0.189245   -1.512348
  H     -1.970585    2.153335   -1.403412
  H     -1.022136    0.828071   -2.009574
  H     -3.013563   -1.720990    0.181190
  H     -1.788948   -1.733471   -1.113494
  H     -3.159531    0.693942    0.164794
  O     -1.584363   -0.251337    1.810304
  H     -0.868301    0.193418    2.277485
  C     -0.264757    1.658921   -0.224155
  H     -0.006420    2.713946   -0.294978

 Total Charge           Charge          ....    0
 Multiplicity           Mult            ....    1
 Number of Electrons    NEL             ....   90
 Basis Dimension        Dim             .... 1696

ORBITAL ENERGIES
----------------

  NO   OCC          E(Eh)            E(eV)
   0   2.0000     -20.568763      -559.7045
   1   2.0000     -11.286327      -307.1166
   2   2.0000     -11.230459      -305.5963
   3   2.0000     -11.228942      -305.5550
   4   2.0000     -11.226659      -305.4929
   5   2.0000     -11.226355      -305.4846
   6   2.0000     -11.223235      -305.3998
   7   2.0000     -11.221145      -305.3429
   8   2.0000     -11.220044      -305.3129
   9   2.0000     -11.219275      -305.2920
  10   2.0000     -11.216806      -305.2248
  11   2.0000     -11.199483      -304.7534
  12   2.0000      -1.391695       -37.8699
  13   2.0000      -1.143210       -31.1083
  14   2.0000      -1.081171       -29.4202
  15   2.0000      -1.041293       -28.3350
  16   2.0000      -1.016387       -27.6573
  17   2.0000      -0.985181       -26.8081
  18   2.0000      -0.884515       -24.0689
  19   2.0000      -0.880615       -23.9628
  20   2.0000      -0.828808       -22.5530
  21   2.0000      -0.787051       -21.4167
  22   2.0000      -0.759409       -20.6646
  23   2.0000      -0.725185       -19.7333
  24   2.0000      -0.663027       -18.0419
  25   2.0000      -0.646062       -17.5802
  26   2.0000      -0.622628       -16.9426
  27   2.0000      -0.617286       -16.7972
  28   2.0000      -0.598407       -16.2835
  29   2.0000      -0.586671       -15.9641
  30   2.0000      -0.581966       -15.8361
  31   2.0000      -0.556144       -15.1335
  32   2.0000      -0.548768       -14.9327
  33   2.0000      -0.541178       -14.7262
  34   2.0000      -0.531462       -14.4618
  35   2.0000      -0.516130       -14.0446
  36   2.0000      -0.504007       -13.7147
  37   2.0000      -0.485460       -13.2100
  38   2.0000      -0.473235       -12.8774
  39   2.0000      -0.472383       -12.8542
  40   2.0000      -0.466144       -12.6844
  41   2.0000      -0.456450       -12.4206
  42   2.0000      -0.435196       -11.8423
  43   2.0000      -0.343557        -9.3486
  44   2.0000      -0.283133        -7.7044
  45   0.0000       0.023599         0.6422
  46   0.0000       0.027295         0.7427
  47   0.0000       0.028533         0.7764
  48   0.0000       0.031457         0.8560
  49   0.0000       0.039236         1.0677

MULLIKEN ATOMIC CHARGES
-----------------------
   0 C :   -0.533349
   1 C :   -0.450718
   2 C :    0.359799
   3 C :    0.454890
   4 C :   -0.340727
   5 C :   -0.586924
   6 H :    0.151715
   7 H :    0.246250
   8 H :    0.168929
   9 H :    0.269764
  10 H :    0.303477
  11 H :    0.153189
  12 H :    0.216672
  13 H :    0.209721
  14 C :   -0.678142
  15 C :   -0.358523
  16 C :    0.735459
  17 C :   -0.759117
  18 H :    0.293182
  19 H :    0.211209
  20 H :    0.190500
  21 H :    0.293915
  22 H :    0.178319
  23 H :    0.245696
  24 O :   -1.008365
  25 H :    0.284832
  26 C :   -0.531113
  27 H :    0.279459
Sum of atomic charges:    0.0000000

LOEWDIN ATOMIC CHARGES
----------------------
   0 C :    0.537634
   1 C :    0.529174
   2 C :   -0.086976
   3 C :   -0.107368
   4 C :    0.513057
   5 C :    0.538247
   6 H :   -0.267254
   7 H :   -0.278288
   8 H :   -0.264244
   9 H :   -0.259430
  10 H :   -0.267362
  11 H :   -0.261861
  12 H :   -0.262460
  13 H :   -0.259831
  14 C :    0.544751
  15 C :    0.547918
  16 C :   -0.399005
  17 C :    0.521828
  18 H :   -0.264838
  19 H :   -0.295114
  20 H :   -0.282992
  21 H :   -0.262464
  22 H :   -0.286934
  23 H :   -0.288691
  24 O :    1.318291
  25 H :   -0.796147
  26 C :    0.444604
  27 H :   -0.304246

  Mayer bond orders larger than 0.100000
B(  0-C ,  1-C ) :   0.9963 B(  0-C ,  5-C ) :   0.8736 B(  0-C ,  8-H ) :   0.9897
B(  0-C ,  9-H ) :   0.9383 B(  1-C ,  2-C ) :   0.5082 B(  1-C ,  3-C ) :  -0.1305
B(  1-C ,  6-H ) :   1.1236 B(  1-C ,  7-H ) :   1.0424 B(  1-C , 26-C ) :  -0.1200
B(  2-C ,  3-C ) :   0.5407 B(  2-C ,  6-H ) :  -0.1145 B(  2-C ,  7-H ) :  -0.1323
B(  2-C , 15-C ) :  -0.1455 B(  2-C , 24-O ) :  -0.1143 B(  2-C , 26-C ) :   1.8207
B(  3-C ,  4-C ) :   0.4990 B(  3-C ,  5-C ) :  -0.1938 B(  3-C , 16-C ) :   1.6747
B(  3-C , 17-C ) :  -0.3520 B(  3-C , 24-O ) :   0.3116 B(  3-C , 26-C ) :  -0.2289
B(  4-C ,  5-C ) :   0.9495 B(  4-C , 10-H ) :   0.9297 B(  4-C , 11-H ) :   0.9755
B(  5-C , 12-H ) :   0.9830 B(  5-C , 13-H ) :   1.0155 B( 14-C , 15-C ) :   0.8526
B( 14-C , 17-C ) :   1.0371 B( 14-C , 18-H ) :   0.9136 B( 14-C , 23-H ) :   0.9760
B( 15-C , 19-H ) :   1.0807 B( 15-C , 20-H ) :   0.9161 B( 15-C , 26-C ) :   0.7958
B( 16-C , 17-C ) :   1.2164 B( 16-C , 24-O ) :  -0.1462 B( 16-C , 26-C ) :   0.1292
B( 17-C , 21-H ) :   0.9224 B( 17-C , 22-H ) :   1.0506 B( 19-H , 26-C ) :  -0.1290
B( 24-O , 25-H ) :   1.0060 B( 26-C , 27-H ) :   0.9930

MP2 TOTAL ENERGY:     -503.070022794 Eh
FINAL SINGLE POINT ENERGY      -503.070022793766

DIPOLE MOMENT
-------------
                                X             Y             Z
Electronic contribution:     -3.22122      -0.53047       5.18171
Nuclear contribution   :      3.48404       0.70598      -5.61996
                        -----------------------------------------
Total Dipole Moment    :      0.26282       0.17551      -0.43825
                        -----------------------------------------
Magnitude (a.u.)       :      0.54031
Magnitude (Debye)      :      1.37337

Rotational constants in cm-1:     0.055194     0.025147     0.023082
Rotational constants in MHz :  1654.661115   753.891758   691.979145

                             ****ORCA TERMINATED NORMALLY****
TOTAL RUN TIME: 0 days 2 hours 38 minutes 17 seconds 543 msec
