                         Program Version 4.2.1 -  RELEASE  -
|  1> %pal
|  2>  nprocs 320
|  3> end
|  4> !RI-MP2 aug-cc-pVQZ aug-cc-pVQZ/C TightSCF MORead KDIIS NOSOSCF
|  5> %maxcore 4500
|  6> %moinp "02_7R.gbw"
|  7> %scf
|  8> DIISMaxEq 15
|  9> directresetfreq 10
| 10> end
| 11> *xyzfile 0 1  02_7R.xyz
| 12>
| 13>
| 14>                          ****END OF INPUT****

CARTESIAN COORDINATES (ANGSTROEM)
---------------------------------
  O     -7.640871   -0.053326   -0.163933
  C     -6.243964   -0.227167   -0.368575
  C     -5.563170    0.970646    0.295709
  C     -4.235874    1.321205   -0.296601
  C     -4.311064   -1.757671    0.181709
  C     -5.794254   -1.589488    0.180894
  C     -3.097817    1.507462    0.374387
  C     -1.366487   -2.390997    0.372183
  C     -2.147899   -2.518838   -0.708340
  C     -3.605785   -2.459718   -0.704379
  C     -1.865349    1.906625   -0.272308
  C     -0.704594    2.133520    0.351112
  C      0.073526   -2.319024    0.298998
  C      0.866285   -2.131286    1.359494
  C      2.323276   -1.951889    1.268491
  O      2.789004   -2.139422    0.022382
  C      4.157110   -1.774530   -0.277854
  C      4.771743   -2.925536   -1.052883
  C      4.834131   -4.221808   -0.254807
  C      0.482227    2.612884   -0.395730
  C      1.665085    3.054643    0.447980
  C      1.290052    4.380451    1.129172
  O      3.014137   -1.642128    2.209553
  C      4.123910   -0.468713   -1.055679
  C      3.499323    0.688286   -0.283843
  C      3.408916    1.961105   -1.119451
  C      2.967510    3.204480   -0.350264
  O      4.007931    3.659765    0.517091
  O      0.481798    2.707327   -1.607184
  H     -6.241273    1.817608    0.149176
  H     -5.484902    0.812718    1.375090
  H     -6.024678   -0.197025   -1.444333
  H     -6.182050   -1.668949    1.201611
  H     -6.265165   -2.380674   -0.411805
  H      0.528868   -2.390437   -0.683426
  H      0.466620   -2.041681    2.362646
  H      4.676029   -1.639050    0.672764
  H      3.571446   -0.629876   -1.987810
  H      5.150461   -0.212365   -1.336830
  H      2.497378    0.398851    0.043007
  H      4.083387    0.853226    0.629689
  H      4.387737    2.190509   -1.551573
  H      2.719060    1.803036   -1.949904
  H      2.833969    4.016154   -1.067224
  H      1.812851    2.301664    1.231969
  H     -1.890255    2.055269   -1.349052
  H      4.198233   -3.073724   -1.973416
  H      5.778498   -2.621897   -1.354983
  H      3.834376   -4.551017    0.033013
  H      5.419869   -4.093604    0.658798
  H      5.294796   -5.020238   -0.839362
  H      0.411404    4.272615    1.766877
  H      1.071313    5.142460    0.377175
  H      2.122888    4.731693    1.735850
  H      4.260459    2.938746    1.101168
  H     -8.112650   -0.800056   -0.542718
  H     -0.615567    2.010708    1.425672
  H     -1.670891   -2.653220   -1.676091
  H     -1.816976   -2.314033    1.357565
  H     -4.123065   -2.974132   -1.510577
  H     -3.770981   -1.201619    0.939861
  H     -4.221536    1.461401   -1.375989
  H     -3.076649    1.371353    1.453388

 Total Charge           Charge          ....    0
 Multiplicity           Mult            ....    1
 Number of Electrons    NEL             ....  218
 Basis Dimension        Dim             .... 3884

ORBITAL ENERGIES
----------------

  NO   OCC          E(Eh)            E(eV)
   0   2.0000     -20.586631      -560.1907
   1   2.0000     -20.569315      -559.7195
   2   2.0000     -20.545860      -559.0813
   3   2.0000     -20.531972      -558.7034
   4   2.0000     -20.531598      -558.6932
   5   2.0000     -11.373289      -309.4829
   6   2.0000     -11.323566      -308.1299
   7   2.0000     -11.300768      -307.5095
   8   2.0000     -11.282141      -307.0027
   9   2.0000     -11.271193      -306.7048
  10   2.0000     -11.262865      -306.4781
  11   2.0000     -11.258342      -306.3550
  12   2.0000     -11.258027      -306.3465
  13   2.0000     -11.256426      -306.3029
  14   2.0000     -11.250936      -306.1535
  15   2.0000     -11.246246      -306.0259
  16   2.0000     -11.245604      -306.0084
  17   2.0000     -11.245189      -305.9972
  18   2.0000     -11.243181      -305.9425
  19   2.0000     -11.242012      -305.9107
  20   2.0000     -11.238059      -305.8031
  21   2.0000     -11.233189      -305.6706
  22   2.0000     -11.230166      -305.5883
  23   2.0000     -11.222767      -305.3870
  24   2.0000     -11.221510      -305.3528
  25   2.0000     -11.219291      -305.2924
  26   2.0000     -11.216179      -305.2078
  27   2.0000     -11.210894      -305.0639
  28   2.0000     -11.207960      -304.9841
  29   2.0000      -1.452251       -39.5177
  30   2.0000      -1.380110       -37.5547
  31   2.0000      -1.378185       -37.5023
  32   2.0000      -1.353958       -36.8431
  33   2.0000      -1.352318       -36.7984
  34   2.0000      -1.139243       -31.0004
  35   2.0000      -1.126397       -30.6508
  36   2.0000      -1.107779       -30.1442
  37   2.0000      -1.098464       -29.8907
  38   2.0000      -1.080620       -29.4052
  39   2.0000      -1.072935       -29.1960
  40   2.0000      -1.046881       -28.4871
  41   2.0000      -1.039870       -28.2963
  42   2.0000      -1.003116       -27.2962
  43   2.0000      -0.983881       -26.7728
  44   2.0000      -0.960574       -26.1385
  45   2.0000      -0.924929       -25.1686
  46   2.0000      -0.896583       -24.3973
  47   2.0000      -0.886040       -24.1104
  48   2.0000      -0.854806       -23.2605
  49   2.0000      -0.842508       -22.9258
  50   2.0000      -0.823223       -22.4010
  51   2.0000      -0.806565       -21.9478
  52   2.0000      -0.799766       -21.7627
  53   2.0000      -0.786304       -21.3964
  54   2.0000      -0.770378       -20.9630
  55   2.0000      -0.764681       -20.8080
  56   2.0000      -0.749544       -20.3961
  57   2.0000      -0.731790       -19.9130
  58   2.0000      -0.709061       -19.2945
  59   2.0000      -0.706070       -19.2131
  60   2.0000      -0.686024       -18.6677
  61   2.0000      -0.678890       -18.4735
  62   2.0000      -0.672312       -18.2946
  63   2.0000      -0.665069       -18.0975
  64   2.0000      -0.661675       -18.0051
  65   2.0000      -0.651350       -17.7241
  66   2.0000      -0.645556       -17.5665
  67   2.0000      -0.637299       -17.3418
  68   2.0000      -0.629361       -17.1258
  69   2.0000      -0.625143       -17.0110
  70   2.0000      -0.612210       -16.6591
  71   2.0000      -0.607579       -16.5331
  72   2.0000      -0.597588       -16.2612
  73   2.0000      -0.596259       -16.2250
  74   2.0000      -0.586422       -15.9573
  75   2.0000      -0.580207       -15.7882
  76   2.0000      -0.571586       -15.5536
  77   2.0000      -0.570786       -15.5319
  78   2.0000      -0.565971       -15.4008
  79   2.0000      -0.563844       -15.3430
  80   2.0000      -0.547786       -14.9060
  81   2.0000      -0.545795       -14.8518
  82   2.0000      -0.543353       -14.7854
  83   2.0000      -0.535539       -14.5728
  84   2.0000      -0.534229       -14.5371
  85   2.0000      -0.524139       -14.2626
  86   2.0000      -0.523071       -14.2335
  87   2.0000      -0.519989       -14.1496
  88   2.0000      -0.514214       -13.9925
  89   2.0000      -0.510693       -13.8967
  90   2.0000      -0.509714       -13.8700
  91   2.0000      -0.501483       -13.6460
  92   2.0000      -0.497986       -13.5509
  93   2.0000      -0.496723       -13.5165
  94   2.0000      -0.490051       -13.3350
  95   2.0000      -0.486670       -13.2430
  96   2.0000      -0.476898       -12.9771
  97   2.0000      -0.470881       -12.8133
  98   2.0000      -0.467731       -12.7276
  99   2.0000      -0.459883       -12.5140
 100   2.0000      -0.457282       -12.4433
 101   2.0000      -0.445757       -12.1297
 102   2.0000      -0.442665       -12.0455
 103   2.0000      -0.433269       -11.7898
 104   2.0000      -0.422600       -11.4995
 105   2.0000      -0.402841       -10.9619
 106   2.0000      -0.400909       -10.9093
 107   2.0000      -0.330790        -9.0012
 108   2.0000      -0.310309        -8.4439
 109   0.0000       0.015261         0.4153
 110   0.0000       0.021026         0.5721
 111   0.0000       0.023176         0.6306
 112   0.0000       0.026700         0.7266
 113   0.0000       0.028946         0.7877

MULLIKEN ATOMIC CHARGES
-----------------------
   0 O :   -1.070205
   1 C :    1.059069
   2 C :   -0.525756
   3 C :   -0.289811
   4 C :   -0.648799
   5 C :   -0.645181
   6 C :   -0.413919
   7 C :   -0.304850
   8 C :   -0.243466
   9 C :   -0.205761
  10 C :    0.184457
  11 C :   -0.880890
  12 C :   -0.078395
  13 C :   -0.506668
  14 C :    1.905660
  15 O :   -1.015475
  16 C :    0.945705
  17 C :   -0.820847
  18 C :   -0.969200
  19 C :    1.643475
  20 C :    0.006602
  21 C :   -1.117451
  22 O :   -1.174460
  23 C :   -0.392061
  24 C :   -0.149880
  25 C :   -0.994469
  26 C :    0.898306
  27 O :   -1.369210
  28 O :   -1.234747
  29 H :    0.297374
  30 H :    0.177663
  31 H :    0.236872
  32 H :    0.253616
  33 H :    0.194430
  34 H :    0.215143
  35 H :    0.250749
  36 H :    0.183429
  37 H :    0.274650
  38 H :    0.323953
  39 H :    0.111891
  40 H :    0.240615
  41 H :    0.146111
  42 H :    0.361246
  43 H :    0.316753
  44 H :    0.084163
  45 H :    0.274068
  46 H :    0.223306
  47 H :    0.235009
  48 H :    0.248085
  49 H :    0.170323
  50 H :    0.281712
  51 H :    0.264453
  52 H :    0.251872
  53 H :    0.303886
  54 H :    0.341240
  55 H :    0.294777
  56 H :    0.256822
  57 H :    0.229334
  58 H :    0.319723
  59 H :    0.217912
  60 H :    0.428074
  61 H :    0.154857
  62 H :    0.244115
Sum of atomic charges:    0.0000000

LOEWDIN ATOMIC CHARGES
----------------------
   0 O :    1.305666
   1 C :   -0.210915
   2 C :    0.485779
   3 C :    0.388296
   4 C :    0.359751
   5 C :    0.501112
   6 C :    0.374799
   7 C :    0.348088
   8 C :    0.364303
   9 C :    0.386405
  10 C :    0.348419
  11 C :    0.349313
  12 C :    0.338120
  13 C :    0.314046
  14 C :   -1.101325
  15 O :    0.881858
  16 C :   -0.207977
  17 C :    0.504030
  18 C :    0.935001
  19 C :   -0.677173
  20 C :    0.047342
  21 C :    0.931097
  22 O :    0.734994
  23 C :    0.535971
  24 C :    0.522275
  25 C :    0.536657
  26 C :   -0.203621
  27 O :    1.322683
  28 O :    0.786035
  29 H :   -0.288802
  30 H :   -0.284089
  31 H :   -0.290702
  32 H :   -0.277917
  33 H :   -0.288523
  34 H :   -0.353815
  35 H :   -0.355835
  36 H :   -0.357923
  37 H :   -0.258297
  38 H :   -0.255823
  39 H :   -0.307888
  40 H :   -0.258379
  41 H :   -0.264611
  42 H :   -0.305999
  43 H :   -0.307127
  44 H :   -0.308043
  45 H :   -0.349495
  46 H :   -0.269370
  47 H :   -0.269305
  48 H :   -0.289619
  49 H :   -0.276039
  50 H :   -0.278464
  51 H :   -0.279289
  52 H :   -0.261477
  53 H :   -0.287704
  54 H :   -0.800139
  55 H :   -0.777413
  56 H :   -0.338064
  57 H :   -0.326081
  58 H :   -0.340336
  59 H :   -0.322624
  60 H :   -0.349767
  61 H :   -0.300814
  62 H :   -0.321253

  Mayer bond orders larger than 0.100000
B(  0-O ,  1-C ) :  -0.2813 B(  0-O ,  2-C ) :   0.2770 B(  0-O ,  5-C ) :   0.2736
B(  0-O , 55-H ) :   0.9682 B(  1-C ,  2-C ) :   0.8157 B(  1-C ,  5-C ) :   0.8867
B(  1-C , 31-H ) :   1.0152 B(  2-C ,  3-C ) :   1.0621 B(  2-C ,  6-C ) :  -0.4667
B(  2-C , 29-H ) :   0.9577 B(  2-C , 30-H ) :   1.0177 B(  3-C ,  6-C ) :   1.3757
B(  3-C , 10-C ) :  -0.6086 B(  3-C , 11-C ) :   0.1225 B(  3-C , 29-H ) :  -0.1104
B(  3-C , 61-H ) :   1.0800 B(  4-C ,  5-C ) :   0.6793 B(  4-C ,  8-C ) :  -0.2596
B(  4-C ,  9-C ) :   1.6215 B(  4-C , 60-H ) :   0.8261 B(  5-C ,  9-C ) :  -0.1648
B(  5-C , 32-H ) :   0.9327 B(  5-C , 33-H ) :   1.0327 B(  6-C , 10-C ) :   0.8698
B(  6-C , 11-C ) :  -0.6666 B(  6-C , 62-H ) :   1.0524 B(  7-C ,  8-C ) :   1.7055
B(  7-C ,  9-C ) :  -0.3730 B(  7-C , 12-C ) :   0.3290 B(  7-C , 13-C ) :  -0.5607
B(  7-C , 58-H ) :   0.9293 B(  8-C ,  9-C ) :   0.9034 B(  8-C , 12-C ) :  -0.7481
B(  8-C , 57-H ) :   1.0484 B(  8-C , 59-H ) :  -0.1391 B(  9-C , 57-H ) :  -0.1271
B(  9-C , 59-H ) :   1.0211 B( 10-C , 11-C ) :   0.7905 B( 10-C , 19-C ) :  -0.3078
B( 10-C , 45-H ) :   0.9440 B( 11-C , 19-C ) :   0.5394 B( 11-C , 20-C ) :  -0.2579
B( 11-C , 28-O ) :   0.3981 B( 11-C , 56-H ) :   0.8917 B( 12-C , 13-C ) :   1.2937
B( 12-C , 14-C ) :  -0.5711 B( 12-C , 15-O ) :  -0.1379 B( 12-C , 34-H ) :   0.9714
B( 13-C , 14-C ) :   1.4457 B( 13-C , 22-O ) :   0.2216 B( 13-C , 35-H ) :   0.8989
B( 14-C , 15-O ) :   0.8472 B( 14-C , 22-O ) :   0.4289 B( 15-O , 16-C ) :   0.4527
B( 15-O , 22-O ) :   0.2684 B( 15-O , 23-C ) :   0.1233 B( 15-O , 24-C ) :   0.1392
B( 15-O , 34-H ) :   0.1240 B( 16-C , 17-C ) :   0.2298 B( 16-C , 18-C ) :  -0.2752
B( 16-C , 23-C ) :   0.5770 B( 16-C , 24-C ) :  -0.1635 B( 16-C , 36-H ) :   1.0579
B( 16-C , 46-H ) :  -0.1279 B( 17-C , 18-C ) :   1.0969 B( 17-C , 23-C ) :   0.1709
B( 17-C , 46-H ) :   0.9773 B( 17-C , 47-H ) :   1.0153 B( 18-C , 48-H ) :   0.9237
B( 18-C , 49-H ) :   1.0341 B( 18-C , 50-H ) :   1.0181 B( 19-C , 20-C ) :   1.2249
B( 19-C , 28-O ) :  -0.1036 B( 19-C , 44-H ) :   0.1087 B( 20-C , 21-C ) :   0.3357
B( 20-C , 26-C ) :   0.6913 B( 20-C , 27-O ) :   0.1317 B( 20-C , 28-O ) :   0.4740
B( 20-C , 44-H ) :   1.0082 B( 20-C , 51-H ) :  -0.1504 B( 20-C , 52-H ) :  -0.2445
B( 21-C , 51-H ) :   1.0264 B( 21-C , 52-H ) :   1.0867 B( 21-C , 53-H ) :   1.0120
B( 23-C , 24-C ) :   0.9646 B( 23-C , 36-H ) :  -0.1325 B( 23-C , 37-H ) :   0.7797
B( 23-C , 38-H ) :   0.9086 B( 24-C , 25-C ) :   0.7733 B( 24-C , 26-C ) :  -0.1152
B( 24-C , 39-H ) :   0.8471 B( 24-C , 40-H ) :   0.9399 B( 25-C , 26-C ) :   1.1795
B( 25-C , 27-O ) :   0.5135 B( 25-C , 41-H ) :   1.1223 B( 25-C , 42-H ) :   0.8176
B( 26-C , 27-O ) :  -0.4011 B( 26-C , 43-H ) :   0.9629 B( 27-O , 40-H ) :  -0.1229
B( 27-O , 54-H ) :   0.8973

MP2 TOTAL ENERGY:    -1308.947282852 Eh
FINAL SINGLE POINT ENERGY     -1308.947282851755

DIPOLE MOMENT
-------------
                                X             Y             Z
Electronic contribution:     -7.47653       0.92011       2.12914
Nuclear contribution   :      5.76175      -2.28410      -2.56756
                        -----------------------------------------
Total Dipole Moment    :     -1.71477      -1.36399      -0.43842
                        -----------------------------------------
Magnitude (a.u.)       :      2.23453
Magnitude (Debye)      :      5.67973

Rotational constants in cm-1:     0.006550     0.002840     0.002138
Rotational constants in MHz :   196.351780    85.145170    64.089617

                             ****ORCA TERMINATED NORMALLY****
TOTAL RUN TIME: 0 days 4 hours 33 minutes 15 seconds 156 msec
