                         Program Version 4.2.1 -  RELEASE  -
|  1> %pal
|  2>  nprocs 32
|  3> end
|  4> !RI-MP2 aug-cc-pVQZ aug-cc-pVQZ/C TightSCF
|  5> %maxcore 4500
|  6> *xyzfile 0 2  06_18R2.xyz
|  7>
|  8>
|  9>                          ****END OF INPUT****

CARTESIAN COORDINATES (ANGSTROEM)
---------------------------------
  C      0.870291   -1.557541    0.177319
  H      1.904093   -1.598267   -0.171521
  H      0.885652   -1.585441    1.272682
  H      0.363333   -2.459303   -0.171840
  C     -1.784060    0.025079    0.176983
  H     -2.336237   -0.849733   -0.172156
  H     -1.816126    0.025493    1.272339
  H     -2.311380    0.915121   -0.172092
  C      0.913721    1.532477    0.177242
  H      0.432231    2.448118   -0.171846
  H      0.929985    1.559908    1.272602
  H      1.948221    1.544191   -0.171710
  Si     0.000037   -0.000013   -0.426837

 Total Charge           Charge          ....    0
 Multiplicity           Mult            ....    2
 Number of Electrons    NEL             ....   41
 Basis Dimension        Dim             ....  738

ORBITAL ENERGIES
----------------
                 SPIN UP ORBITALS
  NO   OCC          E(Eh)            E(eV)
   0   1.0000     -68.756989     -1870.9728
   1   1.0000     -11.200101      -304.7702
   2   1.0000     -11.200101      -304.7702
   3   1.0000     -11.200091      -304.7700
   4   1.0000      -6.106571      -166.1682
   5   1.0000      -4.219299      -114.8130
   6   1.0000      -4.209576      -114.5484
   7   1.0000      -4.209576      -114.5484
   8   1.0000      -0.968076       -26.3427
   9   1.0000      -0.925032       -25.1714
  10   1.0000      -0.925031       -25.1714
  11   1.0000      -0.632146       -17.2016
  12   1.0000      -0.573051       -15.5935
  13   1.0000      -0.562142       -15.2967
  14   1.0000      -0.562141       -15.2966
  15   1.0000      -0.543683       -14.7944
  16   1.0000      -0.543682       -14.7943
  17   1.0000      -0.532336       -14.4856
  18   1.0000      -0.434653       -11.8275
  19   1.0000      -0.434652       -11.8275
  20   1.0000      -0.297600        -8.0981
  21   0.0000       0.023494         0.6393
  22   0.0000       0.034937         0.9507
  23   0.0000       0.034937         0.9507
  24   0.0000       0.036568         0.9951
  25   0.0000       0.051547         1.4027

                 SPIN DOWN ORBITALS
  NO   OCC          E(Eh)            E(eV)
   0   1.0000     -68.751612     -1870.8265
   1   1.0000     -11.199238      -304.7468
   2   1.0000     -11.199238      -304.7468
   3   1.0000     -11.199225      -304.7464
   4   1.0000      -6.098257      -165.9420
   5   1.0000      -4.206064      -114.4528
   6   1.0000      -4.206064      -114.4528
   7   1.0000      -4.197970      -114.2326
   8   1.0000      -0.959364       -26.1056
   9   1.0000      -0.921618       -25.0785
  10   1.0000      -0.921617       -25.0785
  11   1.0000      -0.597848       -16.2683
  12   1.0000      -0.560316       -15.2470
  13   1.0000      -0.560315       -15.2469
  14   1.0000      -0.559269       -15.2185
  15   1.0000      -0.538155       -14.6439
  16   1.0000      -0.538154       -14.6439
  17   1.0000      -0.531346       -14.4587
  18   1.0000      -0.426429       -11.6037
  19   1.0000      -0.426427       -11.6037
  20   0.0000       0.020419         0.5556
  21   0.0000       0.035239         0.9589
  22   0.0000       0.035240         0.9589
  23   0.0000       0.036933         1.0050
  24   0.0000       0.051638         1.4051

MULLIKEN ATOMIC CHARGES AND SPIN POPULATIONS
--------------------------------------------
   0 C :   -1.141573    0.006914
   1 H :    0.275280   -0.006766
   2 H :    0.238791    0.026032
   3 H :    0.275286   -0.006771
   4 C :   -1.141575    0.006917
   5 H :    0.275272   -0.006772
   6 H :    0.238800    0.026033
   7 H :    0.275270   -0.006770
   8 C :   -1.141580    0.006916
   9 H :    0.275288   -0.006769
  10 H :    0.238796    0.026033
  11 H :    0.275280   -0.006768
  12 Si:    1.056665    0.941772
Sum of atomic charges         :   -0.0000000

LOEWDIN ATOMIC CHARGES AND SPIN POPULATIONS
-------------------------------------------
   0 C :    0.906418    0.121837
   1 H :   -0.368818    0.013860
   2 H :   -0.353928    0.017056
   3 H :   -0.368818    0.013862
   4 C :    0.906418    0.121839
   5 H :   -0.368818    0.013862
   6 H :   -0.353928    0.017056
   7 H :   -0.368819    0.013861
   8 C :    0.906420    0.121838
   9 H :   -0.368816    0.013860
  10 H :   -0.353930    0.017056
  11 H :   -0.368819    0.013862
  12 Si:    0.555439    0.500152

  Mayer bond orders larger than 0.100000
B(  0-C ,  1-H ) :   0.9608 B(  0-C ,  2-H ) :   0.9477 B(  0-C ,  3-H ) :   0.9608
B(  0-C , 12-Si) :   0.8137 B(  4-C ,  5-H ) :   0.9608 B(  4-C ,  6-H ) :   0.9477
B(  4-C ,  7-H ) :   0.9608 B(  4-C , 12-Si) :   0.8137 B(  8-C ,  9-H ) :   0.9608
B(  8-C , 10-H ) :   0.9477 B(  8-C , 11-H ) :   0.9608 B(  8-C , 12-Si) :   0.8137

MP2 TOTAL ENERGY:     -408.524349592 Eh
FINAL SINGLE POINT ENERGY      -408.524349591704

DIPOLE MOMENT
-------------
                                X             Y             Z
Electronic contribution:      0.00020      -0.00009      -2.71422
Nuclear contribution   :     -0.00024       0.00009       2.95877
                        -----------------------------------------
Total Dipole Moment    :     -0.00004       0.00000       0.24455
                        -----------------------------------------
Magnitude (a.u.)       :      0.24455
Magnitude (Debye)      :      0.62160

Rotational constants in cm-1:     0.182748     0.182744     0.104022
Rotational constants in MHz :  5478.632916  5478.521622  3118.492149

                             ****ORCA TERMINATED NORMALLY****
TOTAL RUN TIME: 0 days 0 hours 10 minutes 13 seconds 741 msec
