                         Program Version 4.2.1 -  RELEASE  -
|  1> %pal
|  2>  nprocs 32
|  3> end
|  4> !RI-MP2 aug-cc-pVQZ aug-cc-pVQZ/C TightSCF
|  5> %maxcore 4500
|  6> *xyzfile 0 1  02_40P.xyz
|  7>
|  8>
|  9>                          ****END OF INPUT****

CARTESIAN COORDINATES (ANGSTROEM)
---------------------------------
  C      0.178413   -0.823932   -0.251321
  C      0.500657   -0.272352    1.130337
  C     -0.564110   -2.225417   -0.101967
  O     -1.366366   -2.245085   -1.271389
  C     -1.602871   -2.057438    0.990328
  C     -2.559970   -1.317695    0.447685
  C     -2.113499   -1.063430   -0.978505
  C     -0.942530   -0.033538   -0.995351
  C     -1.204798    1.374631   -0.526340
  O     -2.427548    1.543859   -0.036993
  O     -0.417906    2.282477   -0.669853
  O     -0.130481    0.600147    1.670003
  O      1.488552   -0.938219    1.712770
  C      1.927608   -0.413504    2.970391
  C     -2.710640    2.842510    0.498822
  S      1.657913   -1.140659   -1.282432
  C      2.179990    0.504161   -1.853826
  C      2.969451    1.333536   -0.854407
  O      2.228455    1.668188    0.297614
  H      2.736767   -1.064048    3.290772
  H      1.113307   -0.423203    3.694574
  H      2.281880    0.606383    2.825380
  H     -3.737290    2.795994    0.851167
  H     -2.599565    3.604287   -0.271600
  H     -2.027689    3.050810    1.321518
  H      1.312237    1.062419   -2.209276
  H      2.806519    0.292878   -2.723904
  H      3.329212    2.238006   -1.363973
  H      3.839884    0.774028   -0.508613
  H      1.413353    2.117914    0.030295
  H     -3.433059   -0.891018    0.914570
  H     -1.497128   -2.382814    2.014391
  H      0.106321   -3.077919   -0.056420
  H     -2.881053   -0.889682   -1.726354
  H     -0.634177    0.060390   -2.035895

 Total Charge           Charge          ....    0
 Multiplicity           Mult            ....    1
 Number of Electrons    NEL             ....  152
 Basis Dimension        Dim             .... 2260

ORBITAL ENERGIES
----------------

  NO   OCC          E(Eh)            E(eV)
   0   2.0000     -91.947965     -2502.0313
   1   2.0000     -20.610821      -560.8490
   2   2.0000     -20.598821      -560.5224
   3   2.0000     -20.568149      -559.6878
   4   2.0000     -20.545543      -559.0727
   5   2.0000     -20.539492      -558.9080
   6   2.0000     -20.539263      -558.9018
   7   2.0000     -11.392868      -310.0157
   8   2.0000     -11.381602      -309.7091
   9   2.0000     -11.310087      -307.7631
  10   2.0000     -11.303750      -307.5907
  11   2.0000     -11.297283      -307.4147
  12   2.0000     -11.288456      -307.1745
  13   2.0000     -11.278071      -306.8919
  14   2.0000     -11.272822      -306.7491
  15   2.0000     -11.265534      -306.5508
  16   2.0000     -11.254981      -306.2636
  17   2.0000     -11.239793      -305.8503
  18   2.0000     -11.236856      -305.7704
  19   2.0000      -8.950134      -243.5455
  20   2.0000      -6.631613      -180.4554
  21   2.0000      -6.630599      -180.4278
  22   2.0000      -6.629777      -180.4054
  23   2.0000      -1.477477       -40.2042
  24   2.0000      -1.467608       -39.9356
  25   2.0000      -1.419577       -38.6287
  26   2.0000      -1.371429       -37.3185
  27   2.0000      -1.362943       -37.0876
  28   2.0000      -1.350930       -36.7607
  29   2.0000      -1.133236       -30.8369
  30   2.0000      -1.080999       -29.4155
  31   2.0000      -1.055134       -28.7116
  32   2.0000      -1.033487       -28.1226
  33   2.0000      -0.980638       -26.6845
  34   2.0000      -0.972795       -26.4711
  35   2.0000      -0.924445       -25.1554
  36   2.0000      -0.871706       -23.7203
  37   2.0000      -0.832384       -22.6503
  38   2.0000      -0.817668       -22.2499
  39   2.0000      -0.790462       -21.5096
  40   2.0000      -0.774766       -21.0825
  41   2.0000      -0.764279       -20.7971
  42   2.0000      -0.743824       -20.2405
  43   2.0000      -0.723885       -19.6979
  44   2.0000      -0.697345       -18.9757
  45   2.0000      -0.686923       -18.6921
  46   2.0000      -0.678579       -18.4651
  47   2.0000      -0.676225       -18.4010
  48   2.0000      -0.670540       -18.2463
  49   2.0000      -0.652106       -17.7447
  50   2.0000      -0.645153       -17.5555
  51   2.0000      -0.624973       -17.0064
  52   2.0000      -0.622954       -16.9514
  53   2.0000      -0.603054       -16.4099
  54   2.0000      -0.585262       -15.9258
  55   2.0000      -0.581841       -15.8327
  56   2.0000      -0.569335       -15.4924
  57   2.0000      -0.566854       -15.4249
  58   2.0000      -0.556201       -15.1350
  59   2.0000      -0.549474       -14.9519
  60   2.0000      -0.540468       -14.7069
  61   2.0000      -0.535297       -14.5662
  62   2.0000      -0.529701       -14.4139
  63   2.0000      -0.519537       -14.1373
  64   2.0000      -0.512225       -13.9383
  65   2.0000      -0.496401       -13.5078
  66   2.0000      -0.477879       -13.0038
  67   2.0000      -0.473963       -12.8972
  68   2.0000      -0.464988       -12.6530
  69   2.0000      -0.460313       -12.5258
  70   2.0000      -0.457813       -12.4577
  71   2.0000      -0.443473       -12.0675
  72   2.0000      -0.439423       -11.9573
  73   2.0000      -0.416608       -11.3365
  74   2.0000      -0.367664       -10.0047
  75   2.0000      -0.343769        -9.3544
  76   0.0000       0.020520         0.5584
  77   0.0000       0.025775         0.7014
  78   0.0000       0.027311         0.7432
  79   0.0000       0.030970         0.8427
  80   0.0000       0.036711         0.9990

MULLIKEN ATOMIC CHARGES
-----------------------
   0 C :    0.838906
   1 C :    2.079548
   2 C :    0.260991
   3 O :   -1.337926
   4 C :   -0.559227
   5 C :   -0.673949
   6 C :    0.176083
   7 C :    0.305288
   8 C :    1.840260
   9 O :   -0.949179
  10 O :   -1.170629
  11 O :   -1.260446
  12 O :   -1.053392
  13 C :   -1.092506
  14 C :   -1.043158
  15 S :   -0.354783
  16 C :   -0.699947
  17 C :   -0.246880
  18 O :   -1.031447
  19 H :    0.442966
  20 H :    0.384546
  21 H :    0.396852
  22 H :    0.422912
  23 H :    0.374976
  24 H :    0.403675
  25 H :    0.310704
  26 H :    0.286494
  27 H :    0.386218
  28 H :    0.310849
  29 H :    0.449966
  30 H :    0.315163
  31 H :    0.305547
  32 H :    0.420499
  33 H :    0.456785
  34 H :    0.304240
Sum of atomic charges:   -0.0000000

LOEWDIN ATOMIC CHARGES
----------------------
   0 C :   -0.654757
   1 C :   -1.235495
   2 C :   -0.335766
   3 O :    0.916079
   4 C :    0.374289
   5 C :    0.388387
   6 C :   -0.230899
   7 C :   -0.023933
   8 C :   -1.082151
   9 O :    0.878414
  10 O :    0.841204
  11 O :    0.785840
  12 O :    0.859729
  13 C :    0.597022
  14 C :    0.606769
  15 S :    1.439261
  16 C :    0.186877
  17 C :    0.131263
  18 O :    1.283621
  19 H :   -0.313719
  20 H :   -0.311346
  21 H :   -0.323709
  22 H :   -0.314439
  23 H :   -0.313111
  24 H :   -0.306443
  25 H :   -0.393582
  26 H :   -0.369176
  27 H :   -0.290167
  28 H :   -0.329360
  29 H :   -0.991347
  30 H :   -0.281991
  31 H :   -0.275499
  32 H :   -0.292978
  33 H :   -0.259374
  34 H :   -0.359511

  Mayer bond orders larger than 0.100000
B(  0-C ,  1-C ) :   1.0778 B(  0-C ,  2-C ) :   0.3813 B(  0-C ,  4-C ) :  -0.3459
B(  0-C ,  7-C ) :   0.6991 B(  0-C , 10-O ) :  -0.1203 B(  0-C , 11-O ) :   0.4724
B(  0-C , 15-S ) :   0.7119 B(  0-C , 18-O ) :  -0.1234 B(  0-C , 32-H ) :  -0.1737
B(  1-C ,  4-C ) :   0.1823 B(  1-C ,  5-C ) :   0.1237 B(  1-C ,  7-C ) :   0.1063
B(  1-C , 10-O ) :   0.1377 B(  1-C , 11-O ) :   0.5781 B(  1-C , 12-O ) :   0.3681
B(  1-C , 13-C ) :  -0.4493 B(  1-C , 15-S ) :  -0.2401 B(  1-C , 18-O ) :  -0.1881
B(  2-C ,  3-O ) :   0.5289 B(  2-C ,  4-C ) :   1.1235 B(  2-C ,  5-C ) :  -0.2164
B(  2-C ,  6-C ) :   0.3098 B(  2-C , 32-H ) :   0.9772 B(  3-O ,  6-C ) :   0.6671
B(  3-O , 32-H ) :  -0.1229 B(  3-O , 33-H ) :  -0.1072 B(  4-C ,  5-C ) :   1.7202
B(  4-C ,  6-C ) :  -0.2691 B(  4-C ,  7-C ) :   0.1785 B(  4-C , 31-H ) :   0.9602
B(  5-C ,  6-C ) :   1.0542 B(  5-C ,  7-C ) :  -0.2018 B(  5-C , 30-H ) :   0.9988
B(  6-C ,  7-C ) :   0.6212 B(  6-C ,  8-C ) :   0.2099 B(  6-C ,  9-O ) :   0.1643
B(  6-C , 33-H ) :   0.8677 B(  7-C ,  8-C ) :   1.0987 B(  7-C ,  9-O ) :  -0.2964
B(  7-C , 10-O ) :   0.4798 B(  7-C , 11-O ) :  -0.1318 B(  7-C , 15-S ) :  -0.1894
B(  7-C , 34-H ) :   0.8292 B(  8-C ,  9-O ) :   0.7905 B(  8-C , 10-O ) :   0.3526
B(  8-C , 14-C ) :  -0.2369 B(  9-O , 10-O ) :   0.1984 B(  9-O , 14-C ) :   1.0715
B( 11-O , 12-O ) :   0.2727 B( 12-O , 13-C ) :   1.2014 B( 13-C , 19-H ) :   0.8491
B( 13-C , 20-H ) :   0.8775 B( 13-C , 21-H ) :   0.8867 B( 14-C , 22-H ) :   0.8797
B( 14-C , 23-H ) :   0.8877 B( 14-C , 24-H ) :   0.8567 B( 15-S , 16-C ) :   1.0040
B( 16-C , 17-C ) :   1.0357 B( 16-C , 25-H ) :   0.8599 B( 16-C , 26-H ) :   0.9276
B( 17-C , 18-O ) :   0.9241 B( 17-C , 27-H ) :   0.7862 B( 17-C , 28-H ) :   0.8910
B( 18-O , 29-H ) :   0.7788

MP2 TOTAL ENERGY:    -1314.640502499 Eh
FINAL SINGLE POINT ENERGY     -1314.640502498521

DIPOLE MOMENT
-------------
                                X             Y             Z
Electronic contribution:     -2.62486      -7.51758      -3.80944
Nuclear contribution   :      2.04808       7.87696       4.07242
                        -----------------------------------------
Total Dipole Moment    :     -0.57678       0.35938       0.26298
                        -----------------------------------------
Magnitude (a.u.)       :      0.72869
Magnitude (Debye)      :      1.85217

Rotational constants in cm-1:     0.014983     0.012208     0.010582
Rotational constants in MHz :   449.192199   365.981566   317.239424

                             ****ORCA TERMINATED NORMALLY****
TOTAL RUN TIME: 0 days 6 hours 14 minutes 46 seconds 708 msec
