                         Program Version 4.2.1 -  RELEASE  -
|  1> %pal
|  2>  nprocs 32
|  3> end
|  4> !RI-MP2 aug-cc-pVQZ aug-cc-pVQZ/C TightSCF
|  5> %maxcore 4500
|  6> *xyzfile 0 2  03_22R2.xyz
|  7>
|  8>
|  9>                          ****END OF INPUT****

CARTESIAN COORDINATES (ANGSTROEM)
---------------------------------
  C     -0.773908    0.012196   -0.080600
  C      0.080048    1.224258    0.116083
  C      0.067826   -1.226459   -0.127726
  C     -2.253756    0.005553    0.018628
  C      1.496480    0.730204   -0.212062
  C      1.481043   -0.737493    0.233972
  H      0.030688    1.577125    1.160312
  H     -0.234670    2.071847   -0.502565
  H      0.052933   -1.674632   -1.133093
  H     -0.292850   -2.008365    0.551816
  H     -2.688234    0.941350   -0.343726
  H     -2.595730   -0.120152    1.058633
  H     -2.693366   -0.816007   -0.554654
  H      2.281350    1.314394    0.271550
  H      1.661482    0.786848   -1.292201
  H      1.618624   -0.789960    1.318226
  H      2.273376   -1.331993   -0.224065

 Total Charge           Charge          ....    0
 Multiplicity           Mult            ....    2
 Number of Electrons    NEL             ....   47
 Basis Dimension        Dim             ....  986

ORBITAL ENERGIES
----------------
                 SPIN UP ORBITALS
  NO   OCC          E(Eh)            E(eV)
   0   1.0000     -11.214970      -305.1748
   1   1.0000     -11.212559      -305.1092
   2   1.0000     -11.211955      -305.0928
   3   1.0000     -11.211149      -305.0709
   4   1.0000     -11.211128      -305.0703
   5   1.0000     -11.210681      -305.0581
   6   1.0000      -1.131642       -30.7935
   7   1.0000      -1.009240       -27.4628
   8   1.0000      -0.961539       -26.1648
   9   1.0000      -0.893125       -24.3032
  10   1.0000      -0.780557       -21.2400
  11   1.0000      -0.729952       -19.8630
  12   1.0000      -0.652960       -17.7679
  13   1.0000      -0.633460       -17.2373
  14   1.0000      -0.581068       -15.8117
  15   1.0000      -0.570594       -15.5266
  16   1.0000      -0.563430       -15.3317
  17   1.0000      -0.516643       -14.0586
  18   1.0000      -0.485370       -13.2076
  19   1.0000      -0.482831       -13.1385
  20   1.0000      -0.465188       -12.6584
  21   1.0000      -0.458118       -12.4660
  22   1.0000      -0.457065       -12.4374
  23   1.0000      -0.300028        -8.1642
  24   0.0000       0.027334         0.7438
  25   0.0000       0.030864         0.8399
  26   0.0000       0.033280         0.9056
  27   0.0000       0.034625         0.9422
  28   0.0000       0.047754         1.2995

                 SPIN DOWN ORBITALS
  NO   OCC          E(Eh)            E(eV)
   0   1.0000     -11.214649      -305.1661
   1   1.0000     -11.214620      -305.1653
   2   1.0000     -11.214001      -305.1485
   3   1.0000     -11.212194      -305.0993
   4   1.0000     -11.211513      -305.0808
   5   1.0000     -11.190092      -304.4979
   6   1.0000      -1.111625       -30.2489
   7   1.0000      -0.990190       -26.9444
   8   1.0000      -0.961604       -26.1666
   9   1.0000      -0.886804       -24.1312
  10   1.0000      -0.778470       -21.1833
  11   1.0000      -0.695052       -18.9133
  12   1.0000      -0.635998       -17.3064
  13   1.0000      -0.623133       -16.9563
  14   1.0000      -0.564297       -15.3553
  15   1.0000      -0.561126       -15.2690
  16   1.0000      -0.547529       -14.8990
  17   1.0000      -0.503405       -13.6984
  18   1.0000      -0.479111       -13.0373
  19   1.0000      -0.477889       -13.0040
  20   1.0000      -0.464367       -12.6361
  21   1.0000      -0.454244       -12.3606
  22   1.0000      -0.451338       -12.2815
  23   0.0000       0.027442         0.7467
  24   0.0000       0.030929         0.8416
  25   0.0000       0.033294         0.9060
  26   0.0000       0.034372         0.9353
  27   0.0000       0.047811         1.3010

MULLIKEN ATOMIC CHARGES AND SPIN POPULATIONS
--------------------------------------------
   0 C :    0.089629    1.175522
   1 C :   -0.508441   -0.204745
   2 C :   -0.398266   -0.207249
   3 C :   -0.735667   -0.146466
   4 C :   -0.506166    0.020219
   5 C :   -0.514979    0.018461
   6 H :    0.163887    0.082482
   7 H :    0.284551    0.037986
   8 H :    0.182389    0.072834
   9 H :    0.259470    0.047141
  10 H :    0.233325    0.017189
  11 H :    0.247860    0.079513
  12 H :    0.207706    0.019726
  13 H :    0.320726   -0.002905
  14 H :    0.187797   -0.003069
  15 H :    0.162817   -0.004708
  16 H :    0.323361   -0.001929
Sum of atomic charges         :    0.0000000

LOEWDIN ATOMIC CHARGES AND SPIN POPULATIONS
-------------------------------------------
   0 C :    0.034033    0.450973
   1 C :    0.500889    0.124185
   2 C :    0.505460    0.122836
   3 C :    0.912655    0.125441
   4 C :    0.516634    0.011902
   5 C :    0.519395    0.009957
   6 H :   -0.259851    0.029137
   7 H :   -0.269118    0.018272
   8 H :   -0.264989    0.029272
   9 H :   -0.266914    0.018146
  10 H :   -0.301314    0.011935
  11 H :   -0.282828    0.029659
  12 H :   -0.298754    0.012972
  13 H :   -0.257424    0.000922
  14 H :   -0.264449    0.002123
  15 H :   -0.265839    0.001444
  16 H :   -0.257585    0.000825

  Mayer bond orders larger than 0.100000
B(  0-C ,  1-C ) :   0.7853 B(  0-C ,  2-C ) :   0.7468 B(  0-C ,  3-C ) :   0.6020
B(  0-C ,  4-C ) :  -0.1039 B(  0-C , 10-H ) :  -0.1281 B(  0-C , 12-H ) :  -0.1174
B(  1-C ,  4-C ) :   1.0635 B(  1-C ,  6-H ) :   0.9199 B(  1-C ,  7-H ) :   0.9317
B(  2-C ,  5-C ) :   0.9996 B(  2-C ,  8-H ) :   0.9572 B(  2-C ,  9-H ) :   0.9240
B(  3-C , 10-H ) :   1.0432 B(  3-C , 11-H ) :   0.9254 B(  3-C , 12-H ) :   1.0815
B(  4-C ,  5-C ) :   0.9757 B(  4-C , 13-H ) :   0.8723 B(  4-C , 14-H ) :   0.9639
B(  5-C , 15-H ) :   0.9993 B(  5-C , 16-H ) :   0.8773

MP2 TOTAL ENERGY:     -234.743310670 Eh
FINAL SINGLE POINT ENERGY      -234.743310669826

DIPOLE MOMENT
-------------
                                X             Y             Z
Electronic contribution:      0.63673       0.04736      -0.29869
Nuclear contribution   :     -0.62247      -0.05260       0.32932
                        -----------------------------------------
Total Dipole Moment    :      0.01426      -0.00524       0.03063
                        -----------------------------------------
Magnitude (a.u.)       :      0.03419
Magnitude (Debye)      :      0.08690

Rotational constants in cm-1:     0.213215     0.099776     0.073909
Rotational constants in MHz :  6392.017400  2991.196828  2215.737950

                             ****ORCA TERMINATED NORMALLY****
TOTAL RUN TIME: 0 days 0 hours 31 minutes 53 seconds 630 msec
