                         Program Version 4.2.1 -  RELEASE  -
|  1> %pal
|  2>  nprocs 32
|  3> end
|  4> !RI-MP2 aug-cc-pVQZ aug-cc-pVQZ/C TightSCF
|  5> %maxcore 4500
|  6> *xyzfile 0 1  02_16P.xyz
|  7>
|  8>
|  9>                          ****END OF INPUT****

CARTESIAN COORDINATES (ANGSTROEM)
---------------------------------
  C      2.684083   -0.495924    0.428844
  C      1.259445   -1.055447    0.345013
  C      0.228143    0.035169    0.713177
  C      2.858258    0.739242   -0.435063
  H      2.883997   -0.234479    1.480551
  C      1.831780    1.801914   -0.094916
  H      3.865635    1.137442   -0.307829
  H      2.746429    0.465956   -1.487258
  C      0.411978    1.253195   -0.201149
  H      1.998636    2.152390    0.937468
  C      0.919314   -1.617222   -1.005849
  C     -0.336889   -1.968333   -1.238004
  C     -1.222705   -0.573863    0.746306
  C     -1.335981   -1.883229   -0.118226
  H     -0.292404    2.036488    0.081953
  H      0.211255    0.990355   -1.241924
  C     -2.756120   -2.275796   -0.569702
  H     -3.492539   -1.929068    0.168893
  H     -2.820071   -3.365020   -0.589860
  C     -2.175838    0.502024    0.251058
  C     -3.313275    2.485303    0.792832
  H     -2.819557    3.061084    0.010036
  H     -3.457372    3.090563    1.683512
  H     -4.267404    2.119086    0.416204
  O     -2.485440    1.390414    1.201799
  O      3.658957   -1.430240    0.005173
  O      2.057106    2.886861   -0.976641
  O     -2.591229    0.618818   -0.877363
  O     -3.108075   -1.857385   -1.867231
  H     -3.022885   -0.894702   -1.886253
  C      3.804080   -2.555821    0.838374
  H      4.691498   -3.089248    0.500631
  H      3.944803   -2.258241    1.885806
  H      2.944359   -3.231910    0.774203
  C      1.403696    4.082122   -0.625892
  H      1.616630    4.360046    0.414950
  H      1.787109    4.860431   -1.284347
  H      0.317809    4.018277   -0.758603
  C     -1.555821   -0.943239    2.199639
  H     -1.566615   -0.065315    2.842369
  H     -2.528813   -1.433999    2.274068
  H     -0.802059   -1.638672    2.574455
  H     -0.668947   -2.347523   -2.195993
  H      1.693116   -1.702134   -1.759001
  H      0.438988    0.368863    1.734923
  H      1.166922   -1.853828    1.092437
  H     -1.043961   -2.665165    0.594063

 Total Charge           Charge          ....    0
 Multiplicity           Mult            ....    1
 Number of Electrons    NEL             ....  162
 Basis Dimension        Dim             .... 2876

ORBITAL ENERGIES
----------------

  NO   OCC          E(Eh)            E(eV)
   0   2.0000     -20.613764      -560.9290
   1   2.0000     -20.554494      -559.3162
   2   2.0000     -20.554251      -559.3096
   3   2.0000     -20.552104      -559.2512
   4   2.0000     -20.527801      -558.5899
   5   2.0000     -11.389617      -309.9272
   6   2.0000     -11.295733      -307.3725
   7   2.0000     -11.281427      -306.9832
   8   2.0000     -11.279122      -306.9205
   9   2.0000     -11.270838      -306.6951
  10   2.0000     -11.270070      -306.6742
  11   2.0000     -11.268737      -306.6379
  12   2.0000     -11.266484      -306.5766
  13   2.0000     -11.248931      -306.0990
  14   2.0000     -11.238001      -305.8016
  15   2.0000     -11.234020      -305.6932
  16   2.0000     -11.229038      -305.5576
  17   2.0000     -11.219910      -305.3093
  18   2.0000     -11.217050      -305.2315
  19   2.0000     -11.214822      -305.1708
  20   2.0000     -11.212726      -305.1138
  21   2.0000      -1.481032       -40.3009
  22   2.0000      -1.379955       -37.5505
  23   2.0000      -1.376144       -37.4468
  24   2.0000      -1.376059       -37.4445
  25   2.0000      -1.340418       -36.4746
  26   2.0000      -1.167101       -31.7584
  27   2.0000      -1.100618       -29.9493
  28   2.0000      -1.068186       -29.0668
  29   2.0000      -1.021960       -27.8090
  30   2.0000      -1.009626       -27.4733
  31   2.0000      -0.986623       -26.8474
  32   2.0000      -0.957694       -26.0602
  33   2.0000      -0.928150       -25.2562
  34   2.0000      -0.913197       -24.8494
  35   2.0000      -0.896315       -24.3900
  36   2.0000      -0.846470       -23.0336
  37   2.0000      -0.833352       -22.6767
  38   2.0000      -0.818897       -22.2833
  39   2.0000      -0.790558       -21.5122
  40   2.0000      -0.773267       -21.0417
  41   2.0000      -0.719484       -19.5782
  42   2.0000      -0.710452       -19.3324
  43   2.0000      -0.701131       -19.0787
  44   2.0000      -0.687662       -18.7122
  45   2.0000      -0.677742       -18.4423
  46   2.0000      -0.667486       -18.1632
  47   2.0000      -0.665261       -18.1027
  48   2.0000      -0.650769       -17.7083
  49   2.0000      -0.647333       -17.6148
  50   2.0000      -0.646679       -17.5970
  51   2.0000      -0.635041       -17.2803
  52   2.0000      -0.620451       -16.8833
  53   2.0000      -0.610595       -16.6151
  54   2.0000      -0.602134       -16.3849
  55   2.0000      -0.596761       -16.2387
  56   2.0000      -0.594404       -16.1746
  57   2.0000      -0.586136       -15.9496
  58   2.0000      -0.572969       -15.5913
  59   2.0000      -0.567427       -15.4405
  60   2.0000      -0.552901       -15.0452
  61   2.0000      -0.551483       -15.0066
  62   2.0000      -0.537744       -14.6328
  63   2.0000      -0.531883       -14.4733
  64   2.0000      -0.520603       -14.1663
  65   2.0000      -0.515737       -14.0339
  66   2.0000      -0.511761       -13.9257
  67   2.0000      -0.509866       -13.8742
  68   2.0000      -0.502788       -13.6816
  69   2.0000      -0.487966       -13.2782
  70   2.0000      -0.481664       -13.1067
  71   2.0000      -0.480886       -13.0856
  72   2.0000      -0.477111       -12.9829
  73   2.0000      -0.457993       -12.4626
  74   2.0000      -0.451611       -12.2890
  75   2.0000      -0.449165       -12.2224
  76   2.0000      -0.434866       -11.8333
  77   2.0000      -0.423519       -11.5245
  78   2.0000      -0.418430       -11.3860
  79   2.0000      -0.408327       -11.1111
  80   2.0000      -0.345589        -9.4040
  81   0.0000       0.015798         0.4299
  82   0.0000       0.021457         0.5839
  83   0.0000       0.025466         0.6930
  84   0.0000       0.028676         0.7803
  85   0.0000       0.033234         0.9043

MULLIKEN ATOMIC CHARGES
-----------------------
   0 C :    1.226972
   1 C :    0.453041
   2 C :    0.741406
   3 C :   -1.026885
   4 H :    0.054041
   5 C :    1.360746
   6 H :    0.206991
   7 H :    0.184266
   8 C :   -0.813126
   9 H :    0.134910
  10 C :   -0.503516
  11 C :   -1.072406
  12 C :    0.737560
  13 C :    0.620905
  14 H :    0.236314
  15 H :   -0.057761
  16 C :   -0.208962
  17 H :    0.023293
  18 H :    0.300825
  19 C :    2.412604
  20 C :   -1.123433
  21 H :    0.357140
  22 H :    0.426522
  23 H :    0.384487
  24 O :   -1.059856
  25 O :   -1.204927
  26 O :   -1.194204
  27 O :   -1.150989
  28 O :   -1.228907
  29 H :    0.428135
  30 C :   -0.821713
  31 H :    0.388568
  32 H :    0.204849
  33 H :    0.236485
  34 C :   -0.787723
  35 H :    0.211961
  36 H :    0.402793
  37 H :    0.279472
  38 C :   -1.535824
  39 H :    0.192661
  40 H :    0.162270
  41 H :    0.226425
  42 H :    0.151269
  43 H :    0.145523
  44 H :    0.308999
  45 H :    0.336836
  46 H :    0.251957
Sum of atomic charges:   -0.0000000

LOEWDIN ATOMIC CHARGES
----------------------
   0 C :   -0.227608
   1 C :    0.100245
   2 C :    0.168032
   3 C :    0.503627
   4 H :   -0.279040
   5 C :   -0.209114
   6 H :   -0.251785
   7 H :   -0.273535
   8 C :    0.524929
   9 H :   -0.280012
  10 C :    0.417048
  11 C :    0.434945
  12 C :   -0.228471
  13 C :    0.101363
  14 H :   -0.325846
  15 H :   -0.257066
  16 C :    0.189441
  17 H :   -0.295765
  18 H :   -0.298776
  19 C :   -1.039440
  20 C :    0.610662
  21 H :   -0.310804
  22 H :   -0.312304
  23 H :   -0.306054
  24 O :    0.895817
  25 O :    0.924114
  26 O :    0.924758
  27 O :    0.890780
  28 O :    1.298040
  29 H :   -1.020685
  30 C :    0.586823
  31 H :   -0.314885
  32 H :   -0.297434
  33 H :   -0.308954
  34 C :    0.581280
  35 H :   -0.301027
  36 H :   -0.318399
  37 H :   -0.313120
  38 C :    0.920629
  39 H :   -0.289254
  40 H :   -0.255887
  41 H :   -0.260937
  42 H :   -0.306003
  43 H :   -0.293481
  44 H :   -0.275720
  45 H :   -0.294343
  46 H :   -0.326781

  Mayer bond orders larger than 0.100000
B(  0-C ,  1-C ) :   0.8393 B(  0-C ,  3-C ) :   0.6573 B(  0-C ,  4-H ) :   1.3390
B(  0-C ,  6-H ) :  -0.1431 B(  0-C , 10-C ) :  -0.1287 B(  0-C , 25-O ) :  -0.4971
B(  0-C , 30-C ) :  -0.5558 B(  0-C , 33-H ) :  -0.1371 B(  1-C ,  2-C ) :   0.6729
B(  1-C ,  4-H ) :  -0.2167 B(  1-C ,  8-C ) :  -0.1399 B(  1-C , 10-C ) :   0.5189
B(  1-C , 11-C ) :  -0.4071 B(  1-C , 12-C ) :   0.2795 B(  1-C , 13-C ) :   0.2025
B(  1-C , 44-H ) :  -0.1326 B(  1-C , 45-H ) :   1.0229 B(  2-C ,  8-C ) :   0.3734
B(  2-C , 11-C ) :  -0.2066 B(  2-C , 12-C ) :   0.5890 B(  2-C , 13-C ) :  -0.1106
B(  2-C , 24-O ) :   0.3349 B(  2-C , 44-H ) :   0.9908 B(  3-C ,  5-C ) :   0.8239
B(  3-C ,  6-H ) :   1.0710 B(  3-C ,  7-H ) :   1.1494 B(  3-C , 25-O ) :   0.4165
B(  3-C , 26-O ) :   0.4180 B(  5-C ,  6-H ) :  -0.1076 B(  5-C ,  8-C ) :   0.7481
B(  5-C ,  9-H ) :   1.1648 B(  5-C , 26-O ) :  -0.6693 B(  5-C , 34-C ) :  -0.4794
B(  5-C , 37-H ) :  -0.1041 B(  8-C ,  9-H ) :  -0.1003 B(  8-C , 14-H ) :   1.0236
B(  8-C , 15-H ) :   1.1477 B(  8-C , 19-C ) :   0.1557 B(  8-C , 26-O ) :   0.2841
B( 10-C , 11-C ) :   0.9811 B( 10-C , 15-H ) :   0.2256 B( 10-C , 25-O ) :   0.2540
B( 10-C , 42-H ) :  -0.2814 B( 10-C , 43-H ) :   1.2658 B( 10-C , 45-H ) :  -0.2116
B( 11-C , 13-C ) :   0.6492 B( 11-C , 15-H ) :   0.2176 B( 11-C , 28-O ) :   0.4585
B( 11-C , 42-H ) :   1.3451 B( 11-C , 43-H ) :  -0.2522 B( 12-C , 13-C ) :   0.5761
B( 12-C , 19-C ) :   1.1859 B( 12-C , 24-O ) :  -0.4550 B( 12-C , 27-O ) :   0.4931
B( 12-C , 38-C ) :  -0.4180 B( 12-C , 39-H ) :  -0.3060 B( 12-C , 40-H ) :  -0.3130
B( 12-C , 41-H ) :  -0.2693 B( 12-C , 46-H ) :  -0.1761 B( 13-C , 16-C ) :   0.2638
B( 13-C , 17-H ) :  -0.2967 B( 13-C , 18-H ) :  -0.2222 B( 13-C , 28-O ) :  -0.5490
B( 13-C , 42-H ) :  -0.1247 B( 13-C , 44-H ) :   0.1156 B( 13-C , 46-H ) :   1.0622
B( 14-H , 24-O ) :   0.1199 B( 16-C , 17-H ) :   1.2815 B( 16-C , 18-H ) :   1.0479
B( 16-C , 28-O ) :   0.6512 B( 17-H , 28-O ) :   0.1018 B( 19-C , 20-C ) :  -0.4675
B( 19-C , 24-O ) :   0.4318 B( 19-C , 27-O ) :   0.3912 B( 19-C , 38-C ) :   0.1551
B( 20-C , 21-H ) :   0.8914 B( 20-C , 22-H ) :   0.8720 B( 20-C , 23-H ) :   0.9297
B( 20-C , 24-O ) :   1.1223 B( 24-O , 27-O ) :   0.3823 B( 24-O , 38-C ) :   0.2436
B( 24-O , 44-H ) :  -0.1460 B( 25-O , 30-C ) :   1.1368 B( 26-O , 34-C ) :   1.1519
B( 27-O , 29-H ) :   0.1157 B( 28-O , 29-H ) :   0.7043 B( 30-C , 31-H ) :   0.9022
B( 30-C , 32-H ) :   1.0026 B( 30-C , 33-H ) :   0.9611 B( 34-C , 35-H ) :   0.9606
B( 34-C , 36-H ) :   0.9024 B( 34-C , 37-H ) :   0.8981 B( 38-C , 39-H ) :   1.1928
B( 38-C , 40-H ) :   1.3006 B( 38-C , 41-H ) :   1.2140

MP2 TOTAL ENERGY:     -999.888685247 Eh
FINAL SINGLE POINT ENERGY      -999.888685247021

DIPOLE MOMENT
-------------
                                X             Y             Z
Electronic contribution:     -3.66919      -1.36354      -5.97584
Nuclear contribution   :      3.55420       2.01592       8.07151
                        -----------------------------------------
Total Dipole Moment    :     -0.11499       0.65238       2.09567
                        -----------------------------------------
Magnitude (a.u.)       :      2.19788
Magnitude (Debye)      :      5.58656

Rotational constants in cm-1:     0.012535     0.008820     0.006314
Rotational constants in MHz :   375.803412   264.404473   189.280717

                             ****ORCA TERMINATED NORMALLY****
TOTAL RUN TIME: 0 days 12 hours 13 minutes 5 seconds 300 msec
