                         Program Version 4.2.1 -  RELEASE  -
|  1> %pal
|  2>  nprocs 32
|  3> end
|  4> !RI-MP2 aug-cc-pVQZ aug-cc-pVQZ/C TightSCF
|  5> %maxcore 4500
|  6> *xyzfile 0 1  02_5TS.xyz
|  7>
|  8>
|  9>                          ****END OF INPUT****

CARTESIAN COORDINATES (ANGSTROEM)
---------------------------------
  C     -1.585831   -1.540798    0.509369
  C     -2.996923   -0.962574    0.309291
  C     -2.774819    0.550866    0.196464
  C     -1.396081    0.660737   -0.428213
  C     -0.713531   -0.570177   -0.262989
  H     -1.315286   -1.537469    1.571496
  H     -1.492356   -2.567788    0.153565
  H     -3.683613   -1.234699    1.111345
  H     -3.414017   -1.339376   -0.627850
  H     -3.540412    1.061970   -0.389568
  H     -2.748767    1.018799    1.188135
  C      0.619837   -0.674299   -0.435501
  H     -1.388044    2.550150   -0.755601
  C      1.719802   -1.259995   -0.842306
  H      1.681832   -1.991787   -1.643518
  C      3.039223   -0.850638   -0.256713
  H      3.645849   -0.362405   -1.027084
  H      3.609736   -1.713788    0.096289
  C      2.741215    0.118275    0.892086
  H      2.480254   -0.450330    1.788816
  H      3.609297    0.734964    1.132374
  C      1.590739    0.962278    0.511474
  C      0.986432    2.016400    0.332600
  H      0.766779    3.057242    0.359712
  N     -0.798805    1.724867   -0.873070

 Total Charge           Charge          ....    0
 Multiplicity           Mult            ....    1
 Number of Electrons    NEL             ....   86
 Basis Dimension        Dim             .... 1558

ORBITAL ENERGIES
----------------

  NO   OCC          E(Eh)            E(eV)
   0   2.0000     -15.538022      -422.8111
   1   2.0000     -11.261537      -306.4420
   2   2.0000     -11.259590      -306.3890
   3   2.0000     -11.243140      -305.9414
   4   2.0000     -11.232370      -305.6483
   5   2.0000     -11.231323      -305.6198
   6   2.0000     -11.230411      -305.5950
   7   2.0000     -11.225826      -305.4703
   8   2.0000     -11.223352      -305.4029
   9   2.0000     -11.222075      -305.3682
  10   2.0000     -11.215318      -305.1843
  11   2.0000     -11.213827      -305.1437
  12   2.0000      -1.208239       -32.8778
  13   2.0000      -1.123112       -30.5614
  14   2.0000      -1.101942       -29.9854
  15   2.0000      -1.027985       -27.9729
  16   2.0000      -1.004908       -27.3449
  17   2.0000      -0.948325       -25.8052
  18   2.0000      -0.927216       -25.2308
  19   2.0000      -0.865298       -23.5460
  20   2.0000      -0.803697       -21.8697
  21   2.0000      -0.771618       -20.9968
  22   2.0000      -0.716899       -19.5078
  23   2.0000      -0.674289       -18.3483
  24   2.0000      -0.671668       -18.2770
  25   2.0000      -0.645705       -17.5705
  26   2.0000      -0.632088       -17.2000
  27   2.0000      -0.626700       -17.0534
  28   2.0000      -0.578462       -15.7407
  29   2.0000      -0.559984       -15.2379
  30   2.0000      -0.546994       -14.8845
  31   2.0000      -0.537132       -14.6161
  32   2.0000      -0.529082       -14.3971
  33   2.0000      -0.516952       -14.0670
  34   2.0000      -0.509540       -13.8653
  35   2.0000      -0.504436       -13.7264
  36   2.0000      -0.485234       -13.2039
  37   2.0000      -0.455576       -12.3968
  38   2.0000      -0.423708       -11.5297
  39   2.0000      -0.385087       -10.4788
  40   2.0000      -0.356878        -9.7111
  41   2.0000      -0.340898        -9.2763
  42   2.0000      -0.276501        -7.5240
  43   0.0000       0.024923         0.6782
  44   0.0000       0.026620         0.7244
  45   0.0000       0.029355         0.7988
  46   0.0000       0.032669         0.8890
  47   0.0000       0.039068         1.0631

MULLIKEN ATOMIC CHARGES
-----------------------
   0 C :   -0.606742
   1 C :   -0.580007
   2 C :   -0.499834
   3 C :    0.403721
   4 C :    0.228510
   5 H :    0.207878
   6 H :    0.297142
   7 H :    0.319196
   8 H :    0.213125
   9 H :    0.289532
  10 H :    0.182189
  11 C :    0.541615
  12 H :    0.239567
  13 C :   -0.571229
  14 H :    0.366583
  15 C :   -0.485819
  16 H :    0.249334
  17 H :    0.308041
  18 C :   -0.249759
  19 H :    0.166913
  20 H :    0.318694
  21 C :    0.096826
  22 C :   -0.776848
  23 H :    0.255736
  24 N :   -0.914366
Sum of atomic charges:    0.0000000

LOEWDIN ATOMIC CHARGES
----------------------
   0 C :    0.505408
   1 C :    0.522022
   2 C :    0.526435
   3 C :   -0.345765
   4 C :   -0.110922
   5 H :   -0.259579
   6 H :   -0.264561
   7 H :   -0.255614
   8 H :   -0.264858
   9 H :   -0.263460
  10 H :   -0.257473
  11 C :    0.099926
  12 H :   -0.609639
  13 C :    0.376431
  14 H :   -0.309277
  15 C :    0.474589
  16 H :   -0.270005
  17 H :   -0.270947
  18 C :    0.440237
  19 H :   -0.284053
  20 H :   -0.279607
  21 C :    0.037218
  22 C :    0.515891
  23 H :   -0.394471
  24 N :    0.942073

  Mayer bond orders larger than 0.100000
B(  0-C ,  1-C ) :   1.1024 B(  0-C ,  4-C ) :   0.6640 B(  0-C ,  5-H ) :   0.9081
B(  0-C ,  6-H ) :   0.9424 B(  1-C ,  2-C ) :   1.0828 B(  1-C ,  4-C ) :  -0.1037
B(  1-C ,  7-H ) :   0.8959 B(  1-C ,  8-H ) :   0.9600 B(  2-C ,  3-C ) :   0.8147
B(  2-C ,  4-C ) :  -0.2372 B(  2-C ,  9-H ) :   0.9525 B(  2-C , 10-H ) :   0.9418
B(  3-C ,  4-C ) :   1.1309 B(  3-C , 11-C ) :  -0.3937 B(  3-C , 24-N ) :   0.9958
B(  4-C , 11-C ) :   0.8351 B(  4-C , 13-C ) :  -0.2776 B( 11-C , 13-C ) :   1.8044
B( 11-C , 15-C ) :  -0.2555 B( 11-C , 21-C ) :   0.2144 B( 12-H , 24-N ) :   0.9510
B( 13-C , 14-H ) :   0.8686 B( 13-C , 15-C ) :   0.9856 B( 13-C , 21-C ) :  -0.1264
B( 15-C , 16-H ) :   0.9253 B( 15-C , 17-H ) :   0.9303 B( 15-C , 18-C ) :   1.0811
B( 15-C , 21-C ) :  -0.1184 B( 18-C , 19-H ) :   0.9793 B( 18-C , 20-H ) :   0.9338
B( 18-C , 21-C ) :   0.6001 B( 18-C , 22-C ) :  -0.1713 B( 21-C , 22-C ) :   2.2674
B( 21-C , 23-H ) :  -0.1721 B( 22-C , 23-H ) :   1.1710 B( 22-C , 24-N ) :   0.2195

MP2 TOTAL ENERGY:     -480.710412222 Eh
FINAL SINGLE POINT ENERGY      -480.710412222467

DIPOLE MOMENT
-------------
                                X             Y             Z
Electronic contribution:      1.70208       2.57972      -2.43410
Nuclear contribution   :     -1.81914      -2.80402       2.99531
                        -----------------------------------------
Total Dipole Moment    :     -0.11706      -0.22430       0.56121
                        -----------------------------------------
Magnitude (a.u.)       :      0.61560
Magnitude (Debye)      :      1.56474

Rotational constants in cm-1:     0.059250     0.023673     0.019175
Rotational constants in MHz :  1776.259744   709.695404   574.860082

                             ****ORCA TERMINATED NORMALLY****
TOTAL RUN TIME: 0 days 1 hours 54 minutes 53 seconds 575 msec
