                         Program Version 4.2.1 -  RELEASE  -
|  1> %pal
|  2>  nprocs 32
|  3> end
|  4> !RI-MP2 aug-cc-pVQZ aug-cc-pVQZ/C TightSCF
|  5> %maxcore 4500
|  6> *xyzfile 1 1  05_30TS.xyz
|  7>
|  8>
|  9>                          ****END OF INPUT****

CARTESIAN COORDINATES (ANGSTROEM)
---------------------------------
  C      1.062366   -0.199543    1.280230
  C      1.002894   -1.715348   -0.867460
  C      2.471752   -1.286189   -0.925639
  C      2.671752    0.217699   -0.738849
  C      2.035596    0.753226    0.563810
  H      3.056748   -1.820511   -0.182067
  H      2.863053   -1.579752   -1.901423
  H      2.188702    0.723839   -1.576675
  H      2.821870    0.997623    1.274745
  H      1.503183    1.678385    0.334576
  N      0.333788   -0.997031    0.252992
  O     -0.887224   -1.289340    0.455562
  C      1.780245   -1.183113    2.224650
  H      2.225148   -0.611888    3.040135
  H      1.060268   -1.886174    2.646666
  H      2.591471   -1.722203    1.746356
  C      0.066313    0.610848    2.097974
  H     -0.620643   -0.027608    2.651707
  H      0.629696    1.206933    2.816217
  H     -0.505578    1.293728    1.472878
  C      0.898256   -3.221213   -0.607422
  H     -0.142970   -3.542958   -0.588293
  H      1.412541   -3.759984   -1.404568
  H      1.366036   -3.486337    0.340566
  C      0.278768   -1.364242   -2.170609
  H      0.721797   -1.937150   -2.985227
  H     -0.777029   -1.631522   -2.121171
  H      0.369962   -0.305545   -2.413184
  C     -2.757890    0.102159   -0.528154
  H     -2.731349   -0.343624   -1.527259
  H     -1.668193   -0.552081   -0.053527
  C     -2.310232    1.478602   -0.405946
  C     -2.755670    2.295503    0.641060
  C     -1.376378    1.972402   -1.325598
  C     -2.279547    3.587025    0.751304
  H     -3.478501    1.906940    1.345885
  C     -0.895449    3.264644   -1.199552
  H     -1.057050    1.351914   -2.153587
  C     -1.344925    4.070838   -0.161760
  H     -2.634118    4.225618    1.550273
  H     -0.185261    3.651484   -1.919328
  O     -3.737011   -0.299527    0.270410
  C     -4.391827   -1.569694   -0.047264
  H     -3.630143   -2.213433   -0.498243
  H     -0.976239    5.084733   -0.068147
  C     -5.514767   -1.301811   -1.027426
  H     -6.255531   -0.634802   -0.583729
  H     -6.007565   -2.239634   -1.288439
  H     -5.146802   -0.848524   -1.950144
  C     -4.850574   -2.151205    1.268585
  H     -4.007125   -2.304721    1.941981
  H     -5.568362   -1.484901    1.749878
  H     -5.336654   -3.112707    1.097669
  N      4.079613    0.579077   -0.844874
  C      5.021096    0.150625    0.043791
  C      6.432154    0.615036   -0.202129
  H      6.539485    1.236725   -1.091020
  H      6.770503    1.174997    0.670254
  H      7.074362   -0.260902   -0.296475
  O      4.725079   -0.563632    0.985988
  H      4.370138    1.162205   -1.611364

 Total Charge           Charge          ....    1
 Multiplicity           Mult            ....    1
 Number of Electrons    NEL             ....  198
 Basis Dimension        Dim             .... 3690

ORBITAL ENERGIES
----------------

  NO   OCC          E(Eh)            E(eV)
   0   2.0000     -20.799099      -565.9722
   1   2.0000     -20.727331      -564.0194
   2   2.0000     -20.601070      -560.5836
   3   2.0000     -15.789657      -429.6584
   4   2.0000     -15.677630      -426.6100
   5   2.0000     -11.480975      -312.4132
   6   2.0000     -11.437163      -311.2210
   7   2.0000     -11.413541      -310.5782
   8   2.0000     -11.400922      -310.2349
   9   2.0000     -11.393435      -310.0311
  10   2.0000     -11.380654      -309.6834
  11   2.0000     -11.379205      -309.6439
  12   2.0000     -11.375612      -309.5461
  13   2.0000     -11.366132      -309.2882
  14   2.0000     -11.365901      -309.2819
  15   2.0000     -11.358270      -309.0742
  16   2.0000     -11.355257      -308.9923
  17   2.0000     -11.340127      -308.5806
  18   2.0000     -11.329582      -308.2936
  19   2.0000     -11.327958      -308.2494
  20   2.0000     -11.327350      -308.2329
  21   2.0000     -11.324035      -308.1427
  22   2.0000     -11.321766      -308.0809
  23   2.0000     -11.320002      -308.0329
  24   2.0000     -11.314032      -307.8705
  25   2.0000     -11.309926      -307.7587
  26   2.0000      -1.635145       -44.4946
  27   2.0000      -1.561714       -42.4964
  28   2.0000      -1.473354       -40.0920
  29   2.0000      -1.334017       -36.3004
  30   2.0000      -1.299141       -35.3514
  31   2.0000      -1.294092       -35.2140
  32   2.0000      -1.219660       -33.1886
  33   2.0000      -1.207978       -32.8707
  34   2.0000      -1.163670       -31.6651
  35   2.0000      -1.155013       -31.4295
  36   2.0000      -1.148851       -31.2618
  37   2.0000      -1.109110       -30.1804
  38   2.0000      -1.076649       -29.2971
  39   2.0000      -1.063266       -28.9329
  40   2.0000      -1.060890       -28.8683
  41   2.0000      -1.048426       -28.5291
  42   2.0000      -1.045562       -28.4512
  43   2.0000      -1.039440       -28.2846
  44   2.0000      -0.969655       -26.3856
  45   2.0000      -0.962085       -26.1797
  46   2.0000      -0.939523       -25.5657
  47   2.0000      -0.939147       -25.5555
  48   2.0000      -0.930546       -25.3215
  49   2.0000      -0.899339       -24.4723
  50   2.0000      -0.866356       -23.5747
  51   2.0000      -0.847819       -23.0703
  52   2.0000      -0.828258       -22.5381
  53   2.0000      -0.819060       -22.2878
  54   2.0000      -0.813155       -22.1271
  55   2.0000      -0.798670       -21.7329
  56   2.0000      -0.790700       -21.5160
  57   2.0000      -0.784773       -21.3548
  58   2.0000      -0.763890       -20.7865
  59   2.0000      -0.747652       -20.3447
  60   2.0000      -0.744674       -20.2636
  61   2.0000      -0.738790       -20.1035
  62   2.0000      -0.726112       -19.7585
  63   2.0000      -0.724794       -19.7226
  64   2.0000      -0.718041       -19.5389
  65   2.0000      -0.714581       -19.4447
  66   2.0000      -0.705049       -19.1854
  67   2.0000      -0.699778       -19.0419
  68   2.0000      -0.698751       -19.0140
  69   2.0000      -0.685594       -18.6559
  70   2.0000      -0.684711       -18.6319
  71   2.0000      -0.674348       -18.3499
  72   2.0000      -0.669037       -18.2054
  73   2.0000      -0.667234       -18.1564
  74   2.0000      -0.658792       -17.9266
  75   2.0000      -0.654333       -17.8053
  76   2.0000      -0.648930       -17.6583
  77   2.0000      -0.646576       -17.5942
  78   2.0000      -0.642790       -17.4912
  79   2.0000      -0.639192       -17.3933
  80   2.0000      -0.638374       -17.3710
  81   2.0000      -0.632783       -17.2189
  82   2.0000      -0.631483       -17.1835
  83   2.0000      -0.625044       -17.0083
  84   2.0000      -0.622243       -16.9321
  85   2.0000      -0.614483       -16.7209
  86   2.0000      -0.606961       -16.5162
  87   2.0000      -0.600862       -16.3503
  88   2.0000      -0.596455       -16.2304
  89   2.0000      -0.593438       -16.1483
  90   2.0000      -0.588484       -16.0135
  91   2.0000      -0.584240       -15.8980
  92   2.0000      -0.571038       -15.5387
  93   2.0000      -0.561772       -15.2866
  94   2.0000      -0.509004       -13.8507
  95   2.0000      -0.495114       -13.4727
  96   2.0000      -0.486533       -13.2392
  97   2.0000      -0.467809       -12.7297
  98   2.0000      -0.425562       -11.5801
  99   0.0000      -0.142571        -3.8796
 100   0.0000      -0.059842        -1.6284
 101   0.0000      -0.050922        -1.3857
 102   0.0000      -0.047340        -1.2882
 103   0.0000      -0.044089        -1.1997

MULLIKEN ATOMIC CHARGES
-----------------------
   0 C :   -1.162620
   1 C :    0.548130
   2 C :    1.818047
   3 C :   -1.011323
   4 C :    0.821364
   5 H :    0.489474
   6 H :    0.225331
   7 H :   -0.757176
   8 H :   -0.261530
   9 H :    1.381264
  10 N :   -4.749368
  11 O :    0.316450
  12 C :   -0.680021
  13 H :    0.201324
  14 H :    0.294016
  15 H :    0.545488
  16 C :   -0.526370
  17 H :    0.636815
  18 H :    0.066681
  19 H :    0.100913
  20 C :   -1.184175
  21 H :    0.281835
  22 H :    0.304582
  23 H :    0.443873
  24 C :   -0.260761
  25 H :    0.261550
  26 H :    0.781291
  27 H :    0.627704
  28 C :    1.586982
  29 H :    0.179896
  30 H :    0.431415
  31 C :    0.401583
  32 C :   -0.689458
  33 C :    0.066869
  34 C :   -0.172332
  35 H :    0.194733
  36 C :   -0.553099
  37 H :    0.347590
  38 C :    0.140194
  39 H :    0.080033
  40 H :    0.074642
  41 O :   -1.035161
  42 C :    0.319461
  43 H :    0.448519
  44 H :    0.252756
  45 C :   -0.908669
  46 H :    0.270303
  47 H :    0.353757
  48 H :    0.236163
  49 C :   -1.056654
  50 H :    0.336793
  51 H :    0.216439
  52 H :    0.323221
  53 N :   -0.305414
  54 C :    1.123387
  55 C :   -0.906185
  56 H :    0.249577
  57 H :    0.254874
  58 H :    0.260315
  59 O :   -0.983720
  60 H :   -0.091597
Sum of atomic charges:    1.0000000

LOEWDIN ATOMIC CHARGES
----------------------
   0 C :   -0.350936
   1 C :   -0.371912
   2 C :    0.526975
   3 C :    0.047586
   4 C :    0.562783
   5 H :   -0.346337
   6 H :   -0.243550
   7 H :   -0.294785
   8 H :   -0.310706
   9 H :   -0.273530
  10 N :    0.191062
  11 O :    1.106053
  12 C :    0.954407
  13 H :   -0.252717
  14 H :   -0.250731
  15 H :   -0.329381
  16 C :    0.916290
  17 H :   -0.258625
  18 H :   -0.247319
  19 H :   -0.339574
  20 C :    0.945567
  21 H :   -0.270785
  22 H :   -0.253501
  23 H :   -0.267108
  24 C :    0.936478
  25 H :   -0.250823
  26 H :   -0.284848
  27 H :   -0.294067
  28 C :    0.007023
  29 H :   -0.269961
  30 H :   -0.922615
  31 C :   -0.064774
  32 C :    0.361244
  33 C :    0.364411
  34 C :    0.388805
  35 H :   -0.303327
  36 C :    0.382461
  37 H :   -0.320879
  38 C :    0.381514
  39 H :   -0.301124
  40 H :   -0.303992
  41 O :    0.985817
  42 C :   -0.168368
  43 H :   -0.293570
  44 H :   -0.297796
  45 C :    0.942296
  46 H :   -0.270148
  47 H :   -0.266276
  48 H :   -0.276294
  49 C :    0.933719
  50 H :   -0.272843
  51 H :   -0.273476
  52 H :   -0.269970
  53 N :    0.888171
  54 C :   -0.795148
  55 C :    0.919785
  56 H :   -0.303475
  57 H :   -0.287736
  58 H :   -0.288701
  59 O :    0.776762
  60 H :   -0.477501

  Mayer bond orders larger than 0.100000
B(  0-C ,  1-C ) :   2.2362 B(  0-C ,  2-C ) :  -5.1181 B(  0-C ,  3-C ) :   7.9514
B(  0-C ,  4-C ) :  -5.2316 B(  0-C ,  5-H ) :  -1.2027 B(  0-C ,  6-H ) :  -2.0310
B(  0-C ,  7-H ) :   1.5771 B(  0-C ,  8-H ) :  -0.3243 B(  0-C ,  9-H ) :  -3.1593
B(  0-C , 10-N ) :  19.3920 B(  0-C , 11-O ) :  -4.8571 B(  0-C , 12-C ) :  -0.4993
B(  0-C , 13-H ) :  -0.4821 B(  0-C , 14-H ) :  -0.9341 B(  0-C , 15-H ) :  -0.7999
B(  0-C , 16-C ) :  -1.9262 B(  0-C , 17-H ) :  -1.3114 B(  0-C , 18-H ) :  -0.4853
B(  0-C , 19-H ) :  -1.9489 B(  0-C , 20-C ) :  -0.2148 B(  0-C , 21-H ) :  -0.2375
B(  0-C , 22-H ) :  -0.1336 B(  0-C , 23-H ) :  -0.4547 B(  0-C , 24-C ) :  -1.7295
B(  0-C , 25-H ) :  -0.5955 B(  0-C , 26-H ) :  -1.6403 B(  0-C , 27-H ) :  -0.9373
B(  0-C , 28-C ) :   0.2894 B(  0-C , 29-H ) :  -0.3258 B(  0-C , 30-H ) :  -1.0009
B(  0-C , 31-C ) :   0.5328 B(  0-C , 32-C ) :  -0.6184 B(  0-C , 33-C ) :  -1.0213
B(  0-C , 35-H ) :  -0.1269 B(  0-C , 37-H ) :  -0.3391 B(  0-C , 41-O ) :  -0.3037
B(  0-C , 42-C ) :  -0.1196 B(  0-C , 43-H ) :  -0.1810 B(  0-C , 53-N ) :  -0.9727
B(  0-C , 54-C ) :  -1.0329 B(  0-C , 55-C ) :  -0.2340 B(  0-C , 59-O ) :   0.1610
B(  0-C , 60-H ) :  -0.4296 B(  1-C ,  2-C ) :  -0.4441 B(  1-C ,  3-C ) :   0.8803
B(  1-C ,  4-C ) :  -1.0345 B(  1-C ,  5-H ) :  -0.1782 B(  1-C ,  6-H ) :  -0.2076
B(  1-C ,  7-H ) :   0.1160 B(  1-C ,  8-H ) :  -0.1677 B(  1-C ,  9-H ) :  -0.6638
B(  1-C , 10-N ) :   4.0086 B(  1-C , 11-O ) :  -0.8454 B(  1-C , 12-C ) :  -0.4750
B(  1-C , 16-C ) :  -0.2194 B(  1-C , 20-C ) :  -0.8296 B(  1-C , 21-H ) :  -0.4511
B(  1-C , 22-H ) :  -0.3178 B(  1-C , 23-H ) :  -0.2989 B(  1-C , 25-H ) :   0.1316
B(  1-C , 26-H ) :  -0.7499 B(  1-C , 27-H ) :  -0.4935 B(  1-C , 28-C ) :  -0.3792
B(  1-C , 30-H ) :  -0.5139 B(  1-C , 31-C ) :   0.3627 B(  1-C , 33-C ) :  -0.1443
B(  1-C , 34-C ) :  -0.1584 B(  1-C , 37-H ) :  -0.1134 B(  1-C , 41-O ) :   0.1109
B(  1-C , 42-C ) :  -0.2357 B(  1-C , 44-H ) :  -0.1036 B(  1-C , 53-N ) :  -0.1088
B(  1-C , 54-C ) :  -0.2033 B(  1-C , 60-H ) :  -0.1342 B(  2-C ,  3-C ) :  -1.7033
B(  2-C ,  4-C ) :   2.0311 B(  2-C ,  5-H ) :   1.0795 B(  2-C ,  6-H ) :   1.3573
B(  2-C ,  7-H ) :  -1.3057 B(  2-C ,  9-H ) :   1.8585 B(  2-C , 10-N ) :  -7.1694
B(  2-C , 11-O ) :   1.4475 B(  2-C , 12-C ) :   0.5422 B(  2-C , 13-H ) :   0.1569
B(  2-C , 14-H ) :   0.2814 B(  2-C , 15-H ) :   0.2018 B(  2-C , 16-C ) :   0.6410
B(  2-C , 17-H ) :   0.2241 B(  2-C , 19-H ) :   0.6346 B(  2-C , 24-C ) :   0.4847
B(  2-C , 25-H ) :   0.1653 B(  2-C , 26-H ) :   0.3910 B(  2-C , 27-H ) :   0.4644
B(  2-C , 28-C ) :   0.4198 B(  2-C , 29-H ) :   0.2620 B(  2-C , 30-H ) :   0.4998
B(  2-C , 31-C ) :  -0.6718 B(  2-C , 32-C ) :   0.1357 B(  2-C , 33-C ) :   0.5037
B(  2-C , 37-H ) :   0.1366 B(  2-C , 41-O ) :  -0.1567 B(  2-C , 42-C ) :   0.3798
B(  2-C , 50-H ) :   0.1079 B(  2-C , 54-C ) :   0.1539 B(  2-C , 59-O ) :  -0.1353
B(  3-C ,  4-C ) :  -2.5325 B(  3-C ,  5-H ) :  -0.8129 B(  3-C ,  6-H ) :  -1.0899
B(  3-C ,  7-H ) :   3.6624 B(  3-C ,  8-H ) :  -0.2809 B(  3-C ,  9-H ) :  -2.3401
B(  3-C , 10-N ) :   8.5494 B(  3-C , 11-O ) :  -1.5963 B(  3-C , 12-C ) :  -0.6562
B(  3-C , 13-H ) :  -0.1121 B(  3-C , 14-H ) :  -0.1613 B(  3-C , 15-H ) :  -0.2627
B(  3-C , 16-C ) :  -0.8930 B(  3-C , 17-H ) :  -0.1956 B(  3-C , 19-H ) :  -0.7099
B(  3-C , 20-C ) :  -0.2763 B(  3-C , 23-H ) :  -0.1648 B(  3-C , 24-C ) :  -1.6197
B(  3-C , 25-H ) :  -0.4371 B(  3-C , 26-H ) :  -0.5367 B(  3-C , 27-H ) :  -1.1309
B(  3-C , 30-H ) :   0.1420 B(  3-C , 31-C ) :   0.8500 B(  3-C , 32-C ) :  -0.1478
B(  3-C , 33-C ) :  -0.8690 B(  3-C , 36-C ) :  -0.1041 B(  3-C , 37-H ) :  -0.3025
B(  3-C , 38-C ) :  -0.1219 B(  3-C , 41-O ) :  -0.4125 B(  3-C , 42-C ) :  -0.2742
B(  3-C , 43-H ) :  -0.1229 B(  3-C , 53-N ) :  -1.1780 B(  3-C , 54-C ) :  -0.5926
B(  3-C , 59-O ) :   0.1689 B(  3-C , 60-H ) :  -0.5065 B(  4-C ,  5-H ) :   0.7642
B(  4-C ,  6-H ) :   0.9225 B(  4-C ,  7-H ) :  -0.9959 B(  4-C ,  8-H ) :   1.5087
B(  4-C ,  9-H ) :   1.0531 B(  4-C , 10-N ) :  -7.5987 B(  4-C , 11-O ) :   1.9169
B(  4-C , 12-C ) :   0.2848 B(  4-C , 14-H ) :   0.1900 B(  4-C , 15-H ) :   0.3008
B(  4-C , 16-C ) :   0.7070 B(  4-C , 17-H ) :   0.3146 B(  4-C , 19-H ) :   1.1647
B(  4-C , 20-C ) :   0.2170 B(  4-C , 23-H ) :   0.1871 B(  4-C , 24-C ) :   0.8721
B(  4-C , 25-H ) :   0.2933 B(  4-C , 26-H ) :   0.5970 B(  4-C , 27-H ) :   0.7362
B(  4-C , 28-C ) :   0.1096 B(  4-C , 30-H ) :   0.7207 B(  4-C , 31-C ) :  -0.9249
B(  4-C , 33-C ) :   0.6725 B(  4-C , 36-C ) :   0.2501 B(  4-C , 37-H ) :   0.1017
B(  4-C , 41-O ) :   0.2081 B(  4-C , 42-C ) :   0.2100 B(  4-C , 53-N ) :   0.5704
B(  4-C , 59-O ) :  -0.3524 B(  5-H ,  7-H ) :  -0.3644 B(  5-H ,  9-H ) :   0.5813
B(  5-H , 10-N ) :  -1.6637 B(  5-H , 11-O ) :   0.5781 B(  5-H , 16-C ) :   0.2019
B(  5-H , 24-C ) :   0.1724 B(  5-H , 30-H ) :   0.1646 B(  5-H , 53-N ) :   0.3224
B(  6-H ,  7-H ) :  -0.3970 B(  6-H ,  9-H ) :   0.4572 B(  6-H , 10-N ) :  -1.5288
B(  6-H , 11-O ) :   0.3871 B(  6-H , 12-C ) :   0.2880 B(  6-H , 14-H ) :   0.1273
B(  6-H , 16-C ) :   0.1784 B(  6-H , 19-H ) :   0.1616 B(  6-H , 24-C ) :   0.2134
B(  6-H , 26-H ) :   0.1815 B(  6-H , 27-H ) :   0.1982 B(  6-H , 30-H ) :   0.3354
B(  6-H , 31-C ) :  -0.2320 B(  6-H , 33-C ) :   0.1032 B(  6-H , 53-N ) :   0.3184
B(  7-H ,  9-H ) :  -0.5253 B(  7-H , 10-N ) :   1.8085 B(  7-H , 11-O ) :  -0.2387
B(  7-H , 12-C ) :  -0.1542 B(  7-H , 19-H ) :  -0.1647 B(  7-H , 24-C ) :  -0.3072
B(  7-H , 25-H ) :  -0.1324 B(  7-H , 27-H ) :  -0.3054 B(  7-H , 30-H ) :  -0.1446
B(  7-H , 31-C ) :   0.2903 B(  7-H , 33-C ) :  -0.1522 B(  7-H , 34-C ) :   0.1234
B(  7-H , 36-C ) :  -0.2022 B(  7-H , 41-O ) :  -0.2088 B(  7-H , 42-C ) :  -0.1084
B(  7-H , 53-N ) :  -0.1836 B(  7-H , 54-C ) :  -0.1781 B(  8-H ,  9-H ) :  -0.4079
B(  8-H , 10-N ) :  -0.5345 B(  8-H , 16-C ) :   0.1003 B(  8-H , 19-H ) :   0.1817
B(  8-H , 31-C ) :  -0.2406 B(  8-H , 33-C ) :   0.1877 B(  8-H , 59-O ) :   0.2005
B(  9-H , 10-N ) :  -4.9793 B(  9-H , 11-O ) :   1.3284 B(  9-H , 12-C ) :   0.3611
B(  9-H , 14-H ) :   0.1153 B(  9-H , 15-H ) :   0.2065 B(  9-H , 16-C ) :   0.3108
B(  9-H , 17-H ) :   0.2387 B(  9-H , 19-H ) :   0.4184 B(  9-H , 24-C ) :   0.5927
B(  9-H , 25-H ) :   0.1460 B(  9-H , 26-H ) :   0.3968 B(  9-H , 27-H ) :   0.4589
B(  9-H , 28-C ) :   0.1272 B(  9-H , 30-H ) :   0.6624 B(  9-H , 31-C ) :  -0.5690
B(  9-H , 33-C ) :   0.1914 B(  9-H , 36-C ) :  -0.1142 B(  9-H , 41-O ) :   0.1930
B(  9-H , 53-N ) :   0.3186 B(  9-H , 54-C ) :   0.3106 B(  9-H , 60-H ) :   0.1972
B( 10-N , 11-O ) :  -9.0988 B( 10-N , 12-C ) :  -1.5429 B( 10-N , 13-H ) :  -0.5462
B( 10-N , 14-H ) :  -1.2350 B( 10-N , 15-H ) :  -1.0706 B( 10-N , 16-C ) :  -3.7702
B( 10-N , 17-H ) :  -1.1038 B( 10-N , 18-H ) :  -0.2108 B( 10-N , 19-H ) :  -0.9909
B( 10-N , 20-C ) :   1.6027 B( 10-N , 22-H ) :  -0.2382 B( 10-N , 23-H ) :  -0.6079
B( 10-N , 24-C ) :  -3.5276 B( 10-N , 25-H ) :  -1.0458 B( 10-N , 26-H ) :  -2.8357
B( 10-N , 27-H ) :  -1.8292 B( 10-N , 28-C ) :  -0.4353 B( 10-N , 29-H ) :  -0.6558
B( 10-N , 30-H ) :  -4.5981 B( 10-N , 31-C ) :   2.1640 B( 10-N , 32-C ) :  -0.6298
B( 10-N , 33-C ) :  -1.1672 B( 10-N , 36-C ) :   0.2742 B( 10-N , 37-H ) :  -0.7883
B( 10-N , 39-H ) :  -0.1369 B( 10-N , 41-O ) :   0.6570 B( 10-N , 42-C ) :  -0.6067
B( 10-N , 45-C ) :  -0.2578 B( 10-N , 46-H ) :  -0.1669 B( 10-N , 50-H ) :  -0.3035
B( 10-N , 51-H ) :  -0.1182 B( 10-N , 52-H ) :  -0.1225 B( 10-N , 53-N ) :  -0.9514
B( 10-N , 54-C ) :  -0.4635 B( 10-N , 55-C ) :  -0.2864 B( 10-N , 60-H ) :  -0.1749
B( 11-O , 12-C ) :   0.1658 B( 11-O , 13-H ) :   0.1478 B( 11-O , 14-H ) :   0.1979
B( 11-O , 15-H ) :   0.3642 B( 11-O , 16-C ) :   0.8034 B( 11-O , 17-H ) :   0.1923
B( 11-O , 19-H ) :   0.4906 B( 11-O , 20-C ) :  -0.6484 B( 11-O , 23-H ) :   0.1743
B( 11-O , 24-C ) :   0.9849 B( 11-O , 25-H ) :   0.3510 B( 11-O , 26-H ) :   0.6408
B( 11-O , 27-H ) :   0.3812 B( 11-O , 29-H ) :   0.1994 B( 11-O , 30-H ) :   1.6209
B( 11-O , 31-C ) :  -0.5770 B( 11-O , 32-C ) :   0.2712 B( 11-O , 33-C ) :   0.4768
B( 11-O , 36-C ) :  -0.1675 B( 11-O , 37-H ) :   0.3369 B( 11-O , 42-C ) :   0.1520
B( 11-O , 45-C ) :   0.1643 B( 11-O , 50-H ) :   0.1072 B( 11-O , 53-N ) :   0.1247
B( 12-C , 13-H ) :   1.2226 B( 12-C , 14-H ) :   1.2554 B( 12-C , 15-H ) :   0.7640
B( 12-C , 16-C ) :  -0.3146 B( 12-C , 24-C ) :   0.2537 B( 12-C , 26-H ) :   0.1671
B( 12-C , 28-C ) :   0.1001 B( 12-C , 41-O ) :  -0.1023 B( 13-H , 19-H ) :   0.1011
B( 14-H , 30-H ) :   0.1231 B( 15-H , 16-C ) :   0.1662 B( 15-H , 30-H ) :   0.1240
B( 15-H , 31-C ) :  -0.1734 B( 15-H , 33-C ) :   0.1183 B( 16-C , 17-H ) :   0.9120
B( 16-C , 18-H ) :   1.4613 B( 16-C , 19-H ) :   1.0713 B( 16-C , 24-C ) :   0.2028
B( 16-C , 26-H ) :   0.1793 B( 16-C , 31-C ) :  -0.2245 B( 16-C , 33-C ) :   0.2094
B( 16-C , 55-C ) :   0.1022 B( 17-H , 26-H ) :   0.1324 B( 17-H , 31-C ) :  -0.1204
B( 17-H , 33-C ) :   0.1269 B( 18-H , 33-C ) :   0.1422 B( 19-H , 24-C ) :   0.1446
B( 19-H , 26-H ) :   0.3270 B( 19-H , 28-C ) :  -0.2234 B( 19-H , 31-C ) :   0.8332
B( 19-H , 33-C ) :  -0.3233 B( 19-H , 34-C ) :  -0.3289 B( 19-H , 54-C ) :   0.1704
B( 20-C , 21-H ) :   1.2008 B( 20-C , 22-H ) :   1.1217 B( 20-C , 23-H ) :   0.9470
B( 20-C , 24-C ) :  -0.1552 B( 20-C , 28-C ) :  -0.2605 B( 20-C , 30-H ) :  -0.1733
B( 20-C , 31-C ) :  -0.3416 B( 20-C , 32-C ) :   0.1363 B( 20-C , 36-C ) :  -0.1051
B( 23-H , 24-C ) :   0.1130 B( 23-H , 30-H ) :   0.1016 B( 24-C , 25-H ) :   0.9268
B( 24-C , 26-H ) :   0.8615 B( 24-C , 27-H ) :   1.1086 B( 24-C , 28-C ) :   0.1068
B( 24-C , 30-H ) :   0.7390 B( 24-C , 53-N ) :   0.3082 B( 24-C , 54-C ) :   0.1533
B( 25-H , 30-H ) :   0.2008 B( 25-H , 53-N ) :   0.1233 B( 26-H , 27-H ) :   0.1900
B( 26-H , 30-H ) :   0.2638 B( 26-H , 33-C ) :   0.1722 B( 26-H , 37-H ) :   0.1464
B( 27-H , 53-N ) :   0.1771 B( 28-C , 29-H ) :   1.4831 B( 28-C , 30-H ) :   0.9745
B( 28-C , 31-C ) :   0.2850 B( 28-C , 32-C ) :  -0.6534 B( 28-C , 33-C ) :  -1.2251
B( 28-C , 35-H ) :   0.1143 B( 28-C , 38-C ) :  -0.1294 B( 28-C , 41-O ) :   0.1493
B( 28-C , 42-C ) :  -0.6398 B( 28-C , 43-H ) :  -0.1476 B( 28-C , 45-C ) :  -0.1308
B( 28-C , 49-C ) :  -0.1910 B( 29-H , 31-C ) :  -0.3510 B( 30-H , 31-C ) :  -0.2300
B( 30-H , 32-C ) :  -0.3015 B( 30-H , 42-C ) :   0.1591 B( 30-H , 53-N ) :  -0.2944
B( 30-H , 54-C ) :  -0.2523 B( 30-H , 59-O ) :  -0.1321 B( 30-H , 60-H ) :  -0.1265
B( 31-C , 32-C ) :   1.1010 B( 31-C , 33-C ) :   0.7832 B( 31-C , 34-C ) :  -0.6383
B( 31-C , 35-H ) :  -0.2077 B( 31-C , 36-C ) :  -0.1976 B( 31-C , 37-H ) :  -0.5369
B( 31-C , 41-O ) :  -0.4607 B( 31-C , 42-C ) :  -0.1073 B( 31-C , 54-C ) :  -0.1220
B( 31-C , 59-O ) :   0.1169 B( 32-C , 34-C ) :   1.2132 B( 32-C , 35-H ) :   1.1155
B( 32-C , 39-H ) :  -0.2436 B( 32-C , 41-O ) :  -0.4244 B( 33-C , 36-C ) :   1.1832
B( 33-C , 37-H ) :   0.9810 B( 33-C , 38-C ) :  -0.2556 B( 33-C , 40-H ) :  -0.1282
B( 33-C , 42-C ) :   0.1126 B( 33-C , 54-C ) :   0.1912 B( 33-C , 55-C ) :   0.1065
B( 34-C , 35-H ) :  -0.2086 B( 34-C , 36-C ) :   0.1354 B( 34-C , 38-C ) :   0.9704
B( 34-C , 39-H ) :   1.3910 B( 34-C , 41-O ) :   0.1663 B( 34-C , 44-H ) :  -0.1639
B( 35-H , 41-O ) :  -0.1127 B( 36-C , 37-H ) :  -0.2992 B( 36-C , 38-C ) :   0.8710
B( 36-C , 40-H ) :   1.4168 B( 36-C , 44-H ) :  -0.2113 B( 36-C , 54-C ) :  -0.1012
B( 38-C , 39-H ) :  -0.1769 B( 38-C , 40-H ) :  -0.1975 B( 38-C , 44-H ) :   1.2431
B( 38-C , 54-C ) :   0.1345 B( 41-O , 42-C ) :   1.2712 B( 42-C , 43-H ) :   0.7751
B( 42-C , 45-C ) :   0.4664 B( 42-C , 48-H ) :  -0.1362 B( 42-C , 49-C ) :   0.4942
B( 42-C , 50-H ) :  -0.1443 B( 42-C , 51-H ) :  -0.1088 B( 42-C , 52-H ) :  -0.1402
B( 45-C , 46-H ) :   1.0039 B( 45-C , 47-H ) :   0.9605 B( 45-C , 48-H ) :   1.0539
B( 49-C , 50-H ) :   0.9840 B( 49-C , 51-H ) :   1.0708 B( 49-C , 52-H ) :   1.0022
B( 53-N , 54-C ) :   1.0691 B( 53-N , 55-C ) :  -0.2115 B( 53-N , 60-H ) :   1.4715
B( 54-C , 55-C ) :   0.4872 B( 54-C , 56-H ) :  -0.2048 B( 54-C , 57-H ) :  -0.1219
B( 54-C , 58-H ) :  -0.1390 B( 54-C , 59-O ) :   0.8499 B( 54-C , 60-H ) :  -0.1095
B( 55-C , 56-H ) :   1.0626 B( 55-C , 57-H ) :   1.0527 B( 55-C , 58-H ) :   1.0590

MP2 TOTAL ENERGY:    -1154.262955257 Eh
FINAL SINGLE POINT ENERGY     -1154.262955256692

DIPOLE MOMENT
-------------
                                X             Y             Z
Electronic contribution:      1.90367      11.63201      -0.04996
Nuclear contribution   :     -3.22479     -10.94742      -1.55302
                        -----------------------------------------
Total Dipole Moment    :     -1.32113       0.68458      -1.60298
                        -----------------------------------------
Magnitude (a.u.)       :      2.18714
Magnitude (Debye)      :      5.55926

Rotational constants in cm-1:     0.010440     0.004182     0.003540
Rotational constants in MHz :   312.970128   125.381349   106.133585

                             ****ORCA TERMINATED NORMALLY****
TOTAL RUN TIME: 1 days 21 hours 49 minutes 9 seconds 467 msec
