                         Program Version 4.2.1 -  RELEASE  -
|  1> %pal
|  2>  nprocs 32
|  3> end
|  4> !RI-MP2 aug-cc-pVQZ aug-cc-pVQZ/C TightSCF
|  5> %maxcore 4500
|  6> *xyzfile 0 1  02_36TS.xyz
|  7>
|  8>
|  9>                          ****END OF INPUT****

CARTESIAN COORDINATES (ANGSTROEM)
---------------------------------
  C     -0.186078   -0.901891   -0.996871
  C      2.107901   -0.675559   -0.131856
  C     -0.725170   -0.016367   -0.079293
  H     -0.408305   -0.140911    0.945642
  C      2.040664    0.772563    0.033454
  C      1.109034   -1.372213   -0.810246
  C      3.367620    1.507312    0.024764
  H      1.433700   -2.278536   -1.313285
  H     -0.729290   -1.168074   -1.896370
  C      0.844279    2.847550   -0.032773
  C      3.385842   -1.393687    0.008300
  C     -1.993397    0.726438   -0.263512
  H     -1.967086    1.584779    0.418772
  C     -2.230000    1.221034   -1.693127
  H     -1.372129    1.794645   -2.052628
  H     -2.381034    0.395818   -2.391331
  H     -3.112218    1.861603   -1.747759
  N      0.923706    1.409540    0.112774
  Si    -3.456440   -0.322781    0.397448
  C     -4.974351    0.781617    0.443859
  C     -3.761662   -1.785562   -0.732866
  C     -3.044607   -0.915284    2.128220
  H     -4.026528   -1.469106   -1.744418
  H     -4.586225   -2.395112   -0.354072
  H     -2.878414   -2.424182   -0.798900
  H     -5.254273    1.128092   -0.553521
  H     -4.808565    1.661807    1.070306
  H     -5.830774    0.240862    0.855030
  H     -0.202464    3.121133   -0.175502
  H      1.414489    3.238144   -0.882227
  H      1.187342    3.355391    0.874609
  H     -2.787417   -0.081933    2.787274
  H     -2.202178   -1.610510    2.122825
  H     -3.897816   -1.434473    2.572198
  C      4.650933   -0.614839    0.308030
  C      4.395615    0.770110    0.875005
  O      3.455483   -2.602292   -0.137420
  H      3.729398    1.585713   -1.007269
  H      3.234104    2.522910    0.394428
  H      4.023524    0.693335    1.901604
  H      5.324160    1.343619    0.917336
  H      5.271519   -1.228973    0.961614
  H      5.187090   -0.532880   -0.645185

 Total Charge           Charge          ....    0
 Multiplicity           Mult            ....    1
 Number of Electrons    NEL             ....  144
 Basis Dimension        Dim             .... 2594

ORBITAL ENERGIES
----------------

  NO   OCC          E(Eh)            E(eV)
   0   2.0000     -68.757025     -1870.9738
   1   2.0000     -20.503063      -557.9167
   2   2.0000     -15.543382      -422.9569
   3   2.0000     -11.303291      -307.5782
   4   2.0000     -11.288326      -307.1710
   5   2.0000     -11.283360      -307.0358
   6   2.0000     -11.250281      -306.1357
   7   2.0000     -11.249098      -306.1035
   8   2.0000     -11.235259      -305.7269
   9   2.0000     -11.231213      -305.6168
  10   2.0000     -11.225153      -305.4519
  11   2.0000     -11.223992      -305.4204
  12   2.0000     -11.221332      -305.3480
  13   2.0000     -11.207412      -304.9692
  14   2.0000     -11.203467      -304.8618
  15   2.0000     -11.201340      -304.8040
  16   2.0000     -11.198600      -304.7294
  17   2.0000     -11.197807      -304.7078
  18   2.0000      -6.106102      -166.1555
  19   2.0000      -4.212609      -114.6309
  20   2.0000      -4.212400      -114.6252
  21   2.0000      -4.212318      -114.6230
  22   2.0000      -1.352619       -36.8066
  23   2.0000      -1.235012       -33.6064
  24   2.0000      -1.113199       -30.2917
  25   2.0000      -1.103224       -30.0203
  26   2.0000      -1.059799       -28.8386
  27   2.0000      -0.994200       -27.0535
  28   2.0000      -0.977507       -26.5993
  29   2.0000      -0.968742       -26.3608
  30   2.0000      -0.942918       -25.6581
  31   2.0000      -0.930340       -25.3159
  32   2.0000      -0.928663       -25.2702
  33   2.0000      -0.901780       -24.5387
  34   2.0000      -0.852510       -23.1980
  35   2.0000      -0.811645       -22.0860
  36   2.0000      -0.761721       -20.7275
  37   2.0000      -0.744601       -20.2616
  38   2.0000      -0.677850       -18.4452
  39   2.0000      -0.673996       -18.3404
  40   2.0000      -0.662087       -18.0163
  41   2.0000      -0.647196       -17.6111
  42   2.0000      -0.630427       -17.1548
  43   2.0000      -0.616806       -16.7841
  44   2.0000      -0.607601       -16.5337
  45   2.0000      -0.597306       -16.2535
  46   2.0000      -0.590577       -16.0704
  47   2.0000      -0.589001       -16.0275
  48   2.0000      -0.576497       -15.6873
  49   2.0000      -0.571915       -15.5626
  50   2.0000      -0.569669       -15.5015
  51   2.0000      -0.567582       -15.4447
  52   2.0000      -0.555240       -15.1088
  53   2.0000      -0.553070       -15.0498
  54   2.0000      -0.545204       -14.8358
  55   2.0000      -0.543114       -14.7789
  56   2.0000      -0.541353       -14.7310
  57   2.0000      -0.535903       -14.5827
  58   2.0000      -0.525151       -14.2901
  59   2.0000      -0.515905       -14.0385
  60   2.0000      -0.504115       -13.7177
  61   2.0000      -0.491268       -13.3681
  62   2.0000      -0.481964       -13.1149
  63   2.0000      -0.468943       -12.7606
  64   2.0000      -0.459974       -12.5165
  65   2.0000      -0.436300       -11.8723
  66   2.0000      -0.434845       -11.8327
  67   2.0000      -0.433968       -11.8089
  68   2.0000      -0.397257       -10.8099
  69   2.0000      -0.385089       -10.4788
  70   2.0000      -0.347526        -9.4567
  71   2.0000      -0.278042        -7.5659
  72   0.0000       0.016746         0.4557
  73   0.0000       0.021767         0.5923
  74   0.0000       0.025954         0.7063
  75   0.0000       0.027699         0.7537
  76   0.0000       0.034077         0.9273

MULLIKEN ATOMIC CHARGES
-----------------------
   0 C :   -0.870144
   1 C :   -0.642164
   2 C :    0.449359
   3 H :    0.484040
   4 C :    0.966922
   5 C :   -0.002013
   6 C :   -0.569215
   7 H :    0.204129
   8 H :    0.182981
   9 C :   -1.217431
  10 C :    1.479936
  11 C :   -0.201622
  12 H :    0.163039
  13 C :   -1.275154
  14 H :    0.297856
  15 H :    0.183540
  16 H :    0.250262
  17 N :   -0.623848
  18 Si:    1.809713
  19 C :   -1.229523
  20 C :   -1.260407
  21 C :   -1.155865
  22 H :    0.229315
  23 H :    0.292065
  24 H :    0.285874
  25 H :    0.254596
  26 H :    0.284573
  27 H :    0.326964
  28 H :    0.414219
  29 H :    0.343161
  30 H :    0.336705
  31 H :    0.249993
  32 H :    0.248452
  33 H :    0.299487
  34 C :   -0.710238
  35 C :   -0.613123
  36 O :   -1.027855
  37 H :    0.279461
  38 H :    0.208753
  39 H :    0.183788
  40 H :    0.266273
  41 H :    0.259729
  42 H :    0.163415
Sum of atomic charges:    0.0000000

LOEWDIN ATOMIC CHARGES
----------------------
   0 C :    0.374995
   1 C :   -0.074481
   2 C :    0.195365
   3 H :   -0.343854
   4 C :   -0.265945
   5 C :    0.331842
   6 C :    0.505380
   7 H :   -0.344124
   8 H :   -0.329582
   9 C :    0.716681
  10 C :   -0.681930
  11 C :    0.197649
  12 H :   -0.335355
  13 C :    0.888168
  14 H :   -0.269217
  15 H :   -0.294173
  16 H :   -0.275526
  17 N :    0.608165
  18 Si:    0.172700
  19 C :    1.002895
  20 C :    1.004174
  21 C :    1.006768
  22 H :   -0.332523
  23 H :   -0.329094
  24 H :   -0.339326
  25 H :   -0.338421
  26 H :   -0.330162
  27 H :   -0.332690
  28 H :   -0.327410
  29 H :   -0.287774
  30 H :   -0.288098
  31 H :   -0.327036
  32 H :   -0.334166
  33 H :   -0.330603
  34 C :    0.485322
  35 C :    0.525217
  36 O :    0.736416
  37 H :   -0.243772
  38 H :   -0.325504
  39 H :   -0.254305
  40 H :   -0.254788
  41 H :   -0.288033
  42 H :   -0.273846

  Mayer bond orders larger than 0.100000
B(  0-C ,  2-C ) :   1.1914 B(  0-C ,  3-H ) :  -0.1216 B(  0-C ,  4-C ) :   0.1076
B(  0-C ,  5-C ) :   1.4897 B(  0-C ,  7-H ) :  -0.1256 B(  0-C ,  8-H ) :   1.0094
B(  0-C , 18-Si) :  -0.1147 B(  1-C ,  2-C ) :   0.1764 B(  1-C ,  4-C ) :   1.0187
B(  1-C ,  5-C ) :   0.7291 B(  1-C ,  6-C ) :  -0.1015 B(  1-C , 10-C ) :   0.8308
B(  1-C , 34-C ) :  -0.2684 B(  1-C , 36-O ) :   0.7598 B(  2-C ,  3-H ) :   0.7259
B(  2-C ,  4-C ) :  -0.1199 B(  2-C ,  5-C ) :  -0.6092 B(  2-C ,  8-H ) :   0.1388
B(  2-C , 11-C ) :   1.0807 B(  2-C , 12-H ) :   0.1755 B(  2-C , 17-N ) :   0.1716
B(  4-C ,  6-C ) :   0.3142 B(  4-C , 10-C ) :  -0.1030 B(  4-C , 17-N ) :   1.4089
B(  4-C , 35-C ) :  -0.2241 B(  4-C , 38-H ) :  -0.1505 B(  5-C ,  7-H ) :   1.0558
B(  5-C ,  8-H ) :  -0.1782 B(  5-C , 10-C ) :  -0.2503 B(  5-C , 36-O ) :  -0.1331
B(  6-C , 17-N ) :   0.1186 B(  6-C , 35-C ) :   1.0173 B(  6-C , 37-H ) :   0.9186
B(  6-C , 38-H ) :   1.0870 B(  9-C , 11-C ) :  -0.1197 B(  9-C , 17-N ) :   1.0211
B(  9-C , 28-H ) :   0.8484 B(  9-C , 29-H ) :   0.9205 B(  9-C , 30-H ) :   0.9260
B( 10-C , 34-C ) :   1.0955 B( 10-C , 35-C ) :  -0.1085 B( 10-C , 36-O ) :   0.1049
B( 11-C , 12-H ) :   1.0050 B( 11-C , 15-H ) :  -0.2690 B( 11-C , 16-H ) :  -0.1454
B( 11-C , 18-Si) :   0.4662 B( 11-C , 20-C ) :   0.1540 B( 13-C , 14-H ) :   1.0420
B( 13-C , 15-H ) :   1.1692 B( 13-C , 16-H ) :   1.1016 B( 18-Si, 19-C ) :   0.7475
B( 18-Si, 20-C ) :   0.4864 B( 18-Si, 21-C ) :   0.7150 B( 19-C , 25-H ) :   0.9849
B( 19-C , 26-H ) :   0.9848 B( 19-C , 27-H ) :   0.9709 B( 20-C , 22-H ) :   1.0004
B( 20-C , 23-H ) :   1.0058 B( 20-C , 24-H ) :   0.9580 B( 21-C , 31-H ) :   0.9727
B( 21-C , 32-H ) :   1.0017 B( 21-C , 33-H ) :   1.0175 B( 34-C , 35-C ) :   1.0512
B( 34-C , 36-O ) :   0.2531 B( 34-C , 41-H ) :   0.9819 B( 34-C , 42-H ) :   0.9908
B( 35-C , 39-H ) :   0.9675 B( 35-C , 40-H ) :   0.9542

MP2 TOTAL ENERGY:    -1004.397343514 Eh
FINAL SINGLE POINT ENERGY     -1004.397343514371

DIPOLE MOMENT
-------------
                                X             Y             Z
Electronic contribution:     14.79734      -8.05071      -0.15685
Nuclear contribution   :    -15.77719      10.00853       0.23973
                        -----------------------------------------
Total Dipole Moment    :     -0.97984       1.95782       0.08288
                        -----------------------------------------
Magnitude (a.u.)       :      2.19089
Magnitude (Debye)      :      5.56880

Rotational constants in cm-1:     0.024300     0.006430     0.005731
Rotational constants in MHz :   728.505226   192.767504   171.823283

                             ****ORCA TERMINATED NORMALLY****
TOTAL RUN TIME: 0 days 9 hours 43 minutes 10 seconds 152 msec
