                         Program Version 4.2.1 -  RELEASE  -
|  1> %pal
|  2>  nprocs 32
|  3> end
|  4> !RI-MP2 aug-cc-pVQZ aug-cc-pVQZ/C TightSCF
|  5> %maxcore 4500
|  6> *xyzfile 0 1  02_47R2.xyz
|  7>
|  8>
|  9>                          ****END OF INPUT****

CARTESIAN COORDINATES (ANGSTROEM)
---------------------------------
  C      0.000000    0.701249    1.050981
  C      0.000000    1.453649   -0.132376
  C      0.000000    0.618142   -1.229546
  C      0.000000   -0.618142   -1.229546
  C      0.000000   -1.453649   -0.132376
  C      0.000000   -0.701249    1.050981
  H      0.000000    1.224207    2.000751
  H      0.000000    2.534858   -0.135101
  H      0.000000   -2.534858   -0.135101
  H      0.000000   -1.224207    2.000751

 Total Charge           Charge          ....    0
 Multiplicity           Mult            ....    1
 Number of Electrons    NEL             ....   40
 Basis Dimension        Dim             ....  664

ORBITAL ENERGIES
----------------

  NO   OCC          E(Eh)            E(eV)
   0   2.0000     -11.273371      -306.7640
   1   2.0000     -11.273358      -306.7637
   2   2.0000     -11.252532      -306.1970
   3   2.0000     -11.251357      -306.1650
   4   2.0000     -11.247897      -306.0708
   5   2.0000     -11.244676      -305.9832
   6   2.0000      -1.179640       -32.0996
   7   2.0000      -1.033105       -28.1122
   8   2.0000      -1.018937       -27.7267
   9   2.0000      -0.850950       -23.1555
  10   2.0000      -0.796521       -21.6744
  11   2.0000      -0.695788       -18.9334
  12   2.0000      -0.646933       -17.6039
  13   2.0000      -0.637803       -17.3555
  14   2.0000      -0.555466       -15.1150
  15   2.0000      -0.549479       -14.9521
  16   2.0000      -0.532519       -14.4906
  17   2.0000      -0.377388       -10.2692
  18   2.0000      -0.358208        -9.7473
  19   2.0000      -0.356015        -9.6877
  20   0.0000       0.024548         0.6680
  21   0.0000       0.028225         0.7680
  22   0.0000       0.034124         0.9286
  23   0.0000       0.041435         1.1275
  24   0.0000       0.058587         1.5942

MULLIKEN ATOMIC CHARGES
-----------------------
   0 C :   -0.332077
   1 C :   -0.239433
   2 C :   -0.267033
   3 C :   -0.267033
   4 C :   -0.239433
   5 C :   -0.332076
   6 H :    0.289356
   7 H :    0.549187
   8 H :    0.549187
   9 H :    0.289356
Sum of atomic charges:   -0.0000000

LOEWDIN ATOMIC CHARGES
----------------------
   0 C :    0.290062
   1 C :    0.255525
   2 C :    0.120302
   3 C :    0.120302
   4 C :    0.255525
   5 C :    0.290062
   6 H :   -0.325738
   7 H :   -0.340151
   8 H :   -0.340151
   9 H :   -0.325738

  Mayer bond orders larger than 0.100000
B(  0-C ,  1-C ) :   1.3077 B(  0-C ,  3-C ) :   0.1565 B(  0-C ,  5-C ) :   1.1590
B(  0-C ,  6-H ) :   1.0214 B(  0-C ,  9-H ) :  -0.1037 B(  1-C ,  2-C ) :   1.2804
B(  1-C ,  7-H ) :   0.6890 B(  2-C ,  3-C ) :   2.5914 B(  2-C ,  5-C ) :   0.1565
B(  3-C ,  4-C ) :   1.2804 B(  4-C ,  5-C ) :   1.3077 B(  4-C ,  8-H ) :   0.6890
B(  5-C ,  6-H ) :  -0.1037 B(  5-C ,  9-H ) :   1.0214

MP2 TOTAL ENERGY:     -230.490148379 Eh
FINAL SINGLE POINT ENERGY      -230.490148379443

DIPOLE MOMENT
-------------
                                X             Y             Z
Electronic contribution:     -0.00000       0.00000      -2.96695
Nuclear contribution   :      0.00000      -0.00000       3.68349
                        -----------------------------------------
Total Dipole Moment    :     -0.00000       0.00000       0.71654
                        -----------------------------------------
Magnitude (a.u.)       :      0.71654
Magnitude (Debye)      :      1.82129

Rotational constants in cm-1:     0.236775     0.192159     0.106073
Rotational constants in MHz :  7098.333285  5760.783620  3179.997695

                             ****ORCA TERMINATED NORMALLY****
TOTAL RUN TIME: 0 days 0 hours 6 minutes 20 seconds 516 msec
