                         Program Version 4.2.1 -  RELEASE  -
|  1> %pal
|  2>  nprocs 32
|  3> end
|  4> !RI-MP2 aug-cc-pVQZ aug-cc-pVQZ/C TightSCF
|  5> %maxcore 4500
|  6> *xyzfile 0 1  10_21TS.xyz
|  7>
|  8>
|  9>                          ****END OF INPUT****

CARTESIAN COORDINATES (ANGSTROEM)
---------------------------------
  C     -0.553883   -0.527707   -1.162727
  C     -1.689217   -1.209207   -0.765510
  C      1.081114   -1.521433   -0.246659
  H     -2.016061   -1.982947   -1.456256
  N      0.325807   -2.519859    0.262895
  N     -0.797217   -2.811966    0.303128
  C      2.037520   -0.826841    0.610016
  C      1.979615   -0.962229    1.999641
  C      2.931198    0.087919    0.051918
  C      2.791548   -0.190043    2.810608
  H      1.300914   -1.681025    2.443150
  C      3.735937    0.863991    0.870157
  H      2.995434    0.197822   -1.022493
  C      3.669249    0.730051    2.249210
  H      2.741998   -0.307234    3.886262
  H      4.420556    1.575196    0.425095
  H      4.303009    1.334759    2.886096
  C     -2.732102   -0.614259    0.095243
  C     -3.658506    0.462934   -0.436394
  C     -3.059478   -0.957939    1.336696
  C     -4.366168    0.971524    0.831569
  H     -4.361365    0.020205   -1.152394
  H     -3.120766    1.251543   -0.966261
  C     -4.239235   -0.177660    1.852381
  H     -2.571808   -1.740236    1.904331
  H     -5.399673    1.269383    0.652240
  H     -5.134316   -0.810953    1.866246
  C      1.259107   -1.626368   -1.758958
  C     -0.233441    0.896397   -0.945319
  C      0.277887    1.662509   -1.991576
  C     -0.403511    1.488934    0.307284
  C      0.593878    2.999271   -1.793117
  H      0.424078    1.207692   -2.962768
  C     -0.088387    2.823229    0.498886
  H     -0.767916    0.896265    1.134882
  C      0.410519    3.585688   -0.549864
  H      0.985597    3.583180   -2.617351
  H     -0.218358    3.266873    1.478637
  H      0.661924    4.627826   -0.395244
  O      0.125136   -1.128101   -2.283641
  O      2.190560   -2.017928   -2.382535
  H     -4.097865    0.182402    2.874475
  H     -3.832953    1.847688    1.207688

 Total Charge           Charge          ....    0
 Multiplicity           Mult            ....    1
 Number of Electrons    NEL             ....  174
 Basis Dimension        Dim             .... 2828

ORBITAL ENERGIES
----------------

  NO   OCC          E(Eh)            E(eV)
   0   2.0000     -20.618322      -561.0531
   1   2.0000     -20.565719      -559.6217
   2   2.0000     -15.686993      -426.8648
   3   2.0000     -15.675071      -426.5404
   4   2.0000     -11.404571      -310.3342
   5   2.0000     -11.325645      -308.1865
   6   2.0000     -11.315312      -307.9053
   7   2.0000     -11.266048      -306.5647
   8   2.0000     -11.262012      -306.4549
   9   2.0000     -11.254784      -306.2582
  10   2.0000     -11.250847      -306.1511
  11   2.0000     -11.248543      -306.0884
  12   2.0000     -11.247319      -306.0551
  13   2.0000     -11.246023      -306.0198
  14   2.0000     -11.244229      -305.9710
  15   2.0000     -11.239223      -305.8348
  16   2.0000     -11.238963      -305.8277
  17   2.0000     -11.237049      -305.7756
  18   2.0000     -11.236663      -305.7651
  19   2.0000     -11.236100      -305.7498
  20   2.0000     -11.235771      -305.7409
  21   2.0000     -11.225497      -305.4613
  22   2.0000     -11.224532      -305.4350
  23   2.0000     -11.223978      -305.4200
  24   2.0000     -11.221713      -305.3583
  25   2.0000      -1.488616       -40.5073
  26   2.0000      -1.441995       -39.2387
  27   2.0000      -1.395410       -37.9710
  28   2.0000      -1.185298       -32.2536
  29   2.0000      -1.169413       -31.8213
  30   2.0000      -1.148044       -31.2399
  31   2.0000      -1.121830       -30.5265
  32   2.0000      -1.081209       -29.4212
  33   2.0000      -1.033867       -28.1329
  34   2.0000      -1.025407       -27.9027
  35   2.0000      -1.021341       -27.7921
  36   2.0000      -1.020264       -27.7628
  37   2.0000      -0.967975       -26.3399
  38   2.0000      -0.956844       -26.0371
  39   2.0000      -0.893651       -24.3175
  40   2.0000      -0.870375       -23.6841
  41   2.0000      -0.853098       -23.2140
  42   2.0000      -0.839648       -22.8480
  43   2.0000      -0.831083       -22.6149
  44   2.0000      -0.805358       -21.9149
  45   2.0000      -0.794102       -21.6086
  46   2.0000      -0.750446       -20.4207
  47   2.0000      -0.745856       -20.2958
  48   2.0000      -0.725461       -19.7408
  49   2.0000      -0.707412       -19.2497
  50   2.0000      -0.702145       -19.1063
  51   2.0000      -0.681632       -18.5481
  52   2.0000      -0.679512       -18.4905
  53   2.0000      -0.668012       -18.1775
  54   2.0000      -0.654211       -17.8020
  55   2.0000      -0.647729       -17.6256
  56   2.0000      -0.642891       -17.4939
  57   2.0000      -0.638008       -17.3611
  58   2.0000      -0.633804       -17.2467
  59   2.0000      -0.621380       -16.9086
  60   2.0000      -0.617573       -16.8050
  61   2.0000      -0.608183       -16.5495
  62   2.0000      -0.598664       -16.2905
  63   2.0000      -0.591401       -16.0928
  64   2.0000      -0.580715       -15.8021
  65   2.0000      -0.567966       -15.4551
  66   2.0000      -0.556265       -15.1368
  67   2.0000      -0.541427       -14.7330
  68   2.0000      -0.535414       -14.5694
  69   2.0000      -0.525803       -14.3078
  70   2.0000      -0.516223       -14.0472
  71   2.0000      -0.511367       -13.9150
  72   2.0000      -0.509309       -13.8590
  73   2.0000      -0.504505       -13.7283
  74   2.0000      -0.498503       -13.5650
  75   2.0000      -0.494416       -13.4538
  76   2.0000      -0.487930       -13.2772
  77   2.0000      -0.482807       -13.1378
  78   2.0000      -0.479831       -13.0569
  79   2.0000      -0.466290       -12.6884
  80   2.0000      -0.419518       -11.4157
  81   2.0000      -0.375452       -10.2166
  82   2.0000      -0.352824        -9.6008
  83   2.0000      -0.349856        -9.5201
  84   2.0000      -0.341817        -9.3013
  85   2.0000      -0.309248        -8.4151
  86   2.0000      -0.303415        -8.2564
  87   0.0000       0.016773         0.4564
  88   0.0000       0.022821         0.6210
  89   0.0000       0.024112         0.6561
  90   0.0000       0.028785         0.7833
  91   0.0000       0.031991         0.8705

MULLIKEN ATOMIC CHARGES
-----------------------
   0 C :    2.158836
   1 C :   -0.343841
   2 C :    1.121533
   3 H :    0.398464
   4 N :   -0.615534
   5 N :   -0.444302
   6 C :    0.253265
   7 C :   -0.455149
   8 C :   -0.481289
   9 C :   -0.350295
  10 H :    0.163617
  11 C :   -0.403584
  12 H :    0.283016
  13 C :   -0.282903
  14 H :    0.248080
  15 H :    0.235507
  16 H :    0.335454
  17 C :    0.549138
  18 C :   -0.705584
  19 C :   -0.765748
  20 C :   -0.651169
  21 H :    0.274214
  22 H :    0.358086
  23 C :   -0.606010
  24 H :    0.262406
  25 H :    0.303287
  26 H :    0.314019
  27 C :    1.955720
  28 C :    0.082967
  29 C :   -0.593471
  30 C :   -0.350489
  31 C :   -0.489832
  32 H :    0.179130
  33 C :   -0.368440
  34 H :    0.263774
  35 C :   -0.377528
  36 H :    0.181814
  37 H :    0.174792
  38 H :    0.342456
  39 O :   -1.487799
  40 O :   -1.128931
  41 H :    0.266323
  42 H :    0.196004
Sum of atomic charges:    0.0000000

LOEWDIN ATOMIC CHARGES
----------------------
   0 C :   -0.540368
   1 C :    0.165328
   2 C :   -0.436108
   3 H :   -0.329943
   4 N :    0.190808
   5 N :    0.471455
   6 C :   -0.128867
   7 C :    0.336600
   8 C :    0.330560
   9 C :    0.358257
  10 H :   -0.323722
  11 C :    0.366989
  12 H :   -0.327307
  13 C :    0.352139
  14 H :   -0.315683
  15 H :   -0.309916
  16 H :   -0.315905
  17 C :   -0.074645
  18 C :    0.516024
  19 C :    0.399846
  20 C :    0.524315
  21 H :   -0.249346
  22 H :   -0.276174
  23 C :    0.517720
  24 H :   -0.309460
  25 H :   -0.254528
  26 H :   -0.266829
  27 C :   -1.112857
  28 C :   -0.133534
  29 C :    0.341645
  30 C :    0.316876
  31 C :    0.355357
  32 H :   -0.323460
  33 C :    0.364381
  34 H :   -0.320315
  35 C :    0.347999
  36 H :   -0.314939
  37 H :   -0.308937
  38 H :   -0.318792
  39 O :    0.861461
  40 O :    0.714308
  41 H :   -0.270978
  42 H :   -0.269458

  Mayer bond orders larger than 0.100000
B(  0-C ,  1-C ) :   1.6208 B(  0-C ,  2-C ) :   0.1723 B(  0-C ,  5-N ) :  -0.2122
B(  0-C ,  6-C ) :   0.1415 B(  0-C , 17-C ) :  -0.3543 B(  0-C , 27-C ) :  -0.1657
B(  0-C , 28-C ) :   0.1290 B(  0-C , 29-C ) :  -0.3656 B(  0-C , 30-C ) :  -0.2306
B(  0-C , 39-O ) :  -1.6188 B(  0-C , 40-O ) :   0.3226 B(  1-C ,  2-C ) :   0.1126
B(  1-C ,  3-H ) :   0.7692 B(  1-C ,  4-N ) :   0.1391 B(  1-C ,  5-N ) :   0.2786
B(  1-C , 17-C ) :   0.3824 B(  1-C , 19-C ) :  -0.2830 B(  1-C , 28-C ) :  -0.2233
B(  1-C , 39-O ) :   0.5093 B(  2-C ,  4-N ) :  -0.1531 B(  2-C ,  5-N ) :  -0.2953
B(  2-C ,  6-C ) :   0.3076 B(  2-C ,  7-C ) :  -0.4089 B(  2-C ,  8-C ) :  -0.3726
B(  2-C , 27-C ) :   1.2467 B(  2-C , 39-O ) :   0.2440 B(  2-C , 40-O ) :   0.2453
B(  4-N ,  5-N ) :   1.7473 B(  4-N ,  6-C ) :  -0.1799 B(  5-N , 27-C ) :   0.1030
B(  6-C ,  7-C ) :   1.2240 B(  6-C ,  8-C ) :   1.0426 B(  6-C ,  9-C ) :  -0.3067
B(  6-C , 11-C ) :  -0.3144 B(  6-C , 12-H ) :  -0.1141 B(  6-C , 13-C ) :   0.1545
B(  6-C , 27-C ) :  -0.1631 B(  6-C , 40-O ) :   0.1435 B(  7-C ,  9-C ) :   1.2282
B(  7-C , 10-H ) :   1.0277 B(  7-C , 14-H ) :  -0.1337 B(  8-C ,  9-C ) :   0.1031
B(  8-C , 11-C ) :   1.2564 B(  8-C , 12-H ) :   0.9986 B(  8-C , 13-C ) :  -0.1229
B(  9-C , 13-C ) :   1.2011 B(  9-C , 14-H ) :   1.1319 B( 11-C , 13-C ) :   1.1644
B( 11-C , 15-H ) :   1.1375 B( 11-C , 16-H ) :  -0.1060 B( 13-C , 16-H ) :   1.0360
B( 17-C , 18-C ) :   0.7547 B( 17-C , 19-C ) :   1.4907 B( 17-C , 20-C ) :  -0.1241
B( 17-C , 23-C ) :  -0.3440 B( 18-C , 20-C ) :   1.0203 B( 18-C , 21-H ) :   0.8901
B( 18-C , 22-H ) :   0.7741 B( 19-C , 23-C ) :   0.9325 B( 19-C , 24-H ) :   1.0309
B( 20-C , 23-C ) :   1.1133 B( 20-C , 25-H ) :   0.9395 B( 20-C , 42-H ) :   0.9800
B( 23-C , 26-H ) :   0.9140 B( 23-C , 41-H ) :   0.9936 B( 27-C , 39-O ) :   1.1044
B( 27-C , 40-O ) :   0.2898 B( 28-C , 29-C ) :   1.5379 B( 28-C , 30-C ) :   0.6445
B( 28-C , 31-C ) :  -0.2565 B( 28-C , 33-C ) :  -0.4565 B( 28-C , 34-H ) :  -0.1197
B( 28-C , 35-C ) :   0.1685 B( 28-C , 39-O ) :   0.2484 B( 29-C , 30-C ) :  -0.2015
B( 29-C , 31-C ) :   1.3593 B( 29-C , 32-H ) :   1.0764 B( 29-C , 33-C ) :   0.2109
B( 29-C , 36-H ) :  -0.1526 B( 29-C , 38-H ) :  -0.1049 B( 30-C , 33-C ) :   1.5705
B( 30-C , 34-H ) :   0.9833 B( 31-C , 35-C ) :   1.1410 B( 31-C , 36-H ) :   1.2339
B( 32-H , 39-O ) :   0.1061 B( 33-C , 35-C ) :   1.1161 B( 33-C , 37-H ) :   1.1543
B( 33-C , 38-H ) :  -0.1111 B( 35-C , 38-H ) :   1.0403

MP2 TOTAL ENERGY:    -1069.134145370 Eh
FINAL SINGLE POINT ENERGY     -1069.134145370296

DIPOLE MOMENT
-------------
                                X             Y             Z
Electronic contribution:     13.04416     -13.21188      -8.70724
Nuclear contribution   :    -13.50496      14.49773      10.00580
                        -----------------------------------------
Total Dipole Moment    :     -0.46080       1.28586       1.29856
                        -----------------------------------------
Magnitude (a.u.)       :      1.88468
Magnitude (Debye)      :      4.79048

Rotational constants in cm-1:     0.010331     0.006771     0.006215
Rotational constants in MHz :   309.716840   203.003140   186.329118

                             ****ORCA TERMINATED NORMALLY****
TOTAL RUN TIME: 0 days 16 hours 42 minutes 32 seconds 834 msec
