                         Program Version 4.2.1 -  RELEASE  -
|  1> %pal
|  2>  nprocs 32
|  3> end
|  4> !RI-MP2 aug-cc-pVQZ aug-cc-pVQZ/C TightSCF
|  5> %maxcore 4500
|  6> *xyzfile 0 1  07_1R.xyz
|  7>
|  8>
|  9>                          ****END OF INPUT****

CARTESIAN COORDINATES (ANGSTROEM)
---------------------------------
  N     -1.134194    0.240699   -0.000000
  C     -0.000000    1.059637   -0.000000
  C      1.243255    0.316385   -0.000000
  C      1.257910   -1.037806    0.000000
  C      0.050800   -1.795406    0.000000
  C     -1.120509   -1.120524    0.000000
  O     -0.121180    2.272182   -0.000000
  H      2.150846    0.903997   -0.000000
  H      2.207234   -1.561389    0.000000
  H      0.061041   -2.875014    0.000000
  H     -2.087306   -1.605906    0.000000
  H     -2.011755    0.742252   -0.000000

 Total Charge           Charge          ....    0
 Multiplicity           Mult            ....    1
 Number of Electrons    NEL             ....   50
 Basis Dimension        Dim             ....  790

ORBITAL ENERGIES
----------------

  NO   OCC          E(Eh)            E(eV)
   0   2.0000     -20.508803      -558.0729
   1   2.0000     -15.622439      -425.1082
   2   2.0000     -11.351515      -308.8904
   3   2.0000     -11.310208      -307.7664
   4   2.0000     -11.270783      -306.6936
   5   2.0000     -11.240182      -305.8609
   6   2.0000     -11.238003      -305.8016
   7   2.0000      -1.382003       -37.6062
   8   2.0000      -1.277830       -34.7715
   9   2.0000      -1.111278       -30.2394
  10   2.0000      -1.033659       -28.1273
  11   2.0000      -0.888485       -24.1769
  12   2.0000      -0.863929       -23.5087
  13   2.0000      -0.758149       -20.6303
  14   2.0000      -0.698615       -19.0103
  15   2.0000      -0.679495       -18.4900
  16   2.0000      -0.640941       -17.4409
  17   2.0000      -0.616056       -16.7637
  18   2.0000      -0.609584       -16.5876
  19   2.0000      -0.562558       -15.3080
  20   2.0000      -0.539775       -14.6880
  21   2.0000      -0.489875       -13.3302
  22   2.0000      -0.427656       -11.6371
  23   2.0000      -0.427254       -11.6262
  24   2.0000      -0.317358        -8.6358
  25   0.0000       0.017851         0.4857
  26   0.0000       0.024938         0.6786
  27   0.0000       0.032991         0.8977
  28   0.0000       0.045695         1.2434
  29   0.0000       0.049812         1.3555

MULLIKEN ATOMIC CHARGES
-----------------------
   0 N :   -0.502512
   1 C :    1.148549
   2 C :   -0.545475
   3 C :   -0.203168
   4 C :   -0.335196
   5 C :   -0.194089
   6 O :   -0.826266
   7 H :    0.257788
   8 H :    0.285735
   9 H :    0.332276
  10 H :    0.450224
  11 H :    0.132136
Sum of atomic charges:   -0.0000000

LOEWDIN ATOMIC CHARGES
----------------------
   0 N :    0.798874
   1 C :   -0.876289
   2 C :    0.321632
   3 C :    0.323552
   4 C :    0.340165
   5 C :    0.220606
   6 O :    0.663090
   7 H :   -0.344555
   8 H :   -0.313936
   9 H :   -0.340532
  10 H :   -0.300197
  11 H :   -0.492409

  Mayer bond orders larger than 0.100000
B(  0-N ,  1-C ) :   1.0238 B(  0-N ,  5-C ) :   0.9578 B(  0-N ,  6-O ) :   0.1752
B(  0-N , 11-H ) :   1.1460 B(  1-C ,  2-C ) :   1.1770 B(  1-C ,  3-C ) :  -0.1900
B(  1-C ,  6-O ) :   1.0706 B(  2-C ,  3-C ) :   1.4880 B(  2-C ,  6-O ) :   0.2462
B(  2-C ,  7-H ) :   1.0075 B(  3-C ,  4-C ) :   0.9579 B(  3-C ,  5-C ) :  -0.1372
B(  3-C ,  8-H ) :   1.0265 B(  4-C ,  5-C ) :   1.4749 B(  4-C ,  9-H ) :   0.9910
B(  5-C ,  9-H ) :  -0.1024 B(  5-C , 10-H ) :   0.8697

MP2 TOTAL ENERGY:     -323.009250176 Eh
FINAL SINGLE POINT ENERGY      -323.009250175795

DIPOLE MOMENT
-------------
                                X             Y             Z
Electronic contribution:     -0.75047       2.48938      -0.00000
Nuclear contribution   :      0.30757      -4.30395       0.00000
                        -----------------------------------------
Total Dipole Moment    :     -0.44290      -1.81457      -0.00000
                        -----------------------------------------
Magnitude (a.u.)       :      1.86784
Magnitude (Debye)      :      4.74768

Rotational constants in cm-1:     0.190036     0.093820     0.062811
Rotational constants in MHz :  5697.145961  2812.651942  1883.016358

                             ****ORCA TERMINATED NORMALLY****
TOTAL RUN TIME: 0 days 0 hours 13 minutes 30 seconds 654 msec
