                         Program Version 4.2.1 -  RELEASE  -
|  1> %pal
|  2>  nprocs 32
|  3> end
|  4> !RI-MP2 aug-cc-pVQZ aug-cc-pVQZ/C TightSCF
|  5> %maxcore 4500
|  6> *xyzfile 0 2  04_73TS.xyz
|  7>
|  8>
|  9>                          ****END OF INPUT****

CARTESIAN COORDINATES (ANGSTROEM)
---------------------------------
  N      0.456163    1.462852    1.011592
  C      1.826428    1.205117    1.356838
  H     -0.266996    0.868230    1.406487
  C      2.409026    0.057524    0.530642
  H      2.416966    2.109606    1.205576
  H      1.884358    0.933250    2.412490
  O      1.710662   -0.775317   -0.013701
  N      3.760150    0.015992    0.487983
  H      4.322833    0.774281    0.846678
  C      4.442694   -1.002612   -0.263978
  C      5.921594   -0.737771   -0.234144
  H      4.250974   -1.999659    0.141642
  H      4.106887   -1.024771   -1.305101
  O      6.442107    0.197407    0.311665
  O      6.604520   -1.677736   -0.898968
  H      7.544215   -1.450835   -0.852933
  C      0.181872    2.017514   -0.196657
  C     -1.273594    1.881811   -0.634202
  O      1.021459    2.554413   -0.893864
  N     -1.575971    0.516034   -1.021610
  H     -1.429572    2.535320   -1.488897
  H     -1.949149    2.169169    0.172528
  H     -1.453418    0.250045   -1.984660
  C     -1.864610   -0.442885   -0.117160
  C     -2.219479   -1.771460   -0.627917
  O     -1.914026   -0.186161    1.095268
  N     -5.190048   -0.275817   -1.778509
  H     -2.191954   -1.934869   -1.699664
  H     -1.853531   -2.587526   -0.015116
  C     -5.198652   -0.307811   -0.516142
  C     -4.750211   -1.532061    0.225237
  O     -5.570156    0.722067    0.269299
  N     -4.612667   -1.329945    1.629595
  H     -3.586891   -1.775017   -0.300338
  H     -5.339255   -2.406169   -0.042127
  H     -3.705753   -0.923267    1.862962
  H     -4.764825   -2.167147    2.173246
  H     -5.518355    0.404524    1.189834
  H     -5.536874    0.619441   -2.118662

 Total Charge           Charge          ....    0
 Multiplicity           Mult            ....    2
 Number of Electrons    NEL             ....  161
 Basis Dimension        Dim             .... 2508

ORBITAL ENERGIES
----------------
                 SPIN UP ORBITALS
  NO   OCC          E(Eh)            E(eV)
   0   1.0000     -20.630408      -561.3819
   1   1.0000     -20.587425      -560.2123
   2   1.0000     -20.568683      -559.7023
   3   1.0000     -20.531493      -558.6903
   4   1.0000     -20.525235      -558.5200
   5   1.0000     -20.520533      -558.3921
   6   1.0000     -15.601766      -424.5456
   7   1.0000     -15.592735      -424.2999
   8   1.0000     -15.573711      -423.7822
   9   1.0000     -15.565525      -423.5595
  10   1.0000     -15.528486      -422.5516
  11   1.0000     -11.405873      -310.3696
  12   1.0000     -11.365915      -309.2823
  13   1.0000     -11.353632      -308.9480
  14   1.0000     -11.345079      -308.7153
  15   1.0000     -11.332759      -308.3801
  16   1.0000     -11.295257      -307.3596
  17   1.0000     -11.288725      -307.1818
  18   1.0000     -11.280481      -306.9575
  19   1.0000     -11.279749      -306.9376
  20   1.0000     -11.258453      -306.3581
  21   1.0000      -1.491067       -40.5740
  22   1.0000      -1.420689       -38.6589
  23   1.0000      -1.401310       -38.1316
  24   1.0000      -1.396511       -38.0010
  25   1.0000      -1.387376       -37.7524
  26   1.0000      -1.383450       -37.6456
  27   1.0000      -1.252650       -34.0863
  28   1.0000      -1.248868       -33.9834
  29   1.0000      -1.232296       -33.5325
  30   1.0000      -1.218959       -33.1696
  31   1.0000      -1.191672       -32.4270
  32   1.0000      -1.056539       -28.7499
  33   1.0000      -1.039660       -28.2906
  34   1.0000      -0.995460       -27.0878
  35   1.0000      -0.962766       -26.1982
  36   1.0000      -0.946091       -25.7445
  37   1.0000      -0.851254       -23.1638
  38   1.0000      -0.816384       -22.2149
  39   1.0000      -0.807367       -21.9696
  40   1.0000      -0.790986       -21.5238
  41   1.0000      -0.784313       -21.3422
  42   1.0000      -0.740170       -20.1411
  43   1.0000      -0.738330       -20.0910
  44   1.0000      -0.728824       -19.8323
  45   1.0000      -0.725569       -19.7437
  46   1.0000      -0.707205       -19.2440
  47   1.0000      -0.703732       -19.1495
  48   1.0000      -0.693839       -18.8803
  49   1.0000      -0.687972       -18.7207
  50   1.0000      -0.683494       -18.5988
  51   1.0000      -0.672888       -18.3102
  52   1.0000      -0.669034       -18.2053
  53   1.0000      -0.639619       -17.4049
  54   1.0000      -0.631913       -17.1952
  55   1.0000      -0.621388       -16.9088
  56   1.0000      -0.615049       -16.7363
  57   1.0000      -0.609715       -16.5912
  58   1.0000      -0.602482       -16.3944
  59   1.0000      -0.596453       -16.2303
  60   1.0000      -0.593508       -16.1502
  61   1.0000      -0.588786       -16.0217
  62   1.0000      -0.574603       -15.6357
  63   1.0000      -0.571924       -15.5629
  64   1.0000      -0.558254       -15.1909
  65   1.0000      -0.551083       -14.9957
  66   1.0000      -0.536682       -14.6039
  67   1.0000      -0.535676       -14.5765
  68   1.0000      -0.517690       -14.0871
  69   1.0000      -0.505928       -13.7670
  70   1.0000      -0.480371       -13.0716
  71   1.0000      -0.469727       -12.7819
  72   1.0000      -0.456200       -12.4138
  73   1.0000      -0.448467       -12.2034
  74   1.0000      -0.443153       -12.0588
  75   1.0000      -0.440471       -11.9858
  76   1.0000      -0.416512       -11.3339
  77   1.0000      -0.409854       -11.1527
  78   1.0000      -0.404837       -11.0162
  79   1.0000      -0.394073       -10.7233
  80   1.0000      -0.330842        -9.0027
  81   0.0000       0.019135         0.5207
  82   0.0000       0.022563         0.6140
  83   0.0000       0.027454         0.7471
  84   0.0000       0.030846         0.8394
  85   0.0000       0.032019         0.8713

                 SPIN DOWN ORBITALS
  NO   OCC          E(Eh)            E(eV)
   0   1.0000     -20.630408      -561.3819
   1   1.0000     -20.587856      -560.2241
   2   1.0000     -20.568683      -559.7023
   3   1.0000     -20.529210      -558.6282
   4   1.0000     -20.525234      -558.5200
   5   1.0000     -20.520566      -558.3930
   6   1.0000     -15.600484      -424.5107
   7   1.0000     -15.592736      -424.2999
   8   1.0000     -15.573694      -423.7818
   9   1.0000     -15.564759      -423.5386
  10   1.0000     -15.523753      -422.4228
  11   1.0000     -11.405873      -310.3696
  12   1.0000     -11.367942      -309.3374
  13   1.0000     -11.353632      -308.9480
  14   1.0000     -11.345001      -308.7132
  15   1.0000     -11.336211      -308.4740
  16   1.0000     -11.295257      -307.3596
  17   1.0000     -11.280593      -306.9605
  18   1.0000     -11.279752      -306.9377
  19   1.0000     -11.272503      -306.7404
  20   1.0000     -11.239822      -305.8511
  21   1.0000      -1.491067       -40.5740
  22   1.0000      -1.421630       -38.6845
  23   1.0000      -1.399549       -38.0837
  24   1.0000      -1.394460       -37.9452
  25   1.0000      -1.387283       -37.7499
  26   1.0000      -1.383130       -37.6369
  27   1.0000      -1.249369       -33.9971
  28   1.0000      -1.248843       -33.9827
  29   1.0000      -1.231865       -33.5207
  30   1.0000      -1.207189       -32.8493
  31   1.0000      -1.184317       -32.2269
  32   1.0000      -1.047449       -28.5025
  33   1.0000      -1.026178       -27.9237
  34   1.0000      -0.978686       -26.6314
  35   1.0000      -0.944870       -25.7112
  36   1.0000      -0.924017       -25.1438
  37   1.0000      -0.850884       -23.1537
  38   1.0000      -0.814139       -22.1539
  39   1.0000      -0.806164       -21.9368
  40   1.0000      -0.786186       -21.3932
  41   1.0000      -0.783850       -21.3296
  42   1.0000      -0.739445       -20.1213
  43   1.0000      -0.733817       -19.9682
  44   1.0000      -0.727968       -19.8090
  45   1.0000      -0.721094       -19.6220
  46   1.0000      -0.702335       -19.1115
  47   1.0000      -0.697680       -18.9848
  48   1.0000      -0.687972       -18.7207
  49   1.0000      -0.682942       -18.5838
  50   1.0000      -0.671977       -18.2854
  51   1.0000      -0.668368       -18.1872
  52   1.0000      -0.663187       -18.0462
  53   1.0000      -0.639300       -17.3962
  54   1.0000      -0.629778       -17.1371
  55   1.0000      -0.613190       -16.6857
  56   1.0000      -0.612045       -16.6546
  57   1.0000      -0.606038       -16.4911
  58   1.0000      -0.599493       -16.3130
  59   1.0000      -0.594951       -16.1894
  60   1.0000      -0.589260       -16.0346
  61   1.0000      -0.585408       -15.9298
  62   1.0000      -0.572344       -15.5743
  63   1.0000      -0.562225       -15.2989
  64   1.0000      -0.556249       -15.1363
  65   1.0000      -0.536144       -14.5892
  66   1.0000      -0.532941       -14.5021
  67   1.0000      -0.523340       -14.2408
  68   1.0000      -0.517116       -14.0714
  69   1.0000      -0.505922       -13.7668
  70   1.0000      -0.480361       -13.0713
  71   1.0000      -0.455931       -12.4065
  72   1.0000      -0.445746       -12.1294
  73   1.0000      -0.442923       -12.0526
  74   1.0000      -0.440031       -11.9739
  75   1.0000      -0.416628       -11.3370
  76   1.0000      -0.409380       -11.1398
  77   1.0000      -0.399833       -10.8800
  78   1.0000      -0.391503       -10.6533
  79   1.0000      -0.386265       -10.5108
  80   0.0000       0.019251         0.5239
  81   0.0000       0.022604         0.6151
  82   0.0000       0.027471         0.7475
  83   0.0000       0.030882         0.8403
  84   0.0000       0.031923         0.8687

MULLIKEN ATOMIC CHARGES AND SPIN POPULATIONS
--------------------------------------------
   0 N :   -0.901837    0.000861
   1 C :   -0.403596   -0.000141
   2 H :    0.363437    0.000830
   3 C :    1.222558   -0.000752
   4 H :    0.389917    0.000017
   5 H :    0.417120   -0.000050
   6 O :   -1.081018    0.001634
   7 N :   -0.759111    0.000040
   8 H :    0.313755   -0.000001
   9 C :   -0.636538    0.000016
  10 C :    1.236776   -0.000016
  11 H :    0.347648    0.000033
  12 H :    0.354780    0.000003
  13 O :   -0.834480    0.000004
  14 O :   -0.721951    0.000011
  15 H :    0.354999   -0.000000
  16 C :    1.117737    0.002544
  17 C :   -0.639522   -0.005705
  18 O :   -0.956410   -0.000723
  19 N :   -0.582882    0.032258
  20 H :    0.366335    0.001098
  21 H :    0.349173    0.000790
  22 H :    0.227020   -0.000766
  23 C :    1.455906   -0.087187
  24 C :   -0.629807    0.853687
  25 O :   -1.074681    0.047084
  26 N :   -0.820684    0.160397
  27 H :    0.314961   -0.043891
  28 H :    0.323515   -0.060386
  29 C :    0.739197   -0.158390
  30 C :    0.152463    0.633453
  31 O :   -0.971217   -0.003957
  32 N :   -0.823821    0.005506
  33 H :    0.201565   -0.340612
  34 H :    0.457950   -0.043326
  35 H :    0.335457    0.012587
  36 H :    0.140536   -0.003390
  37 H :    0.356244    0.003719
  38 H :    0.298510   -0.007280
Sum of atomic charges         :   -0.0000000

LOEWDIN ATOMIC CHARGES AND SPIN POPULATIONS
-------------------------------------------
   0 N :    0.814621    0.000223
   1 C :    0.334251    0.000005
   2 H :   -0.677362   -0.000043
   3 C :   -0.825243    0.000014
   4 H :   -0.314667    0.000010
   5 H :   -0.271760    0.000001
   6 O :    0.734248    0.000264
   7 N :    0.809877   -0.000003
   8 H :   -0.557932   -0.000000
   9 C :    0.298754    0.000001
  10 C :   -1.006090   -0.000000
  11 H :   -0.284757    0.000001
  12 H :   -0.286084    0.000001
  13 O :    0.744736    0.000000
  14 O :    1.266797    0.000000
  15 H :   -0.800073    0.000000
  16 C :   -0.831455    0.000462
  17 C :    0.367716    0.002125
  18 O :    0.731888   -0.000335
  19 N :    0.863433    0.018434
  20 H :   -0.302825    0.000347
  21 H :   -0.299806    0.000188
  22 H :   -0.468993    0.004584
  23 C :   -0.783374    0.061168
  24 C :    0.827771    0.257875
  25 O :    0.855443    0.033020
  26 N :    0.963996    0.064528
  27 H :   -0.266433    0.069346
  28 H :   -0.268123    0.066224
  29 C :   -0.678501    0.013070
  30 C :    0.248394    0.193200
  31 O :    1.291473   -0.014425
  32 N :    1.289239    0.060600
  33 H :   -0.597447    0.088873
  34 H :   -0.256769    0.044861
  35 H :   -0.611658    0.007355
  36 H :   -0.458939    0.007171
  37 H :   -0.907782    0.002581
  38 H :   -0.686564    0.018275

  Mayer bond orders larger than 0.100000
B(  0-N ,  1-C ) :   1.1053 B(  0-N ,  2-H ) :   0.7865 B(  0-N , 16-C ) :   1.1432
B(  0-N , 18-O ) :   0.2000 B(  1-C ,  3-C ) :   0.9873 B(  1-C ,  4-H ) :   0.8533
B(  1-C ,  5-H ) :   0.7253 B(  1-C ,  6-O ) :   0.2439 B(  3-C ,  6-O ) :   0.8333
B(  3-C ,  7-N ) :   0.9654 B(  6-O ,  7-N ) :   0.1642 B(  7-N ,  8-H ) :   0.9223
B(  7-N ,  9-C ) :   0.9140 B(  9-C , 10-C ) :   1.2307 B(  9-C , 11-H ) :   0.8800
B(  9-C , 12-H ) :   0.8400 B(  9-C , 13-O ) :   0.1617 B(  9-C , 14-O ) :   0.1730
B( 10-C , 13-O ) :   1.2777 B( 10-C , 14-O ) :   0.7191 B( 14-O , 15-H ) :   0.9025
B( 16-C , 17-C ) :   1.0214 B( 16-C , 18-O ) :   0.7315 B( 17-C , 18-O ) :   0.1945
B( 17-C , 19-N ) :   0.8186 B( 17-C , 20-H ) :   0.8656 B( 17-C , 21-H ) :   0.9959
B( 19-N , 22-H ) :   1.0244 B( 19-N , 23-C ) :   1.0212 B( 19-N , 25-O ) :   0.2033
B( 23-C , 24-C ) :   0.7378 B( 23-C , 25-O ) :   0.6032 B( 23-C , 27-H ) :  -0.1059
B( 24-C , 25-O ) :   0.1204 B( 24-C , 27-H ) :   0.9793 B( 24-C , 28-H ) :   0.9934
B( 24-C , 33-H ) :   0.4179 B( 25-O , 35-H ) :   0.1032 B( 26-N , 29-C ) :   1.7106
B( 26-N , 38-H ) :   0.8041 B( 29-C , 30-C ) :   1.0442 B( 29-C , 31-O ) :   0.4396
B( 30-C , 32-N ) :   0.9064 B( 30-C , 33-H ) :   0.3126 B( 30-C , 34-H ) :   0.8795
B( 31-O , 37-H ) :   0.7959 B( 32-N , 35-H ) :   0.7758 B( 32-N , 36-H ) :   1.0946
B( 32-N , 37-H ) :   0.1037

MP2 TOTAL ENERGY:    -1115.443896140 Eh
FINAL SINGLE POINT ENERGY     -1115.443896140132

DIPOLE MOMENT
-------------
                                X             Y             Z
Electronic contribution:     13.42610       4.19059      -0.85200
Nuclear contribution   :    -12.90000      -5.55480       1.59374
                        -----------------------------------------
Total Dipole Moment    :      0.52610      -1.36422       0.74173
                        -----------------------------------------
Magnitude (a.u.)       :      1.63952
Magnitude (Debye)      :      4.16734

Rotational constants in cm-1:     0.023606     0.003447     0.003287
Rotational constants in MHz :   707.688350   103.327334    98.543890

                             ****ORCA TERMINATED NORMALLY****
TOTAL RUN TIME: 0 days 11 hours 9 minutes 3 seconds 94 msec
