                         Program Version 4.2.1 -  RELEASE  -
|  1> %pal
|  2>  nprocs 32
|  3> end
|  4> !RI-MP2 aug-cc-pVQZ aug-cc-pVQZ/C TightSCF
|  5> %maxcore 4500
|  6> *xyzfile 0 1  09_13P.xyz
|  7>
|  8>
|  9>                          ****END OF INPUT****

CARTESIAN COORDINATES (ANGSTROEM)
---------------------------------
  N     -0.639524    0.925629    0.173344
  C     -1.998350    0.641576   -0.038168
  C     -2.236238   -0.684882   -0.114106
  S     -0.762178   -1.582332    0.096992
  C      0.135332   -0.147299    0.268000
  C     -2.979810    1.757142   -0.162538
  H     -2.921658    2.438719    0.687852
  H     -3.991179    1.359876   -0.203360
  H     -2.814459    2.337965   -1.072766
  C     -3.523643   -1.402910   -0.354770
  H     -4.367559   -0.715806   -0.327423
  H     -3.693877   -2.170250    0.402566
  H     -3.522239   -1.892347   -1.331067
  C     -0.153876    2.311987    0.268036
  H     -0.293605    2.679568    1.284931
  H     -0.725161    2.922825   -0.424956
  H      0.888571    2.324813   -0.047905
  C      1.608626   -0.278984    0.486439
  C      2.116637    0.464962    1.717934
  H      2.008545    1.542966    1.625900
  H      3.177264    0.238748    1.823963
  H      1.600176    0.114839    2.614370
  O      1.844734   -1.656137    0.625396
  C      2.380664    0.211051   -0.844587
  O      2.257760    1.406102   -1.124684
  O      2.995668   -0.718745   -1.377411
  H      2.445363   -1.829632   -0.141235

 Total Charge           Charge          ....    0
 Multiplicity           Mult            ....    1
 Number of Electrons    NEL             ....  114
 Basis Dimension        Dim             .... 1722

ORBITAL ENERGIES
----------------

  NO   OCC          E(Eh)            E(eV)
   0   2.0000     -92.033614     -2504.3620
   1   2.0000     -20.544714      -559.0501
   2   2.0000     -20.477368      -557.2175
   3   2.0000     -20.471367      -557.0542
   4   2.0000     -15.688309      -426.9006
   5   2.0000     -11.378529      -309.6255
   6   2.0000     -11.327283      -308.2310
   7   2.0000     -11.319311      -308.0141
   8   2.0000     -11.306196      -307.6572
   9   2.0000     -11.305913      -307.6495
  10   2.0000     -11.287938      -307.1604
  11   2.0000     -11.276061      -306.8372
  12   2.0000     -11.271849      -306.7226
  13   2.0000     -11.227013      -305.5026
  14   2.0000      -9.035333      -245.8639
  15   2.0000      -6.716302      -182.7599
  16   2.0000      -6.715467      -182.7371
  17   2.0000      -6.714938      -182.7228
  18   2.0000      -1.395708       -37.9791
  19   2.0000      -1.374142       -37.3923
  20   2.0000      -1.346218       -36.6325
  21   2.0000      -1.269145       -34.5352
  22   2.0000      -1.161410       -31.6036
  23   2.0000      -1.119914       -30.4744
  24   2.0000      -1.038000       -28.2454
  25   2.0000      -1.032577       -28.0979
  26   2.0000      -0.986812       -26.8525
  27   2.0000      -0.960405       -26.1339
  28   2.0000      -0.881673       -23.9916
  29   2.0000      -0.835515       -22.7355
  30   2.0000      -0.783580       -21.3223
  31   2.0000      -0.741832       -20.1863
  32   2.0000      -0.706866       -19.2348
  33   2.0000      -0.694138       -18.8885
  34   2.0000      -0.672938       -18.3116
  35   2.0000      -0.658260       -17.9122
  36   2.0000      -0.632475       -17.2105
  37   2.0000      -0.626985       -17.0611
  38   2.0000      -0.620049       -16.8724
  39   2.0000      -0.613696       -16.6995
  40   2.0000      -0.607611       -16.5339
  41   2.0000      -0.591323       -16.0907
  42   2.0000      -0.587187       -15.9782
  43   2.0000      -0.582545       -15.8519
  44   2.0000      -0.572581       -15.5807
  45   2.0000      -0.560234       -15.2447
  46   2.0000      -0.553043       -15.0491
  47   2.0000      -0.543603       -14.7922
  48   2.0000      -0.533233       -14.5100
  49   2.0000      -0.525456       -14.2984
  50   2.0000      -0.513621       -13.9763
  51   2.0000      -0.457983       -12.4623
  52   2.0000      -0.437685       -11.9100
  53   2.0000      -0.404203       -10.9989
  54   2.0000      -0.389316       -10.5938
  55   2.0000      -0.381189       -10.3727
  56   2.0000      -0.352930        -9.6037
  57   0.0000       0.006390         0.1739
  58   0.0000       0.016959         0.4615
  59   0.0000       0.022062         0.6003
  60   0.0000       0.028934         0.7873
  61   0.0000       0.035975         0.9789

MULLIKEN ATOMIC CHARGES
-----------------------
   0 N :   -0.127552
   1 C :    0.520724
   2 C :   -0.648875
   3 S :    0.414180
   4 C :    0.198177
   5 C :   -0.825509
   6 H :    0.200238
   7 H :    0.284195
   8 H :    0.242800
   9 C :   -0.806313
  10 H :    0.278295
  11 H :    0.250133
  12 H :    0.258133
  13 C :   -1.068906
  14 H :    0.338049
  15 H :    0.284883
  16 H :    0.462076
  17 C :    1.696571
  18 C :   -1.188319
  19 H :    0.256240
  20 H :    0.295583
  21 H :    0.228727
  22 O :   -1.108546
  23 C :    1.223325
  24 O :   -1.061107
  25 O :   -1.014293
  26 H :    0.417091
Sum of atomic charges:    0.0000000

LOEWDIN ATOMIC CHARGES
----------------------
   0 N :    0.409591
   1 C :   -0.263575
   2 C :   -0.403955
   3 S :    1.540122
   4 C :   -0.600275
   5 C :    0.939238
   6 H :   -0.270808
   7 H :   -0.311322
   8 H :   -0.265536
   9 C :    0.857798
  10 H :   -0.321099
  11 H :   -0.293458
  12 H :   -0.284722
  13 C :    0.835442
  14 H :   -0.237960
  15 H :   -0.293863
  16 H :   -0.498559
  17 C :   -0.781025
  18 C :    0.899159
  19 H :   -0.323867
  20 H :   -0.272572
  21 H :   -0.268796
  22 O :    1.204520
  23 C :   -1.310478
  24 O :    0.674511
  25 O :    0.711999
  26 H :   -1.070509

  Mayer bond orders larger than 0.100000
B(  0-N ,  1-C ) :   1.0576 B(  0-N ,  3-S ) :  -0.2288 B(  0-N ,  4-C ) :   0.9775
B(  0-N , 13-C ) :   0.6567 B(  1-C ,  2-C ) :   1.2962 B(  1-C ,  3-S ) :  -0.2331
B(  1-C ,  4-C ) :  -0.1264 B(  1-C ,  5-C ) :   0.5059 B(  1-C ,  7-H ) :  -0.1422
B(  1-C ,  8-H ) :  -0.1151 B(  2-C ,  3-S ) :   1.1437 B(  2-C ,  9-C ) :   0.5704
B(  2-C , 10-H ) :  -0.1047 B(  2-C , 11-H ) :  -0.1137 B(  2-C , 12-H ) :  -0.1297
B(  3-S ,  4-C ) :   1.1327 B(  3-S , 17-C ) :  -0.1829 B(  4-C , 17-C ) :   0.5634
B(  4-C , 22-O ) :   0.1159 B(  4-C , 25-O ) :   0.1201 B(  5-C ,  6-H ) :   1.0458
B(  5-C ,  7-H ) :   1.0278 B(  5-C ,  8-H ) :   1.0132 B(  9-C , 10-H ) :   0.9998
B(  9-C , 11-H ) :   1.0259 B(  9-C , 12-H ) :   1.0146 B( 13-C , 14-H ) :   0.9732
B( 13-C , 15-H ) :   0.9968 B( 13-C , 16-H ) :   0.7660 B( 17-C , 18-C ) :   0.5660
B( 17-C , 19-H ) :  -0.1092 B( 17-C , 23-C ) :   0.9748 B( 18-C , 19-H ) :   1.0137
B( 18-C , 20-H ) :   0.9961 B( 18-C , 21-H ) :   1.0303 B( 18-C , 23-C ) :   0.1081
B( 22-O , 23-C ) :   0.1138 B( 22-O , 25-O ) :   0.1050 B( 22-O , 26-H ) :   0.7724
B( 23-C , 24-O ) :   1.2079 B( 23-C , 25-O ) :   1.0495 B( 24-O , 25-O ) :   0.2264
B( 25-O , 26-H ) :   0.1345

MP2 TOTAL ENERGY:    -1027.998765188 Eh
FINAL SINGLE POINT ENERGY     -1027.998765187561

DIPOLE MOMENT
-------------
                                X             Y             Z
Electronic contribution:      7.56736      -8.67827      -3.20908
Nuclear contribution   :    -12.01270       9.34037       4.83297
                        -----------------------------------------
Total Dipole Moment    :     -4.44534       0.66210       1.62389
                        -----------------------------------------
Magnitude (a.u.)       :      4.77875
Magnitude (Debye)      :     12.14662

Rotational constants in cm-1:     0.034336     0.016065     0.013084
Rotational constants in MHz :  1029.365690   481.616197   392.250657

                             ****ORCA TERMINATED NORMALLY****
TOTAL RUN TIME: 0 days 2 hours 37 minutes 50 seconds 167 msec
