                         Program Version 4.2.1 -  RELEASE  -
|  1> %pal
|  2>  nprocs 32
|  3> end
|  4> !RI-MP2 aug-cc-pVQZ aug-cc-pVQZ/C TightSCF
|  5> %maxcore 4500
|  6> *xyzfile 0 1  04_46P2.xyz
|  7>
|  8>
|  9>                          ****END OF INPUT****

CARTESIAN COORDINATES (ANGSTROEM)
---------------------------------
  C      0.436791   -1.197103    0.150177
  C     -0.348044   -0.000099   -0.384956
  S     -2.134554   -0.000020   -0.030783
  C      1.907046   -0.777126   -0.013910
  C      1.907143    0.777079   -0.013306
  C      0.436734    1.197209    0.149634
  H      0.188551   -2.126623   -0.362561
  H      0.194297   -1.333514    1.208641
  H     -0.306557   -0.000384   -1.478477
  H      2.305839   -1.154779   -0.957468
  H      2.532984   -1.189156    0.778542
  H      2.307176    1.155476   -0.956029
  H      2.532185    1.188313    0.780267
  H      0.188816    2.126351   -0.363944
  H      0.193691    1.334496    1.207849
  H     -2.022137    0.000381    1.309870

 Total Charge           Charge          ....    0
 Multiplicity           Mult            ....    1
 Number of Electrons    NEL             ....   56
 Basis Dimension        Dim             ....  944

ORBITAL ENERGIES
----------------

  NO   OCC          E(Eh)            E(eV)
   0   2.0000     -91.944420     -2501.9349
   1   2.0000     -11.259244      -306.3796
   2   2.0000     -11.223478      -305.4064
   3   2.0000     -11.223470      -305.4062
   4   2.0000     -11.221952      -305.3648
   5   2.0000     -11.221414      -305.3502
   6   2.0000      -8.946909      -243.4578
   7   2.0000      -6.628547      -180.3719
   8   2.0000      -6.627542      -180.3446
   9   2.0000      -6.626685      -180.3213
  10   2.0000      -1.138152       -30.9707
  11   2.0000      -1.012833       -27.5606
  12   2.0000      -0.971545       -26.4371
  13   2.0000      -0.903456       -24.5843
  14   2.0000      -0.782517       -21.2934
  15   2.0000      -0.778213       -21.1762
  16   2.0000      -0.664606       -18.0848
  17   2.0000      -0.634839       -17.2749
  18   2.0000      -0.582641       -15.8545
  19   2.0000      -0.579541       -15.7701
  20   2.0000      -0.525748       -14.3063
  21   2.0000      -0.497521       -13.5382
  22   2.0000      -0.487935       -13.2774
  23   2.0000      -0.478459       -13.0195
  24   2.0000      -0.473000       -12.8710
  25   2.0000      -0.461223       -12.5505
  26   2.0000      -0.436280       -11.8718
  27   2.0000      -0.349093        -9.4993
  28   0.0000       0.026052         0.7089
  29   0.0000       0.030864         0.8398
  30   0.0000       0.033327         0.9069
  31   0.0000       0.036643         0.9971
  32   0.0000       0.049007         1.3335

MULLIKEN ATOMIC CHARGES
-----------------------
   0 C :   -0.564027
   1 C :    0.026712
   2 S :   -0.224214
   3 C :   -0.522343
   4 C :   -0.521510
   5 C :   -0.563993
   6 H :    0.353649
   7 H :    0.209252
   8 H :    0.280992
   9 H :    0.205458
  10 H :    0.294816
  11 H :    0.205569
  12 H :    0.294313
  13 H :    0.353721
  14 H :    0.209096
  15 H :   -0.037491
Sum of atomic charges:   -0.0000000

LOEWDIN ATOMIC CHARGES
----------------------
   0 C :    0.444804
   1 C :   -0.319731
   2 S :    1.629882
   3 C :    0.549941
   4 C :    0.550018
   5 C :    0.444865
   6 H :   -0.264281
   7 H :   -0.290148
   8 H :   -0.363871
   9 H :   -0.268317
  10 H :   -0.262829
  11 H :   -0.268311
  12 H :   -0.262866
  13 H :   -0.264288
  14 H :   -0.290217
  15 H :   -0.764651

  Mayer bond orders larger than 0.100000
B(  0-C ,  1-C ) :   0.8362 B(  0-C ,  3-C ) :   0.9966 B(  0-C ,  6-H ) :   0.8430
B(  0-C ,  7-H ) :   0.9804 B(  1-C ,  2-S ) :   0.7218 B(  1-C ,  5-C ) :   0.8364
B(  1-C ,  8-H ) :   0.8905 B(  2-S , 15-H ) :   1.1046 B(  3-C ,  4-C ) :   0.9484
B(  3-C ,  9-H ) :   0.9706 B(  3-C , 10-H ) :   0.9022 B(  4-C ,  5-C ) :   0.9963
B(  4-C , 11-H ) :   0.9706 B(  4-C , 12-H ) :   0.9026 B(  5-C , 13-H ) :   0.8435
B(  5-C , 14-H ) :   0.9803

MP2 TOTAL ENERGY:     -593.908263027 Eh
FINAL SINGLE POINT ENERGY      -593.908263027484

DIPOLE MOMENT
-------------
                                X             Y             Z
Electronic contribution:     -7.65702      -0.00054      -1.03680
Nuclear contribution   :      8.41903       0.00058       1.20166
                        -----------------------------------------
Total Dipole Moment    :      0.76201       0.00004       0.16485
                        -----------------------------------------
Magnitude (a.u.)       :      0.77963
Magnitude (Debye)      :      1.98167

Rotational constants in cm-1:     0.211484     0.060334     0.050464
Rotational constants in MHz :  6340.140921  1808.753051  1512.881694

                             ****ORCA TERMINATED NORMALLY****
TOTAL RUN TIME: 0 days 0 hours 21 minutes 48 seconds 511 msec
