                         Program Version 4.2.1 -  RELEASE  -
|  1> %pal
|  2>  nprocs 32
|  3> end
|  4> !RI-MP2 aug-cc-pVQZ aug-cc-pVQZ/C TightSCF
|  5> %maxcore 4500
|  6> *xyzfile 0 1  10_7TS.xyz
|  7>
|  8>
|  9>                          ****END OF INPUT****

CARTESIAN COORDINATES (ANGSTROEM)
---------------------------------
  C      0.001753   -0.861968   -0.132802
  C      0.298305    0.325410   -0.119632
  C     -0.988508   -1.943627   -0.097650
  H     -1.159148   -2.301405   -1.118641
  H     -0.608721   -2.799462    0.464969
  C     -0.012109    1.756377   -0.097710
  H      0.625032    2.304909   -0.795357
  H      0.193130    2.161131    0.899697
  C     -2.309464   -1.455237    0.510579
  H     -3.025887   -2.280435    0.451667
  H     -2.156976   -1.256620    1.576240
  C     -2.929500   -0.212800   -0.150767
  H     -2.766665   -0.259328   -1.233260
  H     -4.011206   -0.290484   -0.014557
  C     -1.488308    1.983516   -0.454824
  H     -1.695753    3.051431   -0.336986
  H     -1.632054    1.756868   -1.515656
  C     -2.505634    1.180992    0.375046
  H     -3.411596    1.789206    0.436753
  H     -2.143887    1.089131    1.405108
  N      1.941535   -1.904705   -0.210116
  N      2.596135   -0.958343   -0.175634
  N      2.525281    0.285886   -0.247214
  C      3.472478    1.083872    0.517407
  H      3.149049    2.119455    0.427742
  H      3.486972    0.808583    1.576114
  H      4.482971    1.007951    0.109032

 Total Charge           Charge          ....    0
 Multiplicity           Mult            ....    1
 Number of Electrons    NEL             ....   90
 Basis Dimension        Dim             .... 1650

ORBITAL ENERGIES
----------------

  NO   OCC          E(Eh)            E(eV)
   0   2.0000     -15.719403      -427.7467
   1   2.0000     -15.650929      -425.8834
   2   2.0000     -15.599838      -424.4932
   3   2.0000     -11.266017      -306.5639
   4   2.0000     -11.236797      -305.7688
   5   2.0000     -11.231538      -305.6257
   6   2.0000     -11.221433      -305.3507
   7   2.0000     -11.220170      -305.3163
   8   2.0000     -11.216033      -305.2038
   9   2.0000     -11.215134      -305.1793
  10   2.0000     -11.213714      -305.1407
  11   2.0000     -11.202974      -304.8484
  12   2.0000      -1.469764       -39.9943
  13   2.0000      -1.242827       -33.8190
  14   2.0000      -1.106275       -30.1033
  15   2.0000      -1.054409       -28.6919
  16   2.0000      -1.032344       -28.0915
  17   2.0000      -0.981029       -26.6952
  18   2.0000      -0.932554       -25.3761
  19   2.0000      -0.912284       -24.8245
  20   2.0000      -0.810096       -22.0438
  21   2.0000      -0.779190       -21.2028
  22   2.0000      -0.743364       -20.2280
  23   2.0000      -0.691846       -18.8261
  24   2.0000      -0.672727       -18.3058
  25   2.0000      -0.669441       -18.2164
  26   2.0000      -0.644715       -17.5436
  27   2.0000      -0.635144       -17.2832
  28   2.0000      -0.619390       -16.8545
  29   2.0000      -0.595387       -16.2013
  30   2.0000      -0.583622       -15.8812
  31   2.0000      -0.579776       -15.7765
  32   2.0000      -0.568365       -15.4660
  33   2.0000      -0.563790       -15.3415
  34   2.0000      -0.537455       -14.6249
  35   2.0000      -0.525335       -14.2951
  36   2.0000      -0.511762       -13.9258
  37   2.0000      -0.487023       -13.2526
  38   2.0000      -0.459998       -12.5172
  39   2.0000      -0.448725       -12.2104
  40   2.0000      -0.448554       -12.2058
  41   2.0000      -0.418992       -11.4014
  42   2.0000      -0.361054        -9.8248
  43   2.0000      -0.354328        -9.6418
  44   2.0000      -0.328654        -8.9431
  45   0.0000       0.023802         0.6477
  46   0.0000       0.028092         0.7644
  47   0.0000       0.030123         0.8197
  48   0.0000       0.033028         0.8987
  49   0.0000       0.039473         1.0741

MULLIKEN ATOMIC CHARGES
-----------------------
   0 C :   -0.050283
   1 C :   -0.017863
   2 C :   -0.429447
   3 H :    0.256684
   4 H :    0.247133
   5 C :   -0.365994
   6 H :    0.268844
   7 H :    0.222437
   8 C :   -0.567200
   9 H :    0.250043
  10 H :    0.218639
  11 C :   -0.503326
  12 H :    0.292693
  13 H :    0.304832
  14 C :   -0.528063
  15 H :    0.238246
  16 H :    0.229691
  17 C :   -0.520241
  18 H :    0.296036
  19 H :    0.289974
  20 N :   -0.198465
  21 N :   -0.024553
  22 N :   -0.113933
  23 C :   -0.920635
  24 H :    0.387206
  25 H :    0.345617
  26 H :    0.391929
Sum of atomic charges:    0.0000000

LOEWDIN ATOMIC CHARGES
----------------------
   0 C :    0.003984
   1 C :    0.040411
   2 C :    0.449958
   3 H :   -0.286109
   4 H :   -0.302352
   5 C :    0.462211
   6 H :   -0.295924
   7 H :   -0.285237
   8 C :    0.528165
   9 H :   -0.270029
  10 H :   -0.274843
  11 C :    0.555234
  12 H :   -0.278199
  13 H :   -0.279232
  14 C :    0.533783
  15 H :   -0.268005
  16 H :   -0.274467
  17 C :    0.556408
  18 H :   -0.279031
  19 H :   -0.277943
  20 N :    0.390099
  21 N :   -0.145715
  22 N :    0.278939
  23 C :    0.675112
  24 H :   -0.337500
  25 H :   -0.305967
  26 H :   -0.313751

  Mayer bond orders larger than 0.100000
B(  0-C ,  1-C ) :   2.6139 B(  0-C ,  2-C ) :   0.4791 B(  0-C ,  4-H ) :  -0.1394
B(  0-C , 21-N ) :  -0.1051 B(  1-C ,  5-C ) :   0.4352 B(  1-C ,  6-H ) :  -0.1276
B(  1-C , 14-C ) :  -0.1266 B(  1-C , 21-N ) :   0.1772 B(  1-C , 22-N ) :   0.1100
B(  2-C ,  3-H ) :   0.9346 B(  2-C ,  4-H ) :   1.0189 B(  2-C ,  8-C ) :   1.0355
B(  5-C ,  6-H ) :   1.0070 B(  5-C ,  7-H ) :   0.9329 B(  5-C , 14-C ) :   0.9551
B(  8-C ,  9-H ) :   0.9875 B(  8-C , 10-H ) :   0.9593 B(  8-C , 11-C ) :   0.8042
B( 11-C , 12-H ) :   0.9353 B( 11-C , 13-H ) :   0.9283 B( 11-C , 17-C ) :   0.9112
B( 14-C , 15-H ) :   1.0254 B( 14-C , 16-H ) :   0.9568 B( 14-C , 17-C ) :   0.8023
B( 17-C , 18-H ) :   0.9442 B( 17-C , 19-H ) :   0.9332 B( 20-N , 21-N ) :   1.9818
B( 20-N , 22-N ) :   0.2034 B( 21-N , 22-N ) :   1.1308 B( 22-N , 23-C ) :   0.8968
B( 23-C , 24-H ) :   0.8521 B( 23-C , 25-H ) :   0.8753 B( 23-C , 26-H ) :   0.8719

MP2 TOTAL ENERGY:     -515.198933955 Eh
FINAL SINGLE POINT ENERGY      -515.198933954512

DIPOLE MOMENT
-------------
                                X             Y             Z
Electronic contribution:     10.85584      -6.34202      -2.00464
Nuclear contribution   :    -10.87695       7.04359       2.38252
                        -----------------------------------------
Total Dipole Moment    :     -0.02111       0.70157       0.37789
                        -----------------------------------------
Magnitude (a.u.)       :      0.79715
Magnitude (Debye)      :      2.02619

Rotational constants in cm-1:     0.049300     0.021195     0.015583
Rotational constants in MHz :  1477.984003   635.409141   467.152657

                             ****ORCA TERMINATED NORMALLY****
TOTAL RUN TIME: 0 days 2 hours 39 minutes 56 seconds 279 msec
