                         Program Version 4.2.1 -  RELEASE  -
|  1> %pal
|  2>  nprocs 32
|  3> end
|  4> !RI-MP2 aug-cc-pVQZ aug-cc-pVQZ/C TightSCF
|  5> %maxcore 4500
|  6> *xyzfile 0 1  10_81R.xyz
|  7>
|  8>
|  9>                          ****END OF INPUT****

CARTESIAN COORDINATES (ANGSTROEM)
---------------------------------
  C     -2.591492   -1.919214    0.079274
  C     -2.098317   -1.377974    1.418693
  C     -1.019053   -0.347243    1.262920
  C     -0.709887    0.224116    0.105628
  C     -1.434921   -0.085841   -1.179847
  C     -2.768273   -0.782855   -0.921541
  H     -3.526976   -2.465918    0.215813
  H     -1.860534   -2.632813   -0.315596
  H     -1.726434   -2.190660    2.049197
  H     -2.929041   -0.928310    1.976076
  H     -1.600161    0.835798   -1.746055
  H     -0.800699   -0.725057   -1.804983
  H     -3.178169   -1.153936   -1.863279
  H     -3.485201   -0.056400   -0.525479
  C      0.425962    1.245363   -0.011514
  C      1.125971    1.440235    1.266069
  C     -0.133088    2.545045   -0.429063
  N      1.693374    1.589035    2.249953
  N     -0.576663    3.535299   -0.798013
  C      1.475990    0.815969   -1.091721
  C      2.038931   -0.494729   -0.814099
  C      2.485339   -1.575141   -0.557389
  C      3.034496   -2.884372   -0.237849
  H      3.446806   -3.360893   -1.129221
  H      3.832259   -2.799526    0.502213
  H      2.261940   -3.539213    0.169727
  H      0.976237    0.824247   -2.061659
  H      2.260092    1.574742   -1.129147
  H     -0.477036   -0.072548    2.161443

 Total Charge           Charge          ....    0
 Multiplicity           Mult            ....    1
 Number of Electrons    NEL             ....  106
 Basis Dimension        Dim             .... 1844

ORBITAL ENERGIES
----------------

  NO   OCC          E(Eh)            E(eV)
   0   2.0000     -15.586861      -424.1400
   1   2.0000     -15.584309      -424.0706
   2   2.0000     -11.351106      -308.8793
   3   2.0000     -11.294427      -307.3370
   4   2.0000     -11.289968      -307.2156
   5   2.0000     -11.287781      -307.1561
   6   2.0000     -11.263942      -306.5074
   7   2.0000     -11.257458      -306.3310
   8   2.0000     -11.247590      -306.0625
   9   2.0000     -11.243709      -305.9569
  10   2.0000     -11.243032      -305.9385
  11   2.0000     -11.239044      -305.8299
  12   2.0000     -11.233365      -305.6754
  13   2.0000     -11.233283      -305.6732
  14   2.0000     -11.231732      -305.6310
  15   2.0000      -1.256426       -34.1891
  16   2.0000      -1.235792       -33.6276
  17   2.0000      -1.176307       -32.0089
  18   2.0000      -1.126604       -30.6564
  19   2.0000      -1.076284       -29.2872
  20   2.0000      -1.033391       -28.1200
  21   2.0000      -1.025006       -27.8918
  22   2.0000      -0.991784       -26.9878
  23   2.0000      -0.932257       -25.3680
  24   2.0000      -0.874412       -23.7940
  25   2.0000      -0.840806       -22.8795
  26   2.0000      -0.784697       -21.3527
  27   2.0000      -0.737925       -20.0800
  28   2.0000      -0.707316       -19.2470
  29   2.0000      -0.681148       -18.5350
  30   2.0000      -0.659079       -17.9345
  31   2.0000      -0.634092       -17.2545
  32   2.0000      -0.624273       -16.9873
  33   2.0000      -0.622294       -16.9335
  34   2.0000      -0.604687       -16.4544
  35   2.0000      -0.601594       -16.3702
  36   2.0000      -0.598735       -16.2924
  37   2.0000      -0.589386       -16.0380
  38   2.0000      -0.580908       -15.8073
  39   2.0000      -0.574415       -15.6306
  40   2.0000      -0.560954       -15.2643
  41   2.0000      -0.554565       -15.0905
  42   2.0000      -0.541571       -14.7369
  43   2.0000      -0.496938       -13.5224
  44   2.0000      -0.493264       -13.4224
  45   2.0000      -0.485230       -13.2038
  46   2.0000      -0.482570       -13.1314
  47   2.0000      -0.476936       -12.9781
  48   2.0000      -0.466898       -12.7049
  49   2.0000      -0.459643       -12.5075
  50   2.0000      -0.391691       -10.6585
  51   2.0000      -0.390318       -10.6211
  52   2.0000      -0.371347       -10.1049
  53   0.0000       0.016464         0.4480
  54   0.0000       0.023174         0.6306
  55   0.0000       0.025242         0.6869
  56   0.0000       0.031570         0.8591
  57   0.0000       0.037285         1.0146

MULLIKEN ATOMIC CHARGES
-----------------------
   0 C :   -0.577416
   1 C :   -0.442488
   2 C :   -0.463490
   3 C :    0.421577
   4 C :   -0.055983
   5 C :   -0.670907
   6 H :    0.295497
   7 H :    0.131777
   8 H :    0.248935
   9 H :    0.216720
  10 H :    0.333304
  11 H :    0.225195
  12 H :    0.233634
  13 H :    0.207115
  14 C :    0.082119
  15 C :    0.910674
  16 C :    0.686450
  17 N :   -1.021000
  18 N :   -0.989492
  19 C :   -0.110501
  20 C :   -0.403028
  21 C :   -0.136084
  22 C :   -0.644018
  23 H :    0.219407
  24 H :    0.230130
  25 H :    0.237711
  26 H :    0.258152
  27 H :    0.353630
  28 H :    0.222380
Sum of atomic charges:    0.0000000

LOEWDIN ATOMIC CHARGES
----------------------
   0 C :    0.529498
   1 C :    0.535906
   2 C :    0.425339
   3 C :   -0.052480
   4 C :    0.503940
   5 C :    0.543466
   6 H :   -0.255003
   7 H :   -0.260781
   8 H :   -0.268570
   9 H :   -0.262850
  10 H :   -0.281757
  11 H :   -0.266045
  12 H :   -0.251340
  13 H :   -0.253841
  14 C :   -0.462770
  15 C :   -0.345763
  16 C :   -0.310343
  17 N :    0.507740
  18 N :    0.485101
  19 C :    0.401899
  20 C :    0.166165
  21 C :    0.194936
  22 C :    0.854062
  23 H :   -0.314602
  24 H :   -0.312755
  25 H :   -0.314894
  26 H :   -0.307170
  27 H :   -0.281969
  28 H :   -0.345119

  Mayer bond orders larger than 0.100000
B(  0-C ,  1-C ) :   0.9590 B(  0-C ,  5-C ) :   0.9319 B(  0-C ,  6-H ) :   0.9305
B(  0-C ,  7-H ) :   1.0390 B(  1-C ,  2-C ) :   0.6047 B(  1-C ,  3-C ) :  -0.3315
B(  1-C ,  8-H ) :   1.0347 B(  1-C ,  9-H ) :   1.0093 B(  2-C ,  3-C ) :   1.5933
B(  2-C ,  4-C ) :  -0.1165 B(  2-C ,  8-H ) :  -0.1464 B(  2-C , 14-C ) :  -0.2499
B(  2-C , 15-C ) :   0.1077 B(  2-C , 16-C ) :  -0.1111 B(  2-C , 28-H ) :   0.9875
B(  3-C ,  4-C ) :   0.3927 B(  3-C ,  5-C ) :  -0.1163 B(  3-C , 14-C ) :   0.4416
B(  3-C , 15-C ) :  -0.1574 B(  3-C , 16-C ) :  -0.2039 B(  3-C , 19-C ) :  -0.1096
B(  4-C ,  5-C ) :   0.8004 B(  4-C , 10-H ) :   0.9048 B(  4-C , 11-H ) :   0.9136
B(  4-C , 12-H ) :  -0.1033 B(  5-C , 12-H ) :   1.0438 B(  5-C , 13-H ) :   1.0186
B( 14-C , 15-C ) :   1.2636 B( 14-C , 16-C ) :   1.3843 B( 14-C , 17-N ) :   0.3555
B( 14-C , 18-N ) :   0.2509 B( 14-C , 19-C ) :   0.8100 B( 15-C , 16-C ) :  -0.1202
B( 15-C , 17-N ) :   1.7364 B( 16-C , 18-N ) :   1.8449 B( 19-C , 20-C ) :   0.5174
B( 19-C , 21-C ) :  -0.1512 B( 19-C , 26-H ) :   0.9892 B( 19-C , 27-H ) :   0.9791
B( 20-C , 21-C ) :   2.9525 B( 20-C , 27-H ) :  -0.1425 B( 21-C , 22-C ) :   0.7000
B( 21-C , 23-H ) :  -0.1259 B( 21-C , 25-H ) :  -0.1278 B( 22-C , 23-H ) :   1.0527
B( 22-C , 24-H ) :   1.0118 B( 22-C , 25-H ) :   1.0126

MP2 TOTAL ENERGY:     -612.133389891 Eh
FINAL SINGLE POINT ENERGY      -612.133389891444

DIPOLE MOMENT
-------------
                                X             Y             Z
Electronic contribution:      6.51517      14.52746       2.73914
Nuclear contribution   :     -6.82803     -16.72820      -3.50664
                        -----------------------------------------
Total Dipole Moment    :     -0.31287      -2.20074      -0.76749
                        -----------------------------------------
Magnitude (a.u.)       :      2.35163
Magnitude (Debye)      :      5.97738

Rotational constants in cm-1:     0.020245     0.018480     0.013090
Rotational constants in MHz :   606.930591   554.011972   392.439121

                             ****ORCA TERMINATED NORMALLY****
TOTAL RUN TIME: 0 days 2 hours 50 minutes 44 seconds 98 msec
