                         Program Version 4.2.1 -  RELEASE  -
|  1> %pal
|  2>  nprocs 32
|  3> end
|  4> !RI-MP2 aug-cc-pVQZ aug-cc-pVQZ/C TightSCF
|  5> %maxcore 4500
|  6> *xyzfile 1 1  05_13P1.xyz
|  7>
|  8>
|  9>                          ****END OF INPUT****

CARTESIAN COORDINATES (ANGSTROEM)
---------------------------------
  C      1.093647    0.285704    0.279013
  O      0.091707    0.006442   -0.401973
  C     -1.258692    0.594308   -0.121959
  H     -1.490640    1.123617   -1.043535
  H     -1.131481    1.296773    0.702640
  C      2.389663   -0.308373   -0.015364
  H      2.350250   -0.991399   -0.860438
  H      2.750747   -0.815818    0.887820
  C     -2.207965   -0.531300    0.171801
  H     -1.935069   -1.064115    1.083211
  H     -3.202811   -0.104662    0.314573
  H     -2.257680   -1.232834   -0.660545
  H      3.106401    0.502554   -0.196631
  H      0.976713    0.992313    1.107756

 Total Charge           Charge          ....    1
 Multiplicity           Mult            ....    1
 Number of Electrons    NEL             ....   40
 Basis Dimension        Dim             ....  814

ORBITAL ENERGIES
----------------

  NO   OCC          E(Eh)            E(eV)
   0   2.0000     -20.863597      -567.7273
   1   2.0000     -11.599700      -315.6439
   2   2.0000     -11.493056      -312.7420
   3   2.0000     -11.433205      -311.1133
   4   2.0000     -11.385715      -309.8211
   5   2.0000      -1.704020       -46.3687
   6   2.0000      -1.283307       -34.9206
   7   2.0000      -1.210860       -32.9492
   8   2.0000      -1.077887       -29.3308
   9   2.0000      -1.047757       -28.5109
  10   2.0000      -0.932173       -25.3657
  11   2.0000      -0.891258       -24.2524
  12   2.0000      -0.862341       -23.4655
  13   2.0000      -0.796276       -21.6678
  14   2.0000      -0.764900       -20.8140
  15   2.0000      -0.759576       -20.6691
  16   2.0000      -0.739986       -20.1361
  17   2.0000      -0.704173       -19.1615
  18   2.0000      -0.702532       -19.1169
  19   2.0000      -0.681440       -18.5429
  20   0.0000      -0.121780        -3.3138
  21   0.0000      -0.092294        -2.5115
  22   0.0000      -0.072729        -1.9790
  23   0.0000      -0.069472        -1.8904
  24   0.0000      -0.067864        -1.8467

MULLIKEN ATOMIC CHARGES
-----------------------
   0 C :    0.178682
   1 O :   -0.561547
   2 C :   -0.093842
   3 H :    0.363437
   4 H :    0.299773
   5 C :   -0.674808
   6 H :    0.332720
   7 H :    0.295623
   8 C :   -0.839750
   9 H :    0.259311
  10 H :    0.320428
  11 H :    0.285785
  12 H :    0.297753
  13 H :    0.536435
Sum of atomic charges:    1.0000000

LOEWDIN ATOMIC CHARGES
----------------------
   0 C :    0.128886
   1 O :    0.987266
   2 C :    0.349970
   3 H :   -0.269080
   4 H :   -0.295618
   5 C :    0.996932
   6 H :   -0.276309
   7 H :   -0.262625
   8 C :    0.958071
   9 H :   -0.272821
  10 H :   -0.269463
  11 H :   -0.271511
  12 H :   -0.262477
  13 H :   -0.241222

  Mayer bond orders larger than 0.100000
B(  0-C ,  1-O ) :   1.4638 B(  0-C ,  5-C ) :   0.8537 B(  0-C , 13-H ) :   0.6363
B(  1-O ,  2-C ) :   0.6137 B(  2-C ,  3-H ) :   0.7913 B(  2-C ,  4-H ) :   0.8652
B(  2-C ,  8-C ) :   1.0716 B(  5-C ,  6-H ) :   0.9230 B(  5-C ,  7-H ) :   0.9138
B(  5-C , 12-H ) :   0.9198 B(  8-C ,  9-H ) :   0.9248 B(  8-C , 10-H ) :   0.9025
B(  8-C , 11-H ) :   0.9051

MP2 TOTAL ENERGY:     -232.380890643 Eh
FINAL SINGLE POINT ENERGY      -232.380890642735

DIPOLE MOMENT
-------------
                                X             Y             Z
Electronic contribution:      1.69712       0.89176      -0.83519
Nuclear contribution   :     -0.87635      -0.30907       1.39912
                        -----------------------------------------
Total Dipole Moment    :      0.82077       0.58270       0.56393
                        -----------------------------------------
Magnitude (a.u.)       :      1.15378
Magnitude (Debye)      :      2.93269

Rotational constants in cm-1:     0.591860     0.077518     0.074699
Rotational constants in MHz : 17743.521875  2323.929990  2239.412859

                             ****ORCA TERMINATED NORMALLY****
TOTAL RUN TIME: 0 days 0 hours 10 minutes 0 seconds 69 msec
