                         Program Version 4.2.1 -  RELEASE  -
|  1> %pal
|  2>  nprocs 32
|  3> end
|  4> !RI-MP2 aug-cc-pVQZ aug-cc-pVQZ/C TightSCF
|  5> %maxcore 4500
|  6> *xyzfile 0 1  10_40TS.xyz
|  7>
|  8>
|  9>                          ****END OF INPUT****

CARTESIAN COORDINATES (ANGSTROEM)
---------------------------------
  C     -0.198172   -2.451214   -0.093870
  H     -0.188888   -3.412333   -0.610096
  H     -0.353854   -2.662575    0.984220
  C     -1.351754   -1.609725   -0.591250
  C      0.116227    0.402681   -0.499418
  H      0.497166    0.530691   -1.516061
  H      0.088960    1.387887   -0.043564
  C      1.102471   -0.477466    0.273612
  H      0.753487   -0.535066    1.324026
  N      1.080812   -1.809207   -0.316505
  C     -2.392157    0.535418   -0.157559
  C     -2.548106   -2.212001   -0.946216
  H     -3.060566   -1.786989   -1.791778
  H     -2.659667   -3.287920   -0.844710
  C     -3.556120    0.007812    0.421562
  H     -3.889504    0.573920    1.290654
  C     -4.190790   -1.201449    0.167312
  C     -1.263044   -0.219410   -0.531618
  C     -4.997812   -1.863180    1.253632
  H     -4.953702   -2.949841    1.156194
  H     -4.629450   -1.601705    2.246303
  H     -6.053443   -1.579049    1.189200
  H     -4.572332   -1.383332   -0.820832
  C      2.494303    0.127326    0.295241
  C      2.191991   -2.639577    0.105543
  H      2.032478   -3.648920   -0.279404
  H      2.246777   -2.713782    1.207192
  C      3.481385   -2.062708   -0.445491
  H      3.472831   -2.160360   -1.535277
  C      3.620500   -0.614020   -0.060588
  H      4.339958   -2.627807   -0.073756
  C      4.876419   -0.010766   -0.025688
  H      5.747042   -0.595767   -0.303142
  C      2.660681    1.447415    0.714894
  H      1.798617    2.022904    1.030426
  C      5.029068    1.307090    0.366793
  H      6.013586    1.758527    0.389393
  C      3.911664    2.038348    0.749353
  H      4.015854    3.065115    1.078650
  C     -2.246760    2.009425    0.057155
  O     -2.568053    2.611290    1.050311
  O     -1.751838    2.618108   -1.031836
  C     -1.581314    4.034009   -0.930378
  H     -0.879289    4.277394   -0.132257
  H     -2.534829    4.518812   -0.722688
  H     -1.189860    4.351435   -1.893083

 Total Charge           Charge          ....    0
 Multiplicity           Mult            ....    1
 Number of Electrons    NEL             ....  166
 Basis Dimension        Dim             .... 2898

ORBITAL ENERGIES
----------------

  NO   OCC          E(Eh)            E(eV)
   0   2.0000     -20.596019      -560.4462
   1   2.0000     -20.534692      -558.7774
   2   2.0000     -15.547396      -423.0661
   3   2.0000     -11.373511      -309.4890
   4   2.0000     -11.280993      -306.9714
   5   2.0000     -11.261676      -306.4458
   6   2.0000     -11.255321      -306.2729
   7   2.0000     -11.250449      -306.1403
   8   2.0000     -11.249824      -306.1233
   9   2.0000     -11.248599      -306.0899
  10   2.0000     -11.242006      -305.9105
  11   2.0000     -11.241593      -305.8993
  12   2.0000     -11.234950      -305.7185
  13   2.0000     -11.234606      -305.7092
  14   2.0000     -11.233376      -305.6757
  15   2.0000     -11.229355      -305.5663
  16   2.0000     -11.228141      -305.5333
  17   2.0000     -11.227558      -305.5174
  18   2.0000     -11.226313      -305.4835
  19   2.0000     -11.225614      -305.4645
  20   2.0000     -11.223798      -305.4151
  21   2.0000     -11.223053      -305.3948
  22   2.0000     -11.222880      -305.3901
  23   2.0000      -1.459914       -39.7263
  24   2.0000      -1.355040       -36.8725
  25   2.0000      -1.256235       -34.1839
  26   2.0000      -1.157575       -31.4992
  27   2.0000      -1.144269       -31.1371
  28   2.0000      -1.080551       -29.4033
  29   2.0000      -1.064727       -28.9727
  30   2.0000      -1.053134       -28.6572
  31   2.0000      -1.033531       -28.1238
  32   2.0000      -1.000861       -27.2348
  33   2.0000      -0.977631       -26.6027
  34   2.0000      -0.967323       -26.3222
  35   2.0000      -0.933616       -25.4050
  36   2.0000      -0.897160       -24.4130
  37   2.0000      -0.862948       -23.4820
  38   2.0000      -0.854633       -23.2558
  39   2.0000      -0.837675       -22.7943
  40   2.0000      -0.810656       -22.0591
  41   2.0000      -0.785390       -21.3715
  42   2.0000      -0.765333       -20.8258
  43   2.0000      -0.751632       -20.4529
  44   2.0000      -0.713831       -19.4243
  45   2.0000      -0.696718       -18.9587
  46   2.0000      -0.682416       -18.5695
  47   2.0000      -0.672632       -18.3032
  48   2.0000      -0.667247       -18.1567
  49   2.0000      -0.660115       -17.9626
  50   2.0000      -0.652692       -17.7606
  51   2.0000      -0.640467       -17.4280
  52   2.0000      -0.623574       -16.9683
  53   2.0000      -0.620528       -16.8854
  54   2.0000      -0.608987       -16.5714
  55   2.0000      -0.598616       -16.2892
  56   2.0000      -0.592355       -16.1188
  57   2.0000      -0.586278       -15.9534
  58   2.0000      -0.576727       -15.6935
  59   2.0000      -0.570045       -15.5117
  60   2.0000      -0.568898       -15.4805
  61   2.0000      -0.558415       -15.1952
  62   2.0000      -0.553596       -15.0641
  63   2.0000      -0.543376       -14.7860
  64   2.0000      -0.535738       -14.5782
  65   2.0000      -0.530584       -14.4379
  66   2.0000      -0.525024       -14.2866
  67   2.0000      -0.523788       -14.2530
  68   2.0000      -0.519501       -14.1363
  69   2.0000      -0.504372       -13.7247
  70   2.0000      -0.501577       -13.6486
  71   2.0000      -0.490320       -13.3423
  72   2.0000      -0.479429       -13.0459
  73   2.0000      -0.465191       -12.6585
  74   2.0000      -0.459924       -12.5152
  75   2.0000      -0.453027       -12.3275
  76   2.0000      -0.449691       -12.2367
  77   2.0000      -0.426626       -11.6091
  78   2.0000      -0.365069        -9.9340
  79   2.0000      -0.328619        -8.9422
  80   2.0000      -0.321917        -8.7598
  81   2.0000      -0.315165        -8.5761
  82   2.0000      -0.290035        -7.8923
  83   0.0000       0.020391         0.5549
  84   0.0000       0.023744         0.6461
  85   0.0000       0.025613         0.6970
  86   0.0000       0.029273         0.7966
  87   0.0000       0.031984         0.8703

MULLIKEN ATOMIC CHARGES
-----------------------
   0 C :   -0.075151
   1 H :    0.219492
   2 H :    0.177900
   3 C :    0.078827
   4 C :   -0.515417
   5 H :    0.272305
   6 H :    0.142846
   7 C :    1.850881
   8 H :    0.216746
   9 N :   -0.207435
  10 C :   -0.755881
  11 C :   -0.961942
  12 H :    0.236246
  13 H :    0.183590
  14 C :   -0.133101
  15 H :    0.308182
  16 C :   -0.133183
  17 C :    0.270820
  18 C :   -0.920778
  19 H :    0.260520
  20 H :    0.247024
  21 H :    0.291810
  22 H :    0.265120
  23 C :    0.385295
  24 C :   -0.793399
  25 H :    0.193535
  26 H :    0.251259
  27 C :   -0.685466
  28 H :    0.203565
  29 C :    0.298959
  30 H :    0.193248
  31 C :   -0.683010
  32 H :    0.240501
  33 C :   -0.821458
  34 H :    0.142339
  35 C :   -0.419201
  36 H :    0.258703
  37 C :   -0.517618
  38 H :    0.197972
  39 C :    2.043182
  40 O :   -1.105176
  41 O :   -0.886856
  42 C :   -1.033101
  43 H :    0.408418
  44 H :    0.389465
  45 H :    0.419423
Sum of atomic charges:    0.0000000

LOEWDIN ATOMIC CHARGES
----------------------
   0 C :    0.347699
   1 H :   -0.297087
   2 H :   -0.239145
   3 C :   -0.027572
   4 C :    0.507512
   5 H :   -0.235224
   6 H :   -0.373097
   7 C :   -0.043283
   8 H :   -0.250366
   9 N :    0.534337
  10 C :   -0.086077
  11 C :    0.732059
  12 H :   -0.352591
  13 H :   -0.271864
  14 C :    0.347449
  15 H :   -0.352791
  16 C :    0.339078
  17 C :   -0.017748
  18 C :    0.928253
  19 H :   -0.291273
  20 H :   -0.297175
  21 H :   -0.279242
  22 H :   -0.372587
  23 C :   -0.020499
  24 C :    0.355297
  25 H :   -0.277266
  26 H :   -0.237190
  27 C :    0.524589
  28 H :   -0.255595
  29 C :   -0.037706
  30 H :   -0.273855
  31 C :    0.357863
  32 H :   -0.312757
  33 C :    0.363147
  34 H :   -0.319952
  35 C :    0.349997
  36 H :   -0.320287
  37 C :    0.358805
  38 H :   -0.319219
  39 C :   -1.130917
  40 O :    0.745688
  41 O :    0.860114
  42 C :    0.584831
  43 H :   -0.311538
  44 H :   -0.314474
  45 H :   -0.318338

  Mayer bond orders larger than 0.100000
B(  0-C ,  1-H ) :   1.1692 B(  0-C ,  2-H ) :   0.9461 B(  0-C ,  3-C ) :   0.1877
B(  0-C ,  9-N ) :   1.1419 B(  0-C , 11-C ) :  -0.2404 B(  0-C , 17-C ) :  -0.1129
B(  1-H ,  3-C ) :  -0.1828 B(  3-C ,  4-C ) :  -0.2795 B(  3-C , 10-C ) :  -0.3104
B(  3-C , 11-C ) :   1.2637 B(  3-C , 12-H ) :  -0.1656 B(  3-C , 13-H ) :  -0.1576
B(  3-C , 17-C ) :   1.1327 B(  4-C ,  5-H ) :   0.9632 B(  4-C ,  6-H ) :   1.0566
B(  4-C ,  7-C ) :   0.7286 B(  4-C , 17-C ) :   0.1612 B(  4-C , 33-C ) :   0.2005
B(  6-H , 33-C ) :  -0.1325 B(  6-H , 40-O ) :   0.1189 B(  6-H , 41-O ) :   0.1652
B(  7-C ,  8-H ) :   0.9367 B(  7-C ,  9-N ) :   0.4830 B(  7-C , 23-C ) :  -0.4023
B(  7-C , 24-C ) :  -0.1856 B(  7-C , 29-C ) :  -0.5338 B(  7-C , 33-C ) :  -0.8672
B(  9-N , 17-C ) :   0.2411 B(  9-N , 24-C ) :   0.7275 B(  9-N , 26-H ) :  -0.1170
B(  9-N , 28-H ) :  -0.1008 B( 10-C , 11-C ) :   0.2639 B( 10-C , 14-C ) :   0.7006
B( 10-C , 15-H ) :  -0.1079 B( 10-C , 16-C ) :  -0.3835 B( 10-C , 17-C ) :   1.1049
B( 10-C , 39-C ) :   1.3490 B( 10-C , 40-O ) :   0.4093 B( 10-C , 41-O ) :   0.1125
B( 11-C , 12-H ) :   1.0954 B( 11-C , 13-H ) :   1.1659 B( 11-C , 16-C ) :   0.4404
B( 11-C , 17-C ) :  -0.1877 B( 14-C , 15-H ) :   0.9558 B( 14-C , 16-C ) :   1.1728
B( 14-C , 17-C ) :  -0.1063 B( 14-C , 22-H ) :  -0.1187 B( 14-C , 39-C ) :  -0.3324
B( 16-C , 17-C ) :   0.2169 B( 16-C , 18-C ) :   0.7000 B( 16-C , 22-H ) :   0.9752
B( 17-C , 39-C ) :  -0.1681 B( 17-C , 40-O ) :   0.1338 B( 18-C , 19-H ) :   1.0033
B( 18-C , 20-H ) :   0.9933 B( 18-C , 21-H ) :   0.9992 B( 23-C , 24-C ) :   0.1443
B( 23-C , 27-C ) :  -0.1419 B( 23-C , 29-C ) :   1.1516 B( 23-C , 31-C ) :  -0.5351
B( 23-C , 33-C ) :   1.0636 B( 23-C , 34-H ) :  -0.1050 B( 23-C , 37-C ) :  -0.4176
B( 24-C , 25-H ) :   1.0537 B( 24-C , 26-H ) :   1.0107 B( 24-C , 27-C ) :   1.1333
B( 24-C , 30-H ) :  -0.1017 B( 27-C , 28-H ) :   1.0728 B( 27-C , 29-C ) :   0.3541
B( 27-C , 30-H ) :   1.1563 B( 29-C , 30-H ) :  -0.1826 B( 29-C , 31-C ) :   1.0561
B( 29-C , 32-H ) :  -0.1066 B( 29-C , 35-C ) :  -0.2375 B( 31-C , 32-H ) :   1.0501
B( 31-C , 33-C ) :   0.1538 B( 31-C , 35-C ) :   1.2799 B( 31-C , 36-H ) :  -0.2013
B( 31-C , 37-C ) :   0.1463 B( 33-C , 34-H ) :   1.2277 B( 33-C , 37-C ) :   1.1986
B( 33-C , 38-H ) :  -0.1832 B( 35-C , 36-H ) :   1.1590 B( 35-C , 37-C ) :   1.2270
B( 36-H , 37-C ) :  -0.1440 B( 37-C , 38-H ) :   1.2115 B( 39-C , 40-O ) :   0.4357
B( 39-C , 41-O ) :   0.6769 B( 39-C , 42-C ) :  -0.2526 B( 40-O , 41-O ) :   0.1256
B( 41-O , 42-C ) :   1.0192 B( 42-C , 43-H ) :   0.8143 B( 42-C , 44-H ) :   0.9018
B( 42-C , 45-H ) :   0.8675

MP2 TOTAL ENERGY:     -979.435632110 Eh
FINAL SINGLE POINT ENERGY      -979.435632110310

DIPOLE MOMENT
-------------
                                X             Y             Z
Electronic contribution:      4.11120       7.64909      -1.69847
Nuclear contribution   :     -4.05093      -8.45068       1.33813
                        -----------------------------------------
Total Dipole Moment    :      0.06026      -0.80159      -0.36034
                        -----------------------------------------
Magnitude (a.u.)       :      0.88092
Magnitude (Debye)      :      2.23911

Rotational constants in cm-1:     0.013263     0.005945     0.004402
Rotational constants in MHz :   397.605641   178.220573   131.976170

                             ****ORCA TERMINATED NORMALLY****
TOTAL RUN TIME: 0 days 13 hours 47 minutes 43 seconds 968 msec
