                         Program Version 4.2.1 -  RELEASE  -
|  1> %pal
|  2>  nprocs 32
|  3> end
|  4> !RI-MP2 aug-cc-pVQZ aug-cc-pVQZ/C TightSCF
|  5> %maxcore 4500
|  6> *xyzfile 0 2  01_11R.xyz
|  7>
|  8>
|  9>                          ****END OF INPUT****

CARTESIAN COORDINATES (ANGSTROEM)
---------------------------------
  C     -1.082645    1.244551   -0.023552
  C     -1.802652   -0.062509   -0.201516
  C     -0.832814   -1.230121   -0.372376
  C      0.300720   -1.137954    0.644601
  C      1.121039    0.150129    0.438334
  C      0.213210    1.340168    0.248887
  C      2.108651    0.026168   -0.674553
  H     -2.473205    0.004412   -1.063517
  H     -2.451762   -0.235222    0.666416
  H     -0.408308   -1.204952   -1.381049
  H     -1.363306   -2.180088   -0.272881
  H      0.957943   -2.008290    0.575455
  H     -0.119796   -1.132659    1.655709
  H      1.691029    0.317209    1.367004
  H      2.236514    0.810590   -1.408739
  H      2.777125   -0.826276   -0.710963
  H      0.671428    2.320810    0.340044
  H     -1.670708    2.151871   -0.126426

 Total Charge           Charge          ....    0
 Multiplicity           Mult            ....    2
 Number of Electrons    NEL             ....   53
 Basis Dimension        Dim             .... 1066

ORBITAL ENERGIES
----------------
                 SPIN UP ORBITALS
  NO   OCC          E(Eh)            E(eV)
   0   1.0000     -11.228175      -305.5342
   1   1.0000     -11.225726      -305.4675
   2   1.0000     -11.219428      -305.2962
   3   1.0000     -11.218728      -305.2771
   4   1.0000     -11.216901      -305.2274
   5   1.0000     -11.216067      -305.2047
   6   1.0000     -11.213486      -305.1345
   7   1.0000      -1.129733       -30.7416
   8   1.0000      -1.034839       -28.1594
   9   1.0000      -1.006716       -27.3941
  10   1.0000      -0.922008       -25.0891
  11   1.0000      -0.825381       -22.4598
  12   1.0000      -0.808036       -21.9878
  13   1.0000      -0.690606       -18.7923
  14   1.0000      -0.669268       -18.2117
  15   1.0000      -0.619936       -16.8693
  16   1.0000      -0.604595       -16.4519
  17   1.0000      -0.580193       -15.7879
  18   1.0000      -0.556095       -15.1321
  19   1.0000      -0.539423       -14.6784
  20   1.0000      -0.528145       -14.3716
  21   1.0000      -0.515149       -14.0179
  22   1.0000      -0.465984       -12.6801
  23   1.0000      -0.460120       -12.5205
  24   1.0000      -0.434674       -11.8281
  25   1.0000      -0.349013        -9.4971
  26   1.0000      -0.345614        -9.4046
  27   0.0000       0.026256         0.7145
  28   0.0000       0.031080         0.8457
  29   0.0000       0.031465         0.8562
  30   0.0000       0.033535         0.9125
  31   0.0000       0.044072         1.1993

                 SPIN DOWN ORBITALS
  NO   OCC          E(Eh)            E(eV)
   0   1.0000     -11.231497      -305.6246
   1   1.0000     -11.220160      -305.3161
   2   1.0000     -11.218936      -305.2828
   3   1.0000     -11.215473      -305.1885
   4   1.0000     -11.214622      -305.1654
   5   1.0000     -11.213448      -305.1334
   6   1.0000     -11.202022      -304.8225
   7   1.0000      -1.124668       -30.6038
   8   1.0000      -1.019727       -27.7482
   9   1.0000      -1.005593       -27.3636
  10   1.0000      -0.881916       -23.9982
  11   1.0000      -0.819387       -22.2967
  12   1.0000      -0.785788       -21.3824
  13   1.0000      -0.687099       -18.6969
  14   1.0000      -0.664852       -18.0915
  15   1.0000      -0.613349       -16.6901
  16   1.0000      -0.596468       -16.2307
  17   1.0000      -0.574924       -15.6445
  18   1.0000      -0.553389       -15.0585
  19   1.0000      -0.534105       -14.5337
  20   1.0000      -0.520419       -14.1613
  21   1.0000      -0.510632       -13.8950
  22   1.0000      -0.461579       -12.5602
  23   1.0000      -0.451051       -12.2737
  24   1.0000      -0.433363       -11.7924
  25   1.0000      -0.345224        -9.3940
  26   0.0000       0.026429         0.7192
  27   0.0000       0.031183         0.8485
  28   0.0000       0.031344         0.8529
  29   0.0000       0.033768         0.9189
  30   0.0000       0.044105         1.2001

MULLIKEN ATOMIC CHARGES AND SPIN POPULATIONS
--------------------------------------------
   0 C :   -0.412726   -0.128845
   1 C :   -0.391840    0.022024
   2 C :   -0.431864   -0.005403
   3 C :   -0.479298    0.047774
   4 C :    0.175989   -0.267513
   5 C :   -0.421885    0.139983
   6 C :   -0.931569    1.270780
   7 H :    0.263528   -0.003900
   8 H :    0.161640   -0.006545
   9 H :    0.193359    0.003644
  10 H :    0.286540    0.000223
  11 H :    0.264767   -0.003626
  12 H :    0.211277   -0.003162
  13 H :    0.281143    0.097658
  14 H :    0.318079   -0.087858
  15 H :    0.314094   -0.072671
  16 H :    0.284928   -0.011989
  17 H :    0.313838    0.009427
Sum of atomic charges         :    0.0000000

LOEWDIN ATOMIC CHARGES AND SPIN POPULATIONS
-------------------------------------------
   0 C :    0.406470   -0.023970
   1 C :    0.498650   -0.009230
   2 C :    0.510697    0.009658
   3 C :    0.494242    0.023144
   4 C :    0.035047    0.148227
   5 C :    0.368084    0.035739
   6 C :    0.857105    0.463633
   7 H :   -0.277046   -0.001523
   8 H :   -0.271705   -0.002286
   9 H :   -0.267934    0.008815
  10 H :   -0.257207    0.000767
  11 H :   -0.268427    0.004296
  12 H :   -0.260456    0.004489
  13 H :   -0.293933    0.033046
  14 H :   -0.325849    0.154816
  15 H :   -0.322551    0.149832
  16 H :   -0.311457    0.011589
  17 H :   -0.313728   -0.011042

  Mayer bond orders larger than 0.100000
B(  0-C ,  1-C ) :   0.6501 B(  0-C ,  5-C ) :   1.7897 B(  0-C , 17-H ) :   0.9947
B(  1-C ,  2-C ) :   0.9289 B(  1-C ,  7-H ) :   0.9691 B(  1-C ,  8-H ) :   1.0030
B(  2-C ,  3-C ) :   0.8788 B(  2-C ,  9-H ) :   0.9524 B(  2-C , 10-H ) :   0.9084
B(  3-C ,  4-C ) :   0.8453 B(  3-C , 11-H ) :   0.9344 B(  3-C , 12-H ) :   0.9650
B(  4-C ,  5-C ) :   0.6499 B(  4-C ,  6-C ) :   0.8469 B(  4-C , 13-H ) :   0.8674
B(  5-C , 16-H ) :   1.0181 B(  5-C , 17-H ) :  -0.1196 B(  6-C , 14-H ) :   0.9610
B(  6-C , 15-H ) :   0.9384

MP2 TOTAL ENERGY:     -272.753980701 Eh
FINAL SINGLE POINT ENERGY      -272.753980700505

DIPOLE MOMENT
-------------
                                X             Y             Z
Electronic contribution:      0.11019       1.95945       0.42608
Nuclear contribution   :     -0.16008      -2.07370      -0.37544
                        -----------------------------------------
Total Dipole Moment    :     -0.04989      -0.11425       0.05064
                        -----------------------------------------
Magnitude (a.u.)       :      0.13456
Magnitude (Debye)      :      0.34201

Rotational constants in cm-1:     0.135641     0.087519     0.064060
Rotational constants in MHz :  4066.410891  2623.763573  1920.458911

                             ****ORCA TERMINATED NORMALLY****
TOTAL RUN TIME: 0 days 1 hours 57 minutes 56 seconds 739 msec
