                         Program Version 4.2.1 -  RELEASE  -
|  1> %pal
|  2>  nprocs 32
|  3> end
|  4> !RI-MP2 aug-cc-pVQZ aug-cc-pVQZ/C TightSCF
|  5> %maxcore 4500
|  6> *xyzfile -1 1  05_2R.xyz
|  7>
|  8>
|  9>                          ****END OF INPUT****

CARTESIAN COORDINATES (ANGSTROEM)
---------------------------------
  O      0.578012    1.821886   -0.971547
  C      0.570864    0.857472   -0.238064
  C      1.674528   -0.216113   -0.279960
  O      2.363363   -0.114426    1.011320
  O      1.182266   -1.436383   -0.461251
  C     -0.571920    0.639028    0.746185
  H      2.408434    0.117512   -1.037603
  C     -1.766070   -0.128603    0.175604
  H     -0.941762    1.608548    1.073447
  H     -0.192751    0.080666    1.604696
  O     -2.915977    0.255904    0.370495
  N     -1.435898   -1.234430   -0.503112
  H      2.270241   -1.020064    1.329614
  H     -0.409090   -1.488682   -0.580281
  H     -2.189510   -1.783522   -0.882811

 Total Charge           Charge          ....   -1
 Multiplicity           Mult            ....    1
 Number of Electrons    NEL             ....   70
 Basis Dimension        Dim             ....  996

ORBITAL ENERGIES
----------------

  NO   OCC          E(Eh)            E(eV)
   0   2.0000     -20.404133      -555.2247
   1   2.0000     -20.394850      -554.9721
   2   2.0000     -20.373368      -554.3875
   3   2.0000     -20.305536      -552.5417
   4   2.0000     -15.415270      -419.4708
   5   2.0000     -11.208020      -304.9857
   6   2.0000     -11.177073      -304.1436
   7   2.0000     -11.158756      -303.6452
   8   2.0000     -11.099156      -302.0234
   9   2.0000      -1.249523       -34.0013
  10   2.0000      -1.232464       -33.5370
  11   2.0000      -1.210748       -32.9461
  12   2.0000      -1.100658       -29.9504
  13   2.0000      -1.054204       -28.6863
  14   2.0000      -0.887305       -24.1448
  15   2.0000      -0.751994       -20.4628
  16   2.0000      -0.656034       -17.8516
  17   2.0000      -0.593326       -16.1452
  18   2.0000      -0.576594       -15.6899
  19   2.0000      -0.527663       -14.3584
  20   2.0000      -0.511464       -13.9177
  21   2.0000      -0.494430       -13.4541
  22   2.0000      -0.487054       -13.2534
  23   2.0000      -0.456574       -12.4240
  24   2.0000      -0.435575       -11.8526
  25   2.0000      -0.425932       -11.5902
  26   2.0000      -0.394343       -10.7306
  27   2.0000      -0.377115       -10.2618
  28   2.0000      -0.365894        -9.9565
  29   2.0000      -0.328492        -8.9387
  30   2.0000      -0.291068        -7.9204
  31   2.0000      -0.284510        -7.7419
  32   2.0000      -0.263587        -7.1726
  33   2.0000      -0.232347        -6.3225
  34   2.0000      -0.204564        -5.5665
  35   0.0000       0.113749         3.0953
  36   0.0000       0.118933         3.2363
  37   0.0000       0.122956         3.3458
  38   0.0000       0.125792         3.4230
  39   0.0000       0.139355         3.7920

MULLIKEN ATOMIC CHARGES
-----------------------
   0 O :   -0.917316
   1 C :    0.707701
   2 C :    0.662919
   3 O :   -0.907951
   4 O :   -1.103306
   5 C :   -0.620391
   6 H :    0.381993
   7 C :    0.988247
   8 H :    0.293780
   9 H :    0.324478
  10 O :   -0.890641
  11 N :   -0.762076
  12 H :    0.340505
  13 H :    0.412437
  14 H :    0.089619
Sum of atomic charges:   -1.0000000

LOEWDIN ATOMIC CHARGES
----------------------
   0 O :    0.702136
   1 C :   -0.732699
   2 C :   -0.847211
   3 O :    1.188607
   4 O :    0.772106
   5 C :    0.401149
   6 H :   -0.411144
   7 C :   -0.875112
   8 H :   -0.350937
   9 H :   -0.323306
  10 O :    0.638609
  11 N :    1.183715
  12 H :   -0.924367
  13 H :   -0.919774
  14 H :   -0.501772

  Mayer bond orders larger than 0.100000
B(  0-O ,  1-C ) :   1.0802 B(  0-O ,  2-C ) :   0.1164 B(  0-O ,  5-C ) :   0.1170
B(  1-C ,  2-C ) :   0.8577 B(  1-C ,  4-O ) :   0.1123 B(  1-C ,  5-C ) :   0.9382
B(  2-C ,  3-O ) :   0.5789 B(  2-C ,  4-O ) :   0.8970 B(  2-C ,  6-H ) :   0.8744
B(  3-O , 12-H ) :   0.8595 B(  4-O , 13-H ) :   0.1493 B(  5-C ,  7-C ) :   0.9992
B(  5-C ,  8-H ) :   0.9264 B(  5-C ,  9-H ) :   0.8763 B(  5-C , 10-O ) :   0.1134
B(  7-C , 10-O ) :   1.0768 B(  7-C , 11-N ) :   1.2013 B( 10-O , 11-N ) :   0.1807
B( 11-N , 13-H ) :   0.7137 B( 11-N , 14-H ) :   1.1446

MP2 TOTAL ENERGY:     -511.095829567 Eh
FINAL SINGLE POINT ENERGY      -511.095829566714

DIPOLE MOMENT
-------------
                                X             Y             Z
Electronic contribution:     -1.12522       2.02211      -0.95099
Nuclear contribution   :      0.93802      -2.43731       1.47476
                        -----------------------------------------
Total Dipole Moment    :     -0.18720      -0.41520       0.52377
                        -----------------------------------------
Magnitude (a.u.)       :      0.69410
Magnitude (Debye)      :      1.76426

Rotational constants in cm-1:     0.089054     0.038765     0.033033
Rotational constants in MHz :  2669.781736  1162.151430   990.299291

                             ****ORCA TERMINATED NORMALLY****
TOTAL RUN TIME: 0 days 0 hours 23 minutes 56 seconds 45 msec
