                         Program Version 4.2.1 -  RELEASE  -
|  1> %pal
|  2>  nprocs 32
|  3> end
|  4> !RI-MP2 aug-cc-pVQZ aug-cc-pVQZ/C TightSCF
|  5> %maxcore 4500
|  6> *xyzfile 0 1  03_21R1.xyz
|  7>
|  8>
|  9>                          ****END OF INPUT****

CARTESIAN COORDINATES (ANGSTROEM)
---------------------------------
  Cl    -2.016113   -0.928519   -0.875565
  C     -1.193310    0.295319    0.236868
  C      0.309892    0.134905    0.077056
  C     -1.626458   -0.037142    1.660290
  C     -1.722903    1.659502   -0.175187
  C      0.902493   -1.111219    0.285852
  C      1.132898    1.214417   -0.223414
  H     -1.324266   -1.043987    1.944029
  H     -2.709463    0.043480    1.759284
  H     -1.154824    0.667966    2.349236
  H     -1.452444    1.900565   -1.202696
  H     -1.326538    2.431879    0.487715
  H     -2.809319    1.669110   -0.094862
  C      2.273973   -1.271492    0.198308
  C      3.087575   -0.184455   -0.099415
  C      2.511900    1.056567   -0.310297
  H      0.710749    2.194750   -0.395117
  H      2.710895   -2.249942    0.357530
  H      4.161321   -0.308682   -0.169687
  H      3.133080    1.911982   -0.547147
  H      0.278373   -1.970705    0.495960

 Total Charge           Charge          ....    0
 Multiplicity           Mult            ....    1
 Number of Electrons    NEL             ....   82
 Basis Dimension        Dim             .... 1310

ORBITAL ENERGIES
----------------

  NO   OCC          E(Eh)            E(eV)
   0   2.0000    -104.809324     -2852.0067
   1   2.0000     -11.313283      -307.8501
   2   2.0000     -11.248544      -306.0885
   3   2.0000     -11.237976      -305.8009
   4   2.0000     -11.236965      -305.7734
   5   2.0000     -11.236401      -305.7580
   6   2.0000     -11.235274      -305.7273
   7   2.0000     -11.234483      -305.7058
   8   2.0000     -11.230172      -305.5885
   9   2.0000     -11.229722      -305.5763
  10   2.0000     -10.535453      -286.6843
  11   2.0000      -8.002337      -217.7547
  12   2.0000      -8.000835      -217.7138
  13   2.0000      -8.000817      -217.7133
  14   2.0000      -1.180383       -32.1199
  15   2.0000      -1.135002       -30.8850
  16   2.0000      -1.035105       -28.1666
  17   2.0000      -1.021724       -27.8025
  18   2.0000      -1.001427       -27.2502
  19   2.0000      -0.955314       -25.9954
  20   2.0000      -0.853341       -23.2206
  21   2.0000      -0.830555       -22.6006
  22   2.0000      -0.765656       -20.8346
  23   2.0000      -0.705893       -19.2083
  24   2.0000      -0.643938       -17.5224
  25   2.0000      -0.640671       -17.4335
  26   2.0000      -0.622131       -16.9290
  27   2.0000      -0.618240       -16.8232
  28   2.0000      -0.593846       -16.1594
  29   2.0000      -0.581240       -15.8163
  30   2.0000      -0.557624       -15.1737
  31   2.0000      -0.538762       -14.6605
  32   2.0000      -0.519112       -14.1258
  33   2.0000      -0.517652       -14.0860
  34   2.0000      -0.495722       -13.4893
  35   2.0000      -0.492156       -13.3922
  36   2.0000      -0.477258       -12.9868
  37   2.0000      -0.430682       -11.7194
  38   2.0000      -0.425655       -11.5827
  39   2.0000      -0.343127        -9.3370
  40   2.0000      -0.335360        -9.1256
  41   0.0000       0.022920         0.6237
  42   0.0000       0.026814         0.7296
  43   0.0000       0.029023         0.7898
  44   0.0000       0.036656         0.9975
  45   0.0000       0.039546         1.0761

MULLIKEN ATOMIC CHARGES
-----------------------
   0 Cl:   -0.614084
   1 C :    1.097798
   2 C :    0.645673
   3 C :   -1.051764
   4 C :   -1.023122
   5 C :   -0.415767
   6 C :   -0.509841
   7 H :    0.260741
   8 H :    0.311270
   9 H :    0.299614
  10 H :    0.264506
  11 H :    0.177149
  12 H :    0.297797
  13 C :   -0.298682
  14 C :   -0.342113
  15 C :   -0.385710
  16 H :    0.226056
  17 H :    0.216444
  18 H :    0.342633
  19 H :    0.226292
  20 H :    0.275111
Sum of atomic charges:   -0.0000000

LOEWDIN ATOMIC CHARGES
----------------------
   0 Cl:    1.217629
   1 C :   -0.889327
   2 C :   -0.190611
   3 C :    0.806607
   4 C :    0.777684
   5 C :    0.292045
   6 C :    0.338919
   7 H :   -0.311298
   8 H :   -0.295015
   9 H :   -0.266514
  10 H :   -0.294544
  11 H :   -0.282061
  12 H :   -0.302090
  13 C :    0.355406
  14 C :    0.342249
  15 C :    0.356366
  16 H :   -0.353025
  17 H :   -0.317229
  18 H :   -0.320262
  19 H :   -0.317811
  20 H :   -0.347117

  Mayer bond orders larger than 0.100000
B(  0-Cl,  1-C ) :   0.4221 B(  0-Cl,  2-C ) :  -0.1484 B(  1-C ,  2-C ) :   0.5980
B(  1-C ,  3-C ) :   0.6698 B(  1-C ,  4-C ) :   0.5341 B(  1-C ,  5-C ) :  -0.1580
B(  1-C ,  6-C ) :  -0.2470 B(  1-C , 12-H ) :  -0.1228 B(  2-C ,  5-C ) :   0.8281
B(  2-C ,  6-C ) :   0.9496 B(  2-C , 13-C ) :  -0.3534 B(  2-C , 15-C ) :  -0.3962
B(  2-C , 20-H ) :  -0.1421 B(  3-C ,  7-H ) :   1.0094 B(  3-C ,  8-H ) :   0.9723
B(  3-C ,  9-H ) :   0.9249 B(  4-C , 10-H ) :   1.0193 B(  4-C , 11-H ) :   1.0294
B(  4-C , 12-H ) :   1.0188 B(  5-C , 13-C ) :   1.3304 B(  5-C , 15-C ) :   0.1407
B(  5-C , 17-H ) :  -0.1572 B(  5-C , 20-H ) :   0.9740 B(  6-C , 13-C ) :   0.1562
B(  6-C , 15-C ) :   1.2981 B(  6-C , 16-H ) :   1.0296 B(  6-C , 19-H ) :  -0.1236
B( 13-C , 14-C ) :   1.1142 B( 13-C , 17-H ) :   1.1796 B( 14-C , 15-C ) :   1.1885
B( 14-C , 18-H ) :   1.0165 B( 15-C , 19-H ) :   1.1450

MP2 TOTAL ENERGY:     -808.673846595 Eh
FINAL SINGLE POINT ENERGY      -808.673846594715

DIPOLE MOMENT
-------------
                                X             Y             Z
Electronic contribution:     -2.68206      -5.95595      -5.63393
Nuclear contribution   :      3.08913       6.54768       6.21114
                        -----------------------------------------
Total Dipole Moment    :      0.40706       0.59173       0.57722
                        -----------------------------------------
Magnitude (a.u.)       :      0.92143
Magnitude (Debye)      :      2.34208

Rotational constants in cm-1:     0.069997     0.026152     0.023162
Rotational constants in MHz :  2098.462651   784.013983   694.379905

                             ****ORCA TERMINATED NORMALLY****
TOTAL RUN TIME: 0 days 1 hours 1 minutes 48 seconds 716 msec
