                         Program Version 4.2.1 -  RELEASE  -
|  1> %pal
|  2>  nprocs 32
|  3> end
|  4> !RI-MP2 aug-cc-pVQZ aug-cc-pVQZ/C TightSCF
|  5> %maxcore 4500
|  6> *xyzfile 0 1  10_74R.xyz
|  7>
|  8>
|  9>                          ****END OF INPUT****

CARTESIAN COORDINATES (ANGSTROEM)
---------------------------------
  C      0.612966   -2.042089   -0.492311
  C      1.899487   -1.983631   -0.126174
  C     -0.511754   -1.586188    0.327445
  C     -1.706875   -1.409368   -0.252967
  C     -1.582109    1.714548   -0.008302
  C     -2.943600   -0.837719    0.382807
  C      3.434494    0.911966   -0.323261
  C      2.752870    1.884617    0.300241
  H      2.925424    0.373388   -1.114786
  C      4.808654    0.411615   -0.037452
  C      1.348365    2.043753   -0.079798
  C      0.474326    2.962492    0.349461
  C     -0.939297    2.882210   -0.023465
  C     -2.957828    1.537546   -0.529477
  N     -3.510325    0.298685   -0.374945
  H     -2.754131   -0.538113    1.411273
  C     -4.095939   -1.854082    0.410445
  C      3.008364   -2.322443   -1.004657
  H      2.148863   -1.606352    0.858749
  C      4.827264   -1.095686    0.280328
  H      5.253494    0.914054    0.825609
  O      5.678474    0.555230   -1.167542
  C      4.276793   -1.939194   -0.840347
  H      4.250911   -1.245094    1.194629
  O      6.153731   -1.482705    0.594524
  H      0.367714   -2.383186   -1.495270
  C     -0.216758   -1.250438    1.764285
  C      3.296328    2.766637    1.386790
  H      0.980765    1.294396   -0.774555
  H      0.792476    3.789410    0.977436
  H      5.683491    1.474093   -1.446940
  H      6.721281   -1.140686   -0.106358
  H      2.758358   -2.897279   -1.892156
  H      5.008078   -2.222892   -1.589421
  C     -4.859715    0.034444   -0.897901
  O     -3.558665    2.436718   -1.101758
  H      3.179158    3.818370    1.113291
  H      4.351579    2.589180    1.583052
  H      2.745830    2.616152    2.318981
  H      0.457819   -0.390973    1.827470
  H      0.281531   -2.089149    2.254652
  H     -1.110082   -1.017653    2.337304
  C     -4.941687   -1.490461   -0.806744
  O     -4.784318   -1.666833    1.642065
  H     -3.705450   -2.874022    0.358154
  H     -4.890749    0.374256   -1.934558
  C     -5.948842    0.762050   -0.114398
  H     -5.967487   -1.853688   -0.721924
  H     -4.498672   -1.947646   -1.695514
  H     -6.929170    0.518297   -0.532480
  H     -5.801449    1.838034   -0.189956
  H     -5.933196    0.466668    0.934897
  H     -5.534402   -2.266600    1.676082
  H     -1.806635   -1.653137   -1.308374
  H     -1.059980    0.847571    0.359516
  H     -1.469935    3.779071   -0.329775

 Total Charge           Charge          ....    0
 Multiplicity           Mult            ....    1
 Number of Electrons    NEL             ....  200
 Basis Dimension        Dim             .... 3494

ORBITAL ENERGIES
----------------

  NO   OCC          E(Eh)            E(eV)
   0   2.0000     -20.571095      -559.7680
   1   2.0000     -20.567408      -559.6676
   2   2.0000     -20.553838      -559.2984
   3   2.0000     -20.498232      -557.7852
   4   2.0000     -15.573603      -423.7793
   5   2.0000     -11.336732      -308.4882
   6   2.0000     -11.295066      -307.3544
   7   2.0000     -11.294532      -307.3398
   8   2.0000     -11.290593      -307.2327
   9   2.0000     -11.278262      -306.8971
  10   2.0000     -11.260729      -306.4200
  11   2.0000     -11.257130      -306.3221
  12   2.0000     -11.252707      -306.2017
  13   2.0000     -11.249662      -306.1189
  14   2.0000     -11.243931      -305.9629
  15   2.0000     -11.242251      -305.9172
  16   2.0000     -11.241594      -305.8993
  17   2.0000     -11.239659      -305.8467
  18   2.0000     -11.237396      -305.7851
  19   2.0000     -11.236705      -305.7663
  20   2.0000     -11.234957      -305.7187
  21   2.0000     -11.234678      -305.7111
  22   2.0000     -11.233481      -305.6786
  23   2.0000     -11.232042      -305.6394
  24   2.0000     -11.230121      -305.5871
  25   2.0000     -11.224811      -305.4426
  26   2.0000     -11.197671      -304.7041
  27   2.0000      -1.387366       -37.7521
  28   2.0000      -1.378826       -37.5198
  29   2.0000      -1.367173       -37.2027
  30   2.0000      -1.355046       -36.8727
  31   2.0000      -1.250298       -34.0223
  32   2.0000      -1.140279       -31.0286
  33   2.0000      -1.134001       -30.8577
  34   2.0000      -1.102801       -30.0088
  35   2.0000      -1.090342       -29.6697
  36   2.0000      -1.066240       -29.0139
  37   2.0000      -1.050108       -28.5749
  38   2.0000      -1.024104       -27.8673
  39   2.0000      -1.002249       -27.2726
  40   2.0000      -0.982262       -26.7287
  41   2.0000      -0.957903       -26.0659
  42   2.0000      -0.946484       -25.7551
  43   2.0000      -0.924713       -25.1627
  44   2.0000      -0.892397       -24.2834
  45   2.0000      -0.864746       -23.5309
  46   2.0000      -0.847866       -23.0716
  47   2.0000      -0.815343       -22.1866
  48   2.0000      -0.803096       -21.8533
  49   2.0000      -0.768184       -20.9034
  50   2.0000      -0.760940       -20.7062
  51   2.0000      -0.746511       -20.3136
  52   2.0000      -0.741400       -20.1745
  53   2.0000      -0.723888       -19.6980
  54   2.0000      -0.717325       -19.5194
  55   2.0000      -0.706695       -19.2301
  56   2.0000      -0.695317       -18.9205
  57   2.0000      -0.673620       -18.3301
  58   2.0000      -0.671713       -18.2782
  59   2.0000      -0.662660       -18.0319
  60   2.0000      -0.647145       -17.6097
  61   2.0000      -0.643486       -17.5101
  62   2.0000      -0.639300       -17.3962
  63   2.0000      -0.629881       -17.1399
  64   2.0000      -0.617206       -16.7950
  65   2.0000      -0.609172       -16.5764
  66   2.0000      -0.601677       -16.3725
  67   2.0000      -0.594827       -16.1861
  68   2.0000      -0.590120       -16.0580
  69   2.0000      -0.587550       -15.9880
  70   2.0000      -0.583932       -15.8896
  71   2.0000      -0.576072       -15.6757
  72   2.0000      -0.568433       -15.4679
  73   2.0000      -0.561850       -15.2887
  74   2.0000      -0.555658       -15.1202
  75   2.0000      -0.554435       -15.0869
  76   2.0000      -0.542783       -14.7699
  77   2.0000      -0.541694       -14.7402
  78   2.0000      -0.536702       -14.6044
  79   2.0000      -0.531633       -14.4665
  80   2.0000      -0.530832       -14.4447
  81   2.0000      -0.522975       -14.2309
  82   2.0000      -0.515406       -14.0249
  83   2.0000      -0.508798       -13.8451
  84   2.0000      -0.502764       -13.6809
  85   2.0000      -0.500549       -13.6206
  86   2.0000      -0.493534       -13.4297
  87   2.0000      -0.485514       -13.2115
  88   2.0000      -0.478446       -13.0192
  89   2.0000      -0.465715       -12.6727
  90   2.0000      -0.455564       -12.3965
  91   2.0000      -0.445430       -12.1208
  92   2.0000      -0.441987       -12.0271
  93   2.0000      -0.439419       -11.9572
  94   2.0000      -0.412032       -11.2119
  95   2.0000      -0.389251       -10.5920
  96   2.0000      -0.381300       -10.3757
  97   2.0000      -0.366370        -9.9694
  98   2.0000      -0.315500        -8.5852
  99   2.0000      -0.297531        -8.0962
 100   0.0000       0.017708         0.4818
 101   0.0000       0.019292         0.5250
 102   0.0000       0.024392         0.6637
 103   0.0000       0.027614         0.7514
 104   0.0000       0.029963         0.8153

MULLIKEN ATOMIC CHARGES
-----------------------
   0 C :   -0.145149
   1 C :   -0.342091
   2 C :    0.725727
   3 C :   -0.230610
   4 C :   -1.468735
   5 C :    0.736287
   6 C :   -0.704041
   7 C :    0.754270
   8 H :    0.194057
   9 C :    0.850741
  10 C :   -0.428137
  11 C :    0.027823
  12 C :   -0.273240
  13 C :    1.758394
  14 N :   -0.220725
  15 H :    0.147637
  16 C :    0.694675
  17 C :   -0.141641
  18 H :    0.246770
  19 C :    1.092576
  20 H :    0.070896
  21 O :   -1.116228
  22 C :   -0.984164
  23 H :    0.123475
  24 O :   -1.196264
  25 H :    0.017728
  26 C :   -1.002915
  27 C :   -1.004656
  28 H :    0.117626
  29 H :    0.329114
  30 H :    0.278991
  31 H :    0.340592
  32 H :    0.179825
  33 H :    0.158325
  34 C :   -0.098976
  35 O :   -1.087282
  36 H :    0.209852
  37 H :    0.273002
  38 H :    0.182970
  39 H :    0.339572
  40 H :    0.135812
  41 H :    0.312290
  42 C :   -0.866842
  43 O :   -1.107482
  44 H :    0.193161
  45 H :    0.384266
  46 C :   -1.142230
  47 H :    0.257915
  48 H :    0.202807
  49 H :    0.277378
  50 H :    0.306150
  51 H :    0.213529
  52 H :    0.293290
  53 H :    0.009675
  54 H :    0.883656
  55 H :    0.240557
Sum of atomic charges:   -0.0000000

LOEWDIN ATOMIC CHARGES
----------------------
   0 C :    0.378726
   1 C :    0.343801
   2 C :   -0.015828
   3 C :    0.391552
   4 C :    0.331879
   5 C :   -0.039825
   6 C :    0.368994
   7 C :    0.001213
   8 H :   -0.368301
   9 C :   -0.219667
  10 C :    0.341572
  11 C :    0.386670
  12 C :    0.379269
  13 C :   -0.833295
  14 N :    0.465856
  15 H :   -0.346791
  16 C :   -0.181436
  17 C :    0.376423
  18 H :   -0.377105
  19 C :   -0.255264
  20 H :   -0.335006
  21 O :    1.305886
  22 C :    0.376679
  23 H :   -0.335368
  24 O :    1.303744
  25 H :   -0.331623
  26 C :    0.913463
  27 C :    0.908363
  28 H :   -0.357869
  29 H :   -0.329213
  30 H :   -0.759097
  31 H :   -0.838877
  32 H :   -0.332477
  33 H :   -0.318757
  34 C :   -0.035088
  35 O :    0.732418
  36 H :   -0.281990
  37 H :   -0.315733
  38 H :   -0.269845
  39 H :   -0.274000
  40 H :   -0.265482
  41 H :   -0.302772
  42 C :    0.538297
  43 O :    1.322926
  44 H :   -0.273147
  45 H :   -0.278695
  46 C :    0.943819
  47 H :   -0.258102
  48 H :   -0.252720
  49 H :   -0.269129
  50 H :   -0.310424
  51 H :   -0.298862
  52 H :   -0.760431
  53 H :   -0.302193
  54 H :   -0.467261
  55 H :   -0.319881

  Mayer bond orders larger than 0.100000
B(  0-C ,  1-C ) :   0.8864 B(  0-C ,  2-C ) :   0.9213 B(  0-C ,  3-C ) :  -1.0137
B(  0-C , 17-C ) :  -0.8145 B(  0-C , 25-H ) :   1.3644 B(  0-C , 53-H ) :  -0.1044
B(  1-C ,  2-C ) :  -0.6401 B(  1-C , 17-C ) :   0.9631 B(  1-C , 18-H ) :   1.0315
B(  1-C , 22-C ) :  -0.3882 B(  1-C , 25-H ) :  -0.1784 B(  2-C ,  3-C ) :   1.0378
B(  2-C ,  5-C ) :  -0.6986 B(  2-C , 25-H ) :  -0.2053 B(  2-C , 26-C ) :   0.5164
B(  2-C , 40-H ) :  -0.2540 B(  2-C , 53-H ) :  -0.3468 B(  3-C ,  5-C ) :   0.6347
B(  3-C , 14-N ) :   0.1926 B(  3-C , 16-C ) :  -0.2092 B(  3-C , 53-H ) :   1.4926
B(  3-C , 54-H ) :   0.1517 B(  4-C , 11-C ) :  -0.3104 B(  4-C , 12-C ) :   1.6732
B(  4-C , 13-C ) :   0.7055 B(  4-C , 35-O ) :   0.4437 B(  5-C , 14-N ) :   0.7118
B(  5-C , 15-H ) :   1.0761 B(  5-C , 16-C ) :   0.7501 B(  5-C , 42-C ) :  -0.2141
B(  5-C , 44-H ) :  -0.1114 B(  6-C ,  7-C ) :   1.2592 B(  6-C ,  8-H ) :   1.2042
B(  6-C ,  9-C ) :   0.9937 B(  6-C , 10-C ) :  -0.7619 B(  6-C , 20-H ) :  -0.1505
B(  6-C , 21-O ) :   0.3471 B(  7-C ,  8-H ) :  -0.2298 B(  7-C ,  9-C ) :  -0.2640
B(  7-C , 10-C ) :   0.5284 B(  7-C , 11-C ) :  -0.4969 B(  7-C , 12-C ) :  -0.1056
B(  7-C , 27-C ) :   0.2985 B(  7-C , 28-H ) :  -0.2372 B(  7-C , 36-H ) :  -0.1748
B(  7-C , 37-H ) :  -0.1573 B(  7-C , 38-H ) :  -0.1473 B(  9-C , 19-C ) :   0.9991
B(  9-C , 20-H ) :   1.1902 B(  9-C , 21-O ) :  -0.2938 B(  9-C , 24-O ) :   0.1614
B( 10-C , 11-C ) :   1.8182 B( 10-C , 12-C ) :  -0.3129 B( 10-C , 28-H ) :   1.2485
B( 10-C , 54-H ) :  -0.1508 B( 11-C , 12-C ) :   1.0370 B( 11-C , 28-H ) :   0.1118
B( 11-C , 29-H ) :   0.9180 B( 11-C , 54-H ) :  -0.2293 B( 12-C , 13-C ) :  -0.5680
B( 12-C , 29-H ) :  -0.1288 B( 12-C , 54-H ) :  -0.1256 B( 12-C , 55-H ) :   0.9843
B( 13-C , 14-N ) :   1.2056 B( 13-C , 35-O ) :  -0.1214 B( 13-C , 54-H ) :  -0.2256
B( 14-N , 34-C ) :   0.3244 B( 14-N , 35-O ) :   0.6611 B( 14-N , 43-O ) :   0.1018
B( 16-C , 42-C ) :   1.0548 B( 16-C , 44-H ) :   1.1567 B( 17-C , 22-C ) :   1.5716
B( 17-C , 32-H ) :   1.0720 B( 17-C , 33-H ) :  -0.2495 B( 19-C , 21-O ) :   0.1305
B( 19-C , 22-C ) :   1.0547 B( 19-C , 23-H ) :   1.0554 B( 19-C , 24-O ) :  -0.5324
B( 20-H , 24-O ) :   0.1293 B( 21-O , 30-H ) :   0.9933 B( 22-C , 24-O ) :   0.2588
B( 22-C , 32-H ) :  -0.1769 B( 22-C , 33-H ) :   1.1778 B( 23-H , 24-O ) :   0.1257
B( 24-O , 31-H ) :   0.9009 B( 26-C , 39-H ) :   0.7782 B( 26-C , 40-H ) :   1.2075
B( 26-C , 41-H ) :   1.0610 B( 27-C , 36-H ) :   1.1543 B( 27-C , 37-H ) :   1.0537
B( 27-C , 38-H ) :   1.0817 B( 34-C , 42-C ) :   0.8441 B( 34-C , 45-H ) :   0.9739
B( 34-C , 46-C ) :   0.5498 B( 34-C , 51-H ) :  -0.1100 B( 42-C , 43-O ) :   0.2127
B( 42-C , 47-H ) :   1.0011 B( 42-C , 48-H ) :   1.1291 B( 43-O , 52-H ) :   0.9943
B( 46-C , 49-H ) :   1.0135 B( 46-C , 50-H ) :   1.0113 B( 46-C , 51-H ) :   1.0738

MP2 TOTAL ENERGY:    -1209.391622141 Eh
FINAL SINGLE POINT ENERGY     -1209.391622141147

DIPOLE MOMENT
-------------
                                X             Y             Z
Electronic contribution:      3.58458       0.85020      -4.76446
Nuclear contribution   :     -3.55937      -1.45024       4.95085
                        -----------------------------------------
Total Dipole Moment    :      0.02521      -0.60004       0.18638
                        -----------------------------------------
Magnitude (a.u.)       :      0.62883
Magnitude (Debye)      :      1.59835

Rotational constants in cm-1:     0.011976     0.003118     0.002680
Rotational constants in MHz :   359.028936    93.466466    80.344133

                             ****ORCA TERMINATED NORMALLY****
TOTAL RUN TIME: 0 days 19 hours 55 minutes 38 seconds 508 msec
