                         Program Version 4.2.1 -  RELEASE  -
|  1> %pal
|  2>  nprocs 32
|  3> end
|  4> !RI-MP2 aug-cc-pVQZ aug-cc-pVQZ/C TightSCF
|  5> %maxcore 4500
|  6> *xyzfile 0 1  02_29R2.xyz
|  7>
|  8>
|  9>                          ****END OF INPUT****

CARTESIAN COORDINATES (ANGSTROEM)
---------------------------------
  C     -1.282695   -0.000002   -0.009066
  C      1.282695   -0.000002    0.009066
  N      0.653317   -1.177141    0.005959
  N     -0.653316   -1.177141   -0.005959
  N      0.653315    1.177139    0.005959
  N     -0.653315    1.177139   -0.005959
  C      2.773671    0.000002    0.000191
  C     -2.773671    0.000002   -0.000191
  H     -3.138928    0.000106    1.029755
  H     -3.151363   -0.894380   -0.492538
  H     -3.151362    0.894289   -0.492710
  H      3.151362    0.894291    0.492708
  H      3.138928    0.000104   -1.029755
  H      3.151363   -0.894379    0.492540

 Total Charge           Charge          ....    0
 Multiplicity           Mult            ....    1
 Number of Electrons    NEL             ....   58
 Basis Dimension        Dim             ....  916

ORBITAL ENERGIES
----------------

  NO   OCC          E(Eh)            E(eV)
   0   2.0000     -15.640609      -425.6026
   1   2.0000     -15.640570      -425.6016
   2   2.0000     -15.639657      -425.5767
   3   2.0000     -15.639654      -425.5766
   4   2.0000     -11.327323      -308.2321
   5   2.0000     -11.327292      -308.2313
   6   2.0000     -11.241239      -305.8897
   7   2.0000     -11.241239      -305.8897
   8   2.0000      -1.433426       -39.0055
   9   2.0000      -1.325813       -36.0772
  10   2.0000      -1.198510       -32.6131
  11   2.0000      -1.044481       -28.4218
  12   2.0000      -1.013340       -27.5744
  13   2.0000      -0.965337       -26.2681
  14   2.0000      -0.882417       -24.0118
  15   2.0000      -0.793116       -21.5818
  16   2.0000      -0.689232       -18.7550
  17   2.0000      -0.658921       -17.9302
  18   2.0000      -0.617434       -16.8012
  19   2.0000      -0.599179       -16.3045
  20   2.0000      -0.584151       -15.8956
  21   2.0000      -0.577527       -15.7153
  22   2.0000      -0.561494       -15.2790
  23   2.0000      -0.535779       -14.5793
  24   2.0000      -0.514191       -13.9918
  25   2.0000      -0.508296       -13.8314
  26   2.0000      -0.489904       -13.3310
  27   2.0000      -0.396376       -10.7859
  28   2.0000      -0.395100       -10.7512
  29   0.0000       0.025682         0.6988
  30   0.0000       0.026100         0.7102
  31   0.0000       0.036423         0.9911
  32   0.0000       0.038762         1.0548
  33   0.0000       0.042195         1.1482

MULLIKEN ATOMIC CHARGES
-----------------------
   0 C :    0.338430
   1 C :    0.338416
   2 N :   -0.230947
   3 N :   -0.230944
   4 N :   -0.230952
   5 N :   -0.230948
   6 C :   -0.743694
   7 C :   -0.743707
   8 H :    0.306959
   9 H :    0.280116
  10 H :    0.280097
  11 H :    0.280097
  12 H :    0.306960
  13 H :    0.280117
Sum of atomic charges:    0.0000000

LOEWDIN ATOMIC CHARGES
----------------------
   0 C :   -0.653944
   1 C :   -0.653945
   2 N :    0.352379
   3 N :    0.352379
   4 N :    0.352378
   5 N :    0.352378
   6 C :    0.859345
   7 C :    0.859345
   8 H :   -0.288217
   9 H :   -0.310973
  10 H :   -0.310968
  11 H :   -0.310968
  12 H :   -0.288217
  13 H :   -0.310973

  Mayer bond orders larger than 0.100000
B(  0-C ,  1-C ) :   0.1277 B(  0-C ,  3-N ) :   1.1300 B(  0-C ,  5-N ) :   1.1300
B(  0-C ,  7-C ) :   0.8191 B(  1-C ,  2-N ) :   1.1300 B(  1-C ,  4-N ) :   1.1300
B(  1-C ,  6-C ) :   0.8191 B(  2-N ,  3-N ) :   0.7416 B(  2-N ,  5-N ) :   0.1181
B(  3-N ,  4-N ) :   0.1181 B(  4-N ,  5-N ) :   0.7417 B(  6-C , 11-H ) :   0.9944
B(  6-C , 12-H ) :   0.8822 B(  6-C , 13-H ) :   0.9944 B(  7-C ,  8-H ) :   0.8822
B(  7-C ,  9-H ) :   0.9944 B(  7-C , 10-H ) :   0.9944

MP2 TOTAL ENERGY:     -374.381342957 Eh
FINAL SINGLE POINT ENERGY      -374.381342957454

DIPOLE MOMENT
-------------
                                X             Y             Z
Electronic contribution:     -0.00000      -0.00001      -0.00000
Nuclear contribution   :     -0.00000       0.00003       0.00000
                        -----------------------------------------
Total Dipole Moment    :     -0.00000       0.00002      -0.00000
                        -----------------------------------------
Magnitude (a.u.)       :      0.00002
Magnitude (Debye)      :      0.00004

Rotational constants in cm-1:     0.200733     0.054158     0.043335
Rotational constants in MHz :  6017.811976  1623.602243  1299.138904

                             ****ORCA TERMINATED NORMALLY****
TOTAL RUN TIME: 0 days 0 hours 15 minutes 25 seconds 658 msec
