                         Program Version 4.2.1 -  RELEASE  -
|  1> %pal
|  2>  nprocs 32
|  3> end
|  4> !RI-MP2 aug-cc-pVQZ aug-cc-pVQZ/C TightSCF
|  5> %maxcore 4500
|  6> *xyzfile 0 1  03_10P2.xyz
|  7>
|  8>
|  9>                          ****END OF INPUT****

CARTESIAN COORDINATES (ANGSTROEM)
---------------------------------
  F     -1.871725   -0.652518    0.000002
  S     -0.997302    0.736788   -0.000001
  C      0.638626   -0.043836    0.000000
  F      1.512847    0.969162    0.000001
  F      0.853054   -0.798633   -1.072499
  F      0.853055   -0.798632    1.072499

 Total Charge           Charge          ....    0
 Multiplicity           Mult            ....    1
 Number of Electrons    NEL             ....   58
 Basis Dimension        Dim             ....  484

ORBITAL ENERGIES
----------------

  NO   OCC          E(Eh)            E(eV)
   0   2.0000     -92.081477     -2505.6644
   1   2.0000     -26.372386      -717.6291
   2   2.0000     -26.364605      -717.4174
   3   2.0000     -26.364583      -717.4168
   4   2.0000     -26.341957      -716.8011
   5   2.0000     -11.557797      -314.5036
   6   2.0000      -9.075624      -246.9603
   7   2.0000      -6.756778      -183.8613
   8   2.0000      -6.755147      -183.8169
   9   2.0000      -6.753631      -183.7756
  10   2.0000      -1.763558       -47.9889
  11   2.0000      -1.669974       -45.4423
  12   2.0000      -1.663909       -45.2773
  13   2.0000      -1.632926       -44.4342
  14   2.0000      -1.078910       -29.3586
  15   2.0000      -0.954656       -25.9775
  16   2.0000      -0.858001       -23.3474
  17   2.0000      -0.855204       -23.2713
  18   2.0000      -0.825732       -22.4693
  19   2.0000      -0.742944       -20.2165
  20   2.0000      -0.740252       -20.1433
  21   2.0000      -0.715006       -19.4563
  22   2.0000      -0.712841       -19.3974
  23   2.0000      -0.693678       -18.8759
  24   2.0000      -0.692083       -18.8325
  25   2.0000      -0.677991       -18.4491
  26   2.0000      -0.673483       -18.3264
  27   2.0000      -0.537468       -14.6252
  28   2.0000      -0.428709       -11.6658
  29   0.0000       0.041462         1.1283
  30   0.0000       0.046596         1.2679
  31   0.0000       0.058340         1.5875
  32   0.0000       0.069653         1.8954
  33   0.0000       0.083365         2.2685

MULLIKEN ATOMIC CHARGES
-----------------------
   0 F :   -0.573682
   1 S :    0.625427
   2 C :    1.507959
   3 F :   -0.523671
   4 F :   -0.518016
   5 F :   -0.518017
Sum of atomic charges:    0.0000000

LOEWDIN ATOMIC CHARGES
----------------------
   0 F :    0.058191
   1 S :    0.589170
   2 C :   -2.671737
   3 F :    0.663762
   4 F :    0.680307
   5 F :    0.680307

  Mayer bond orders larger than 0.100000
B(  0-F ,  1-S ) :   0.6726 B(  1-S ,  2-C ) :   1.0021 B(  2-C ,  3-F ) :   0.6055
B(  2-C ,  4-F ) :   0.6209 B(  2-C ,  5-F ) :   0.6209

MP2 TOTAL ENERGY:     -834.802023186 Eh
FINAL SINGLE POINT ENERGY      -834.802023185596

DIPOLE MOMENT
-------------
                                X             Y             Z
Electronic contribution:      1.09937      -0.61232       0.00000
Nuclear contribution   :     -1.17920       1.12681      -0.00000
                        -----------------------------------------
Total Dipole Moment    :     -0.07983       0.51449      -0.00000
                        -----------------------------------------
Magnitude (a.u.)       :      0.52064
Magnitude (Debye)      :      1.32337

Rotational constants in cm-1:     0.151500     0.077265     0.069648
Rotational constants in MHz :  4541.858518  2316.342698  2087.988344

                             ****ORCA TERMINATED NORMALLY****
TOTAL RUN TIME: 0 days 0 hours 2 minutes 12 seconds 332 msec
