                         Program Version 4.2.1 -  RELEASE  -
|  1> %pal
|  2>  nprocs 32
|  3> end
|  4> !RI-MP2 aug-cc-pVQZ aug-cc-pVQZ/C TightSCF
|  5> %maxcore 4500
|  6> *xyzfile 0 1  02_30TS.xyz
|  7>
|  8>
|  9>                          ****END OF INPUT****

CARTESIAN COORDINATES (ANGSTROEM)
---------------------------------
  C      1.900119   -1.167160   -0.038362
  C      1.739865    1.320519    0.144672
  N      2.238549    0.823779   -1.027873
  N      2.325417   -0.445856   -1.119473
  N      1.989946    0.637475    1.302456
  N      2.069455   -0.632771    1.210069
  C      1.646689    2.808384    0.257873
  C      2.004374   -2.654370   -0.153013
  H      1.469879   -3.147198    0.656099
  H      3.056917   -2.936328   -0.083170
  H      1.629071   -2.994255   -1.116331
  H      0.975379    3.098001    1.063895
  H      1.320209    3.247912   -0.682269
  H      2.638280    3.203004    0.488667
  C     -2.995950   -0.686196    0.829148
  C     -3.500303    0.645720    0.252826
  C     -0.260584   -0.663897   -0.190331
  C     -2.604651    1.395714   -0.738168
  C     -0.344602    0.561983   -0.164828
  C     -1.195167    1.762004   -0.249891
  C     -2.494602   -1.714008   -0.202390
  C     -0.975886   -1.951270   -0.142269
  H     -3.729638    1.310849    1.092240
  H     -2.504328    0.825449   -1.665358
  H     -4.454794    0.464706   -0.252777
  H     -3.116374    2.324322   -1.008075
  H     -0.758995    2.484654   -0.941564
  H     -1.244392    2.255355    0.726011
  H     -2.761866   -1.397713   -1.214028
  H     -2.985045   -2.678047   -0.046672
  H     -0.724507   -2.462525    0.791850
  H     -0.664995   -2.610951   -0.954321
  H     -2.204060   -0.491186    1.556463
  H     -3.820121   -1.118978    1.401481

 Total Charge           Charge          ....    0
 Multiplicity           Mult            ....    1
 Number of Electrons    NEL             ....  118
 Basis Dimension        Dim             .... 2108

ORBITAL ENERGIES
----------------

  NO   OCC          E(Eh)            E(eV)
   0   2.0000     -15.617652      -424.9779
   1   2.0000     -15.617381      -424.9705
   2   2.0000     -15.615598      -424.9220
   3   2.0000     -15.614919      -424.9036
   4   2.0000     -11.318639      -307.9958
   5   2.0000     -11.318343      -307.9878
   6   2.0000     -11.254840      -306.2598
   7   2.0000     -11.254495      -306.2504
   8   2.0000     -11.242255      -305.9173
   9   2.0000     -11.238765      -305.8224
  10   2.0000     -11.232722      -305.6579
  11   2.0000     -11.232384      -305.6487
  12   2.0000     -11.231612      -305.6277
  13   2.0000     -11.231230      -305.6173
  14   2.0000     -11.227599      -305.5185
  15   2.0000     -11.224009      -305.4208
  16   2.0000      -1.419565       -38.6283
  17   2.0000      -1.316243       -35.8168
  18   2.0000      -1.165868       -31.7249
  19   2.0000      -1.130149       -30.7529
  20   2.0000      -1.069901       -29.1135
  21   2.0000      -1.057577       -28.7781
  22   2.0000      -1.030648       -28.0454
  23   2.0000      -0.965626       -26.2760
  24   2.0000      -0.953732       -25.9524
  25   2.0000      -0.950207       -25.8564
  26   2.0000      -0.926262       -25.2049
  27   2.0000      -0.869866       -23.6703
  28   2.0000      -0.837357       -22.7856
  29   2.0000      -0.781706       -21.2713
  30   2.0000      -0.762068       -20.7369
  31   2.0000      -0.679886       -18.5006
  32   2.0000      -0.670979       -18.2583
  33   2.0000      -0.669636       -18.2217
  34   2.0000      -0.658865       -17.9286
  35   2.0000      -0.639056       -17.3896
  36   2.0000      -0.621715       -16.9177
  37   2.0000      -0.614089       -16.7102
  38   2.0000      -0.597752       -16.2657
  39   2.0000      -0.585335       -15.9278
  40   2.0000      -0.575669       -15.6647
  41   2.0000      -0.572002       -15.5650
  42   2.0000      -0.567350       -15.4384
  43   2.0000      -0.561570       -15.2811
  44   2.0000      -0.553196       -15.0532
  45   2.0000      -0.531039       -14.4503
  46   2.0000      -0.525442       -14.2980
  47   2.0000      -0.520667       -14.1681
  48   2.0000      -0.519006       -14.1229
  49   2.0000      -0.498245       -13.5579
  50   2.0000      -0.485101       -13.2003
  51   2.0000      -0.481502       -13.1023
  52   2.0000      -0.467872       -12.7315
  53   2.0000      -0.464818       -12.6483
  54   2.0000      -0.461520       -12.5586
  55   2.0000      -0.376379       -10.2418
  56   2.0000      -0.370332       -10.0773
  57   2.0000      -0.361533        -9.8378
  58   2.0000      -0.358158        -9.7460
  59   0.0000       0.019907         0.5417
  60   0.0000       0.022716         0.6181
  61   0.0000       0.028461         0.7745
  62   0.0000       0.028942         0.7876
  63   0.0000       0.034778         0.9463

MULLIKEN ATOMIC CHARGES
-----------------------
   0 C :    1.418207
   1 C :    1.447477
   2 N :   -0.529313
   3 N :   -0.548500
   4 N :   -0.533377
   5 N :   -0.519476
   6 C :   -1.135208
   7 C :   -1.120740
   8 H :    0.244433
   9 H :    0.336692
  10 H :    0.216950
  11 H :    0.231910
  12 H :    0.234654
  13 H :    0.326075
  14 C :   -0.444487
  15 C :   -0.658534
  16 C :    0.015135
  17 C :   -0.493389
  18 C :   -0.259555
  19 C :   -0.100058
  20 C :   -0.564284
  21 C :   -0.257424
  22 H :    0.196240
  23 H :    0.219500
  24 H :    0.206868
  25 H :    0.202437
  26 H :    0.260806
  27 H :    0.201265
  28 H :    0.214761
  29 H :    0.260029
  30 H :    0.164084
  31 H :    0.283425
  32 H :    0.243850
  33 H :    0.239545
Sum of atomic charges:    0.0000000

LOEWDIN ATOMIC CHARGES
----------------------
   0 C :   -0.741943
   1 C :   -0.738056
   2 N :    0.356006
   3 N :    0.354972
   4 N :    0.355781
   5 N :    0.356472
   6 C :    0.855080
   7 C :    0.854879
   8 H :   -0.308078
   9 H :   -0.274588
  10 H :   -0.298943
  11 H :   -0.300542
  12 H :   -0.305658
  13 H :   -0.274835
  14 C :    0.552979
  15 C :    0.558839
  16 C :    0.114765
  17 C :    0.546960
  18 C :    0.125187
  19 C :    0.495398
  20 C :    0.557032
  21 C :    0.489578
  22 H :   -0.264415
  23 H :   -0.278227
  24 H :   -0.265325
  25 H :   -0.260665
  26 H :   -0.310267
  27 H :   -0.275025
  28 H :   -0.282008
  29 H :   -0.257718
  30 H :   -0.287233
  31 H :   -0.290763
  32 H :   -0.295751
  33 H :   -0.263890

  Mayer bond orders larger than 0.100000
B(  0-C ,  1-C ) :   0.3157 B(  0-C ,  3-N ) :   0.5028 B(  0-C ,  5-N ) :   0.6210
B(  0-C ,  7-C ) :   0.1515 B(  0-C ,  8-H ) :  -0.1565 B(  0-C ,  9-H ) :  -0.1947
B(  0-C , 10-H ) :  -0.1954 B(  0-C , 16-C ) :   0.4876 B(  0-C , 18-C ) :  -0.2018
B(  1-C ,  2-N ) :   0.6196 B(  1-C ,  4-N ) :   0.4900 B(  1-C ,  6-C ) :   0.1162
B(  1-C , 11-H ) :  -0.1727 B(  1-C , 12-H ) :  -0.1782 B(  1-C , 13-H ) :  -0.1872
B(  1-C , 16-C ) :  -0.1658 B(  1-C , 18-C ) :   0.4341 B(  2-N ,  3-N ) :   0.8156
B(  2-N ,  4-N ) :   0.1577 B(  2-N ,  5-N ) :   0.1076 B(  2-N , 18-C ) :   0.1027
B(  3-N ,  5-N ) :   0.1373 B(  4-N ,  5-N ) :   0.8402 B(  4-N , 18-C ) :   0.1545
B(  5-N , 16-C ) :   0.1148 B(  6-C , 11-H ) :   1.1170 B(  6-C , 12-H ) :   1.1341
B(  6-C , 13-H ) :   1.0011 B(  7-C ,  8-H ) :   1.1021 B(  7-C ,  9-H ) :   0.9837
B(  7-C , 10-H ) :   1.1468 B( 14-C , 15-C ) :   0.8332 B( 14-C , 20-C ) :   0.8988
B( 14-C , 32-H ) :   0.9781 B( 14-C , 33-H ) :   0.9914 B( 15-C , 17-C ) :   0.9020
B( 15-C , 19-C ) :  -0.1373 B( 15-C , 22-H ) :   1.0128 B( 15-C , 24-H ) :   1.0423
B( 16-C , 18-C ) :   2.2119 B( 16-C , 19-C ) :  -0.1140 B( 16-C , 20-C ) :  -0.2692
B( 16-C , 21-C ) :   0.1287 B( 16-C , 31-H ) :  -0.1539 B( 17-C , 18-C ) :  -0.1735
B( 17-C , 19-C ) :   0.7738 B( 17-C , 23-H ) :   0.9752 B( 17-C , 25-H ) :   1.0644
B( 18-C , 19-C ) :   0.1687 B( 18-C , 26-H ) :  -0.1900 B( 19-C , 26-H ) :   1.0468
B( 19-C , 27-H ) :   1.0204 B( 20-C , 21-C ) :   0.8921 B( 20-C , 28-H ) :   1.0528
B( 20-C , 29-H ) :   1.0184 B( 21-C , 30-H ) :   1.0549 B( 21-C , 31-H ) :   0.9894
B( 26-H , 27-H ) :   0.1018

MP2 TOTAL ENERGY:     -685.792080659 Eh
FINAL SINGLE POINT ENERGY      -685.792080658974

DIPOLE MOMENT
-------------
                                X             Y             Z
Electronic contribution:     16.52539       0.55463       0.09568
Nuclear contribution   :    -18.09898      -0.63009      -0.18853
                        -----------------------------------------
Total Dipole Moment    :     -1.57359      -0.07546      -0.09285
                        -----------------------------------------
Magnitude (a.u.)       :      1.57813
Magnitude (Debye)      :      4.01129

Rotational constants in cm-1:     0.027345     0.015474     0.011396
Rotational constants in MHz :   819.782104   463.910633   341.643441

                             ****ORCA TERMINATED NORMALLY****
TOTAL RUN TIME: 0 days 5 hours 10 minutes 42 seconds 757 msec
