                         Program Version 4.2.1 -  RELEASE  -
|  1> %pal
|  2>  nprocs 32
|  3> end
|  4> !RI-MP2 aug-cc-pVQZ aug-cc-pVQZ/C TightSCF
|  5> %maxcore 4500
|  6> *xyzfile 0 1  05_18R2.xyz
|  7>
|  8>
|  9>                          ****END OF INPUT****

CARTESIAN COORDINATES (ANGSTROEM)
---------------------------------
  C      1.179777    1.234178   -0.063848
  C      2.400440    0.572521   -0.125009
  C      2.429802   -0.806617   -0.030858
  C      1.256459   -1.550899    0.128055
  C      0.044953   -0.905119    0.199902
  C     -0.022506    0.501870    0.101650
  C     -1.288192    1.212129    0.130988
  C     -2.568431    0.423361    0.288480
  C     -2.453241   -1.029159   -0.100506
  H     -3.367678    0.912587   -0.265826
  H     -2.832039    0.461058    1.353313
  C     -1.208716   -1.719708    0.400655
  H     -1.352012   -1.888201    1.475981
  H     -1.127944   -2.696330   -0.074398
  H      3.303539    1.157103   -0.252935
  H      1.327491   -2.628533    0.191810
  O     -1.359329    2.435664    0.033792
  O     -3.301679   -1.597136   -0.736543
  O      3.583770   -1.506048   -0.089047
  H      4.331138   -0.911975   -0.208285
  O      1.183574    2.559403   -0.168169
  H      0.244754    2.863878   -0.116980

 Total Charge           Charge          ....    0
 Multiplicity           Mult            ....    1
 Number of Electrons    NEL             ....  100
 Basis Dimension        Dim             .... 1488

ORBITAL ENERGIES
----------------

  NO   OCC          E(Eh)            E(eV)
   0   2.0000     -20.618241      -561.0509
   1   2.0000     -20.588958      -560.2540
   2   2.0000     -20.565868      -559.6257
   3   2.0000     -20.560444      -559.4781
   4   2.0000     -11.361052      -309.1499
   5   2.0000     -11.351860      -308.8998
   6   2.0000     -11.341891      -308.6285
   7   2.0000     -11.341124      -308.6077
   8   2.0000     -11.292496      -307.2844
   9   2.0000     -11.266185      -306.5685
  10   2.0000     -11.262328      -306.4635
  11   2.0000     -11.249033      -306.1018
  12   2.0000     -11.238982      -305.8283
  13   2.0000     -11.238059      -305.8031
  14   2.0000      -1.441014       -39.2120
  15   2.0000      -1.433573       -39.0095
  16   2.0000      -1.413672       -38.4680
  17   2.0000      -1.398235       -38.0479
  18   2.0000      -1.189529       -32.3687
  19   2.0000      -1.109404       -30.1884
  20   2.0000      -1.060780       -28.8653
  21   2.0000      -1.031889       -28.0791
  22   2.0000      -0.998949       -27.1828
  23   2.0000      -0.891867       -24.2689
  24   2.0000      -0.856789       -23.3144
  25   2.0000      -0.827954       -22.5298
  26   2.0000      -0.776656       -21.1339
  27   2.0000      -0.761139       -20.7116
  28   2.0000      -0.727030       -19.7835
  29   2.0000      -0.705570       -19.1995
  30   2.0000      -0.687222       -18.7002
  31   2.0000      -0.662884       -18.0380
  32   2.0000      -0.661295       -17.9947
  33   2.0000      -0.642670       -17.4879
  34   2.0000      -0.629813       -17.1381
  35   2.0000      -0.623308       -16.9611
  36   2.0000      -0.614359       -16.7176
  37   2.0000      -0.608944       -16.5702
  38   2.0000      -0.601409       -16.3652
  39   2.0000      -0.593862       -16.1598
  40   2.0000      -0.572619       -15.5818
  41   2.0000      -0.563457       -15.3324
  42   2.0000      -0.542086       -14.7509
  43   2.0000      -0.525090       -14.2884
  44   2.0000      -0.511296       -13.9131
  45   2.0000      -0.476965       -12.9789
  46   2.0000      -0.445511       -12.1230
  47   2.0000      -0.427511       -11.6332
  48   2.0000      -0.356729        -9.7071
  49   2.0000      -0.335867        -9.1394
  50   0.0000       0.018602         0.5062
  51   0.0000       0.023107         0.6288
  52   0.0000       0.030140         0.8201
  53   0.0000       0.037885         1.0309
  54   0.0000       0.040090         1.0909

MULLIKEN ATOMIC CHARGES
-----------------------
   0 C :    1.392066
   1 C :   -1.121253
   2 C :    1.300486
   3 C :   -1.023484
   4 C :    0.410228
   5 C :   -0.649801
   6 C :    1.236950
   7 C :   -0.717380
   8 C :    1.080265
   9 H :    0.245624
  10 H :    0.309369
  11 C :   -0.719697
  12 H :    0.313822
  13 H :    0.254455
  14 H :    0.243597
  15 H :    0.266961
  16 O :   -0.874350
  17 O :   -0.914252
  18 O :   -0.839886
  19 H :    0.368090
  20 O :   -0.903583
  21 H :    0.341771
Sum of atomic charges:   -0.0000000

LOEWDIN ATOMIC CHARGES
----------------------
   0 C :   -0.438772
   1 C :    0.344331
   2 C :   -0.422832
   3 C :    0.348041
   4 C :   -0.079358
   5 C :   -0.076699
   6 C :   -0.557597
   7 C :    0.472385
   8 C :   -0.626939
   9 H :   -0.311265
  10 H :   -0.270791
  11 C :    0.487470
  12 H :   -0.259448
  13 H :   -0.305561
  14 H :   -0.326613
  15 H :   -0.322214
  16 O :    0.895323
  17 O :    0.763887
  18 O :    1.300259
  19 H :   -0.786265
  20 O :    1.304541
  21 H :   -1.131881

  Mayer bond orders larger than 0.100000
B(  0-C ,  1-C ) :   1.2885 B(  0-C ,  2-C ) :  -0.3665 B(  0-C ,  5-C ) :   0.8082
B(  0-C ,  6-C ) :  -0.2276 B(  0-C , 20-O ) :  -0.4151 B(  0-C , 21-H ) :  -0.1068
B(  1-C ,  2-C ) :   1.5849 B(  1-C ,  3-C ) :   0.1307 B(  1-C ,  5-C ) :  -0.3111
B(  1-C , 14-H ) :   0.9668 B(  1-C , 18-O ) :   0.3172 B(  1-C , 19-H ) :   0.1154
B(  1-C , 20-O ) :   0.2966 B(  2-C ,  3-C ) :   1.5948 B(  2-C ,  4-C ) :  -0.5944
B(  2-C ,  5-C ) :   0.1435 B(  2-C , 18-O ) :  -0.3548 B(  2-C , 19-H ) :  -0.1377
B(  3-C ,  4-C ) :   0.9108 B(  3-C ,  5-C ) :  -0.1914 B(  3-C , 11-C ) :  -0.1276
B(  3-C , 15-H ) :   0.9624 B(  3-C , 18-O ) :   0.3863 B(  4-C ,  5-C ) :   0.8517
B(  4-C ,  6-C ) :  -0.1061 B(  4-C ,  8-C ) :  -0.2194 B(  4-C , 11-C ) :   0.8528
B(  5-C ,  6-C ) :   0.6701 B(  5-C ,  7-C ) :  -0.1639 B(  5-C , 11-C ) :  -0.1676
B(  5-C , 16-O ) :   0.6815 B(  5-C , 20-O ) :   0.7007 B(  5-C , 21-H ) :   0.2384
B(  6-C ,  7-C ) :   1.1314 B(  6-C ,  8-C ) :  -0.1429 B(  6-C , 16-O ) :   0.4285
B(  7-C ,  8-C ) :   1.1017 B(  7-C ,  9-H ) :   0.9626 B(  7-C , 10-H ) :   0.8379
B(  7-C , 16-O ) :   0.1446 B(  7-C , 17-O ) :   0.1847 B(  8-C , 11-C ) :   1.1743
B(  8-C , 17-O ) :   0.6670 B( 11-C , 12-H ) :   0.8616 B( 11-C , 13-H ) :   0.9895
B( 11-C , 17-O ) :   0.2622 B( 16-O , 21-H ) :   0.1378 B( 18-O , 19-H ) :   0.8919
B( 20-O , 21-H ) :   0.8048

MP2 TOTAL ENERGY:     -685.790481017 Eh
FINAL SINGLE POINT ENERGY      -685.790481016708

DIPOLE MOMENT
-------------
                                X             Y             Z
Electronic contribution:      0.55670       2.08914      -1.25377
Nuclear contribution   :      0.51692      -2.63928       2.04016
                        -----------------------------------------
Total Dipole Moment    :      1.07362      -0.55014       0.78638
                        -----------------------------------------
Magnitude (a.u.)       :      1.44004
Magnitude (Debye)      :      3.66029

Rotational constants in cm-1:     0.036347     0.019401     0.012996
Rotational constants in MHz :  1089.649237   581.629889   389.601737

                             ****ORCA TERMINATED NORMALLY****
TOTAL RUN TIME: 0 days 1 hours 39 minutes 58 seconds 180 msec
