                         Program Version 4.2.1 -  RELEASE  -
|  1> %pal
|  2>  nprocs 32
|  3> end
|  4> !RI-MP2 aug-cc-pVQZ aug-cc-pVQZ/C TightSCF
|  5> %maxcore 4500
|  6> *xyzfile 0 1  06_24R1.xyz
|  7>
|  8>
|  9>                          ****END OF INPUT****

CARTESIAN COORDINATES (ANGSTROEM)
---------------------------------
  C     -2.846573   -0.378033   -1.046103
  C     -1.689592    0.602844   -1.395594
  C     -0.447243   -0.689659    1.153509
  H     -3.311834   -0.708297   -1.978334
  C     -1.652218    1.833503   -0.461037
  H     -0.737010    2.406695   -0.646071
  H     -2.477284    2.495013   -0.748157
  H      0.163173   -1.174540    1.921928
  H     -1.895884    0.995284   -2.395199
  H      0.150691   -0.478964   -2.497344
  C     -1.782586    1.561863    1.034348
  H     -1.831691    2.525491    1.551356
  H     -2.744740    1.081091    1.230740
  C     -0.671646    0.739411    1.679014
  H      0.267132    1.298157    1.618958
  H     -0.899561    0.662995    2.747723
  C     -1.765778   -1.503198    1.087369
  H     -1.558221   -2.519485    1.436220
  C     -2.448339   -1.647363   -0.278891
  H     -1.800431   -2.250581   -0.925807
  H     -3.348317   -2.253671   -0.135539
  H     -2.476483   -1.087190    1.809106
  H     -3.629232    0.157954   -0.499743
  C      0.345176   -0.758860   -0.167207
  H      0.590660   -1.811232   -0.384904
  Si     2.125498   -0.065482   -0.115067
  C      2.219639    1.765311   -0.543677
  H      1.682665    2.392609    0.170091
  H      3.262023    2.095720   -0.553645
  H      1.806330    1.962684   -1.536660
  C      3.148534   -1.010136   -1.375323
  H      4.176199   -0.638039   -1.398819
  H      3.187907   -2.076062   -1.136722
  H      2.734617   -0.909404   -2.380841
  C      2.859120   -0.340073    1.593335
  H      2.834873   -1.397803    1.867620
  H      3.903881   -0.017994    1.610805
  H      2.328300    0.216714    2.368036
  B     -0.349141   -0.220810   -1.436462

 Total Charge           Charge          ....    0
 Multiplicity           Mult            ....    1
 Number of Electrons    NEL             ....  116
 Basis Dimension        Dim             .... 2274

ORBITAL ENERGIES
----------------

  NO   OCC          E(Eh)            E(eV)
   0   2.0000     -68.746258     -1870.6808
   1   2.0000     -11.219852      -305.3077
   2   2.0000     -11.215030      -305.1765
   3   2.0000     -11.214293      -305.1564
   4   2.0000     -11.211682      -305.0854
   5   2.0000     -11.210743      -305.0598
   6   2.0000     -11.210200      -305.0451
   7   2.0000     -11.208747      -305.0055
   8   2.0000     -11.193688      -304.5957
   9   2.0000     -11.192393      -304.5605
  10   2.0000     -11.189840      -304.4910
  11   2.0000     -11.189485      -304.4814
  12   2.0000     -11.176897      -304.1388
  13   2.0000      -7.571840      -206.0402
  14   2.0000      -6.094755      -165.8467
  15   2.0000      -4.201248      -114.3218
  16   2.0000      -4.201141      -114.3189
  17   2.0000      -4.201087      -114.3174
  18   2.0000      -1.112511       -30.2730
  19   2.0000      -1.043826       -28.4039
  20   2.0000      -1.041099       -28.3297
  21   2.0000      -0.977123       -26.5889
  22   2.0000      -0.947856       -25.7925
  23   2.0000      -0.921705       -25.0809
  24   2.0000      -0.919420       -25.0187
  25   2.0000      -0.913835       -24.8667
  26   2.0000      -0.874874       -23.8065
  27   2.0000      -0.796234       -21.6666
  28   2.0000      -0.788265       -21.4498
  29   2.0000      -0.713056       -19.4032
  30   2.0000      -0.660845       -17.9825
  31   2.0000      -0.640910       -17.4400
  32   2.0000      -0.622620       -16.9424
  33   2.0000      -0.616754       -16.7827
  34   2.0000      -0.598554       -16.2875
  35   2.0000      -0.580983       -15.8093
  36   2.0000      -0.571842       -15.5606
  37   2.0000      -0.569801       -15.5051
  38   2.0000      -0.563509       -15.3338
  39   2.0000      -0.557832       -15.1794
  40   2.0000      -0.551227       -14.9996
  41   2.0000      -0.544799       -14.8247
  42   2.0000      -0.539140       -14.6707
  43   2.0000      -0.532027       -14.4772
  44   2.0000      -0.527349       -14.3499
  45   2.0000      -0.519444       -14.1348
  46   2.0000      -0.491319       -13.3695
  47   2.0000      -0.484275       -13.1778
  48   2.0000      -0.475602       -12.9418
  49   2.0000      -0.463160       -12.6032
  50   2.0000      -0.445853       -12.1323
  51   2.0000      -0.443772       -12.0757
  52   2.0000      -0.430558       -11.7161
  53   2.0000      -0.428924       -11.6716
  54   2.0000      -0.417191       -11.3523
  55   2.0000      -0.409841       -11.1523
  56   2.0000      -0.399509       -10.8712
  57   2.0000      -0.379437       -10.3250
  58   0.0000       0.019478         0.5300
  59   0.0000       0.025772         0.7013
  60   0.0000       0.026966         0.7338
  61   0.0000       0.027533         0.7492
  62   0.0000       0.036640         0.9970

MULLIKEN ATOMIC CHARGES
-----------------------
   0 C :   -0.526438
   1 C :   -0.054680
   2 C :    0.829097
   3 H :    0.142165
   4 C :   -0.676888
   5 H :    0.204503
   6 H :    0.091176
   7 H :    0.335931
   8 H :    0.239950
   9 H :   -0.781003
  10 C :   -0.172248
  11 H :    0.044655
  12 H :    0.185378
  13 C :   -0.704818
  14 H :    0.273591
  15 H :    0.029937
  16 C :   -0.692416
  17 H :    0.086037
  18 C :   -0.568110
  19 H :    0.125612
  20 H :    0.199356
  21 H :    0.152233
  22 H :    0.237189
  23 C :   -0.786516
  24 H :    0.005708
  25 Si:    1.745905
  26 C :   -1.117480
  27 H :    0.243471
  28 H :    0.150036
  29 H :    0.242143
  30 C :   -1.182088
  31 H :    0.328710
  32 H :    0.278295
  33 H :    0.285753
  34 C :   -1.067328
  35 H :    0.196144
  36 H :    0.226240
  37 H :    0.254952
  38 B :    1.195848
Sum of atomic charges:   -0.0000000

LOEWDIN ATOMIC CHARGES
----------------------
   0 C :    0.574639
   1 C :    0.329354
   2 C :    0.147730
   3 H :   -0.255167
   4 C :    0.558579
   5 H :   -0.270970
   6 H :   -0.255090
   7 H :   -0.301921
   8 H :   -0.291890
   9 H :   -0.086488
  10 C :    0.568657
  11 H :   -0.250340
  12 H :   -0.299226
  13 C :    0.555278
  14 H :   -0.308734
  15 H :   -0.248326
  16 C :    0.586659
  17 H :   -0.255535
  18 C :    0.570937
  19 H :   -0.276226
  20 H :   -0.252927
  21 H :   -0.272807
  22 H :   -0.275186
  23 C :    0.364933
  24 H :   -0.329942
  25 Si:    0.165567
  26 C :    1.020058
  27 H :   -0.339107
  28 H :   -0.322702
  29 H :   -0.322618
  30 C :    1.004302
  31 H :   -0.330207
  32 H :   -0.327390
  33 H :   -0.336944
  34 C :    1.013036
  35 H :   -0.323924
  36 H :   -0.328009
  37 H :   -0.337731
  38 B :   -0.260322

  Mayer bond orders larger than 0.100000
B(  0-C ,  1-C ) :   0.6730 B(  0-C ,  3-H ) :   1.1115 B(  0-C , 18-C ) :   0.7364
B(  0-C , 20-H ) :  -0.1045 B(  0-C , 22-H ) :   1.0315 B(  1-C ,  4-C ) :   0.5748
B(  1-C ,  8-H ) :   0.9864 B(  1-C , 38-B ) :   1.1282 B(  2-C ,  7-H ) :   1.0359
B(  2-C , 10-C ) :  -0.1147 B(  2-C , 13-C ) :   0.3950 B(  2-C , 14-H ) :  -0.1440
B(  2-C , 16-C ) :   0.3302 B(  2-C , 17-H ) :  -0.1817 B(  2-C , 21-H ) :  -0.2124
B(  2-C , 23-C ) :   0.6246 B(  2-C , 25-Si) :  -0.1344 B(  2-C , 38-B ) :  -0.1197
B(  4-C ,  5-H ) :   1.0508 B(  4-C ,  6-H ) :   1.1633 B(  4-C , 10-C ) :   0.7336
B(  4-C , 13-C ) :  -0.1307 B(  7-H , 16-C ) :  -0.1069 B(  7-H , 23-C ) :  -0.1193
B(  9-H , 23-C ) :   0.1015 B( 10-C , 11-H ) :   1.1763 B( 10-C , 12-H ) :   1.1023
B( 10-C , 13-C ) :   0.5293 B( 11-H , 13-C ) :  -0.1431 B( 13-C , 14-H ) :   1.0115
B( 13-C , 15-H ) :   1.2645 B( 13-C , 23-C ) :   0.1656 B( 16-C , 17-H ) :   1.2577
B( 16-C , 18-C ) :   0.6993 B( 16-C , 20-H ) :  -0.1265 B( 16-C , 21-H ) :   1.2601
B( 18-C , 19-H ) :   1.1864 B( 18-C , 20-H ) :   1.0717 B( 23-C , 24-H ) :   1.0221
B( 23-C , 25-Si) :   0.5538 B( 23-C , 26-C ) :   0.1534 B( 23-C , 38-B ) :   0.9721
B( 24-H , 25-Si) :  -0.1296 B( 24-H , 38-B ) :   0.1976 B( 25-Si, 26-C ) :   0.3519
B( 25-Si, 30-C ) :   0.8677 B( 25-Si, 31-H ) :  -0.1003 B( 25-Si, 32-H ) :  -0.1252
B( 25-Si, 34-C ) :   0.6296 B( 26-C , 27-H ) :   0.9673 B( 26-C , 28-H ) :   1.1425
B( 26-C , 29-H ) :   0.9903 B( 30-C , 31-H ) :   0.9327 B( 30-C , 32-H ) :   1.0001
B( 30-C , 33-H ) :   0.9460 B( 34-C , 35-H ) :   1.0338 B( 34-C , 36-H ) :   1.0928
B( 34-C , 37-H ) :   0.9786

MP2 TOTAL ENERGY:     -785.301005215 Eh
FINAL SINGLE POINT ENERGY      -785.301005214923

DIPOLE MOMENT
-------------
                                X             Y             Z
Electronic contribution:     -0.58510      -1.25178      -2.17458
Nuclear contribution   :      0.55458       1.20218       2.38468
                        -----------------------------------------
Total Dipole Moment    :     -0.03052      -0.04960       0.21010
                        -----------------------------------------
Magnitude (a.u.)       :      0.21802
Magnitude (Debye)      :      0.55417

Rotational constants in cm-1:     0.031452     0.014801     0.014640
Rotational constants in MHz :   942.916121   443.726175   438.905560

                             ****ORCA TERMINATED NORMALLY****
TOTAL RUN TIME: 0 days 5 hours 6 minutes 45 seconds 966 msec
