                         Program Version 4.2.1 -  RELEASE  -
|  1> %pal
|  2>  nprocs 32
|  3> end
|  4> !RI-MP2 aug-cc-pVQZ aug-cc-pVQZ/C TightSCF
|  5> %maxcore 4500
|  6> *xyzfile 1 1  05_13TS.xyz
|  7>
|  8>
|  9>                          ****END OF INPUT****

CARTESIAN COORDINATES (ANGSTROEM)
---------------------------------
  C      0.036349   -1.063781   -0.921516
  C     -0.130145   -0.450404    1.662788
  C      1.074080    0.469473    1.438317
  C      1.989246    0.000608    0.322174
  C      1.196806   -0.073192   -0.978204
  H      0.718332    1.478934    1.205200
  H      1.621117    0.531762    2.381531
  H      2.389533   -0.988615    0.549916
  H      0.816498    0.924981   -1.218323
  H      1.861597   -0.377829   -1.786476
  N     -0.741371   -0.807076    0.337812
  O     -1.860222   -1.432997    0.428929
  C     -0.877502   -0.853845   -2.124547
  H     -0.279024   -0.956400   -3.029827
  H     -1.661866   -1.609255   -2.162351
  H     -1.323935    0.139508   -2.117846
  C      0.526570   -2.520271   -0.920580
  H     -0.309623   -3.203249   -0.766790
  H      0.975294   -2.737691   -1.890283
  H      1.282617   -2.713179   -0.163518
  C     -1.177812    0.285161    2.493830
  H     -2.037963   -0.346189    2.715603
  H     -0.729944    0.576631    3.443987
  H     -1.506612    1.195598    1.993633
  C      0.273359   -1.740520    2.390646
  H      0.584563   -1.491568    3.406209
  H     -0.573279   -2.424681    2.451100
  H      1.100262   -2.253447    1.904971
  C     -3.764744    0.085568   -0.206417
  H     -4.231214    0.268561    0.766317
  H     -2.760272   -0.774616    0.242466
  O     -3.075519    1.087086   -0.708499
  C     -3.032700    2.361384   -0.003058
  H     -3.117349    2.168299    1.067540
  H     -3.915517    2.912133   -0.332270
  C     -4.456826   -0.813158   -1.172017
  H     -3.858834   -0.962014   -2.069081
  H     -5.399990   -0.336624   -1.465022
  C     -1.762546    3.075990   -0.372997
  H     -1.705278    3.230766   -1.450553
  H     -1.743484    4.052933    0.112492
  H     -0.886809    2.511854   -0.052337
  H     -4.693613   -1.773716   -0.714610
  N      3.134171    0.879730    0.199892
  C      4.260348    0.449739   -0.446091
  C      5.412348    1.417072   -0.502935
  H      6.271713    0.961389   -0.010071
  H      5.682536    1.578625   -1.546599
  H      5.198259    2.377323   -0.033037
  O      4.307996   -0.660981   -0.938205
  H      3.103660    1.807391    0.589950

 Total Charge           Charge          ....    1
 Multiplicity           Mult            ....    1
 Number of Electrons    NEL             ....  158
 Basis Dimension        Dim             .... 3026

ORBITAL ENERGIES
----------------

  NO   OCC          E(Eh)            E(eV)
   0   2.0000     -20.807451      -566.1995
   1   2.0000     -20.782651      -565.5247
   2   2.0000     -20.595804      -560.4403
   3   2.0000     -15.779843      -429.3913
   4   2.0000     -15.672870      -426.4805
   5   2.0000     -11.529264      -313.7272
   6   2.0000     -11.445252      -311.4412
   7   2.0000     -11.430988      -311.0530
   8   2.0000     -11.408125      -310.4309
   9   2.0000     -11.397768      -310.1490
  10   2.0000     -11.388213      -309.8890
  11   2.0000     -11.371092      -309.4231
  12   2.0000     -11.355806      -309.0072
  13   2.0000     -11.346931      -308.7657
  14   2.0000     -11.344642      -308.7034
  15   2.0000     -11.329290      -308.2856
  16   2.0000     -11.328729      -308.2704
  17   2.0000     -11.328166      -308.2551
  18   2.0000     -11.319390      -308.0163
  19   2.0000     -11.310547      -307.7756
  20   2.0000      -1.638465       -44.5849
  21   2.0000      -1.609743       -43.8033
  22   2.0000      -1.468063       -39.9480
  23   2.0000      -1.334159       -36.3043
  24   2.0000      -1.299579       -35.3633
  25   2.0000      -1.231712       -33.5166
  26   2.0000      -1.226327       -33.3700
  27   2.0000      -1.166454       -31.7408
  28   2.0000      -1.156941       -31.4820
  29   2.0000      -1.115049       -30.3420
  30   2.0000      -1.076491       -29.2928
  31   2.0000      -1.066484       -29.0205
  32   2.0000      -1.053849       -28.6767
  33   2.0000      -1.047404       -28.5013
  34   2.0000      -1.028789       -27.9948
  35   2.0000      -1.003236       -27.2994
  36   2.0000      -0.957599       -26.0576
  37   2.0000      -0.940366       -25.5887
  38   2.0000      -0.904370       -24.6092
  39   2.0000      -0.883597       -24.0439
  40   2.0000      -0.871121       -23.7044
  41   2.0000      -0.851031       -23.1577
  42   2.0000      -0.830465       -22.5981
  43   2.0000      -0.808952       -22.0127
  44   2.0000      -0.803520       -21.8649
  45   2.0000      -0.785288       -21.3688
  46   2.0000      -0.775092       -21.0913
  47   2.0000      -0.761040       -20.7090
  48   2.0000      -0.747299       -20.3350
  49   2.0000      -0.735434       -20.0122
  50   2.0000      -0.724767       -19.7219
  51   2.0000      -0.721280       -19.6270
  52   2.0000      -0.713509       -19.4156
  53   2.0000      -0.706206       -19.2169
  54   2.0000      -0.703939       -19.1552
  55   2.0000      -0.698182       -18.9985
  56   2.0000      -0.691408       -18.8142
  57   2.0000      -0.686003       -18.6671
  58   2.0000      -0.683282       -18.5930
  59   2.0000      -0.676762       -18.4156
  60   2.0000      -0.669217       -18.2103
  61   2.0000      -0.665274       -18.1030
  62   2.0000      -0.663422       -18.0526
  63   2.0000      -0.657971       -17.9043
  64   2.0000      -0.649330       -17.6692
  65   2.0000      -0.641539       -17.4572
  66   2.0000      -0.639237       -17.3945
  67   2.0000      -0.634123       -17.2554
  68   2.0000      -0.632701       -17.2167
  69   2.0000      -0.618932       -16.8420
  70   2.0000      -0.606458       -16.5026
  71   2.0000      -0.600886       -16.3509
  72   2.0000      -0.598205       -16.2780
  73   2.0000      -0.589455       -16.0399
  74   2.0000      -0.573435       -15.6040
  75   2.0000      -0.567844       -15.4518
  76   2.0000      -0.506688       -13.7877
  77   2.0000      -0.482549       -13.1308
  78   2.0000      -0.469618       -12.7790
  79   0.0000      -0.148281        -4.0349
  80   0.0000      -0.068850        -1.8735
  81   0.0000      -0.057035        -1.5520
  82   0.0000      -0.055427        -1.5082
  83   0.0000      -0.050850        -1.3837

MULLIKEN ATOMIC CHARGES
-----------------------
   0 C :    1.259339
   1 C :    1.156630
   2 C :   -0.728456
   3 C :    1.944947
   4 C :   -1.158049
   5 H :    0.242981
   6 H :    0.027021
   7 H :    0.039927
   8 H :    0.486086
   9 H :    0.121524
  10 N :    2.504001
  11 O :   -1.553107
  12 C :   -1.257086
  13 H :   -0.027203
  14 H :    0.295058
  15 H :    0.342580
  16 C :   -1.290110
  17 H :    0.126581
  18 H :    0.193346
  19 H :    0.279355
  20 C :   -1.288063
  21 H :    0.217573
  22 H :    0.089579
  23 H :    0.319482
  24 C :   -1.185569
  25 H :    0.178400
  26 H :    0.091628
  27 H :    0.321062
  28 C :    0.607340
  29 H :    0.376424
  30 H :    0.169836
  31 O :   -0.659655
  32 C :   -0.135375
  33 H :    0.291716
  34 H :    0.326469
  35 C :   -1.044585
  36 H :    0.268956
  37 H :    0.323405
  38 C :   -0.965016
  39 H :    0.239230
  40 H :    0.222342
  41 H :    0.286907
  42 H :    0.245269
  43 N :   -1.181713
  44 C :    0.965120
  45 C :   -0.907698
  46 H :    0.292014
  47 H :    0.292334
  48 H :    0.202423
  49 O :   -0.926477
  50 H :   -0.038726
Sum of atomic charges:    1.0000000

LOEWDIN ATOMIC CHARGES
----------------------
   0 C :   -0.366451
   1 C :   -0.365651
   2 C :    0.532093
   3 C :   -0.013993
   4 C :    0.527356
   5 H :   -0.278393
   6 H :   -0.240213
   7 H :   -0.330490
   8 H :   -0.260673
   9 H :   -0.272961
  10 N :    0.206652
  11 O :    1.128157
  12 C :    0.916972
  13 H :   -0.251230
  14 H :   -0.288424
  15 H :   -0.304434
  16 C :    0.957681
  17 H :   -0.258765
  18 H :   -0.251013
  19 H :   -0.295692
  20 C :    0.921844
  21 H :   -0.266574
  22 H :   -0.249797
  23 H :   -0.321851
  24 C :    0.955045
  25 H :   -0.254864
  26 H :   -0.261010
  27 H :   -0.292519
  28 C :    0.077213
  29 H :   -0.222764
  30 H :   -0.975206
  31 O :    1.005661
  32 C :    0.286915
  33 H :   -0.316913
  34 H :   -0.263522
  35 C :    1.001014
  36 H :   -0.290990
  37 H :   -0.248459
  38 C :    0.954440
  39 H :   -0.265267
  40 H :   -0.261284
  41 H :   -0.312193
  42 H :   -0.253219
  43 N :    0.878705
  44 C :   -0.805266
  45 C :    0.913757
  46 H :   -0.289409
  47 H :   -0.291007
  48 H :   -0.305043
  49 O :    0.745473
  50 H :   -0.483438

  Mayer bond orders larger than 0.100000
B(  0-C ,  1-C ) :   0.3183 B(  0-C ,  4-C ) :   0.3433 B(  0-C ,  8-H ) :  -0.1233
B(  0-C , 10-N ) :   0.5926 B(  0-C , 11-O ) :   0.1262 B(  0-C , 13-H ) :  -0.1100
B(  0-C , 14-H ) :  -0.3030 B(  0-C , 15-H ) :  -0.2678 B(  0-C , 16-C ) :   0.1222
B(  0-C , 17-H ) :  -0.2305 B(  0-C , 18-H ) :  -0.1551 B(  0-C , 19-H ) :  -0.1715
B(  0-C , 49-O ) :   0.1050 B(  1-C ,  2-C ) :   0.4666 B(  1-C ,  3-C ) :  -0.1038
B(  1-C ,  5-H ) :  -0.1329 B(  1-C , 10-N ) :   0.9358 B(  1-C , 11-O ) :   0.3113
B(  1-C , 21-H ) :  -0.2892 B(  1-C , 22-H ) :  -0.1228 B(  1-C , 23-H ) :  -0.3040
B(  1-C , 25-H ) :  -0.1740 B(  1-C , 26-H ) :  -0.3243 B(  1-C , 27-H ) :  -0.1605
B(  2-C ,  3-C ) :   0.5572 B(  2-C ,  5-H ) :   1.0244 B(  2-C ,  6-H ) :   1.2528
B(  2-C ,  7-H ) :  -0.1636 B(  2-C , 43-N ) :   0.1087 B(  2-C , 50-H ) :   0.1025
B(  3-C ,  4-C ) :   0.8187 B(  3-C ,  6-H ) :  -0.1729 B(  3-C ,  7-H ) :   1.1101
B(  3-C , 43-N ) :  -1.4576 B(  3-C , 50-H ) :  -0.6100 B(  4-C ,  8-H ) :   0.7392
B(  4-C ,  9-H ) :   1.2804 B(  4-C , 43-N ) :   0.6709 B(  4-C , 49-O ) :   0.1366
B(  4-C , 50-H ) :   0.1278 B(  7-H , 49-O ) :   0.2663 B(  9-H , 49-O ) :  -0.2570
B( 10-N , 11-O ) :  -0.9938 B( 10-N , 12-C ) :  -0.5172 B( 10-N , 13-H ) :  -0.1235
B( 10-N , 16-C ) :  -0.1528 B( 10-N , 17-H ) :  -0.1473 B( 10-N , 20-C ) :  -0.4141
B( 10-N , 24-C ) :  -0.1395 B( 10-N , 31-O ) :  -0.2351 B( 11-O , 12-C ) :   0.1011
B( 11-O , 30-H ) :   0.8039 B( 12-C , 13-H ) :   1.4370 B( 12-C , 14-H ) :   1.1411
B( 12-C , 15-H ) :   0.9734 B( 16-C , 17-H ) :   1.3457 B( 16-C , 18-H ) :   1.1313
B( 16-C , 19-H ) :   1.0815 B( 20-C , 21-H ) :   1.2483 B( 20-C , 22-H ) :   1.3043
B( 20-C , 23-H ) :   1.1171 B( 23-H , 32-C ) :  -0.1079 B( 24-C , 25-H ) :   1.1366
B( 24-C , 26-H ) :   1.4217 B( 24-C , 27-H ) :   1.0452 B( 28-C , 29-H ) :   0.9666
B( 28-C , 31-O ) :   0.7636 B( 28-C , 35-C ) :   0.4431 B( 28-C , 36-H ) :  -0.1035
B( 28-C , 42-H ) :  -0.1775 B( 30-H , 31-O ) :   0.1648 B( 31-O , 32-C ) :   0.9196
B( 32-C , 33-H ) :   0.9069 B( 32-C , 34-H ) :   0.8564 B( 32-C , 38-C ) :   0.9688
B( 35-C , 36-H ) :   0.9976 B( 35-C , 37-H ) :   0.9286 B( 35-C , 42-H ) :   1.1194
B( 38-C , 39-H ) :   1.0018 B( 38-C , 40-H ) :   1.0963 B( 38-C , 41-H ) :   0.7964
B( 43-N , 44-C ) :   1.2078 B( 43-N , 49-O ) :   0.1208 B( 43-N , 50-H ) :   1.5492
B( 44-C , 45-C ) :   0.7313 B( 44-C , 48-H ) :  -0.1650 B( 44-C , 49-O ) :   0.9207
B( 45-C , 46-H ) :   0.9706 B( 45-C , 47-H ) :   0.9503 B( 45-C , 48-H ) :   1.0521

MP2 TOTAL ENERGY:     -923.606616436 Eh
FINAL SINGLE POINT ENERGY      -923.606616436116

DIPOLE MOMENT
-------------
                                X             Y             Z
Electronic contribution:      5.36247      -2.06989      -1.28999
Nuclear contribution   :     -9.47970       3.89824       2.08397
                        -----------------------------------------
Total Dipole Moment    :     -4.11722       1.82836       0.79398
                        -----------------------------------------
Magnitude (a.u.)       :      4.57437
Magnitude (Debye)      :     11.62711

Rotational constants in cm-1:     0.017182     0.006533     0.006256
Rotational constants in MHz :   515.117804   195.855913   187.550890

                             ****ORCA TERMINATED NORMALLY****
TOTAL RUN TIME: 0 days 22 hours 35 minutes 50 seconds 337 msec
