                         Program Version 4.2.1 -  RELEASE  -
|  1> %pal
|  2>  nprocs 32
|  3> end
|  4> !RI-MP2 aug-cc-pVQZ aug-cc-pVQZ/C TightSCF
|  5> %maxcore 4500
|  6> *xyzfile 0 2  04_20R.xyz
|  7>
|  8>
|  9>                          ****END OF INPUT****

CARTESIAN COORDINATES (ANGSTROEM)
---------------------------------
  C     -1.642598   -0.131005    0.236672
  C     -0.795311   -0.209164   -1.017670
  C      0.622360   -0.746926   -0.845554
  H     -0.775992    0.787938   -1.471315
  H     -1.330740   -0.835663   -1.738550
  C      1.548107    0.060901    0.012151
  H      1.062812   -0.842717   -1.853419
  H      0.576222   -1.772173   -0.460629
  C      1.493414    1.550377   -0.032841
  C      2.818275   -0.590033    0.443488
  N     -1.244919   -0.355688    1.418211
  C     -3.078698    0.252350    0.009504
  H     -3.144328    1.209072   -0.516505
  H     -3.597486    0.328240    0.962822
  H     -3.580280   -0.491770   -0.615645
  H      2.666739   -1.639047    0.711178
  H      3.263861   -0.078460    1.300083
  H      1.861051    1.940043   -0.996521
  H      2.117506    1.991163    0.746901
  H      0.479167    1.935070    0.096842
  H      3.572407   -0.575000   -0.360873
  H     -0.249803   -0.585882    1.433654

 Total Charge           Charge          ....    0
 Multiplicity           Mult            ....    2
 Number of Electrons    NEL             ....   63
 Basis Dimension        Dim             .... 1284

ORBITAL ENERGIES
----------------
                 SPIN UP ORBITALS
  NO   OCC          E(Eh)            E(eV)
   0   1.0000     -15.530339      -422.6020
   1   1.0000     -11.276006      -306.8357
   2   1.0000     -11.234650      -305.7104
   3   1.0000     -11.232440      -305.6502
   4   1.0000     -11.228888      -305.5536
   5   1.0000     -11.218041      -305.2584
   6   1.0000     -11.216809      -305.2249
   7   1.0000     -11.216064      -305.2046
   8   1.0000      -1.210230       -32.9320
   9   1.0000      -1.108012       -30.1505
  10   1.0000      -1.024638       -27.8818
  11   1.0000      -0.980550       -26.6821
  12   1.0000      -0.943047       -25.6616
  13   1.0000      -0.884576       -24.0705
  14   1.0000      -0.754742       -20.5376
  15   1.0000      -0.730364       -19.8742
  16   1.0000      -0.665775       -18.1167
  17   1.0000      -0.638847       -17.3839
  18   1.0000      -0.622934       -16.9509
  19   1.0000      -0.596503       -16.2317
  20   1.0000      -0.587052       -15.9745
  21   1.0000      -0.570288       -15.5183
  22   1.0000      -0.547985       -14.9114
  23   1.0000      -0.544029       -14.8038
  24   1.0000      -0.540135       -14.6978
  25   1.0000      -0.515381       -14.0242
  26   1.0000      -0.510991       -13.9048
  27   1.0000      -0.481892       -13.1129
  28   1.0000      -0.475565       -12.9408
  29   1.0000      -0.414121       -11.2688
  30   1.0000      -0.407840       -11.0979
  31   1.0000      -0.316391        -8.6094
  32   0.0000       0.023286         0.6336
  33   0.0000       0.027626         0.7518
  34   0.0000       0.030008         0.8166
  35   0.0000       0.033183         0.9030
  36   0.0000       0.043039         1.1712

                 SPIN DOWN ORBITALS
  NO   OCC          E(Eh)            E(eV)
   0   1.0000     -15.529381      -422.5759
   1   1.0000     -11.276310      -306.8440
   2   1.0000     -11.234178      -305.6975
   3   1.0000     -11.231865      -305.6346
   4   1.0000     -11.219847      -305.3076
   5   1.0000     -11.219055      -305.2860
   6   1.0000     -11.217940      -305.2557
   7   1.0000     -11.207665      -304.9761
   8   1.0000      -1.208121       -32.8746
   9   1.0000      -1.078050       -29.3352
  10   1.0000      -1.016256       -27.6537
  11   1.0000      -0.979278       -26.6475
  12   1.0000      -0.942605       -25.6496
  13   1.0000      -0.880920       -23.9711
  14   1.0000      -0.735564       -20.0157
  15   1.0000      -0.707545       -19.2533
  16   1.0000      -0.657896       -17.9023
  17   1.0000      -0.633354       -17.2344
  18   1.0000      -0.603340       -16.4177
  19   1.0000      -0.584368       -15.9015
  20   1.0000      -0.577317       -15.7096
  21   1.0000      -0.561193       -15.2708
  22   1.0000      -0.545337       -14.8394
  23   1.0000      -0.538927       -14.6650
  24   1.0000      -0.533927       -14.5289
  25   1.0000      -0.512240       -13.9388
  26   1.0000      -0.504881       -13.7385
  27   1.0000      -0.476117       -12.9558
  28   1.0000      -0.470241       -12.7959
  29   1.0000      -0.410417       -11.1680
  30   1.0000      -0.402733       -10.9589
  31   0.0000       0.022869         0.6223
  32   0.0000       0.027682         0.7533
  33   0.0000       0.030081         0.8185
  34   0.0000       0.033021         0.8985
  35   0.0000       0.043033         1.1710

MULLIKEN ATOMIC CHARGES AND SPIN POPULATIONS
--------------------------------------------
   0 C :    0.397411   -0.016793
   1 C :   -0.331915    0.018019
   2 C :   -0.323697   -0.200789
   3 H :    0.245028   -0.006312
   4 H :    0.290623   -0.007162
   5 C :    0.308248    1.116830
   6 H :    0.298476    0.114719
   7 H :    0.206746    0.015858
   8 C :   -0.914497   -0.158086
   9 C :   -0.907274   -0.130573
  10 N :   -0.961942    0.031767
  11 C :   -0.850954    0.004126
  12 H :    0.224887   -0.000409
  13 H :    0.283292   -0.000531
  14 H :    0.264325   -0.000502
  15 H :    0.203882    0.017264
  16 H :    0.253902    0.018669
  17 H :    0.188678    0.082882
  18 H :    0.308114    0.006825
  19 H :    0.234066    0.026573
  20 H :    0.240198    0.076867
  21 H :    0.342405   -0.009242
Sum of atomic charges         :    0.0000000

LOEWDIN ATOMIC CHARGES AND SPIN POPULATIONS
-------------------------------------------
   0 C :   -0.276539    0.003370
   1 C :    0.494108    0.007008
   2 C :    0.477951    0.113242
   3 H :   -0.288198    0.000646
   4 H :   -0.274355    0.000932
   5 C :    0.017936    0.446181
   6 H :   -0.256678    0.028756
   7 H :   -0.287865    0.011620
   8 C :    0.903319    0.119850
   9 C :    0.904287    0.119751
  10 N :    1.044599    0.017283
  11 C :    0.887568   -0.000224
  12 H :   -0.286403    0.000104
  13 H :   -0.317171    0.000270
  14 H :   -0.286750   -0.000093
  15 H :   -0.296873    0.011093
  16 H :   -0.297864    0.012102
  17 H :   -0.262270    0.028281
  18 H :   -0.295200    0.009220
  19 H :   -0.311522    0.013558
  20 H :   -0.270331    0.028705
  21 H :   -0.721748    0.028346

  Mayer bond orders larger than 0.100000
B(  0-C ,  1-C ) :   0.6086 B(  0-C , 10-N ) :   1.3949 B(  0-C , 11-C ) :   0.8335
B(  0-C , 21-H ) :   0.1072 B(  1-C ,  2-C ) :   1.0194 B(  1-C ,  3-H ) :   0.8764
B(  1-C ,  4-H ) :   0.9696 B(  2-C ,  5-C ) :   0.6051 B(  2-C ,  6-H ) :   0.8600
B(  2-C ,  7-H ) :   0.9519 B(  5-C ,  8-C ) :   0.7128 B(  5-C ,  9-C ) :   0.6561
B(  5-C , 15-H ) :  -0.1043 B(  5-C , 16-H ) :  -0.1072 B(  5-C , 18-H ) :  -0.1070
B(  8-C , 17-H ) :   0.9972 B(  8-C , 18-H ) :   0.9795 B(  8-C , 19-H ) :   1.0317
B(  9-C , 15-H ) :   1.0652 B(  9-C , 16-H ) :   1.0311 B(  9-C , 20-H ) :   0.9866
B( 10-N , 21-H ) :   0.7311 B( 11-C , 12-H ) :   0.9754 B( 11-C , 13-H ) :   1.0147
B( 11-C , 14-H ) :   0.9480

MP2 TOTAL ENERGY:     -329.245760358 Eh
FINAL SINGLE POINT ENERGY      -329.245760357653

DIPOLE MOMENT
-------------
                                X             Y             Z
Electronic contribution:     -2.71739      -1.35836       1.84426
Nuclear contribution   :      3.07284       1.44342      -2.90392
                        -----------------------------------------
Total Dipole Moment    :      0.35545       0.08506      -1.05966
                        -----------------------------------------
Magnitude (a.u.)       :      1.12092
Magnitude (Debye)      :      2.84915

Rotational constants in cm-1:     0.126184     0.035484     0.035215
Rotational constants in MHz :  3782.896675  1063.795267  1055.704664

                             ****ORCA TERMINATED NORMALLY****
TOTAL RUN TIME: 0 days 1 hours 26 minutes 15 seconds 663 msec
