                         Program Version 4.2.1 -  RELEASE  -
|  1> %pal
|  2>  nprocs 32
|  3> end
|  4> !RI-MP2 aug-cc-pVQZ aug-cc-pVQZ/C TightSCF
|  5> %maxcore 4500
|  6> *xyzfile 0 1  05_19R1.xyz
|  7>
|  8>
|  9>                          ****END OF INPUT****

CARTESIAN COORDINATES (ANGSTROEM)
---------------------------------
  C     -4.281495   -0.738302    0.014218
  C     -3.159832   -0.099179    0.005013
  C     -4.387588    0.761911    0.015081
  H     -4.832577   -1.661226    0.018572
  C     -1.716928   -0.073151   -0.006904
  C     -1.042384    1.146446   -0.015565
  C     -0.979954   -1.260727   -0.013002
  C      0.342407    1.184226   -0.028584
  H     -1.614356    2.065733   -0.014274
  C      0.400699   -1.226974   -0.026458
  H     -1.501058   -2.209913   -0.009922
  C      1.061160   -0.002198   -0.035486
  H      0.863356    2.132446   -0.041062
  H      0.969998   -2.147392   -0.037958
  C      2.558599    0.027656    0.001583
  F      3.101631   -0.998354   -0.677767
  F      3.058957    1.160310   -0.520235
  F      3.029498   -0.056909    1.263591
  H     -4.674561    1.278380    0.930911
  H     -4.689678    1.278296   -0.895939

 Total Charge           Charge          ....    0
 Multiplicity           Mult            ....    1
 Number of Electrons    NEL             ....   94
 Basis Dimension        Dim             .... 1362

ORBITAL ENERGIES
----------------

  NO   OCC          E(Eh)            E(eV)
   0   2.0000     -26.334302      -716.5928
   1   2.0000     -26.333363      -716.5672
   2   2.0000     -26.328790      -716.4428
   3   2.0000     -11.508329      -313.1576
   4   2.0000     -11.272243      -306.7333
   5   2.0000     -11.270376      -306.6825
   6   2.0000     -11.261991      -306.4544
   7   2.0000     -11.261866      -306.4509
   8   2.0000     -11.257301      -306.3267
   9   2.0000     -11.256975      -306.3179
  10   2.0000     -11.256075      -306.2934
  11   2.0000     -11.250816      -306.1503
  12   2.0000     -11.245277      -305.9995
  13   2.0000      -1.724987       -46.9393
  14   2.0000      -1.631880       -44.4057
  15   2.0000      -1.626426       -44.2573
  16   2.0000      -1.199573       -32.6420
  17   2.0000      -1.170714       -31.8567
  18   2.0000      -1.081038       -29.4166
  19   2.0000      -1.045651       -28.4536
  20   2.0000      -0.974569       -26.5194
  21   2.0000      -0.886985       -24.1361
  22   2.0000      -0.867901       -23.6168
  23   2.0000      -0.828478       -22.5440
  24   2.0000      -0.817656       -22.2496
  25   2.0000      -0.811180       -22.0733
  26   2.0000      -0.796634       -21.6775
  27   2.0000      -0.768611       -20.9150
  28   2.0000      -0.712452       -19.3868
  29   2.0000      -0.709520       -19.3070
  30   2.0000      -0.705473       -19.1969
  31   2.0000      -0.668151       -18.1813
  32   2.0000      -0.659310       -17.9407
  33   2.0000      -0.656409       -17.8618
  34   2.0000      -0.649078       -17.6623
  35   2.0000      -0.645441       -17.5633
  36   2.0000      -0.617028       -16.7902
  37   2.0000      -0.612171       -16.6580
  38   2.0000      -0.611828       -16.6487
  39   2.0000      -0.543642       -14.7933
  40   2.0000      -0.536520       -14.5995
  41   2.0000      -0.528709       -14.3869
  42   2.0000      -0.493451       -13.4275
  43   2.0000      -0.430586       -11.7168
  44   2.0000      -0.416178       -11.3248
  45   2.0000      -0.363818        -9.9000
  46   2.0000      -0.324873        -8.8402
  47   0.0000       0.021870         0.5951
  48   0.0000       0.025844         0.7033
  49   0.0000       0.030262         0.8235
  50   0.0000       0.037145         1.0108
  51   0.0000       0.038954         1.0600

MULLIKEN ATOMIC CHARGES
-----------------------
   0 C :   -0.846226
   1 C :    0.128739
   2 C :   -0.711364
   3 H :    0.424268
   4 C :    0.458853
   5 C :   -0.240039
   6 C :   -0.237125
   7 C :   -0.164108
   8 H :    0.303796
   9 C :   -0.177910
  10 H :    0.308153
  11 C :   -0.688538
  12 H :    0.275682
  13 H :    0.283006
  14 C :    2.254659
  15 F :   -0.694846
  16 F :   -0.682478
  17 F :   -0.637748
  18 H :    0.319209
  19 H :    0.324016
Sum of atomic charges:    0.0000000

LOEWDIN ATOMIC CHARGES
----------------------
   0 C :    0.470085
   1 C :   -0.059972
   2 C :    0.538079
   3 H :   -0.301059
   4 C :   -0.082099
   5 C :    0.355761
   6 C :    0.356853
   7 C :    0.337894
   8 H :   -0.309174
   9 C :    0.335600
  10 H :   -0.305247
  11 C :   -0.212783
  12 H :   -0.328147
  13 H :   -0.322912
  14 C :   -2.143440
  15 F :    0.769187
  16 F :    0.772975
  17 F :    0.753213
  18 H :   -0.312409
  19 H :   -0.312403

  Mayer bond orders larger than 0.100000
B(  0-C ,  1-C ) :   1.7925 B(  0-C ,  2-C ) :   1.1667 B(  0-C ,  3-H ) :   0.8356
B(  0-C ,  4-C ) :  -0.3044 B(  1-C ,  2-C ) :   0.5001 B(  1-C ,  4-C ) :   0.6338
B(  1-C ,  5-C ) :  -0.4066 B(  1-C ,  6-C ) :  -0.3399 B(  1-C , 18-H ) :  -0.1208
B(  1-C , 19-H ) :  -0.1253 B(  2-C , 18-H ) :   0.9434 B(  2-C , 19-H ) :   0.9415
B(  4-C ,  5-C ) :   0.9951 B(  4-C ,  6-C ) :   0.9510 B(  4-C ,  7-C ) :  -0.2414
B(  4-C ,  9-C ) :  -0.2822 B(  4-C , 11-C ) :  -0.1004 B(  5-C ,  7-C ) :   1.2664
B(  5-C ,  8-H ) :   1.0033 B(  5-C ,  9-C ) :   0.1264 B(  5-C , 11-C ) :  -0.1399
B(  6-C ,  7-C ) :   0.1177 B(  6-C ,  9-C ) :   1.2852 B(  6-C , 10-H ) :   0.9963
B(  6-C , 11-C ) :  -0.1028 B(  7-C ,  8-H ) :  -0.1026 B(  7-C , 11-C ) :   0.9744
B(  7-C , 12-H ) :   1.0131 B(  7-C , 14-C ) :  -0.2316 B(  9-C , 10-H ) :  -0.1300
B(  9-C , 11-C ) :   0.9630 B(  9-C , 13-H ) :   1.0023 B(  9-C , 14-C ) :  -0.2263
B(  9-C , 15-F ) :   0.1027 B( 11-C , 12-H ) :  -0.1241 B( 11-C , 13-H ) :  -0.1512
B( 11-C , 14-C ) :   1.2253 B( 11-C , 15-F ) :   0.1080 B( 11-C , 16-F ) :   0.1332
B( 14-C , 15-F ) :   0.2638 B( 14-C , 16-F ) :   0.2539 B( 14-C , 17-F ) :   0.2908

MP2 TOTAL ENERGY:     -683.794541664 Eh
FINAL SINGLE POINT ENERGY      -683.794541664444

DIPOLE MOMENT
-------------
                                X             Y             Z
Electronic contribution:     22.46062      -0.79345       0.07427
Nuclear contribution   :    -23.53875       0.60640      -0.10971
                        -----------------------------------------
Total Dipole Moment    :     -1.07813      -0.18705      -0.03544
                        -----------------------------------------
Magnitude (a.u.)       :      1.09481
Magnitude (Debye)      :      2.78278

Rotational constants in cm-1:     0.084910     0.012227     0.011349
Rotational constants in MHz :  2545.549068   366.549419   340.227221

                             ****ORCA TERMINATED NORMALLY****
TOTAL RUN TIME: 0 days 1 hours 7 minutes 1 seconds 6 msec
