                         Program Version 4.2.1 -  RELEASE  -
|  1> %pal
|  2>  nprocs 32
|  3> end
|  4> !RI-MP2 aug-cc-pVQZ aug-cc-pVQZ/C TightSCF
|  5> %maxcore 4500
|  6> *xyzfile 0 1  10_61P.xyz
|  7>
|  8>
|  9>                          ****END OF INPUT****

CARTESIAN COORDINATES (ANGSTROEM)
---------------------------------
  C      2.584852   -0.975395    0.050537
  C     -2.346185    1.720028   -0.199557
  C     -1.168388    1.119404   -0.208440
  C     -1.029091   -0.270573    0.356579
  C      0.155324   -1.021319   -0.269508
  C      1.457444   -0.285821   -0.064093
  C      0.106135    1.731792   -0.747120
  F     -2.158440   -1.000290    0.206832
  F      0.200649   -2.281964    0.212098
  C      1.336104    1.191193   -0.056983
  C      2.213233    1.983178    0.549657
  F     -0.112828   -1.125221   -1.612731
  F     -0.782711   -0.207142    1.703261
  H      2.094038    3.059382    0.537436
  H      3.065472    1.587746    1.087335
  H      0.063677    2.816137   -0.654216
  H      0.171046    1.495713   -1.815303
  H      3.541853   -0.475679    0.123766
  H      2.578424   -2.056714    0.070834
  H     -2.458485    2.733975   -0.564235
  H     -3.232632    1.216073    0.162807

 Total Charge           Charge          ....    0
 Multiplicity           Mult            ....    1
 Number of Electrons    NEL             ....   98
 Basis Dimension        Dim             .... 1408

ORBITAL ENERGIES
----------------

  NO   OCC          E(Eh)            E(eV)
   0   2.0000     -26.321196      -716.2362
   1   2.0000     -26.317965      -716.1482
   2   2.0000     -26.317158      -716.1263
   3   2.0000     -26.313880      -716.0371
   4   2.0000     -11.430921      -311.0512
   5   2.0000     -11.428811      -310.9938
   6   2.0000     -11.267895      -306.6150
   7   2.0000     -11.266043      -306.5646
   8   2.0000     -11.265516      -306.5503
   9   2.0000     -11.257146      -306.3225
  10   2.0000     -11.255162      -306.2685
  11   2.0000     -11.248215      -306.0795
  12   2.0000     -11.240270      -305.8633
  13   2.0000      -1.684407       -45.8351
  14   2.0000      -1.661980       -45.2248
  15   2.0000      -1.611857       -43.8609
  16   2.0000      -1.605914       -43.6991
  17   2.0000      -1.176017       -32.0011
  18   2.0000      -1.108128       -30.1537
  19   2.0000      -1.064800       -28.9747
  20   2.0000      -1.015725       -27.6393
  21   2.0000      -0.958899       -26.0930
  22   2.0000      -0.912985       -24.8436
  23   2.0000      -0.857697       -23.3391
  24   2.0000      -0.821548       -22.3555
  25   2.0000      -0.806978       -21.9590
  26   2.0000      -0.791249       -21.5310
  27   2.0000      -0.765732       -20.8366
  28   2.0000      -0.755893       -20.5689
  29   2.0000      -0.728199       -19.8153
  30   2.0000      -0.700359       -19.0577
  31   2.0000      -0.690120       -18.7791
  32   2.0000      -0.679147       -18.4805
  33   2.0000      -0.674202       -18.3460
  34   2.0000      -0.662602       -18.0303
  35   2.0000      -0.654045       -17.7975
  36   2.0000      -0.642409       -17.4808
  37   2.0000      -0.637891       -17.3579
  38   2.0000      -0.624032       -16.9808
  39   2.0000      -0.611418       -16.6375
  40   2.0000      -0.599964       -16.3258
  41   2.0000      -0.593823       -16.1588
  42   2.0000      -0.574454       -15.6317
  43   2.0000      -0.524775       -14.2798
  44   2.0000      -0.508761       -13.8441
  45   2.0000      -0.499951       -13.6044
  46   2.0000      -0.447417       -12.1748
  47   2.0000      -0.392291       -10.6748
  48   2.0000      -0.350068        -9.5258
  49   0.0000       0.021124         0.5748
  50   0.0000       0.025099         0.6830
  51   0.0000       0.032245         0.8774
  52   0.0000       0.034415         0.9365
  53   0.0000       0.042484         1.1560

MULLIKEN ATOMIC CHARGES
-----------------------
   0 C :   -0.803434
   1 C :   -0.853668
   2 C :   -0.210689
   3 C :    1.756233
   4 C :    1.892038
   5 C :   -0.250942
   6 C :   -0.129432
   7 F :   -0.735187
   8 F :   -0.748550
   9 C :    0.331807
  10 C :   -1.001884
  11 F :   -0.773768
  12 F :   -0.754977
  13 H :    0.274284
  14 H :    0.316672
  15 H :    0.215599
  16 H :    0.300526
  17 H :    0.340213
  18 H :    0.276963
  19 H :    0.261471
  20 H :    0.296727
Sum of atomic charges:    0.0000000

LOEWDIN ATOMIC CHARGES
----------------------
   0 C :    0.805057
   1 C :    0.814830
   2 C :   -0.121452
   3 C :   -1.589298
   4 C :   -1.594814
   5 C :   -0.160412
   6 C :    0.453960
   7 F :    0.820060
   8 F :    0.828572
   9 C :   -0.086195
  10 C :    0.819825
  11 F :    0.810001
  12 F :    0.808595
  13 H :   -0.330429
  14 H :   -0.343705
  15 H :   -0.308173
  16 H :   -0.272343
  17 H :   -0.334714
  18 H :   -0.346033
  19 H :   -0.326071
  20 H :   -0.347259

  Mayer bond orders larger than 0.100000
B(  0-C ,  5-C ) :   1.4918 B(  0-C ,  9-C ) :  -0.3219 B(  0-C , 17-H ) :   1.0235
B(  0-C , 18-H ) :   1.0343 B(  1-C ,  2-C ) :   1.4756 B(  1-C ,  3-C ) :  -0.1526
B(  1-C ,  6-C ) :  -0.1554 B(  1-C , 19-H ) :   1.0950 B(  1-C , 20-H ) :   1.0111
B(  2-C ,  3-C ) :   0.7211 B(  2-C ,  6-C ) :   0.6722 B(  2-C ,  7-F ) :   0.2286
B(  2-C ,  9-C ) :  -0.2381 B(  2-C , 12-F ) :   0.1915 B(  2-C , 19-H ) :  -0.1099
B(  2-C , 20-H ) :  -0.1378 B(  3-C ,  4-C ) :   1.2366 B(  3-C , 11-F ) :   0.1152
B(  4-C ,  5-C ) :   0.7042 B(  4-C ,  9-C ) :  -0.1027 B(  5-C ,  8-F ) :   0.3038
B(  5-C ,  9-C ) :   0.3934 B(  5-C , 10-C ) :  -0.1576 B(  5-C , 11-F ) :   0.1953
B(  5-C , 17-H ) :  -0.1263 B(  5-C , 18-H ) :  -0.1401 B(  6-C ,  9-C ) :   0.8136
B(  6-C , 15-H ) :   1.0697 B(  6-C , 16-H ) :   0.8324 B(  9-C , 10-C ) :   1.5813
B(  9-C , 14-H ) :  -0.1195 B(  9-C , 15-H ) :  -0.1029 B( 10-C , 13-H ) :   1.0413
B( 10-C , 14-H ) :   1.0280

MP2 TOTAL ENERGY:     -746.127668844 Eh
FINAL SINGLE POINT ENERGY      -746.127668844152

DIPOLE MOMENT
-------------
                                X             Y             Z
Electronic contribution:     -7.55009     -13.05419       1.25710
Nuclear contribution   :      8.27688      14.30416      -1.48915
                        -----------------------------------------
Total Dipole Moment    :      0.72679       1.24998      -0.23204
                        -----------------------------------------
Magnitude (a.u.)       :      1.46441
Magnitude (Debye)      :      3.72225

Rotational constants in cm-1:     0.035197     0.030179     0.021428
Rotational constants in MHz :  1055.185696   904.755167   642.406132

                             ****ORCA TERMINATED NORMALLY****
TOTAL RUN TIME: 0 days 1 hours 14 minutes 41 seconds 5 msec
