                         Program Version 4.2.1 -  RELEASE  -
|  1> %pal
|  2>  nprocs 32
|  3> end
|  4> !RI-MP2 aug-cc-pVQZ aug-cc-pVQZ/C TightSCF
|  5> %maxcore 4500
|  6> *xyzfile 0 2  04_90TS.xyz
|  7>
|  8>
|  9>                          ****END OF INPUT****

CARTESIAN COORDINATES (ANGSTROEM)
---------------------------------
  C      2.732351   -0.944804   -0.349568
  C      4.127128   -1.523129   -0.406304
  O      1.170071    1.419385    0.912937
  C      2.150265    2.385031    0.461355
  C      1.297984    3.537913   -0.071739
  C      0.133740    3.563111    0.938624
  C      0.039882    2.079041    1.425424
  C      3.085707    1.741243   -0.514568
  H      2.701823    2.739148    1.341141
  H      4.144969    1.886171   -0.327973
  H      2.811561    1.849496   -1.559374
  O      0.819169    3.356747   -1.378401
  H      1.852609    4.475835   -0.069589
  H      0.349409    2.493825   -1.461616
  O     -1.051476    4.067300    0.401618
  H      0.406571    4.176626    1.800476
  H     -0.941056    4.072355   -0.560693
  N     -1.151882    1.377670    0.999752
  H      0.035968    2.022616    2.516964
  C     -2.170036    0.964383    1.827460
  N     -3.145501    0.367822    1.204486
  C     -2.755894    0.381693   -0.120578
  C     -1.523109    1.004812   -0.267321
  N     -0.885394    1.182689   -1.428416
  C     -1.553844    0.685887   -2.464630
  N     -2.735077    0.074758   -2.456692
  C     -3.367017   -0.082356   -1.291144
  N     -4.572861   -0.703796   -1.280729
  H     -5.025141   -0.816435   -2.174703
  H     -5.160791   -0.568721   -0.473505
  H     -1.084645    0.800540   -3.435979
  H     -2.107753    1.117510    2.893979
  O      4.863431   -1.340367   -1.337811
  O      4.488079   -2.209913    0.679183
  H      3.686483   -2.271145    1.236403
  N      2.030764   -1.286841    0.856179
  C      0.707617   -1.754010    0.731863
  C      0.250020   -2.324258   -0.428465
  N      1.081792   -2.321454   -1.517288
  C      1.932349   -1.137221   -1.627224
  H      2.957529    0.321564   -0.352654
  H      2.624138   -1.254857   -2.458232
  H      1.317101   -0.246453   -1.792265
  C     -0.165323   -1.626400    1.841975
  N     -1.411699   -2.228378    1.627855
  C     -1.783329   -2.791805    0.449792
  N     -0.992658   -2.857690   -0.577872
  O      0.068784   -1.049898    2.900250
  N     -3.044976   -3.318761    0.385054
  H     -3.337420   -3.517751   -0.560052
  H     -3.752666   -2.860388    0.939192
  H     -2.069881   -2.141335    2.389629
  H      2.055765   -0.553856    1.559088
  H      0.632472   -2.627714   -2.368460

 Total Charge           Charge          ....    0
 Multiplicity           Mult            ....    2
 Number of Electrons    NEL             ....  241
 Basis Dimension        Dim             .... 3606

ORBITAL ENERGIES
----------------
                 SPIN UP ORBITALS
  NO   OCC          E(Eh)            E(eV)
   0   1.0000     -20.586941      -560.1991
   1   1.0000     -20.586102      -560.1763
   2   1.0000     -20.572166      -559.7971
   3   1.0000     -20.561400      -559.5042
   4   1.0000     -20.524783      -558.5077
   5   1.0000     -20.518398      -558.3340
   6   1.0000     -15.641256      -425.6202
   7   1.0000     -15.626517      -425.2191
   8   1.0000     -15.604557      -424.6216
   9   1.0000     -15.601662      -424.5428
  10   1.0000     -15.583569      -424.0505
  11   1.0000     -15.580495      -423.9668
  12   1.0000     -15.579007      -423.9263
  13   1.0000     -15.570949      -423.7071
  14   1.0000     -15.570282      -423.6889
  15   1.0000     -15.555953      -423.2990
  16   1.0000     -11.387884      -309.8801
  17   1.0000     -11.362806      -309.1977
  18   1.0000     -11.358509      -309.0808
  19   1.0000     -11.357228      -309.0459
  20   1.0000     -11.353258      -308.9379
  21   1.0000     -11.336376      -308.4785
  22   1.0000     -11.335089      -308.4435
  23   1.0000     -11.335079      -308.4432
  24   1.0000     -11.326562      -308.2114
  25   1.0000     -11.309121      -307.7368
  26   1.0000     -11.306257      -307.6589
  27   1.0000     -11.301306      -307.5242
  28   1.0000     -11.290037      -307.2175
  29   1.0000     -11.272329      -306.7357
  30   1.0000     -11.269500      -306.6587
  31   1.0000     -11.253372      -306.2198
  32   1.0000     -11.248057      -306.0752
  33   1.0000      -1.446284       -39.3554
  34   1.0000      -1.438960       -39.1561
  35   1.0000      -1.398781       -38.0628
  36   1.0000      -1.394214       -37.9385
  37   1.0000      -1.385959       -37.7139
  38   1.0000      -1.364073       -37.1183
  39   1.0000      -1.350411       -36.7465
  40   1.0000      -1.347584       -36.6696
  41   1.0000      -1.327976       -36.1361
  42   1.0000      -1.296228       -35.2721
  43   1.0000      -1.273923       -34.6652
  44   1.0000      -1.232129       -33.5279
  45   1.0000      -1.222997       -33.2794
  46   1.0000      -1.216389       -33.0996
  47   1.0000      -1.191470       -32.4216
  48   1.0000      -1.182950       -32.1897
  49   1.0000      -1.082020       -29.4433
  50   1.0000      -1.066164       -29.0118
  51   1.0000      -1.061534       -28.8858
  52   1.0000      -1.043464       -28.3941
  53   1.0000      -0.982685       -26.7402
  54   1.0000      -0.963010       -26.2048
  55   1.0000      -0.928987       -25.2790
  56   1.0000      -0.916315       -24.9342
  57   1.0000      -0.902118       -24.5479
  58   1.0000      -0.884664       -24.0729
  59   1.0000      -0.863462       -23.4960
  60   1.0000      -0.855412       -23.2770
  61   1.0000      -0.834962       -22.7205
  62   1.0000      -0.824825       -22.4446
  63   1.0000      -0.798298       -21.7228
  64   1.0000      -0.796803       -21.6821
  65   1.0000      -0.784920       -21.3588
  66   1.0000      -0.760271       -20.6880
  67   1.0000      -0.756083       -20.5741
  68   1.0000      -0.745268       -20.2798
  69   1.0000      -0.735779       -20.0216
  70   1.0000      -0.725813       -19.7504
  71   1.0000      -0.708800       -19.2874
  72   1.0000      -0.704718       -19.1763
  73   1.0000      -0.702208       -19.1080
  74   1.0000      -0.698147       -18.9976
  75   1.0000      -0.691438       -18.8150
  76   1.0000      -0.684254       -18.6195
  77   1.0000      -0.679640       -18.4939
  78   1.0000      -0.669666       -18.2225
  79   1.0000      -0.657971       -17.9043
  80   1.0000      -0.656770       -17.8716
  81   1.0000      -0.651047       -17.7159
  82   1.0000      -0.646314       -17.5871
  83   1.0000      -0.639300       -17.3962
  84   1.0000      -0.637394       -17.3444
  85   1.0000      -0.627149       -17.0656
  86   1.0000      -0.625895       -17.0315
  87   1.0000      -0.615673       -16.7533
  88   1.0000      -0.611479       -16.6392
  89   1.0000      -0.605676       -16.4813
  90   1.0000      -0.600937       -16.3523
  91   1.0000      -0.593666       -16.1545
  92   1.0000      -0.588241       -16.0068
  93   1.0000      -0.577161       -15.7054
  94   1.0000      -0.568743       -15.4763
  95   1.0000      -0.562601       -15.3091
  96   1.0000      -0.555118       -15.1055
  97   1.0000      -0.545932       -14.8556
  98   1.0000      -0.537534       -14.6270
  99   1.0000      -0.527905       -14.3650
 100   1.0000      -0.526662       -14.3312
 101   1.0000      -0.523511       -14.2454
 102   1.0000      -0.513177       -13.9643
 103   1.0000      -0.499675       -13.5969
 104   1.0000      -0.481514       -13.1027
 105   1.0000      -0.475218       -12.9313
 106   1.0000      -0.473170       -12.8756
 107   1.0000      -0.469010       -12.7624
 108   1.0000      -0.466646       -12.6981
 109   1.0000      -0.458753       -12.4833
 110   1.0000      -0.454714       -12.3734
 111   1.0000      -0.445523       -12.1233
 112   1.0000      -0.441678       -12.0187
 113   1.0000      -0.433947       -11.8083
 114   1.0000      -0.427222       -11.6253
 115   1.0000      -0.421779       -11.4772
 116   1.0000      -0.394232       -10.7276
 117   1.0000      -0.392856       -10.6901
 118   1.0000      -0.350216        -9.5299
 119   1.0000      -0.334446        -9.1007
 120   1.0000      -0.281634        -7.6636
 121   0.0000       0.011545         0.3141
 122   0.0000       0.018514         0.5038
 123   0.0000       0.022407         0.6097
 124   0.0000       0.028397         0.7727
 125   0.0000       0.028960         0.7880

MULLIKEN ATOMIC CHARGES AND SPIN POPULATIONS
--------------------------------------------
   0 C :    0.273351    0.592726
   1 C :    1.978743   -0.045974
   2 O :   -0.447053    0.004001
   3 C :    0.049266   -0.084083
   4 C :    0.128839    0.016134
   5 C :    0.420904    0.002591
   6 C :   -0.014455   -0.001758
   7 C :   -0.633753    0.865888
   8 H :    0.227662    0.009214
   9 H :    0.218551   -0.066624
  10 H :    0.215445   -0.072350
  11 O :   -1.386257   -0.001259
  12 H :    0.413911   -0.009573
  13 H :    0.564056    0.003374
  14 O :   -1.304007    0.002903
  15 H :    0.284971   -0.000940
  16 H :    0.453874    0.000244
  17 N :   -0.381927    0.000299
  18 H :    0.488383    0.000295
  19 C :    0.629408    0.000107
  20 N :   -1.404742   -0.000341
  21 C :    0.644105    0.000788
  22 C :   -0.068861    0.000282
  23 N :   -0.390056    0.000286
  24 C :    0.269200    0.000023
  25 N :   -1.249975    0.000422
  26 C :    1.454350   -0.000351
  27 N :   -1.060285   -0.000012
  28 H :    0.193395   -0.000019
  29 H :    0.324195   -0.000002
  30 H :    0.552624    0.000044
  31 H :    0.436902   -0.000082
  32 O :   -0.952699    0.055048
  33 O :   -1.210998    0.001223
  34 H :    0.339605    0.000296
  35 N :    0.047338   -0.004292
  36 C :   -1.145406   -0.020308
  37 C :    1.982241    0.020716
  38 N :   -0.989469    0.014635
  39 C :   -0.920858   -0.037316
  40 H :    0.419161   -0.298008
  41 H :    0.225034    0.003302
  42 H :    0.378057    0.020367
  43 C :    2.332698    0.004715
  44 N :   -1.006745   -0.002030
  45 C :    1.431686    0.004084
  46 N :   -0.937300   -0.004610
  47 O :   -1.288985   -0.002774
  48 N :   -1.040692    0.001075
  49 H :    0.322792   -0.000062
  50 H :    0.258401    0.000020
  51 H :   -0.140909    0.000259
  52 H :    0.003977    0.024927
  53 H :    0.012309    0.002478
Sum of atomic charges         :   -0.0000000

LOEWDIN ATOMIC CHARGES AND SPIN POPULATIONS
-------------------------------------------
   0 C :   -0.130916    0.184109
   1 C :   -1.007312    0.028938
   2 O :    0.948461    0.011865
   3 C :   -0.158869    0.068842
   4 C :   -0.195139    0.015144
   5 C :   -0.187521    0.003224
   6 C :   -0.318632    0.001280
   7 C :    0.875563    0.292409
   8 H :   -0.276104    0.005400
   9 H :   -0.241812    0.078845
  10 H :   -0.277634    0.077493
  11 O :    1.330071    0.000889
  12 H :   -0.281305    0.003319
  13 H :   -0.995374   -0.000229
  14 O :    1.322992    0.001829
  15 H :   -0.290299    0.000385
  16 H :   -0.877112    0.000370
  17 N :    0.436720    0.000294
  18 H :   -0.308593    0.000055
  19 C :   -0.048450    0.000156
  20 N :    0.631034   -0.000066
  21 C :   -0.438555    0.000090
  22 C :   -0.553293    0.000067
  23 N :    0.675151    0.000292
  24 C :   -0.112218    0.000093
  25 N :    0.620144    0.000089
  26 C :   -0.502421    0.000029
  27 N :    1.269101   -0.000015
  28 H :   -0.486362   -0.000003
  29 H :   -0.484684   -0.000000
  30 H :   -0.352922    0.000009
  31 H :   -0.287176    0.000051
  32 O :    0.698149    0.032653
  33 O :    1.273118   -0.000642
  34 H :   -0.916597    0.002838
  35 N :    0.873626    0.041815
  36 C :   -0.268625    0.000601
  37 C :   -0.505605    0.005092
  38 N :    0.908544    0.010771
  39 C :    0.392148    0.028367
  40 H :   -0.573185    0.094016
  41 H :   -0.292515   -0.000474
  42 H :   -0.303465    0.000239
  43 C :   -0.876589   -0.000618
  44 N :    0.823274   -0.000205
  45 C :   -0.638496    0.002139
  46 N :    0.645529    0.000220
  47 O :    0.725596   -0.001751
  48 N :    1.290543    0.001287
  49 H :   -0.505604    0.000198
  50 H :   -0.489972    0.000180
  51 H :   -0.492109   -0.000122
  52 H :   -0.575164    0.006123
  53 H :   -0.489136    0.002022

  Mayer bond orders larger than 0.100000
B(  0-C ,  1-C ) :   1.4222 B(  0-C , 32-O ) :   0.3404 B(  0-C , 33-O ) :  -0.3957
B(  0-C , 34-H ) :  -0.1976 B(  0-C , 35-N ) :   0.6863 B(  0-C , 36-C ) :  -0.2234
B(  0-C , 38-N ) :  -0.2098 B(  0-C , 39-C ) :   0.6951 B(  0-C , 40-H ) :   0.1755
B(  1-C , 32-O ) :   0.7357 B(  1-C , 33-O ) :   0.3965 B(  1-C , 40-H ) :  -0.2188
B(  2-O ,  3-C ) :   0.8305 B(  2-O ,  4-C ) :  -0.1741 B(  2-O ,  5-C ) :   0.1483
B(  2-O ,  6-C ) :   0.8432 B(  2-O , 17-N ) :   0.2241 B(  2-O , 35-N ) :  -0.2178
B(  2-O , 36-C ) :   0.1300 B(  2-O , 37-C ) :  -0.1454 B(  2-O , 47-O ) :   0.1203
B(  3-C ,  4-C ) :   0.9192 B(  3-C ,  7-C ) :   0.5275 B(  3-C ,  8-H ) :   1.0301
B(  3-C ,  9-H ) :  -0.1244 B(  4-C ,  5-C ) :   1.1131 B(  4-C ,  6-C ) :  -0.1014
B(  4-C , 11-O ) :   0.6001 B(  4-C , 12-H ) :   0.8532 B(  4-C , 13-H ) :   0.1469
B(  4-C , 14-O ) :   0.3101 B(  5-C ,  6-C ) :   0.9394 B(  5-C , 14-O ) :  -0.1954
B(  5-C , 15-H ) :   1.0271 B(  5-C , 18-H ) :  -0.1225 B(  6-C , 14-O ) :   0.3103
B(  6-C , 17-N ) :   1.3323 B(  6-C , 18-H ) :   0.7852 B(  6-C , 19-C ) :   0.1317
B(  6-C , 22-C ) :  -0.2358 B(  7-C ,  9-H ) :   1.0968 B(  7-C , 10-H ) :   1.1513
B(  7-C , 40-H ) :   0.1305 B( 10-H , 40-H ) :  -0.1620 B( 11-O , 13-H ) :   0.3545
B( 13-H , 23-N ) :   0.2878 B( 14-O , 16-H ) :   0.7233 B( 14-O , 17-N ) :   0.3607
B( 14-O , 22-C ) :  -0.1788 B( 14-O , 23-N ) :  -0.1175 B( 17-N , 19-C ) :   1.1472
B( 17-N , 20-N ) :  -0.1569 B( 17-N , 21-C ) :  -0.3921 B( 17-N , 22-C ) :   0.7847
B( 17-N , 23-N ) :  -0.1062 B( 17-N , 36-C ) :   0.1147 B( 17-N , 47-O ) :   0.1549
B( 19-C , 20-N ) :   1.1352 B( 19-C , 21-C ) :   0.1423 B( 19-C , 31-H ) :   0.7479
B( 20-N , 21-C ) :  -0.4759 B( 20-N , 22-C ) :   0.9323 B( 20-N , 26-C ) :  -0.1834
B( 21-C , 22-C ) :   1.1590 B( 21-C , 23-N ) :  -0.1748 B( 21-C , 25-N ) :   0.1460
B( 21-C , 26-C ) :   1.3725 B( 22-C , 23-N ) :   1.5199 B( 22-C , 24-C ) :   0.1266
B( 22-C , 25-N ) :   0.2409 B( 22-C , 26-C ) :  -0.2614 B( 22-C , 27-N ) :   0.2191
B( 22-C , 36-C ) :   0.2005 B( 22-C , 37-C ) :  -0.1137 B( 22-C , 47-O ) :   0.1137
B( 23-N , 24-C ) :   1.5354 B( 24-C , 25-N ) :   0.8920 B( 24-C , 30-H ) :   0.7948
B( 25-N , 26-C ) :   0.3918 B( 25-N , 27-N ) :   0.1508 B( 25-N , 30-H ) :  -0.1918
B( 26-C , 27-N ) :   0.5059 B( 26-C , 28-H ) :  -0.1007 B( 27-N , 28-H ) :   1.1286
B( 27-N , 29-H ) :   0.8797 B( 32-O , 33-O ) :   0.3083 B( 32-O , 39-C ) :   0.1632
B( 33-O , 34-H ) :   0.7382 B( 33-O , 36-C ) :   0.1512 B( 33-O , 40-H ) :   0.2067
B( 34-H , 35-N ) :   0.2516 B( 35-N , 36-C ) :   0.8061 B( 35-N , 37-C ) :   0.1610
B( 35-N , 38-N ) :  -0.1774 B( 35-N , 43-C ) :  -0.1934 B( 35-N , 47-O ) :  -0.1433
B( 35-N , 52-H ) :   1.3147 B( 36-C , 37-C ) :   1.3885 B( 36-C , 38-N ) :   0.4127
B( 36-C , 43-C ) :   1.3695 B( 36-C , 44-N ) :  -0.1753 B( 36-C , 45-C ) :   0.1518
B( 36-C , 46-N ) :   0.2744 B( 36-C , 47-O ) :   1.0417 B( 37-C , 38-N ) :  -0.1376
B( 37-C , 39-C ) :   0.1219 B( 37-C , 43-C ) :  -0.2864 B( 37-C , 44-N ) :  -0.2246
B( 37-C , 46-N ) :   0.2711 B( 37-C , 53-H ) :  -0.1688 B( 38-N , 39-C ) :   0.8457
B( 38-N , 53-H ) :   1.2822 B( 39-C , 40-H ) :   0.2692 B( 39-C , 41-H ) :   0.9853
B( 39-C , 42-H ) :   0.7990 B( 43-C , 44-N ) :   0.8691 B( 43-C , 47-O ) :  -0.4966
B( 43-C , 51-H ) :  -0.3296 B( 44-N , 45-C ) :   0.9128 B( 44-N , 47-O ) :   0.2919
B( 44-N , 51-H ) :   1.5379 B( 45-C , 46-N ) :   1.2887 B( 45-C , 48-N ) :   0.5485
B( 45-C , 51-H ) :  -0.2098 B( 47-O , 52-H ) :  -0.2022 B( 48-N , 49-H ) :   0.8778
B( 48-N , 50-H ) :   0.9619

MP2 TOTAL ENERGY:    -1656.950093453 Eh
FINAL SINGLE POINT ENERGY     -1656.950093452690

DIPOLE MOMENT
-------------
                                X             Y             Z
Electronic contribution:     -5.26377      -8.03567       3.18886
Nuclear contribution   :      2.13183       8.93315      -2.84147
                        -----------------------------------------
Total Dipole Moment    :     -3.13194       0.89749       0.34739
                        -----------------------------------------
Magnitude (a.u.)       :      3.27646
Magnitude (Debye)      :      8.32810

Rotational constants in cm-1:     0.006047     0.004893     0.003644
Rotational constants in MHz :   181.290945   146.675748   109.242197

                             ****ORCA TERMINATED NORMALLY****
TOTAL RUN TIME: 2 days 11 hours 58 minutes 3 seconds 557 msec
