                         Program Version 4.2.1 -  RELEASE  -
|  1> %pal
|  2>  nprocs 32
|  3> end
|  4> !RI-MP2 aug-cc-pVQZ aug-cc-pVQZ/C TightSCF
|  5> %maxcore 4500
|  6> *xyzfile -1 1  09_3TS.xyz
|  7>
|  8>
|  9>                          ****END OF INPUT****

CARTESIAN COORDINATES (ANGSTROEM)
---------------------------------
  C     -1.953310    1.364847   -0.110871
  C     -1.657545   -0.115343    0.103554
  C     -0.705976   -0.460505    1.079412
  O     -2.146666   -0.924962   -0.715406
  C      0.956871   -0.516545   -0.175098
  C      2.017106    0.037500    0.166696
  C      3.419487    0.272810   -0.232442
  H     -3.033673    1.529194   -0.064573
  H     -1.456416    2.005251    0.620144
  H     -1.620293    1.645659   -1.114788
  H     -0.644042   -1.501026    1.376909
  H     -0.378086    0.273287    1.802520
  H      4.111362   -0.145154    0.507065
  H      3.694398   -0.156956   -1.213053
  H      3.644851    1.343988   -0.275216
  H      0.395425   -1.091131   -0.903266

 Total Charge           Charge          ....   -1
 Multiplicity           Mult            ....    1
 Number of Electrons    NEL             ....   54
 Basis Dimension        Dim             ....  974

ORBITAL ENERGIES
----------------

  NO   OCC          E(Eh)            E(eV)
   0   2.0000     -20.324984      -553.0709
   1   2.0000     -11.127284      -302.7888
   2   2.0000     -11.092862      -301.8521
   3   2.0000     -11.068958      -301.2017
   4   2.0000     -11.068599      -301.1919
   5   2.0000     -11.020304      -299.8777
   6   2.0000     -11.012837      -299.6745
   7   2.0000      -1.159368       -31.5480
   8   2.0000      -0.879211       -23.9245
   9   2.0000      -0.852609       -23.2007
  10   2.0000      -0.786328       -21.3971
  11   2.0000      -0.750265       -20.4157
  12   2.0000      -0.547137       -14.8884
  13   2.0000      -0.533100       -14.5064
  14   2.0000      -0.451538       -12.2870
  15   2.0000      -0.449648       -12.2356
  16   2.0000      -0.436533       -11.8787
  17   2.0000      -0.425174       -11.5696
  18   2.0000      -0.423303       -11.5187
  19   2.0000      -0.417873       -11.3709
  20   2.0000      -0.378518       -10.3000
  21   2.0000      -0.346734        -9.4351
  22   2.0000      -0.314216        -8.5503
  23   2.0000      -0.226569        -6.1653
  24   2.0000      -0.222490        -6.0543
  25   2.0000      -0.194075        -5.2811
  26   2.0000      -0.071308        -1.9404
  27   0.0000       0.104027         2.8307
  28   0.0000       0.112019         3.0482
  29   0.0000       0.119590         3.2542
  30   0.0000       0.120655         3.2832
  31   0.0000       0.129659         3.5282

MULLIKEN ATOMIC CHARGES
-----------------------
   0 C :   -0.892790
   1 C :    0.894733
   2 C :   -0.728469
   3 O :   -0.999863
   4 C :   -0.534844
   5 C :   -0.281480
   6 C :   -0.643795
   7 H :    0.298405
   8 H :    0.218960
   9 H :    0.213298
  10 H :    0.195501
  11 H :    0.231173
  12 H :    0.245221
  13 H :    0.233258
  14 H :    0.228490
  15 H :    0.322201
Sum of atomic charges:   -1.0000000

LOEWDIN ATOMIC CHARGES
----------------------
   0 C :    0.818590
   1 C :   -0.851026
   2 C :    0.485131
   3 O :    0.616707
   4 C :    0.343924
   5 C :    0.118255
   6 C :    0.714472
   7 H :   -0.319250
   8 H :   -0.331304
   9 H :   -0.314846
  10 H :   -0.379482
  11 H :   -0.402229
  12 H :   -0.357841
  13 H :   -0.335793
  14 H :   -0.357993
  15 H :   -0.447316

  Mayer bond orders larger than 0.100000
B(  0-C ,  1-C ) :   0.8257 B(  0-C ,  3-O ) :   0.1436 B(  0-C ,  7-H ) :   0.9543
B(  0-C ,  8-H ) :   1.0184 B(  0-C ,  9-H ) :   0.9446 B(  1-C ,  2-C ) :   1.2781
B(  1-C ,  3-O ) :   0.8803 B(  2-C ,  3-O ) :   0.1610 B(  2-C ,  4-C ) :   0.4894
B(  2-C ,  5-C ) :  -0.1233 B(  2-C , 10-H ) :   0.9828 B(  2-C , 11-H ) :   0.9870
B(  4-C ,  5-C ) :   1.9771 B(  4-C , 15-H ) :   0.8561 B(  5-C ,  6-C ) :   0.6449
B(  5-C , 12-H ) :  -0.1297 B(  5-C , 14-H ) :  -0.1405 B(  6-C , 12-H ) :   1.0056
B(  6-C , 13-H ) :   0.9356 B(  6-C , 14-H ) :   1.0165

MP2 TOTAL ENERGY:     -308.650939963 Eh
FINAL SINGLE POINT ENERGY      -308.650939962587

DIPOLE MOMENT
-------------
                                X             Y             Z
Electronic contribution:     -4.23593      -3.10664      -0.72984
Nuclear contribution   :      4.79535       3.98464       0.74237
                        -----------------------------------------
Total Dipole Moment    :      0.55943       0.87800       0.01254
                        -----------------------------------------
Magnitude (a.u.)       :      1.04115
Magnitude (Debye)      :      2.64639

Rotational constants in cm-1:     0.186433     0.037388     0.035489
Rotational constants in MHz :  5589.116935  1120.867807  1063.938857

                             ****ORCA TERMINATED NORMALLY****
TOTAL RUN TIME: 0 days 0 hours 21 minutes 3 seconds 22 msec
