                         Program Version 4.2.1 -  RELEASE  -
|  1> %pal
|  2>  nprocs 32
|  3> end
|  4> !RI-MP2 aug-cc-pVQZ aug-cc-pVQZ/C TightSCF
|  5> %maxcore 4500
|  6> *xyzfile 1 1  10_17TS.xyz
|  7>
|  8>
|  9>                          ****END OF INPUT****

CARTESIAN COORDINATES (ANGSTROEM)
---------------------------------
  C     -1.572622    1.301014   -0.183660
  N     -0.275218    1.034212   -0.149922
  N      0.405253    0.094361   -0.504900
  C      1.778779    0.069888   -0.206528
  C      2.470609   -1.034488   -0.697841
  C      2.424878    1.061631    0.536637
  C      3.827041   -1.151427   -0.444876
  H      1.938088   -1.781749   -1.272141
  C      3.775708    0.933384    0.782679
  H      1.868363    1.913320    0.906398
  C      4.474676   -0.170445    0.293089
  H      4.377921   -2.002942   -0.821920
  H      4.294967    1.690845    1.355363
  H      5.535495   -0.260734    0.491257
  C     -2.337379    1.035778    1.090648
  H     -2.076576    1.868485    1.755270
  H     -3.398873    1.161883    0.868947
  C     -1.981831    2.467744   -1.032842
  H     -1.418922    2.505102   -1.963818
  H     -3.048604    2.423659   -1.243309
  H     -1.788972    3.387913   -0.473220
  C     -2.472790   -0.334227   -1.550359
  C     -1.697231   -1.379205   -1.198761
  H     -3.388681   -0.119823   -1.015507
  H     -2.361774    0.120758   -2.526588
  C     -1.837635   -2.174585    0.056571
  H     -2.269826   -3.142234   -0.226900
  H     -0.837958   -2.414663    0.432012
  H     -0.937209   -1.716412   -1.894015
  C     -2.670020   -1.551052    1.175980
  C     -2.082810   -0.286881    1.815822
  H     -1.010445   -0.421877    1.990383
  H     -2.525926   -0.173127    2.806835
  H     -3.691625   -1.357724    0.834559
  H     -2.765931   -2.303476    1.960793

 Total Charge           Charge          ....    1
 Multiplicity           Mult            ....    1
 Number of Electrons    NEL             ....  116
 Basis Dimension        Dim             .... 2154

ORBITAL ENERGIES
----------------

  NO   OCC          E(Eh)            E(eV)
   0   2.0000     -15.815423      -430.3595
   1   2.0000     -15.802179      -429.9992
   2   2.0000     -11.518188      -313.4258
   3   2.0000     -11.401088      -310.2394
   4   2.0000     -11.400228      -310.2160
   5   2.0000     -11.393330      -310.0283
   6   2.0000     -11.388845      -309.9062
   7   2.0000     -11.372649      -309.4655
   8   2.0000     -11.370664      -309.4115
   9   2.0000     -11.364160      -309.2345
  10   2.0000     -11.361491      -309.1619
  11   2.0000     -11.357973      -309.0662
  12   2.0000     -11.357669      -309.0579
  13   2.0000     -11.356493      -309.0259
  14   2.0000     -11.354686      -308.9767
  15   2.0000     -11.350297      -308.8573
  16   2.0000      -1.570763       -42.7426
  17   2.0000      -1.334763       -36.3207
  18   2.0000      -1.279106       -34.8063
  19   2.0000      -1.238127       -33.6911
  20   2.0000      -1.193900       -32.4877
  21   2.0000      -1.173738       -31.9390
  22   2.0000      -1.151015       -31.3207
  23   2.0000      -1.119231       -30.4558
  24   2.0000      -1.104559       -30.0566
  25   2.0000      -1.044102       -28.4115
  26   2.0000      -0.994351       -27.0577
  27   2.0000      -0.966827       -26.3087
  28   2.0000      -0.958812       -26.0906
  29   2.0000      -0.887458       -24.1490
  30   2.0000      -0.877538       -23.8790
  31   2.0000      -0.851321       -23.1656
  32   2.0000      -0.819853       -22.3093
  33   2.0000      -0.808600       -22.0031
  34   2.0000      -0.806077       -21.9345
  35   2.0000      -0.800063       -21.7708
  36   2.0000      -0.765348       -20.8262
  37   2.0000      -0.749403       -20.3923
  38   2.0000      -0.739818       -20.1315
  39   2.0000      -0.737174       -20.0595
  40   2.0000      -0.724849       -19.7241
  41   2.0000      -0.719691       -19.5838
  42   2.0000      -0.716750       -19.5038
  43   2.0000      -0.707894       -19.2628
  44   2.0000      -0.704571       -19.1724
  45   2.0000      -0.689142       -18.7525
  46   2.0000      -0.661787       -18.0081
  47   2.0000      -0.649375       -17.6704
  48   2.0000      -0.644679       -17.5426
  49   2.0000      -0.627153       -17.0657
  50   2.0000      -0.618890       -16.8409
  51   2.0000      -0.609515       -16.5857
  52   2.0000      -0.605149       -16.4669
  53   2.0000      -0.598344       -16.2818
  54   2.0000      -0.555042       -15.1035
  55   2.0000      -0.499734       -13.5984
  56   2.0000      -0.467360       -12.7175
  57   2.0000      -0.464577       -12.6418
  58   0.0000      -0.092496        -2.5170
  59   0.0000      -0.081060        -2.2058
  60   0.0000      -0.063309        -1.7227
  61   0.0000      -0.055070        -1.4985
  62   0.0000      -0.052170        -1.4196

MULLIKEN ATOMIC CHARGES
-----------------------
   0 C :    1.708975
   1 N :   -0.426468
   2 N :   -0.563942
   3 C :    1.066736
   4 C :   -0.456634
   5 C :   -0.501857
   6 C :   -0.370762
   7 H :    0.344788
   8 C :   -0.306300
   9 H :    0.273256
  10 C :   -0.465128
  11 H :    0.255880
  12 H :    0.297693
  13 H :    0.327634
  14 C :   -0.654215
  15 H :    0.228545
  16 H :    0.349247
  17 C :   -1.131482
  18 H :    0.278481
  19 H :    0.280321
  20 H :    0.330667
  21 C :   -0.876341
  22 C :   -0.022918
  23 H :    0.369298
  24 H :    0.192718
  25 C :   -0.533835
  26 H :    0.315097
  27 H :    0.188693
  28 H :    0.362627
  29 C :   -0.446872
  30 C :   -0.462263
  31 H :    0.394061
  32 H :    0.168068
  33 H :    0.271781
  34 H :    0.214451
Sum of atomic charges:    1.0000000

LOEWDIN ATOMIC CHARGES
----------------------
   0 C :   -0.272714
   1 N :    0.413063
   2 N :    0.413228
   3 C :   -0.317834
   4 C :    0.326688
   5 C :    0.340773
   6 C :    0.375295
   7 H :   -0.311494
   8 C :    0.376462
   9 H :   -0.317777
  10 C :    0.374725
  11 H :   -0.308457
  12 H :   -0.307963
  13 H :   -0.300636
  14 C :    0.548845
  15 H :   -0.245902
  16 H :   -0.273702
  17 C :    0.958005
  18 H :   -0.263158
  19 H :   -0.271561
  20 H :   -0.246137
  21 C :    0.750398
  22 C :    0.391353
  23 H :   -0.352450
  24 H :   -0.295959
  25 C :    0.545516
  26 H :   -0.252708
  27 H :   -0.277361
  28 H :   -0.283477
  29 C :    0.558995
  30 C :    0.574538
  31 H :   -0.269014
  32 H :   -0.255361
  33 H :   -0.267223
  34 H :   -0.256992

  Mayer bond orders larger than 0.100000
B(  0-C ,  1-N ) :   0.7667 B(  0-C ,  2-N ) :  -0.2252 B(  0-C , 14-C ) :   0.6956
B(  0-C , 18-H ) :  -0.2199 B(  0-C , 19-H ) :  -0.1303 B(  0-C , 20-H ) :  -0.1745
B(  0-C , 21-C ) :   0.1663 B(  0-C , 22-C ) :   0.2165 B(  0-C , 30-C ) :  -0.1081
B(  1-N ,  2-N ) :   1.2475 B(  1-N ,  3-C ) :  -0.1033 B(  1-N ,  9-H ) :   0.1120
B(  2-N ,  3-C ) :   0.9145 B(  2-N , 21-C ) :   0.1398 B(  2-N , 22-C ) :   0.1780
B(  3-C ,  4-C ) :   0.9016 B(  3-C ,  5-C ) :   0.8289 B(  3-C ,  6-C ) :  -0.4952
B(  3-C ,  8-C ) :  -0.4340 B(  3-C , 10-C ) :  -0.1704 B(  4-C ,  6-C ) :   1.3397
B(  4-C ,  7-H ) :   0.8590 B(  4-C , 11-H ) :  -0.1173 B(  5-C ,  6-C ) :   0.1360
B(  5-C ,  8-C ) :   1.2204 B(  5-C ,  9-H ) :   0.9678 B(  5-C , 10-C ) :   0.1401
B(  5-C , 12-H ) :  -0.1655 B(  6-C , 10-C ) :   1.1966 B(  6-C , 11-H ) :   1.1322
B(  8-C , 10-C ) :   1.1261 B(  8-C , 12-H ) :   1.1038 B(  8-C , 13-H ) :  -0.1123
B( 10-C , 11-H ) :  -0.1091 B( 10-C , 13-H ) :   1.0331 B( 14-C , 15-H ) :   0.9644
B( 14-C , 16-H ) :   0.9358 B( 14-C , 30-C ) :   0.8103 B( 17-C , 18-H ) :   1.1042
B( 17-C , 19-H ) :   1.0326 B( 17-C , 20-H ) :   0.9750 B( 21-C , 22-C ) :   1.5813
B( 21-C , 23-H ) :   0.8752 B( 21-C , 24-H ) :   1.1445 B( 22-C , 24-H ) :  -0.1351
B( 22-C , 25-C ) :   0.6456 B( 22-C , 28-H ) :   0.9002 B( 25-C , 26-H ) :   0.9046
B( 25-C , 27-H ) :   1.0943 B( 25-C , 29-C ) :   0.8708 B( 29-C , 30-C ) :   0.7605
B( 29-C , 33-H ) :   0.9686 B( 29-C , 34-H ) :   1.0389 B( 30-C , 31-H ) :   0.8210
B( 30-C , 32-H ) :   1.1036

MP2 TOTAL ENERGY:     -652.917752507 Eh
FINAL SINGLE POINT ENERGY      -652.917752506501

DIPOLE MOMENT
-------------
                                X             Y             Z
Electronic contribution:     12.72332       1.27295      -2.02379
Nuclear contribution   :    -13.78262      -0.62880       2.00075
                        -----------------------------------------
Total Dipole Moment    :     -1.05930       0.64415      -0.02304
                        -----------------------------------------
Magnitude (a.u.)       :      1.23999
Magnitude (Debye)      :      3.15180

Rotational constants in cm-1:     0.030579     0.010823     0.009830
Rotational constants in MHz :   916.730668   324.478603   294.695593

                             ****ORCA TERMINATED NORMALLY****
TOTAL RUN TIME: 0 days 5 hours 49 minutes 4 seconds 576 msec
