                         Program Version 4.2.1 -  RELEASE  -
|  1> %pal
|  2>  nprocs 32
|  3> end
|  4> !RI-MP2 aug-cc-pVQZ aug-cc-pVQZ/C TightSCF
|  5> %maxcore 4500
|  6> *xyzfile 0 1  04_80R1.xyz
|  7>
|  8>
|  9>                          ****END OF INPUT****

CARTESIAN COORDINATES (ANGSTROEM)
---------------------------------
  P     -0.000005   -0.034407   -0.491496
  O     -0.000024   -0.274413   -1.956679
  N     -1.399264   -0.651900    0.194465
  N      0.000073    1.537030    0.095300
  N      1.399205   -0.652028    0.194450
  C      1.682758   -0.576071    1.614786
  H      1.370242   -1.482038    2.150140
  H      2.759659   -0.452286    1.767383
  H      1.180648    0.281903    2.058327
  C      2.133270   -1.690944   -0.510638
  H      3.208760   -1.521858   -0.397332
  H      1.902231   -2.690393   -0.119318
  H      1.881790   -1.657940   -1.568089
  C     -2.133462   -1.690714   -0.510635
  H     -1.882005   -1.657706   -1.568092
  H     -1.902520   -2.690200   -0.119353
  H     -3.208929   -1.521514   -0.397294
  C     -1.682759   -0.575961    1.614813
  C     -1.209618    2.336233   -0.065713
  H     -1.226883    3.120303    0.695938
  H     -1.251298    2.812055   -1.052854
  H     -2.093190    1.713751    0.053497
  C      1.209829    2.336126   -0.065764
  H      1.251505    2.811951   -1.052903
  H      1.227201    3.120189    0.695892
  H      2.093351    1.713563    0.053399
  H     -1.180555    0.281953    2.058363
  H     -1.370309   -1.481973    2.150127
  H     -2.759644   -0.452079    1.767451

 Total Charge           Charge          ....    0
 Multiplicity           Mult            ....    1
 Number of Electrons    NEL             ....   98
 Basis Dimension        Dim             .... 1712

ORBITAL ENERGIES
----------------

  NO   OCC          E(Eh)            E(eV)
   0   2.0000     -80.034560     -2177.8511
   1   2.0000     -20.471115      -557.0473
   2   2.0000     -15.555972      -423.2995
   3   2.0000     -15.550457      -423.1494
   4   2.0000     -15.550442      -423.1490
   5   2.0000     -11.256724      -306.3110
   6   2.0000     -11.256721      -306.3110
   7   2.0000     -11.250822      -306.1504
   8   2.0000     -11.250806      -306.1500
   9   2.0000     -11.243347      -305.9470
  10   2.0000     -11.243347      -305.9470
  11   2.0000      -7.556351      -205.6188
  12   2.0000      -5.454430      -148.4226
  13   2.0000      -5.454353      -148.4205
  14   2.0000      -5.453655      -148.4015
  15   2.0000      -1.301366       -35.4120
  16   2.0000      -1.223289       -33.2874
  17   2.0000      -1.206832       -32.8396
  18   2.0000      -1.202398       -32.7189
  19   2.0000      -0.964079       -26.2339
  20   2.0000      -0.963375       -26.2148
  21   2.0000      -0.954917       -25.9846
  22   2.0000      -0.930367       -25.3166
  23   2.0000      -0.860302       -23.4100
  24   2.0000      -0.856643       -23.3104
  25   2.0000      -0.728047       -19.8112
  26   2.0000      -0.680864       -18.5272
  27   2.0000      -0.673775       -18.3343
  28   2.0000      -0.648759       -17.6536
  29   2.0000      -0.629212       -17.1217
  30   2.0000      -0.628086       -17.0911
  31   2.0000      -0.613591       -16.6967
  32   2.0000      -0.605015       -16.4633
  33   2.0000      -0.594739       -16.1837
  34   2.0000      -0.581802       -15.8316
  35   2.0000      -0.553734       -15.0679
  36   2.0000      -0.550598       -14.9825
  37   2.0000      -0.543943       -14.8014
  38   2.0000      -0.537029       -14.6133
  39   2.0000      -0.523220       -14.2375
  40   2.0000      -0.520861       -14.1734
  41   2.0000      -0.517176       -14.0731
  42   2.0000      -0.515433       -14.0256
  43   2.0000      -0.510215       -13.8837
  44   2.0000      -0.448981       -12.2174
  45   2.0000      -0.433072       -11.7845
  46   2.0000      -0.396201       -10.7812
  47   2.0000      -0.375392       -10.2149
  48   2.0000      -0.352367        -9.5884
  49   0.0000       0.021559         0.5866
  50   0.0000       0.027864         0.7582
  51   0.0000       0.029243         0.7957
  52   0.0000       0.033843         0.9209
  53   0.0000       0.041941         1.1413

MULLIKEN ATOMIC CHARGES
-----------------------
   0 P :    2.684589
   1 O :   -1.472782
   2 N :    0.050559
   3 N :    0.184997
   4 N :    0.050360
   5 C :   -1.040955
   6 H :    0.273470
   7 H :    0.284736
   8 H :    0.263354
   9 C :   -1.142141
  10 H :    0.305185
  11 H :    0.288665
  12 H :    0.348366
  13 C :   -1.142380
  14 H :    0.348398
  15 H :    0.288668
  16 H :    0.305217
  17 C :   -1.040940
  18 C :   -1.243068
  19 H :    0.338940
  20 H :    0.287184
  21 H :    0.287524
  22 C :   -1.243095
  23 H :    0.287234
  24 H :    0.338921
  25 H :    0.287450
  26 H :    0.263269
  27 H :    0.273529
  28 H :    0.284747
Sum of atomic charges:    0.0000000

LOEWDIN ATOMIC CHARGES
----------------------
   0 P :   -0.450680
   1 O :    0.419546
   2 N :    0.366652
   3 N :    0.372907
   4 N :    0.366653
   5 C :    0.707660
   6 H :   -0.269729
   7 H :   -0.279432
   8 H :   -0.330305
   9 C :    0.715338
  10 H :   -0.286326
  11 H :   -0.272895
  12 H :   -0.360897
  13 C :    0.715338
  14 H :   -0.360897
  15 H :   -0.272895
  16 H :   -0.286327
  17 C :    0.707660
  18 C :    0.719394
  19 H :   -0.280627
  20 H :   -0.266203
  21 H :   -0.333518
  22 C :    0.719394
  23 H :   -0.266204
  24 H :   -0.280627
  25 H :   -0.333516
  26 H :   -0.330304
  27 H :   -0.269729
  28 H :   -0.279431

  Mayer bond orders larger than 0.100000
B(  0-P ,  1-O ) :   1.0637 B(  0-P ,  2-N ) :   0.7629 B(  0-P ,  3-N ) :   0.7179
B(  0-P ,  4-N ) :   0.7631 B(  0-P ,  9-C ) :  -0.2416 B(  0-P , 12-H ) :  -0.1006
B(  0-P , 13-C ) :  -0.2418 B(  0-P , 14-H ) :  -0.1006 B(  0-P , 18-C ) :  -0.1694
B(  0-P , 22-C ) :  -0.1693 B(  1-O ,  2-N ) :  -0.2746 B(  1-O ,  3-N ) :  -0.1206
B(  1-O ,  4-N ) :  -0.2743 B(  2-N ,  3-N ) :  -0.1252 B(  2-N , 13-C ) :   0.6684
B(  2-N , 15-H ) :  -0.1116 B(  2-N , 17-C ) :   0.7959 B(  2-N , 18-C ) :  -0.1265
B(  2-N , 27-H ) :  -0.1236 B(  3-N ,  4-N ) :  -0.1250 B(  3-N ,  5-C ) :  -0.1553
B(  3-N , 17-C ) :  -0.1552 B(  3-N , 18-C ) :   0.7925 B(  3-N , 22-C ) :   0.7927
B(  4-N ,  5-C ) :   0.7960 B(  4-N ,  6-H ) :  -0.1237 B(  4-N ,  9-C ) :   0.6683
B(  4-N , 11-H ) :  -0.1116 B(  4-N , 22-C ) :  -0.1265 B(  5-C ,  6-H ) :   1.0156
B(  5-C ,  7-H ) :   0.9906 B(  5-C ,  8-H ) :   0.9818 B(  9-C , 10-H ) :   0.9709
B(  9-C , 11-H ) :   1.0042 B(  9-C , 12-H ) :   1.0069 B( 13-C , 14-H ) :   1.0069
B( 13-C , 15-H ) :   1.0042 B( 13-C , 16-H ) :   0.9709 B( 17-C , 26-H ) :   0.9819
B( 17-C , 27-H ) :   1.0155 B( 17-C , 28-H ) :   0.9906 B( 18-C , 19-H ) :   0.9547
B( 18-C , 20-H ) :   1.0286 B( 18-C , 21-H ) :   0.9701 B( 22-C , 23-H ) :   1.0285
B( 22-C , 24-H ) :   0.9546 B( 22-C , 25-H ) :   0.9701

MP2 TOTAL ENERGY:     -819.162745122 Eh
FINAL SINGLE POINT ENERGY      -819.162745122255

DIPOLE MOMENT
-------------
                                X             Y             Z
Electronic contribution:     -0.00005      -0.10610      -6.18659
Nuclear contribution   :      0.00006       0.28500       7.82135
                        -----------------------------------------
Total Dipole Moment    :      0.00001       0.17889       1.63476
                        -----------------------------------------
Magnitude (a.u.)       :      1.64452
Magnitude (Debye)      :      4.18003

Rotational constants in cm-1:     0.033948     0.033002     0.025357
Rotational constants in MHz :  1017.738060   989.380053   760.182757

                             ****ORCA TERMINATED NORMALLY****
TOTAL RUN TIME: 0 days 2 hours 20 minutes 16 seconds 319 msec
