                         Program Version 4.2.1 -  RELEASE  -
|  1> %pal
|  2>  nprocs 32
|  3> end
|  4> !RI-MP2 aug-cc-pVQZ aug-cc-pVQZ/C TightSCF
|  5> %maxcore 4500
|  6> *xyzfile 0 1  10_1P.xyz
|  7>
|  8>
|  9>                          ****END OF INPUT****

CARTESIAN COORDINATES (ANGSTROEM)
---------------------------------
  C      1.589184    1.109703    0.633758
  C      0.530021   -0.036584    0.696989
  C      0.747814    2.380556    0.724325
  C      2.405219    1.129550   -0.661345
  C      1.086809   -1.334814    0.118106
  C     -0.753144    0.534902   -0.012858
  C      0.062718   -0.262845    2.152337
  C      1.878035   -1.238472   -1.163878
  C      3.017363   -0.220430   -1.025384
  C      4.074307   -0.685895   -0.025464
  C     -0.471984    2.043652   -0.106278
  C     -1.959013    0.223914    0.957399
  C     -1.405551   -0.666427    2.065198
  N     -3.028228   -0.299372    0.078399
  O     -2.765300    0.469833   -1.100644
  C     -1.582706   -1.468275   -1.422847
  C     -2.757568   -1.655784   -0.432878
  H      2.263063    1.009892    1.487119
  H      1.238783    3.274492    0.341702
  H      0.424216    2.589686    1.747586
  H      3.186226    1.889810   -0.569663
  H      1.761673    1.454466   -1.487826
  O      0.941267   -2.392596    0.686460
  H      0.160672    0.670279    2.711900
  H      0.671943   -1.014401    2.652168
  H      1.209581   -0.913184   -1.966911
  H      2.243486   -2.236333   -1.408187
  H      3.497636   -0.123344   -2.003342
  H      4.524224   -1.627475   -0.346702
  H      3.655098   -0.853242    0.969690
  H      4.872118    0.054240    0.069024
  O     -1.085947    2.823167   -0.780779
  H     -1.459604   -1.720479    1.801481
  H     -1.939444   -0.532131    3.006374
  H     -2.550358   -2.350803    0.375815
  H     -3.660515   -1.988337   -0.941088
  C     -1.401525    0.048315   -1.327235
  H     -1.875445   -1.733364   -2.438690
  H     -0.715498   -2.062838   -1.157964
  H     -2.351037    1.153646    1.371598
  H     -1.039258    0.545402   -2.222844

 Total Charge           Charge          ....    0
 Multiplicity           Mult            ....    1
 Number of Electrons    NEL             ....  148
 Basis Dimension        Dim             .... 2566

ORBITAL ENERGIES
----------------

  NO   OCC          E(Eh)            E(eV)
   0   2.0000     -20.577998      -559.9558
   1   2.0000     -20.554846      -559.3258
   2   2.0000     -20.547765      -559.1331
   3   2.0000     -15.606436      -424.6727
   4   2.0000     -11.338522      -308.5369
   5   2.0000     -11.329734      -308.2977
   6   2.0000     -11.293422      -307.3096
   7   2.0000     -11.269498      -306.6586
   8   2.0000     -11.263380      -306.4922
   9   2.0000     -11.257808      -306.3405
  10   2.0000     -11.255521      -306.2783
  11   2.0000     -11.252362      -306.1923
  12   2.0000     -11.251246      -306.1620
  13   2.0000     -11.243211      -305.9433
  14   2.0000     -11.241601      -305.8995
  15   2.0000     -11.241064      -305.8849
  16   2.0000     -11.233582      -305.6813
  17   2.0000     -11.229472      -305.5695
  18   2.0000     -11.229319      -305.5653
  19   2.0000     -11.229110      -305.5596
  20   2.0000      -1.436757       -39.0961
  21   2.0000      -1.403887       -38.2017
  22   2.0000      -1.395991       -37.9869
  23   2.0000      -1.190674       -32.3999
  24   2.0000      -1.146288       -31.1921
  25   2.0000      -1.117179       -30.4000
  26   2.0000      -1.074748       -29.2454
  27   2.0000      -1.061510       -28.8852
  28   2.0000      -1.021411       -27.7940
  29   2.0000      -1.003047       -27.2943
  30   2.0000      -0.967754       -26.3339
  31   2.0000      -0.960520       -26.1371
  32   2.0000      -0.889279       -24.1985
  33   2.0000      -0.851803       -23.1788
  34   2.0000      -0.833581       -22.6829
  35   2.0000      -0.819683       -22.3047
  36   2.0000      -0.796800       -21.6820
  37   2.0000      -0.779254       -21.2046
  38   2.0000      -0.748395       -20.3649
  39   2.0000      -0.721746       -19.6397
  40   2.0000      -0.703899       -19.1541
  41   2.0000      -0.695744       -18.9322
  42   2.0000      -0.672115       -18.2892
  43   2.0000      -0.667083       -18.1522
  44   2.0000      -0.657260       -17.8849
  45   2.0000      -0.647875       -17.6296
  46   2.0000      -0.636422       -17.3179
  47   2.0000      -0.619996       -16.8709
  48   2.0000      -0.616787       -16.7836
  49   2.0000      -0.607728       -16.5371
  50   2.0000      -0.601706       -16.3733
  51   2.0000      -0.584779       -15.9127
  52   2.0000      -0.571642       -15.5552
  53   2.0000      -0.563565       -15.3354
  54   2.0000      -0.556919       -15.1545
  55   2.0000      -0.549584       -14.9549
  56   2.0000      -0.545333       -14.8393
  57   2.0000      -0.539962       -14.6931
  58   2.0000      -0.529816       -14.4170
  59   2.0000      -0.518767       -14.1164
  60   2.0000      -0.514676       -14.0051
  61   2.0000      -0.507985       -13.8230
  62   2.0000      -0.501777       -13.6540
  63   2.0000      -0.500379       -13.6160
  64   2.0000      -0.485677       -13.2159
  65   2.0000      -0.482088       -13.1183
  66   2.0000      -0.476066       -12.9544
  67   2.0000      -0.469016       -12.7626
  68   2.0000      -0.461403       -12.5554
  69   2.0000      -0.454848       -12.3770
  70   2.0000      -0.438726       -11.9383
  71   2.0000      -0.416900       -11.3444
  72   2.0000      -0.390843       -10.6354
  73   2.0000      -0.387615       -10.5475
  74   0.0000       0.016748         0.4557
  75   0.0000       0.021489         0.5847
  76   0.0000       0.025693         0.6991
  77   0.0000       0.028253         0.7688
  78   0.0000       0.034382         0.9356

MULLIKEN ATOMIC CHARGES
-----------------------
   0 C :   -0.156195
   1 C :    1.470539
   2 C :   -1.090265
   3 C :   -0.426046
   4 C :    2.390233
   5 C :    1.123919
   6 C :   -0.970700
   7 C :   -0.716076
   8 C :   -0.144203
   9 C :   -1.001941
  10 C :    1.637585
  11 C :    0.131220
  12 C :   -0.789314
  13 N :   -0.651774
  14 O :   -1.281704
  15 C :   -1.084648
  16 C :   -0.500363
  17 H :    0.315522
  18 H :    0.024970
  19 H :    0.173578
  20 H :    0.117093
  21 H :    0.171362
  22 O :   -1.414260
  23 H :    0.181111
  24 H :    0.116879
  25 H :    0.281436
  26 H :    0.176113
  27 H :    0.151698
  28 H :    0.197449
  29 H :    0.138540
  30 H :    0.197791
  31 O :   -1.192276
  32 H :    0.206459
  33 H :    0.207838
  34 H :    0.342792
  35 H :    0.372178
  36 C :    0.442950
  37 H :    0.136124
  38 H :    0.404196
  39 H :    0.120590
  40 H :    0.189600
Sum of atomic charges:   -0.0000000

LOEWDIN ATOMIC CHARGES
----------------------
   0 C :    0.145196
   1 C :   -0.217758
   2 C :    0.542759
   3 C :    0.548762
   4 C :   -0.626454
   5 C :   -0.234971
   6 C :    0.532688
   7 C :    0.521768
   8 C :    0.154603
   9 C :    0.952077
  10 C :   -0.624234
  11 C :   -0.028119
  12 C :    0.592759
  13 N :    0.307666
  14 O :    0.771468
  15 C :    0.559350
  16 C :    0.378700
  17 H :   -0.253031
  18 H :   -0.261898
  19 H :   -0.256581
  20 H :   -0.239573
  21 H :   -0.258619
  22 O :    0.845192
  23 H :   -0.274798
  24 H :   -0.268499
  25 H :   -0.280096
  26 H :   -0.274031
  27 H :   -0.253047
  28 H :   -0.260706
  29 H :   -0.281026
  30 H :   -0.259784
  31 O :    0.797164
  32 H :   -0.317274
  33 H :   -0.226320
  34 H :   -0.304491
  35 H :   -0.274033
  36 C :   -0.220858
  37 H :   -0.248649
  38 H :   -0.350550
  39 H :   -0.276628
  40 H :   -0.278125

  Mayer bond orders larger than 0.100000
B(  0-C ,  1-C ) :   0.2936 B(  0-C ,  2-C ) :   0.9362 B(  0-C ,  3-C ) :   0.4070
B(  0-C ,  4-C ) :   0.2192 B(  0-C ,  5-C ) :   0.3108 B(  0-C ,  8-C ) :  -0.1627
B(  0-C , 17-H ) :   1.0323 B(  0-C , 18-H ) :  -0.1184 B(  0-C , 19-H ) :  -0.1341
B(  0-C , 20-H ) :  -0.1436 B(  0-C , 21-H ) :  -0.1412 B(  1-C ,  2-C ) :  -0.3750
B(  1-C ,  3-C ) :  -0.3487 B(  1-C ,  4-C ) :   0.5260 B(  1-C ,  5-C ) :   0.8382
B(  1-C ,  6-C ) :  -0.3589 B(  1-C ,  7-C ) :  -0.2808 B(  1-C , 10-C ) :  -0.2984
B(  1-C , 11-C ) :   0.3381 B(  1-C , 12-C ) :  -0.4398 B(  1-C , 15-C ) :   0.2558
B(  1-C , 16-C ) :  -0.1211 B(  1-C , 17-H ) :  -0.1534 B(  1-C , 19-H ) :  -0.1289
B(  1-C , 22-O ) :   1.0357 B(  1-C , 23-H ) :  -0.2967 B(  1-C , 24-H ) :  -0.2123
B(  1-C , 25-H ) :  -0.1684 B(  1-C , 36-C ) :   0.1715 B(  1-C , 39-H ) :   0.1014
B(  2-C ,  5-C ) :  -0.4256 B(  2-C , 10-C ) :   1.3931 B(  2-C , 17-H ) :  -0.1023
B(  2-C , 18-H ) :   1.3187 B(  2-C , 19-H ) :   1.2511 B(  2-C , 31-O ) :   0.2400
B(  3-C ,  8-C ) :   0.7489 B(  3-C ,  9-C ) :  -0.1283 B(  3-C , 10-C ) :   0.1036
B(  3-C , 20-H ) :   1.1651 B(  3-C , 21-H ) :   1.1330 B(  4-C ,  6-C ) :   0.1093
B(  4-C ,  7-C ) :   0.9377 B(  4-C , 15-C ) :  -0.1100 B(  4-C , 22-O ) :  -0.8035
B(  4-C , 25-H ) :   0.1023 B(  5-C ,  6-C ) :  -0.1370 B(  5-C ,  7-C ) :   0.1655
B(  5-C , 10-C ) :   0.8318 B(  5-C , 11-C ) :   0.3358 B(  5-C , 13-N ) :  -0.2495
B(  5-C , 14-O ) :  -0.3990 B(  5-C , 15-C ) :  -0.2717 B(  5-C , 22-O ) :   0.1035
B(  5-C , 31-O ) :   0.7293 B(  5-C , 36-C ) :   0.3648 B(  5-C , 39-H ) :  -0.2340
B(  5-C , 40-H ) :  -0.2438 B(  6-C , 11-C ) :  -0.1379 B(  6-C , 12-C ) :   1.0712
B(  6-C , 23-H ) :   1.2624 B(  6-C , 24-H ) :   1.3167 B(  7-C ,  8-C ) :   0.6530
B(  7-C , 22-O ) :   0.3351 B(  7-C , 25-H ) :   0.9634 B(  7-C , 26-H ) :   1.0697
B(  8-C ,  9-C ) :   0.8461 B(  8-C , 27-H ) :   1.0931 B(  8-C , 28-H ) :  -0.1161
B(  9-C , 28-H ) :   1.1089 B(  9-C , 29-H ) :   1.0307 B(  9-C , 30-H ) :   1.0812
B( 10-C , 31-O ) :  -0.6632 B( 10-C , 36-C ) :  -0.1778 B( 11-C , 12-C ) :   0.7872
B( 11-C , 13-N ) :   0.1098 B( 11-C , 36-C ) :   0.1525 B( 11-C , 39-H ) :   1.1963
B( 12-C , 13-N ) :   0.1340 B( 12-C , 32-H ) :   1.1690 B( 12-C , 33-H ) :   1.0552
B( 13-N , 14-O ) :   0.7096 B( 13-N , 15-C ) :   0.1729 B( 13-N , 16-C ) :   0.8258
B( 13-N , 39-H ) :  -0.1281 B( 14-O , 15-C ) :   0.1272 B( 14-O , 36-C ) :   0.3135
B( 15-C , 16-C ) :   1.1004 B( 15-C , 36-C ) :   0.6746 B( 15-C , 37-H ) :   1.1390
B( 15-C , 38-H ) :   0.9117 B( 16-C , 34-H ) :   1.0217 B( 16-C , 35-H ) :   0.8839
B( 16-C , 36-C ) :  -0.2226 B( 22-O , 38-H ) :  -0.1330 B( 31-O , 36-C ) :   0.3603
B( 31-O , 39-H ) :   0.1231 B( 31-O , 40-H ) :   0.1040 B( 36-C , 40-H ) :   1.2205

MP2 TOTAL ENERGY:     -901.260318255 Eh
FINAL SINGLE POINT ENERGY      -901.260318254993

DIPOLE MOMENT
-------------
                                X             Y             Z
Electronic contribution:    -12.28142       4.15539      -1.66973
Nuclear contribution   :     14.18696      -4.54420       1.99154
                        -----------------------------------------
Total Dipole Moment    :      1.90555      -0.38881       0.32181
                        -----------------------------------------
Magnitude (a.u.)       :      1.97125
Magnitude (Debye)      :      5.01053

Rotational constants in cm-1:     0.019635     0.011773     0.010144
Rotational constants in MHz :   588.656563   352.932882   304.102310

                             ****ORCA TERMINATED NORMALLY****
TOTAL RUN TIME: 0 days 10 hours 59 minutes 47 seconds 876 msec
