                         Program Version 4.2.1 -  RELEASE  -
|  1> %pal
|  2>  nprocs 32
|  3> end
|  4> !RI-MP2 aug-cc-pVQZ aug-cc-pVQZ/C TightSCF
|  5> %maxcore 4500
|  6> *xyzfile 0 2  04_70R2.xyz
|  7>
|  8>
|  9>                          ****END OF INPUT****

CARTESIAN COORDINATES (ANGSTROEM)
---------------------------------
  O      0.000023    0.260290    1.425043
  C     -0.000002   -0.025129    0.076580
  C      0.000092    1.379768   -0.575035
  C     -1.268738   -0.787820   -0.312830
  C      1.268629   -0.787991   -0.312836
  H     -2.154029   -0.219862   -0.024463
  H     -1.298044   -1.752687    0.196900
  H     -1.298557   -0.969262   -1.389519
  H      2.153997   -0.220152   -0.024472
  H      1.298418   -0.969435   -1.389525
  H      1.297807   -1.752862    0.196893
  H     -0.888138    1.938447   -0.281175
  H      0.000078    1.252195   -1.659077
  H      0.888401    1.938324   -0.281181

 Total Charge           Charge          ....    0
 Multiplicity           Mult            ....    2
 Number of Electrons    NEL             ....   41
 Basis Dimension        Dim             ....  814

ORBITAL ENERGIES
----------------
                 SPIN UP ORBITALS
  NO   OCC          E(Eh)            E(eV)
   0   1.0000     -20.605961      -560.7167
   1   1.0000     -11.286989      -307.1346
   2   1.0000     -11.226703      -305.4941
   3   1.0000     -11.217483      -305.2432
   4   1.0000     -11.217467      -305.2428
   5   1.0000      -1.404055       -38.2063
   6   1.0000      -1.063526       -28.9400
   7   1.0000      -0.950849       -25.8739
   8   1.0000      -0.945976       -25.7413
   9   1.0000      -0.762447       -20.7472
  10   1.0000      -0.684744       -18.6328
  11   1.0000      -0.641805       -17.4644
  12   1.0000      -0.641610       -17.4591
  13   1.0000      -0.585517       -15.9327
  14   1.0000      -0.568233       -15.4624
  15   1.0000      -0.538518       -14.6538
  16   1.0000      -0.537632       -14.6297
  17   1.0000      -0.524888       -14.2829
  18   1.0000      -0.521871       -14.2008
  19   1.0000      -0.460067       -12.5191
  20   1.0000      -0.447772       -12.1845
  21   0.0000       0.025988         0.7072
  22   0.0000       0.033351         0.9075
  23   0.0000       0.033353         0.9076
  24   0.0000       0.040387         1.0990
  25   0.0000       0.053926         1.4674

                 SPIN DOWN ORBITALS
  NO   OCC          E(Eh)            E(eV)
   0   1.0000     -20.566346      -559.6387
   1   1.0000     -11.289606      -307.2058
   2   1.0000     -11.223878      -305.4173
   3   1.0000     -11.216893      -305.2272
   4   1.0000     -11.216876      -305.2267
   5   1.0000      -1.281149       -34.8618
   6   1.0000      -1.036043       -28.1922
   7   1.0000      -0.944661       -25.7055
   8   1.0000      -0.941193       -25.6112
   9   1.0000      -0.743697       -20.2370
  10   1.0000      -0.631867       -17.1940
  11   1.0000      -0.629141       -17.1198
  12   1.0000      -0.607223       -16.5234
  13   1.0000      -0.561470       -15.2784
  14   1.0000      -0.551974       -15.0200
  15   1.0000      -0.524332       -14.2678
  16   1.0000      -0.520225       -14.1560
  17   1.0000      -0.512050       -13.9336
  18   1.0000      -0.479867       -13.0578
  19   1.0000      -0.425411       -11.5760
  20   0.0000       0.026050         0.7089
  21   0.0000       0.032413         0.8820
  22   0.0000       0.033385         0.9085
  23   0.0000       0.040465         1.1011
  24   0.0000       0.053945         1.4679

MULLIKEN ATOMIC CHARGES AND SPIN POPULATIONS
--------------------------------------------
   0 O :   -0.744408    1.087248
   1 C :    1.383838   -0.231098
   2 C :   -1.026354    0.109523
   3 C :   -0.994376    0.020437
   4 C :   -0.994410    0.020431
   5 H :    0.264543   -0.002628
   6 H :    0.277343    0.000329
   7 H :    0.229803   -0.003361
   8 H :    0.264548   -0.002628
   9 H :    0.229805   -0.003358
  10 H :    0.277368    0.000332
  11 H :    0.286477   -0.001630
  12 H :    0.259300    0.008036
  13 H :    0.286522   -0.001630
Sum of atomic charges         :   -0.0000000

LOEWDIN ATOMIC CHARGES AND SPIN POPULATIONS
-------------------------------------------
   0 O :    0.808352    0.775349
   1 C :   -0.844187    0.146339
   2 C :    0.857215    0.036978
   3 C :    0.868964    0.004466
   4 C :    0.868963    0.004466
   5 H :   -0.290928   -0.000940
   6 H :   -0.283835    0.002642
   7 H :   -0.280284    0.000758
   8 H :   -0.290928   -0.000940
   9 H :   -0.280284    0.000758
  10 H :   -0.283835    0.002642
  11 H :   -0.283841    0.007985
  12 H :   -0.281530    0.011512
  13 H :   -0.283841    0.007985

  Mayer bond orders larger than 0.100000
B(  0-O ,  2-C ) :   0.1968 B(  0-O ,  3-C ) :   0.1367 B(  0-O ,  4-C ) :   0.1367
B(  1-C ,  2-C ) :   0.7023 B(  1-C ,  3-C ) :   0.7082 B(  1-C ,  4-C ) :   0.7081
B(  2-C , 11-H ) :   0.9450 B(  2-C , 12-H ) :   0.9465 B(  2-C , 13-H ) :   0.9450
B(  3-C ,  5-H ) :   0.9613 B(  3-C ,  6-H ) :   0.9598 B(  3-C ,  7-H ) :   0.9925
B(  4-C ,  8-H ) :   0.9613 B(  4-C ,  9-H ) :   0.9925 B(  4-C , 10-H ) :   0.9598

MP2 TOTAL ENERGY:     -232.599218448 Eh
FINAL SINGLE POINT ENERGY      -232.599218447909

DIPOLE MOMENT
-------------
                                X             Y             Z
Electronic contribution:      0.00006       0.68524       4.13076
Nuclear contribution   :     -0.00007      -0.79111      -4.87940
                        -----------------------------------------
Total Dipole Moment    :     -0.00001      -0.10587      -0.74865
                        -----------------------------------------
Magnitude (a.u.)       :      0.75609
Magnitude (Debye)      :      1.92184

Rotational constants in cm-1:     0.165755     0.165608     0.149555
Rotational constants in MHz :  4969.210637  4964.791671  4483.551632

                             ****ORCA TERMINATED NORMALLY****
TOTAL RUN TIME: 0 days 0 hours 19 minutes 7 seconds 766 msec
