                         Program Version 4.2.1 -  RELEASE  -
|  1> %pal
|  2>  nprocs 32
|  3> end
|  4> !RI-MP2 aug-cc-pVQZ aug-cc-pVQZ/C TightSCF
|  5> %maxcore 4500
|  6> *xyzfile -1 1  02_14TS.xyz
|  7>
|  8>
|  9>                          ****END OF INPUT****

CARTESIAN COORDINATES (ANGSTROEM)
---------------------------------
  C     -4.202839    2.610629   -0.284739
  C     -2.901570    2.141568    0.367188
  H     -2.155174    2.936941    0.266322
  H     -3.047552    2.007262    1.446317
  H     -4.465995    3.601422    0.101080
  H     -4.024434    2.735188   -1.359493
  C     -2.343461    0.876526   -0.248158
  H     -2.500540    0.761781   -1.316359
  C     -1.162654    0.315802    0.217678
  H     -0.664071    0.720061    1.089289
  C     -3.989847   -0.414337    0.166714
  C     -3.514488   -1.669319   -0.162573
  H     -3.843688   -2.130432   -1.089107
  C     -2.417079   -2.230244    0.493665
  H     -1.960427   -3.113346    0.058211
  C     -1.727279   -1.564278    1.479735
  H     -2.241517   -0.806612    2.057975
  C     -0.492737   -2.119453    2.122238
  H      0.032165   -2.795549    1.445962
  H      0.194608   -1.321221    2.404640
  H     -0.754503   -2.674639    3.031748
  C     -0.329958   -0.443758   -0.757039
  C      1.068706   -0.638885   -0.433443
  O     -0.860200   -0.852378   -1.790694
  C      1.984454   -1.462339   -1.213297
  C      1.783667   -0.061568    0.641923
  O      1.438598    0.674684    1.579385
  O      1.785219   -2.259600   -2.114748
  C      3.252347   -0.502874    0.526782
  H      3.452692   -1.165613    1.380980
  C      4.225132    0.679355    0.598736
  C      3.969139    1.681029   -0.530080
  H      2.906438    1.934018   -0.528932
  H      4.166355    1.191016   -1.487912
  C      4.782347    2.967236   -0.417244
  H      5.856214    2.787603   -0.514753
  H      4.499172    3.676925   -1.199006
  H      4.612524    3.453675    0.548246
  N      3.282928   -1.233111   -0.722246
  H      3.918410   -2.005954   -0.847208
  C      5.669341    0.181294    0.618639
  H      5.819540   -0.545458    1.422589
  H      5.920802   -0.306636   -0.328486
  H      6.382179    0.994385    0.773317
  H      4.004715    1.176661    1.549974
  C     -5.133737    0.240691   -0.565620
  H     -6.048596   -0.348830   -0.427929
  H     -4.926024    0.241150   -1.641418
  H     -3.905620   -0.116474    1.207075
  C     -5.388018    1.668029   -0.082809
  H     -6.266352    2.076835   -0.593574
  H     -5.639559    1.635344    0.984858

 Total Charge           Charge          ....   -1
 Multiplicity           Mult            ....    1
 Number of Electrons    NEL             ....  180
 Basis Dimension        Dim             .... 3208

ORBITAL ENERGIES
----------------

  NO   OCC          E(Eh)            E(eV)
   0   2.0000     -20.366803      -554.2089
   1   2.0000     -20.358339      -553.9786
   2   2.0000     -20.356696      -553.9339
   3   2.0000     -15.428620      -419.8341
   4   2.0000     -11.191252      -304.5294
   5   2.0000     -11.170926      -303.9764
   6   2.0000     -11.166672      -303.8606
   7   2.0000     -11.137073      -303.0552
   8   2.0000     -11.134671      -302.9898
   9   2.0000     -11.130870      -302.8864
  10   2.0000     -11.130726      -302.8824
  11   2.0000     -11.129776      -302.8566
  12   2.0000     -11.128298      -302.8164
  13   2.0000     -11.125231      -302.7329
  14   2.0000     -11.118042      -302.5373
  15   2.0000     -11.117736      -302.5290
  16   2.0000     -11.117237      -302.5154
  17   2.0000     -11.115523      -302.4688
  18   2.0000     -11.107986      -302.2637
  19   2.0000     -11.106118      -302.2128
  20   2.0000     -11.102166      -302.1053
  21   2.0000     -11.099931      -302.0445
  22   2.0000     -11.090887      -301.7984
  23   2.0000     -11.049938      -300.6841
  24   2.0000      -1.226201       -33.3666
  25   2.0000      -1.208569       -32.8868
  26   2.0000      -1.201393       -32.6916
  27   2.0000      -1.100826       -29.9550
  28   2.0000      -1.023005       -27.8374
  29   2.0000      -0.982505       -26.7353
  30   2.0000      -0.979687       -26.6586
  31   2.0000      -0.946758       -25.7626
  32   2.0000      -0.913919       -24.8690
  33   2.0000      -0.901201       -24.5229
  34   2.0000      -0.890324       -24.2269
  35   2.0000      -0.869188       -23.6518
  36   2.0000      -0.828146       -22.5350
  37   2.0000      -0.818644       -22.2764
  38   2.0000      -0.764393       -20.8002
  39   2.0000      -0.758015       -20.6266
  40   2.0000      -0.723455       -19.6862
  41   2.0000      -0.704019       -19.1573
  42   2.0000      -0.682501       -18.5718
  43   2.0000      -0.668778       -18.1984
  44   2.0000      -0.637873       -17.3574
  45   2.0000      -0.613739       -16.7007
  46   2.0000      -0.608217       -16.5504
  47   2.0000      -0.571540       -15.5524
  48   2.0000      -0.552906       -15.0453
  49   2.0000      -0.542233       -14.7549
  50   2.0000      -0.537290       -14.6204
  51   2.0000      -0.524216       -14.2646
  52   2.0000      -0.520924       -14.1751
  53   2.0000      -0.519882       -14.1467
  54   2.0000      -0.512226       -13.9384
  55   2.0000      -0.506886       -13.7931
  56   2.0000      -0.487353       -13.2616
  57   2.0000      -0.479492       -13.0476
  58   2.0000      -0.472454       -12.8561
  59   2.0000      -0.464893       -12.6504
  60   2.0000      -0.462315       -12.5802
  61   2.0000      -0.459463       -12.5026
  62   2.0000      -0.453496       -12.3403
  63   2.0000      -0.443445       -12.0668
  64   2.0000      -0.442302       -12.0356
  65   2.0000      -0.434764       -11.8305
  66   2.0000      -0.420801       -11.4506
  67   2.0000      -0.416898       -11.3444
  68   2.0000      -0.414471       -11.2783
  69   2.0000      -0.411080       -11.1861
  70   2.0000      -0.405011       -11.0209
  71   2.0000      -0.401032       -10.9126
  72   2.0000      -0.390617       -10.6292
  73   2.0000      -0.389260       -10.5923
  74   2.0000      -0.379564       -10.3285
  75   2.0000      -0.376876       -10.2553
  76   2.0000      -0.372237       -10.1291
  77   2.0000      -0.364706        -9.9242
  78   2.0000      -0.360491        -9.8095
  79   2.0000      -0.357473        -9.7273
  80   2.0000      -0.355058        -9.6616
  81   2.0000      -0.348005        -9.4697
  82   2.0000      -0.314661        -8.5624
  83   2.0000      -0.291331        -7.9275
  84   2.0000      -0.260953        -7.1009
  85   2.0000      -0.246933        -6.7194
  86   2.0000      -0.239858        -6.5269
  87   2.0000      -0.193804        -5.2737
  88   2.0000      -0.181109        -4.9282
  89   2.0000      -0.160001        -4.3538
  90   0.0000       0.078546         2.1373
  91   0.0000       0.083582         2.2744
  92   0.0000       0.088907         2.4193
  93   0.0000       0.091010         2.4765
  94   0.0000       0.092883         2.5275

MULLIKEN ATOMIC CHARGES
-----------------------
   0 C :   -0.546174
   1 C :   -0.539541
   2 H :    0.258585
   3 H :    0.148860
   4 H :    0.157727
   5 H :    0.159026
   6 C :    0.490310
   7 H :    0.120809
   8 C :   -0.416053
   9 H :    0.019275
  10 C :    0.877406
  11 C :   -0.636116
  12 H :    0.048314
  13 C :   -0.454773
  14 H :    0.000806
  15 C :    0.027807
  16 H :    0.261362
  17 C :   -1.008305
  18 H :    0.197222
  19 H :    0.306763
  20 H :    0.291095
  21 C :    2.375559
  22 C :   -1.424644
  23 O :   -1.332603
  24 C :    1.514408
  25 C :    1.088167
  26 O :   -1.370587
  27 O :   -1.155164
  28 C :    0.351081
  29 H :    0.385119
  30 C :    0.514159
  31 C :   -0.593064
  32 H :    0.310725
  33 H :    0.204646
  34 C :   -0.940958
  35 H :    0.217537
  36 H :    0.262186
  37 H :    0.180356
  38 N :   -0.918580
  39 H :    0.044889
  40 C :   -1.139618
  41 H :    0.232153
  42 H :    0.183313
  43 H :    0.253471
  44 H :    0.150240
  45 C :   -0.517727
  46 H :    0.188549
  47 H :    0.116040
  48 H :    0.312093
  49 C :   -0.549770
  50 H :    0.182720
  51 H :    0.110900
Sum of atomic charges:   -1.0000000

LOEWDIN ATOMIC CHARGES
----------------------
   0 C :    0.532366
   1 C :    0.524616
   2 H :   -0.261586
   3 H :   -0.267451
   4 H :   -0.265844
   5 H :   -0.267045
   6 C :    0.263067
   7 H :   -0.351131
   8 C :    0.249573
   9 H :   -0.430342
  10 C :    0.250011
  11 C :    0.366710
  12 H :   -0.301289
  13 C :    0.337288
  14 H :   -0.315467
  15 C :    0.296571
  16 H :   -0.338714
  17 C :    0.914019
  18 H :   -0.295635
  19 H :   -0.346765
  20 H :   -0.273284
  21 C :   -0.751986
  22 C :   -0.173182
  23 O :    0.732431
  24 C :   -0.923670
  25 C :   -0.773406
  26 O :    0.750414
  27 O :    0.653353
  28 C :   -0.110216
  29 H :   -0.272790
  30 C :    0.098337
  31 C :    0.507504
  32 H :   -0.287775
  33 H :   -0.268974
  34 C :    0.930954
  35 H :   -0.300710
  36 H :   -0.281205
  37 H :   -0.276603
  38 N :    0.821072
  39 H :   -0.495155
  40 C :    0.921320
  41 H :   -0.274870
  42 H :   -0.275828
  43 H :   -0.292938
  44 H :   -0.292084
  45 C :    0.517318
  46 H :   -0.264371
  47 H :   -0.269831
  48 H :   -0.358408
  49 C :    0.525673
  50 H :   -0.265712
  51 H :   -0.268332

  Mayer bond orders larger than 0.100000
B(  0-C ,  1-C ) :   0.8717 B(  0-C ,  4-H ) :   1.1161 B(  0-C ,  5-H ) :   1.0714
B(  0-C ,  6-C ) :  -0.2340 B(  0-C , 49-C ) :   0.7950 B(  0-C , 50-H ) :  -0.1020
B(  1-C ,  2-H ) :   0.9863 B(  1-C ,  3-H ) :   1.1355 B(  1-C ,  4-H ) :  -0.1531
B(  1-C ,  6-C ) :   0.6150 B(  1-C ,  8-C ) :  -0.1736 B(  2-H ,  6-C ) :  -0.1064
B(  6-C ,  7-H ) :   0.9231 B(  6-C ,  8-C ) :   1.0129 B(  6-C , 10-C ) :   0.3592
B(  6-C , 15-C ) :   0.2277 B(  6-C , 21-C ) :  -0.1629 B(  6-C , 22-C ) :  -0.1191
B(  6-C , 23-O ) :  -0.1978 B(  7-H ,  8-C ) :   0.1025 B(  8-C ,  9-H ) :   1.1146
B(  8-C , 17-C ) :  -0.1075 B(  8-C , 21-C ) :   1.0141 B(  8-C , 22-C ) :  -0.2175
B(  8-C , 23-O ) :   0.7409 B(  8-C , 25-C ) :   0.1638 B(  8-C , 26-O ) :  -0.1364
B(  9-H , 22-C ) :   0.1784 B(  9-H , 26-O ) :   0.2300 B( 10-C , 11-C ) :   0.6291
B( 10-C , 12-H ) :  -0.1391 B( 10-C , 13-C ) :  -0.4860 B( 10-C , 15-C ) :   0.1476
B( 10-C , 45-C ) :   0.2808 B( 10-C , 46-H ) :  -0.2273 B( 10-C , 47-H ) :  -0.1506
B( 10-C , 48-H ) :   1.0952 B( 10-C , 49-C ) :  -0.1673 B( 11-C , 12-H ) :   1.3488
B( 11-C , 13-C ) :   1.1632 B( 11-C , 14-H ) :  -0.2565 B( 11-C , 15-C ) :  -0.2033
B( 11-C , 45-C ) :  -0.1848 B( 12-H , 13-C ) :  -0.1952 B( 13-C , 14-H ) :   1.3166
B( 13-C , 15-C ) :   1.2605 B( 15-C , 16-H ) :   0.9604 B( 15-C , 17-C ) :   0.4192
B( 15-C , 18-H ) :  -0.1855 B( 15-C , 19-H ) :  -0.1303 B( 15-C , 48-H ) :  -0.1183
B( 17-C , 18-H ) :   1.0892 B( 17-C , 19-H ) :   1.0114 B( 17-C , 20-H ) :   1.0392
B( 17-C , 22-C ) :  -0.1025 B( 19-H , 26-O ) :  -0.1019 B( 21-C , 23-O ) :  -0.8224
B( 21-C , 24-C ) :  -0.3640 B( 21-C , 25-C ) :  -0.2610 B( 21-C , 26-O ) :  -0.2044
B( 22-C , 23-O ) :   0.7020 B( 22-C , 24-C ) :   1.5363 B( 22-C , 25-C ) :   1.0419
B( 22-C , 26-O ) :   0.6023 B( 22-C , 27-O ) :   1.0942 B( 22-C , 28-C ) :  -0.4117
B( 22-C , 38-N ) :  -0.4385 B( 24-C , 25-C ) :   0.1324 B( 24-C , 27-O ) :  -0.4193
B( 24-C , 28-C ) :  -0.2809 B( 24-C , 38-N ) :   1.6595 B( 24-C , 39-H ) :  -0.1185
B( 25-C , 26-O ) :  -0.2998 B( 25-C , 28-C ) :   1.2415 B( 25-C , 29-H ) :   0.1504
B( 25-C , 30-C ) :  -0.1141 B( 25-C , 38-N ) :   0.1009 B( 26-O , 28-C ) :   0.1623
B( 26-O , 31-C ) :   0.1051 B( 27-O , 38-N ) :   0.2745 B( 27-O , 39-H ) :   0.1287
B( 28-C , 29-H ) :   0.6532 B( 28-C , 30-C ) :   0.8471 B( 28-C , 38-N ) :   0.3813
B( 30-C , 31-C ) :   0.5529 B( 30-C , 34-C ) :  -0.1277 B( 30-C , 40-C ) :   0.4029
B( 30-C , 41-H ) :  -0.1016 B( 30-C , 42-H ) :  -0.1387 B( 30-C , 43-H ) :  -0.1968
B( 30-C , 44-H ) :   1.0654 B( 31-C , 32-H ) :   0.8073 B( 31-C , 33-H ) :   1.0367
B( 31-C , 34-C ) :   0.6768 B( 31-C , 36-H ) :  -0.1604 B( 34-C , 35-H ) :   1.0504
B( 34-C , 36-H ) :   1.0411 B( 34-C , 37-H ) :   1.0596 B( 38-N , 39-H ) :   1.2052
B( 40-C , 41-H ) :   1.0671 B( 40-C , 42-H ) :   1.0726 B( 40-C , 43-H ) :   1.1138
B( 45-C , 46-H ) :   1.1230 B( 45-C , 47-H ) :   1.1485 B( 45-C , 49-C ) :   0.9198
B( 49-C , 50-H ) :   1.0677 B( 49-C , 51-H ) :   1.0772

MP2 TOTAL ENERGY:    -1057.679411561 Eh
FINAL SINGLE POINT ENERGY     -1057.679411561228

DIPOLE MOMENT
-------------
                                X             Y             Z
Electronic contribution:     -0.20834     -13.38387      -6.85190
Nuclear contribution   :     -0.63248      14.80608       8.53897
                        -----------------------------------------
Total Dipole Moment    :     -0.84082       1.42220       1.68707
                        -----------------------------------------
Magnitude (a.u.)       :      2.36132
Magnitude (Debye)      :      6.00201

Rotational constants in cm-1:     0.014758     0.004331     0.003903
Rotational constants in MHz :   442.427078   129.825372   117.010851

                             ****ORCA TERMINATED NORMALLY****
TOTAL RUN TIME: 0 days 15 hours 42 minutes 2 seconds 937 msec
