                         Program Version 4.2.1 -  RELEASE  -
|  1> %pal
|  2>  nprocs 32
|  3> end
|  4> !RI-MP2 aug-cc-pVQZ aug-cc-pVQZ/C TightSCF
|  5> %maxcore 4500
|  6> *xyzfile 0 1  02_44R2.xyz
|  7>
|  8>
|  9>                          ****END OF INPUT****

CARTESIAN COORDINATES (ANGSTROEM)
---------------------------------
  C     -0.995802   -0.640239    0.090876
  C      1.192541   -0.121514    0.011752
  C      0.615914    1.070883    0.053622
  C     -0.877300    0.884390   -0.077330
  H     -1.322294   -0.907241    1.099331
  H     -1.236055    1.223644   -1.054652
  H     -1.449657    1.417588    0.683890
  H     -1.647859   -1.121694   -0.635528
  O      0.334476   -1.175157   -0.087628
  H      2.238616   -0.389801    0.027465
  H      1.129317    2.017636    0.107001

 Total Charge           Charge          ....    0
 Multiplicity           Mult            ....    1
 Number of Electrons    NEL             ....   38
 Basis Dimension        Dim             ....  676

ORBITAL ENERGIES
----------------

  NO   OCC          E(Eh)            E(eV)
   0   2.0000     -20.570021      -559.7387
   1   2.0000     -11.281838      -306.9944
   2   2.0000     -11.280674      -306.9628
   3   2.0000     -11.232880      -305.6622
   4   2.0000     -11.214106      -305.1513
   5   2.0000      -1.403597       -38.1938
   6   2.0000      -1.066032       -29.0082
   7   2.0000      -0.998753       -27.1775
   8   2.0000      -0.828925       -22.5562
   9   2.0000      -0.769029       -20.9263
  10   2.0000      -0.705750       -19.2044
  11   2.0000      -0.669136       -18.2081
  12   2.0000      -0.592789       -16.1306
  13   2.0000      -0.554949       -15.1009
  14   2.0000      -0.541624       -14.7383
  15   2.0000      -0.524067       -14.2606
  16   2.0000      -0.497384       -13.5345
  17   2.0000      -0.491549       -13.3757
  18   2.0000      -0.326616        -8.8877
  19   0.0000       0.026594         0.7237
  20   0.0000       0.033346         0.9074
  21   0.0000       0.035483         0.9655
  22   0.0000       0.037929         1.0321
  23   0.0000       0.048967         1.3325

MULLIKEN ATOMIC CHARGES
-----------------------
   0 C :   -0.140305
   1 C :   -0.178714
   2 C :   -0.593690
   3 C :   -0.486222
   4 H :    0.266308
   5 H :    0.300234
   6 H :    0.265332
   7 H :    0.331053
   8 O :   -0.757441
   9 H :    0.590293
  10 H :    0.403153
Sum of atomic charges:    0.0000000

LOEWDIN ATOMIC CHARGES
----------------------
   0 C :    0.180879
   1 C :   -0.017563
   2 C :    0.350357
   3 C :    0.460785
   4 H :   -0.295438
   5 H :   -0.280603
   6 H :   -0.284503
   7 H :   -0.294815
   8 O :    0.848101
   9 H :   -0.339463
  10 H :   -0.327737

  Mayer bond orders larger than 0.100000
B(  0-C ,  3-C ) :   1.1346 B(  0-C ,  4-H ) :   0.9020 B(  0-C ,  7-H ) :   0.8619
B(  0-C ,  8-O ) :   0.7003 B(  1-C ,  2-C ) :   1.6940 B(  1-C ,  3-C ) :  -0.1517
B(  1-C ,  8-O ) :   0.8977 B(  1-C ,  9-H ) :   0.6988 B(  2-C ,  3-C ) :   0.8876
B(  2-C ,  8-O ) :   0.1362 B(  2-C , 10-H ) :   0.8470 B(  3-C ,  5-H ) :   0.8463
B(  3-C ,  6-H ) :   0.9394

MP2 TOTAL ENERGY:     -230.845128552 Eh
FINAL SINGLE POINT ENERGY      -230.845128551554

DIPOLE MOMENT
-------------
                                X             Y             Z
Electronic contribution:      2.03449      -1.82967      -0.18010
Nuclear contribution   :     -2.32421       2.26204       0.23024
                        -----------------------------------------
Total Dipole Moment    :     -0.28971       0.43238       0.05014
                        -----------------------------------------
Magnitude (a.u.)       :      0.52288
Magnitude (Debye)      :      1.32904

Rotational constants in cm-1:     0.271223     0.262785     0.141435
Rotational constants in MHz :  8131.057038  7878.108454  4240.101883

                             ****ORCA TERMINATED NORMALLY****
TOTAL RUN TIME: 0 days 0 hours 6 minutes 42 seconds 98 msec
