                         Program Version 4.2.1 -  RELEASE  -
|  1> %pal
|  2>  nprocs 32
|  3> end
|  4> !RI-MP2 aug-cc-pVQZ aug-cc-pVQZ/C TightSCF
|  5> %maxcore 4500
|  6> *xyzfile 0 1  02_6TS.xyz
|  7>
|  8>
|  9>                          ****END OF INPUT****

CARTESIAN COORDINATES (ANGSTROEM)
---------------------------------
  C     -1.561348   -1.556871    0.434775
  C     -2.976787   -0.967441    0.332992
  C     -2.752733    0.550016    0.256657
  C     -1.421427    0.663156   -0.456693
  C     -0.711911   -0.546268   -0.312137
  H     -1.234079   -1.611341    1.478660
  H     -1.475913   -2.561741    0.017377
  H     -3.618759   -1.264691    1.162804
  H     -3.447790   -1.311498   -0.591421
  H     -3.560052    1.073602   -0.256793
  H     -2.669056    0.979453    1.261917
  C      0.640301   -0.622037   -0.435668
  C     -0.826253    1.799378   -0.913857
  H      0.008091    1.753261   -1.594746
  H     -1.311854    2.762669   -0.819161
  C      1.734578   -1.205680   -0.876389
  H      1.724634   -1.910912   -1.701905
  C      3.036579   -0.802299   -0.239871
  H      3.672043   -0.293693   -0.972121
  H      3.596079   -1.672370    0.112623
  C      2.681616    0.130949    0.918558
  H      2.444684   -0.450954    1.811814
  H      3.480000    0.829796    1.165491
  C      1.451314    0.886011    0.525954
  N      0.946914    1.957848    0.502792

 Total Charge           Charge          ....    0
 Multiplicity           Mult            ....    1
 Number of Electrons    NEL             ....   86
 Basis Dimension        Dim             .... 1558

ORBITAL ENERGIES
----------------

  NO   OCC          E(Eh)            E(eV)
   0   2.0000     -15.537214      -422.7891
   1   2.0000     -11.258362      -306.3556
   2   2.0000     -11.252631      -306.1997
   3   2.0000     -11.248187      -306.0787
   4   2.0000     -11.246799      -306.0409
   5   2.0000     -11.241665      -305.9013
   6   2.0000     -11.239738      -305.8488
   7   2.0000     -11.239155      -305.8330
   8   2.0000     -11.230736      -305.6039
   9   2.0000     -11.222699      -305.3852
  10   2.0000     -11.221054      -305.3404
  11   2.0000     -11.217577      -305.2458
  12   2.0000      -1.199064       -32.6282
  13   2.0000      -1.152274       -31.3550
  14   2.0000      -1.109934       -30.2029
  15   2.0000      -1.030270       -28.0351
  16   2.0000      -1.013654       -27.5829
  17   2.0000      -0.960027       -26.1237
  18   2.0000      -0.907051       -24.6821
  19   2.0000      -0.871556       -23.7163
  20   2.0000      -0.804647       -21.8956
  21   2.0000      -0.766712       -20.8633
  22   2.0000      -0.706098       -19.2139
  23   2.0000      -0.668663       -18.1952
  24   2.0000      -0.656933       -17.8760
  25   2.0000      -0.648445       -17.6451
  26   2.0000      -0.639142       -17.3919
  27   2.0000      -0.613088       -16.6830
  28   2.0000      -0.572425       -15.5765
  29   2.0000      -0.559894       -15.2355
  30   2.0000      -0.545867       -14.8538
  31   2.0000      -0.528455       -14.3800
  32   2.0000      -0.528275       -14.3751
  33   2.0000      -0.523255       -14.2385
  34   2.0000      -0.517533       -14.0828
  35   2.0000      -0.503538       -13.7020
  36   2.0000      -0.491459       -13.3733
  37   2.0000      -0.478541       -13.0218
  38   2.0000      -0.469228       -12.7684
  39   2.0000      -0.433160       -11.7869
  40   2.0000      -0.372717       -10.1421
  41   2.0000      -0.323032        -8.7902
  42   2.0000      -0.295835        -8.0501
  43   0.0000       0.022168         0.6032
  44   0.0000       0.027360         0.7445
  45   0.0000       0.029717         0.8086
  46   0.0000       0.032085         0.8731
  47   0.0000       0.040392         1.0991

MULLIKEN ATOMIC CHARGES
-----------------------
   0 C :   -0.622936
   1 C :   -0.597603
   2 C :   -0.498144
   3 C :    0.064546
   4 C :    0.496521
   5 H :    0.182860
   6 H :    0.294492
   7 H :    0.310236
   8 H :    0.199033
   9 H :    0.303580
  10 H :    0.168282
  11 C :    0.414579
  12 C :   -0.814915
  13 H :    0.255417
  14 H :    0.330333
  15 C :   -0.518984
  16 H :    0.374393
  17 C :   -0.552104
  18 H :    0.236669
  19 H :    0.306136
  20 C :   -0.478534
  21 H :    0.182163
  22 H :    0.373161
  23 C :    0.490100
  24 N :   -0.899282
Sum of atomic charges:   -0.0000000

LOEWDIN ATOMIC CHARGES
----------------------
   0 C :    0.527930
   1 C :    0.526771
   2 C :    0.513949
   3 C :   -0.101475
   4 C :   -0.096687
   5 H :   -0.255272
   6 H :   -0.257990
   7 H :   -0.254375
   8 H :   -0.264215
   9 H :   -0.264828
  10 H :   -0.256805
  11 C :    0.053596
  12 C :    0.673684
  13 H :   -0.364043
  14 H :   -0.288892
  15 C :    0.373007
  16 H :   -0.304642
  17 C :    0.478255
  18 H :   -0.269964
  19 H :   -0.270852
  20 C :    0.454027
  21 H :   -0.279576
  22 H :   -0.278267
  23 C :   -0.359947
  24 N :    0.566611

  Mayer bond orders larger than 0.100000
B(  0-C ,  1-C ) :   1.1044 B(  0-C ,  4-C ) :   0.6649 B(  0-C ,  5-H ) :   0.9288
B(  0-C ,  6-H ) :   0.9419 B(  1-C ,  2-C ) :   1.0980 B(  1-C ,  3-C ) :  -0.1075
B(  1-C ,  7-H ) :   0.9081 B(  1-C ,  8-H ) :   0.9693 B(  2-C ,  3-C ) :   0.5936
B(  2-C ,  4-C ) :  -0.2251 B(  2-C ,  9-H ) :   1.0075 B(  2-C , 10-H ) :   0.9645
B(  2-C , 12-C ) :  -0.1018 B(  3-C ,  4-C ) :   1.1406 B(  3-C ,  9-H ) :  -0.1502
B(  3-C , 11-C ) :  -0.4234 B(  3-C , 12-C ) :   1.2038 B(  3-C , 13-H ) :  -0.1645
B(  3-C , 14-H ) :  -0.1316 B(  4-C , 11-C ) :   0.8071 B(  4-C , 15-C ) :  -0.3314
B(  4-C , 23-C ) :  -0.1077 B(  4-C , 24-N ) :   0.1135 B( 11-C , 15-C ) :   1.6436
B( 11-C , 17-C ) :  -0.2507 B( 11-C , 23-C ) :   0.5233 B( 12-C , 13-H ) :   1.0670
B( 12-C , 14-H ) :   1.0253 B( 12-C , 24-N ) :   0.3045 B( 15-C , 16-H ) :   0.8637
B( 15-C , 17-C ) :   1.0407 B( 17-C , 18-H ) :   0.9358 B( 17-C , 19-H ) :   0.9220
B( 17-C , 20-C ) :   1.0877 B( 20-C , 21-H ) :   0.9796 B( 20-C , 22-H ) :   0.8636
B( 20-C , 23-C ) :   0.8334 B( 23-C , 24-N ) :   1.9688

MP2 TOTAL ENERGY:     -480.762002096 Eh
FINAL SINGLE POINT ENERGY      -480.762002096473

DIPOLE MOMENT
-------------
                                X             Y             Z
Electronic contribution:      2.54568       2.65488      -1.18062
Nuclear contribution   :     -2.42062      -3.71949       1.09293
                        -----------------------------------------
Total Dipole Moment    :      0.12506      -1.06461      -0.08768
                        -----------------------------------------
Magnitude (a.u.)       :      1.07551
Magnitude (Debye)      :      2.73372

Rotational constants in cm-1:     0.059685     0.023933     0.019655
Rotational constants in MHz :  1789.324610   717.485731   589.249817

                             ****ORCA TERMINATED NORMALLY****
TOTAL RUN TIME: 0 days 1 hours 57 minutes 37 seconds 972 msec
