                         Program Version 4.2.1 -  RELEASE  -
|  1> %pal
|  2>  nprocs 32
|  3> end
|  4> !RI-MP2 aug-cc-pVQZ aug-cc-pVQZ/C TightSCF
|  5> %maxcore 4500
|  6> *xyzfile 0 1  10_84TS.xyz
|  7>
|  8>
|  9>                          ****END OF INPUT****

CARTESIAN COORDINATES (ANGSTROEM)
---------------------------------
  C     -0.468404   -1.481327   -0.880136
  C      0.171057   -0.525220    0.104378
  C     -0.565236    0.476252    0.711977
  C     -2.079581    0.406412    0.608990
  C     -2.524279   -0.842478    1.365469
  C     -2.483126   -1.889085    0.548635
  C     -2.007946   -1.450134   -0.823624
  H     -0.136745   -1.223644   -1.893287
  H     -0.097067   -2.491998   -0.690293
  H     -2.419065   -2.040416   -1.643146
  C     -2.455668    0.017524   -0.828566
  H     -2.663366   -2.920196    0.824609
  H     -2.737803   -0.858208    2.426220
  C      1.579770   -0.517954    0.218036
  H     -0.138924    0.981927    1.570702
  H     -3.534298    0.091110   -0.974865
  H     -1.946569    0.616593   -1.585348
  H     -2.545765    1.322744    0.966774
  C      2.191037    1.088590   -1.153130
  C      2.172880    0.093123    1.375313
  C      2.335567   -1.597485   -0.351473
  N      2.629208    0.608201    2.294802
  N      2.931277   -2.446025   -0.846027
  H      3.136518    1.298338   -0.665773
  H      2.261246    0.534997   -2.084117
  C      1.136940    1.921655   -0.955616
  C      0.029300    2.250983   -0.515477
  C     -1.051589    3.227798   -0.341204
  H     -1.990365    2.877183   -0.771352
  H     -1.219993    3.445064    0.715272
  H     -0.775528    4.159352   -0.838253

 Total Charge           Charge          ....    0
 Multiplicity           Mult            ....    1
 Number of Electrons    NEL             ....  118
 Basis Dimension        Dim             .... 2004

ORBITAL ENERGIES
----------------

  NO   OCC          E(Eh)            E(eV)
   0   2.0000     -15.576541      -423.8592
   1   2.0000     -15.573727      -423.7826
   2   2.0000     -11.323919      -308.1395
   3   2.0000     -11.293484      -307.3113
   4   2.0000     -11.284822      -307.0756
   5   2.0000     -11.282867      -307.0224
   6   2.0000     -11.278215      -306.8958
   7   2.0000     -11.275206      -306.8140
   8   2.0000     -11.268408      -306.6290
   9   2.0000     -11.265172      -306.5409
  10   2.0000     -11.256649      -306.3090
  11   2.0000     -11.250710      -306.1474
  12   2.0000     -11.249795      -306.1225
  13   2.0000     -11.245327      -306.0009
  14   2.0000     -11.241167      -305.8877
  15   2.0000     -11.237420      -305.7857
  16   2.0000     -11.236530      -305.7615
  17   2.0000      -1.244653       -33.8687
  18   2.0000      -1.226697       -33.3801
  19   2.0000      -1.200876       -32.6775
  20   2.0000      -1.139436       -31.0056
  21   2.0000      -1.101935       -29.9852
  22   2.0000      -1.046262       -28.4702
  23   2.0000      -1.036881       -28.2150
  24   2.0000      -1.014691       -27.6111
  25   2.0000      -0.980308       -26.6755
  26   2.0000      -0.928106       -25.2551
  27   2.0000      -0.893910       -24.3245
  28   2.0000      -0.843098       -22.9419
  29   2.0000      -0.782408       -21.2904
  30   2.0000      -0.746920       -20.3247
  31   2.0000      -0.739457       -20.1216
  32   2.0000      -0.730332       -19.8733
  33   2.0000      -0.699154       -19.0249
  34   2.0000      -0.669782       -18.2257
  35   2.0000      -0.644551       -17.5391
  36   2.0000      -0.639143       -17.3920
  37   2.0000      -0.631641       -17.1878
  38   2.0000      -0.612396       -16.6641
  39   2.0000      -0.609324       -16.5805
  40   2.0000      -0.605470       -16.4757
  41   2.0000      -0.579545       -15.7702
  42   2.0000      -0.572699       -15.5839
  43   2.0000      -0.571421       -15.5492
  44   2.0000      -0.566321       -15.4104
  45   2.0000      -0.555945       -15.1280
  46   2.0000      -0.547564       -14.9000
  47   2.0000      -0.524353       -14.2684
  48   2.0000      -0.500049       -13.6070
  49   2.0000      -0.490474       -13.3465
  50   2.0000      -0.487739       -13.2721
  51   2.0000      -0.485949       -13.2234
  52   2.0000      -0.477909       -13.0046
  53   2.0000      -0.467276       -12.7152
  54   2.0000      -0.463920       -12.6239
  55   2.0000      -0.396602       -10.7921
  56   2.0000      -0.372505       -10.1364
  57   2.0000      -0.347754        -9.4629
  58   2.0000      -0.327070        -8.9000
  59   0.0000       0.014762         0.4017
  60   0.0000       0.022535         0.6132
  61   0.0000       0.023799         0.6476
  62   0.0000       0.029446         0.8013
  63   0.0000       0.034593         0.9413

MULLIKEN ATOMIC CHARGES
-----------------------
   0 C :   -0.595386
   1 C :    1.537934
   2 C :    0.007881
   3 C :    0.199566
   4 C :   -0.690492
   5 C :   -0.567666
   6 C :   -0.115197
   7 H :    0.129188
   8 H :    0.249780
   9 H :    0.261669
  10 C :   -0.616999
  11 H :    0.254440
  12 H :    0.266735
  13 C :   -0.606852
  14 H :    0.177329
  15 H :    0.249493
  16 H :    0.245245
  17 H :    0.218711
  18 C :   -0.643898
  19 C :    0.775438
  20 C :    0.773457
  21 N :   -1.049389
  22 N :   -1.048450
  23 H :    0.358673
  24 H :    0.328931
  25 C :    0.039869
  26 C :   -0.157197
  27 C :   -0.720376
  28 H :    0.218493
  29 H :    0.236606
  30 H :    0.282462
Sum of atomic charges:    0.0000000

LOEWDIN ATOMIC CHARGES
----------------------
   0 C :    0.525490
   1 C :   -0.116976
   2 C :    0.276801
   3 C :    0.094041
   4 C :    0.429450
   5 C :    0.421445
   6 C :    0.133139
   7 H :   -0.245571
   8 H :   -0.275331
   9 H :   -0.242821
  10 C :    0.506335
  11 H :   -0.276028
  12 H :   -0.273809
  13 C :   -0.354273
  14 H :   -0.310702
  15 H :   -0.235991
  16 H :   -0.267270
  17 H :   -0.280808
  18 C :    0.627764
  19 C :   -0.375923
  20 C :   -0.358250
  21 N :    0.485353
  22 N :    0.468344
  23 H :   -0.330648
  24 H :   -0.311159
  25 C :    0.173652
  26 C :    0.122204
  27 C :    0.883596
  28 H :   -0.317177
  29 H :   -0.286836
  30 H :   -0.288036

  Mayer bond orders larger than 0.100000
B(  0-C ,  1-C ) :   0.3972 B(  0-C ,  6-C ) :   0.9291 B(  0-C ,  7-H ) :   1.0629
B(  0-C ,  8-H ) :   1.0172 B(  0-C , 13-C ) :  -0.1412 B(  1-C ,  2-C ) :   0.9968
B(  1-C ,  3-C ) :  -0.1072 B(  1-C ,  6-C ) :  -0.1249 B(  1-C ,  8-H ) :  -0.1380
B(  1-C , 10-C ) :  -0.1641 B(  1-C , 13-C ) :   0.3227 B(  1-C , 14-H ) :  -0.1296
B(  1-C , 19-C ) :  -0.5727 B(  1-C , 20-C ) :  -0.5773 B(  2-C ,  3-C ) :   0.7206
B(  2-C , 10-C ) :   0.1018 B(  2-C , 13-C ) :  -0.4657 B(  2-C , 14-H ) :   1.0730
B(  2-C , 17-H ) :  -0.1283 B(  2-C , 18-C ) :   0.1674 B(  2-C , 26-C ) :   0.2336
B(  3-C ,  4-C ) :   0.5954 B(  3-C ,  5-C ) :  -0.1386 B(  3-C , 10-C ) :   0.5942
B(  3-C , 17-H ) :   1.1980 B(  4-C ,  5-C ) :   1.5752 B(  4-C ,  6-C ) :  -0.1424
B(  4-C , 12-H ) :   1.1585 B(  4-C , 17-H ) :  -0.1754 B(  5-C ,  6-C ) :   0.9569
B(  5-C , 10-C ) :  -0.1015 B(  5-C , 11-H ) :   1.1365 B(  6-C ,  9-H ) :   1.0097
B(  6-C , 10-C ) :   0.9121 B( 10-C , 15-H ) :   0.9643 B( 10-C , 16-H ) :   1.0203
B( 13-C , 18-C ) :   0.2853 B( 13-C , 19-C ) :   1.6147 B( 13-C , 20-C ) :   1.6706
B( 13-C , 21-N ) :   0.2123 B( 13-C , 22-N ) :   0.2433 B( 18-C , 23-H ) :   0.9219
B( 18-C , 24-H ) :   0.9369 B( 18-C , 25-C ) :   1.3546 B( 18-C , 26-C ) :  -0.1405
B( 19-C , 20-C ) :   0.1117 B( 19-C , 21-N ) :   1.8375 B( 20-C , 22-N ) :   1.7433
B( 25-C , 26-C ) :   2.2210 B( 26-C , 27-C ) :   0.3510 B( 26-C , 28-H ) :  -0.1782
B( 26-C , 29-H ) :  -0.1725 B( 26-C , 30-H ) :  -0.1050 B( 27-C , 28-H ) :   1.0727
B( 27-C , 29-H ) :   1.0669 B( 27-C , 30-H ) :   1.0134

MP2 TOTAL ENERGY:     -688.146213365 Eh
FINAL SINGLE POINT ENERGY      -688.146213365490

DIPOLE MOMENT
-------------
                                X             Y             Z
Electronic contribution:     12.43234      -4.74947       3.79322
Nuclear contribution   :    -14.73000       5.76441      -4.62021
                        -----------------------------------------
Total Dipole Moment    :     -2.29765       1.01494      -0.82699
                        -----------------------------------------
Magnitude (a.u.)       :      2.64447
Magnitude (Debye)      :      6.72170

Rotational constants in cm-1:     0.021839     0.015620     0.012106
Rotational constants in MHz :   654.718862   468.261085   362.923708

                             ****ORCA TERMINATED NORMALLY****
TOTAL RUN TIME: 0 days 5 hours 45 minutes 4 seconds 633 msec
