                         Program Version 4.2.1 -  RELEASE  -
|  1> %pal
|  2>  nprocs 32
|  3> end
|  4> !RI-MP2 aug-cc-pVQZ aug-cc-pVQZ/C TightSCF
|  5> %maxcore 4500
|  6> *xyzfile 0 1  03_39R1.xyz
|  7>
|  8>
|  9>                          ****END OF INPUT****

CARTESIAN COORDINATES (ANGSTROEM)
---------------------------------
  Cl    -2.942743   -0.637394   -1.173169
  C     -2.109930    0.134928    0.326376
  C     -0.678016   -0.266898    0.301291
  C      0.345174    0.563255    0.044190
  N      1.660215    0.224422   -0.013951
  H      0.160622    1.613931   -0.150875
  H     -0.490788   -1.319531    0.478628
  C     -2.826432   -0.456694    1.532607
  C      2.145471   -1.119694    0.246189
  H      1.736463   -1.509889    1.184978
  C      3.668119   -0.956820    0.303935
  H      1.830155   -1.799082   -0.554942
  H      3.986093   -0.803851    1.338244
  C      3.932465    0.311905   -0.512960
  H      4.195081   -1.830674   -0.078753
  C      2.736095    1.191769   -0.164360
  H      3.921413    0.082867   -1.581423
  H      4.886345    0.783409   -0.275752
  H      2.498673    1.917430   -0.945604
  H      2.917152    1.744329    0.768675
  H     -2.680828   -1.536147    1.578728
  H     -3.896967   -0.252177    1.493402
  H     -2.413315   -0.013554    2.442520
  C     -2.367802    1.628369    0.215864
  H     -1.949059    2.042712   -0.700647
  H     -1.926627    2.142427    1.073576
  H     -3.440152    1.821808    0.211983

 Total Charge           Charge          ....    0
 Multiplicity           Mult            ....    1
 Number of Electrons    NEL             ....   94
 Basis Dimension        Dim             .... 1620

ORBITAL ENERGIES
----------------

  NO   OCC          E(Eh)            E(eV)
   0   2.0000    -104.787869     -2851.4229
   1   2.0000     -15.565257      -423.5522
   2   2.0000     -11.298447      -307.4464
   3   2.0000     -11.270259      -306.6793
   4   2.0000     -11.264988      -306.5359
   5   2.0000     -11.259195      -306.3783
   6   2.0000     -11.232151      -305.6424
   7   2.0000     -11.231497      -305.6246
   8   2.0000     -11.219783      -305.3058
   9   2.0000     -11.216718      -305.2224
  10   2.0000     -11.202878      -304.8458
  11   2.0000     -10.513918      -286.0982
  12   2.0000      -7.980735      -217.1668
  13   2.0000      -7.979329      -217.1286
  14   2.0000      -7.979320      -217.1283
  15   2.0000      -1.271223       -34.5917
  16   2.0000      -1.139917       -31.0187
  17   2.0000      -1.084106       -29.5000
  18   2.0000      -1.012878       -27.5618
  19   2.0000      -1.000510       -27.2253
  20   2.0000      -0.975381       -26.5415
  21   2.0000      -0.944047       -25.6888
  22   2.0000      -0.866676       -23.5834
  23   2.0000      -0.815604       -22.1937
  24   2.0000      -0.782283       -21.2870
  25   2.0000      -0.726037       -19.7565
  26   2.0000      -0.699106       -19.0236
  27   2.0000      -0.680095       -18.5063
  28   2.0000      -0.641234       -17.4489
  29   2.0000      -0.608939       -16.5701
  30   2.0000      -0.600878       -16.3507
  31   2.0000      -0.594528       -16.1779
  32   2.0000      -0.581105       -15.8127
  33   2.0000      -0.563384       -15.3304
  34   2.0000      -0.555448       -15.1145
  35   2.0000      -0.539246       -14.6736
  36   2.0000      -0.523551       -14.2465
  37   2.0000      -0.507754       -13.8167
  38   2.0000      -0.496789       -13.5183
  39   2.0000      -0.494347       -13.4519
  40   2.0000      -0.485286       -13.2053
  41   2.0000      -0.479738       -13.0543
  42   2.0000      -0.472514       -12.8577
  43   2.0000      -0.435877       -11.8608
  44   2.0000      -0.412908       -11.2358
  45   2.0000      -0.408885       -11.1263
  46   2.0000      -0.291138        -7.9223
  47   0.0000       0.020454         0.5566
  48   0.0000       0.026956         0.7335
  49   0.0000       0.028181         0.7668
  50   0.0000       0.031834         0.8662
  51   0.0000       0.038677         1.0524

MULLIKEN ATOMIC CHARGES
-----------------------
   0 Cl:   -0.609655
   1 C :    0.957681
   2 C :   -0.538448
   3 C :    0.321955
   4 N :   -0.160337
   5 H :    0.299200
   6 H :    0.234836
   7 C :   -1.064404
   8 C :   -0.505522
   9 H :    0.335875
  10 C :   -0.535006
  11 H :    0.271021
  12 H :    0.165644
  13 C :   -0.536567
  14 H :    0.306827
  15 C :   -0.635430
  16 H :    0.198825
  17 H :    0.279804
  18 H :    0.309941
  19 H :    0.254157
  20 H :    0.295871
  21 H :    0.294572
  22 H :    0.274168
  23 C :   -0.991295
  24 H :    0.207929
  25 H :    0.227234
  26 H :    0.341125
Sum of atomic charges:   -0.0000000

LOEWDIN ATOMIC CHARGES
----------------------
   0 Cl:    1.118960
   1 C :   -0.897446
   2 C :    0.245173
   3 C :    0.225413
   4 N :    0.470195
   5 H :   -0.350007
   6 H :   -0.364167
   7 C :    0.783639
   8 C :    0.372635
   9 H :   -0.268874
  10 C :    0.544921
  11 H :   -0.252660
  12 H :   -0.261402
  13 C :    0.534323
  14 H :   -0.254334
  15 C :    0.384712
  16 H :   -0.258630
  17 H :   -0.254458
  18 H :   -0.264562
  19 H :   -0.250635
  20 H :   -0.305057
  21 H :   -0.305528
  22 H :   -0.276451
  23 C :    0.770808
  24 H :   -0.309482
  25 H :   -0.274013
  26 H :   -0.303072

  Mayer bond orders larger than 0.100000
B(  0-Cl,  1-C ) :   0.3812 B(  1-C ,  2-C ) :   0.9272 B(  1-C ,  3-C ) :  -0.3222
B(  1-C ,  7-C ) :   0.7389 B(  1-C , 23-C ) :   0.5421 B(  1-C , 26-H ) :  -0.1005
B(  2-C ,  3-C ) :   1.1694 B(  2-C ,  4-N ) :   0.1540 B(  2-C ,  6-H ) :   0.9436
B(  3-C ,  4-N ) :   1.1888 B(  3-C ,  5-H ) :   0.9119 B(  4-N ,  8-C ) :   0.6400
B(  4-N , 15-C ) :   0.7809 B(  7-C , 20-H ) :   0.9716 B(  7-C , 21-H ) :   0.9948
B(  7-C , 22-H ) :   0.9291 B(  8-C ,  9-H ) :   0.9090 B(  8-C , 10-C ) :   0.9007
B(  8-C , 11-H ) :   0.9706 B( 10-C , 12-H ) :   1.0037 B( 10-C , 13-C ) :   1.0522
B( 10-C , 14-H ) :   0.9142 B( 13-C , 15-C ) :   0.9817 B( 13-C , 16-H ) :   0.9716
B( 13-C , 17-H ) :   0.9257 B( 15-C , 18-H ) :   0.9146 B( 15-C , 19-H ) :   0.9791
B( 23-C , 24-H ) :   1.0689 B( 23-C , 25-H ) :   0.9667 B( 23-C , 26-H ) :   0.9640

MP2 TOTAL ENERGY:     -866.316553143 Eh
FINAL SINGLE POINT ENERGY      -866.316553142733

DIPOLE MOMENT
-------------
                                X             Y             Z
Electronic contribution:    -12.26459      -3.49566      -7.34511
Nuclear contribution   :     13.77661       4.06285       8.09177
                        -----------------------------------------
Total Dipole Moment    :      1.51202       0.56719       0.74666
                        -----------------------------------------
Magnitude (a.u.)       :      1.77916
Magnitude (Debye)      :      4.52226

Rotational constants in cm-1:     0.070491     0.012887     0.012583
Rotational constants in MHz :  2113.274915   386.347775   377.236457

                             ****ORCA TERMINATED NORMALLY****
TOTAL RUN TIME: 0 days 1 hours 49 minutes 32 seconds 614 msec
