                         Program Version 4.2.1 -  RELEASE  -
|  1> %pal
|  2>  nprocs 32
|  3> end
|  4> !RI-MP2 aug-cc-pVQZ aug-cc-pVQZ/C TightSCF
|  5> %maxcore 4500
|  6> *xyzfile 0 1  10_56TS.xyz
|  7>
|  8>
|  9>                          ****END OF INPUT****

CARTESIAN COORDINATES (ANGSTROEM)
---------------------------------
  S     -1.560370   -0.038043    0.105175
  C     -0.646804   -1.170853   -0.974775
  C      0.692245   -1.717514   -0.455824
  C      1.372160   -0.880834    0.604392
  C      1.547226    0.888472   -0.653926
  C      0.674933    1.735431    0.249577
  C     -0.804256    1.594790   -0.095424
  C      2.741613   -0.490012    0.615038
  C      2.869482    0.433201   -0.382062
  H      1.299870    1.093763   -1.704570
  H      0.867780   -0.991324    1.564777
  O     -1.404346   -0.459654    1.495877
  O     -2.897713    0.074410   -0.470676
  H     -1.380124   -1.956332   -1.165635
  H     -0.514804   -0.612222   -1.902608
  H      1.360213   -1.840651   -1.309555
  H      0.517323   -2.712592   -0.032894
  H      0.912554    2.795705    0.083615
  H      0.850869    1.529623    1.303991
  H     -1.003138    1.863427   -1.134626
  H     -1.433099    2.223520    0.537576
  H      3.466694   -0.779367    1.370131
  H      3.758649    0.721004   -0.936599

 Total Charge           Charge          ....    0
 Multiplicity           Mult            ....    1
 Number of Electrons    NEL             ....   92
 Basis Dimension        Dim             .... 1436

ORBITAL ENERGIES
----------------

  NO   OCC          E(Eh)            E(eV)
   0   2.0000     -92.163331     -2507.8917
   1   2.0000     -20.535452      -558.7981
   2   2.0000     -20.532565      -558.7195
   3   2.0000     -11.275620      -306.8252
   4   2.0000     -11.275188      -306.8135
   5   2.0000     -11.266449      -306.5757
   6   2.0000     -11.266037      -306.5645
   7   2.0000     -11.257283      -306.3262
   8   2.0000     -11.257026      -306.3192
   9   2.0000     -11.243630      -305.9547
  10   2.0000     -11.239106      -305.8316
  11   2.0000      -9.133952      -248.5475
  12   2.0000      -6.819054      -185.5559
  13   2.0000      -6.818520      -185.5414
  14   2.0000      -6.818178      -185.5321
  15   2.0000      -1.434130       -39.0247
  16   2.0000      -1.323786       -36.0220
  17   2.0000      -1.158835       -31.5335
  18   2.0000      -1.087162       -29.5832
  19   2.0000      -1.081709       -29.4348
  20   2.0000      -0.968119       -26.3438
  21   2.0000      -0.959990       -26.1226
  22   2.0000      -0.869334       -23.6558
  23   2.0000      -0.836541       -22.7634
  24   2.0000      -0.772638       -21.0245
  25   2.0000      -0.728957       -19.8359
  26   2.0000      -0.702387       -19.1129
  27   2.0000      -0.678097       -18.4520
  28   2.0000      -0.667664       -18.1681
  29   2.0000      -0.651225       -17.7207
  30   2.0000      -0.638957       -17.3869
  31   2.0000      -0.609260       -16.5788
  32   2.0000      -0.599147       -16.3036
  33   2.0000      -0.591823       -16.1043
  34   2.0000      -0.576154       -15.6779
  35   2.0000      -0.550880       -14.9902
  36   2.0000      -0.545945       -14.8559
  37   2.0000      -0.530355       -14.4317
  38   2.0000      -0.519164       -14.1272
  39   2.0000      -0.512809       -13.9542
  40   2.0000      -0.485972       -13.2240
  41   2.0000      -0.476872       -12.9764
  42   2.0000      -0.458994       -12.4899
  43   2.0000      -0.423660       -11.5284
  44   2.0000      -0.360788        -9.8175
  45   2.0000      -0.316437        -8.6107
  46   0.0000       0.018306         0.4981
  47   0.0000       0.025556         0.6954
  48   0.0000       0.026012         0.7078
  49   0.0000       0.031031         0.8444
  50   0.0000       0.039847         1.0843

MULLIKEN ATOMIC CHARGES
-----------------------
   0 S :    2.762327
   1 C :   -0.660419
   2 C :   -0.472164
   3 C :    0.041199
   4 C :   -0.106307
   5 C :   -0.420997
   6 C :   -0.699831
   7 C :   -0.646477
   8 C :   -0.483317
   9 H :    0.177595
  10 H :    0.298561
  11 O :   -1.403506
  12 O :   -1.534139
  13 H :    0.369515
  14 H :    0.292638
  15 H :    0.198354
  16 H :    0.327768
  17 H :    0.342966
  18 H :    0.239624
  19 H :    0.297282
  20 H :    0.289719
  21 H :    0.410369
  22 H :    0.379241
Sum of atomic charges:   -0.0000000

LOEWDIN ATOMIC CHARGES
----------------------
   0 S :   -0.130498
   1 C :    0.449252
   2 C :    0.497357
   3 C :    0.248162
   4 C :    0.262322
   5 C :    0.482566
   6 C :    0.432015
   7 C :    0.364336
   8 C :    0.361636
   9 H :   -0.280910
  10 H :   -0.341647
  11 O :    0.344689
  12 O :    0.319242
  13 H :   -0.323359
  14 H :   -0.332697
  15 H :   -0.294262
  16 H :   -0.271215
  17 H :   -0.264627
  18 H :   -0.305104
  19 H :   -0.324388
  20 H :   -0.315132
  21 H :   -0.288611
  22 H :   -0.289128

  Mayer bond orders larger than 0.100000
B(  0-S ,  1-C ) :   0.9658 B(  0-S ,  6-C ) :   0.9605 B(  0-S , 11-O ) :   0.7014
B(  0-S , 12-O ) :   0.6640 B(  1-C ,  2-C ) :   0.9223 B(  1-C , 13-H ) :   0.9009
B(  1-C , 14-H ) :   0.8561 B(  2-C ,  3-C ) :   0.8635 B(  2-C , 11-O ) :   0.1251
B(  2-C , 15-H ) :   0.9644 B(  2-C , 16-H ) :   0.8515 B(  3-C ,  4-C ) :   0.4583
B(  3-C ,  7-C ) :   1.1453 B(  3-C ,  8-C ) :  -0.1046 B(  3-C , 10-H ) :   0.8913
B(  3-C , 11-O ) :  -0.1424 B(  4-C ,  5-C ) :   0.9207 B(  4-C ,  7-C ) :  -0.1365
B(  4-C ,  8-C ) :   1.0450 B(  4-C ,  9-H ) :   1.0252 B(  5-C ,  6-C ) :   0.8858
B(  5-C , 17-H ) :   0.7906 B(  5-C , 18-H ) :   0.9465 B(  6-C , 19-H ) :   0.8636
B(  6-C , 20-H ) :   0.9117 B(  7-C ,  8-C ) :   1.6037 B(  7-C , 21-H ) :   0.8794
B(  8-C , 22-H ) :   0.9188 B( 11-O , 12-O ) :   0.1197

MP2 TOTAL ENERGY:     -859.390787228 Eh
FINAL SINGLE POINT ENERGY      -859.390787228279

DIPOLE MOMENT
-------------
                                X             Y             Z
Electronic contribution:     -6.89346      -0.98509       2.39143
Nuclear contribution   :      8.71038       1.33383      -3.32388
                        -----------------------------------------
Total Dipole Moment    :      1.81692       0.34874      -0.93246
                        -----------------------------------------
Magnitude (a.u.)       :      2.07178
Magnitude (Debye)      :      5.26606

Rotational constants in cm-1:     0.062064     0.026577     0.023121
Rotational constants in MHz :  1860.630792   796.759971   693.137864

                             ****ORCA TERMINATED NORMALLY****
TOTAL RUN TIME: 0 days 1 hours 35 minutes 43 seconds 961 msec
