                         Program Version 4.2.1 -  RELEASE  -
|  1> %pal
|  2>  nprocs 32
|  3> end
|  4> !RI-MP2 aug-cc-pVQZ aug-cc-pVQZ/C TightSCF
|  5> %maxcore 4500
|  6> *xyzfile 0 1  02_42P.xyz
|  7>
|  8>
|  9>                          ****END OF INPUT****

CARTESIAN COORDINATES (ANGSTROEM)
---------------------------------
  C      0.501536   -1.147049    0.407105
  C      0.222844   -0.517003    1.737293
  C      0.921261    1.198871    0.322218
  C      0.451546    0.798490    1.686007
  S      2.098734   -0.238463    0.024082
  O      2.408845   -0.347273   -1.434732
  C     -2.465033    0.672417    0.017792
  C     -0.437570   -0.576487   -0.680684
  C     -0.135614    0.934899   -0.769005
  H     -2.510155    0.758161    1.107418
  H     -3.486644    0.754818   -0.353407
  C     -1.482085    1.676613   -0.593884
  H     -1.374942    2.576135    0.014195
  H     -1.841777    1.999224   -1.572308
  C     -1.901954   -0.704330   -0.281833
  O     -2.501687   -1.742751   -0.196691
  H      0.342015    1.490932    2.509647
  H     -0.110705   -1.072761    2.602777
  H     -0.261358   -1.096845   -1.622349
  H      0.614136   -2.226790    0.391420
  H      0.321158    1.172953   -1.728368
  H      1.421692    2.161239    0.246993

 Total Charge           Charge          ....    0
 Multiplicity           Mult            ....    1
 Number of Electrons    NEL             ....   96
 Basis Dimension        Dim             .... 1424

ORBITAL ENERGIES
----------------

  NO   OCC          E(Eh)            E(eV)
   0   2.0000     -92.071087     -2505.3816
   1   2.0000     -20.552323      -559.2571
   2   2.0000     -20.515720      -558.2611
   3   2.0000     -11.334905      -308.4384
   4   2.0000     -11.286732      -307.1276
   5   2.0000     -11.283527      -307.0404
   6   2.0000     -11.265544      -306.5510
   7   2.0000     -11.263811      -306.5039
   8   2.0000     -11.254496      -306.2504
   9   2.0000     -11.253564      -306.2250
  10   2.0000     -11.246255      -306.0262
  11   2.0000     -11.242602      -305.9267
  12   2.0000      -9.058214      -246.4865
  13   2.0000      -6.739510      -183.3914
  14   2.0000      -6.739363      -183.3874
  15   2.0000      -6.738284      -183.3580
  16   2.0000      -1.399681       -38.0873
  17   2.0000      -1.346319       -36.6352
  18   2.0000      -1.210513       -32.9397
  19   2.0000      -1.116703       -30.3870
  20   2.0000      -1.038203       -28.2509
  21   2.0000      -1.020148       -27.7596
  22   2.0000      -0.949160       -25.8280
  23   2.0000      -0.924641       -25.1608
  24   2.0000      -0.820742       -22.3335
  25   2.0000      -0.806132       -21.9360
  26   2.0000      -0.765574       -20.8323
  27   2.0000      -0.730235       -19.8707
  28   2.0000      -0.718555       -19.5529
  29   2.0000      -0.679462       -18.4891
  30   2.0000      -0.665852       -18.1187
  31   2.0000      -0.623892       -16.9770
  32   2.0000      -0.608979       -16.5712
  33   2.0000      -0.601391       -16.3647
  34   2.0000      -0.592494       -16.1226
  35   2.0000      -0.583419       -15.8756
  36   2.0000      -0.563946       -15.3457
  37   2.0000      -0.555429       -15.1140
  38   2.0000      -0.550048       -14.9676
  39   2.0000      -0.540199       -14.6996
  40   2.0000      -0.501130       -13.6364
  41   2.0000      -0.493659       -13.4331
  42   2.0000      -0.488711       -13.2985
  43   2.0000      -0.476363       -12.9625
  44   2.0000      -0.420172       -11.4335
  45   2.0000      -0.408388       -11.1128
  46   2.0000      -0.397835       -10.8256
  47   2.0000      -0.360420        -9.8075
  48   0.0000       0.016146         0.4393
  49   0.0000       0.024627         0.6701
  50   0.0000       0.028182         0.7669
  51   0.0000       0.030959         0.8424
  52   0.0000       0.040744         1.1087

MULLIKEN ATOMIC CHARGES
-----------------------
   0 C :   -0.140459
   1 C :   -0.557115
   2 C :   -0.296216
   3 C :   -0.394917
   4 S :    0.992798
   5 O :   -1.320268
   6 C :   -0.682092
   7 C :   -0.489717
   8 C :    0.067599
   9 H :    0.210080
  10 H :    0.300468
  11 C :   -0.706238
  12 H :    0.244569
  13 H :    0.216961
  14 C :    1.356555
  15 O :   -1.028609
  16 H :    0.338687
  17 H :    0.310583
  18 H :    0.434037
  19 H :    0.375423
  20 H :    0.376582
  21 H :    0.391288
Sum of atomic charges:    0.0000000

LOEWDIN ATOMIC CHARGES
----------------------
   0 C :   -0.039799
   1 C :    0.300270
   2 C :   -0.032897
   3 C :    0.301764
   4 S :    0.794376
   5 O :    0.102180
   6 C :    0.530486
   7 C :    0.035933
   8 C :    0.065629
   9 H :   -0.277105
  10 H :   -0.268107
  11 C :    0.565957
  12 H :   -0.255940
  13 H :   -0.257517
  14 C :   -0.629223
  15 O :    0.751379
  16 H :   -0.276621
  17 H :   -0.273555
  18 H :   -0.268681
  19 H :   -0.290194
  20 H :   -0.286276
  21 H :   -0.292060

  Mayer bond orders larger than 0.100000
B(  0-C ,  1-C ) :   0.8352 B(  0-C ,  2-C ) :  -0.1206 B(  0-C ,  3-C ) :  -0.1735
B(  0-C ,  4-S ) :   0.8370 B(  0-C ,  7-C ) :   0.8856 B(  0-C , 19-H ) :   0.9132
B(  1-C ,  2-C ) :  -0.1046 B(  1-C ,  3-C ) :   1.5117 B(  1-C ,  4-S ) :   0.1135
B(  1-C , 17-H ) :   1.0494 B(  2-C ,  3-C ) :   0.9095 B(  2-C ,  4-S ) :   0.8244
B(  2-C ,  8-C ) :   0.7210 B(  2-C , 21-H ) :   0.9086 B(  3-C , 16-H ) :   1.0095
B(  4-S ,  5-O ) :   1.1787 B(  5-O ,  7-C ) :   0.1264 B(  6-C ,  8-C ) :  -0.1094
B(  6-C ,  9-H ) :   0.9338 B(  6-C , 10-H ) :   0.8976 B(  6-C , 11-C ) :   1.0994
B(  6-C , 14-C ) :   1.0711 B(  6-C , 15-O ) :   0.2584 B(  7-C ,  8-C ) :   0.9911
B(  7-C , 14-C ) :   0.9078 B(  7-C , 15-O ) :   0.4312 B(  7-C , 18-H ) :   0.7967
B(  8-C , 11-C ) :   0.5881 B(  8-C , 20-H ) :   0.8597 B( 11-C , 12-H ) :   1.0034
B( 11-C , 13-H ) :   1.0507 B( 11-C , 14-C ) :  -0.1113 B( 14-C , 15-O ) :   0.3722

MP2 TOTAL ENERGY:     -896.324365425 Eh
FINAL SINGLE POINT ENERGY      -896.324365425201

DIPOLE MOMENT
-------------
                                X             Y             Z
Electronic contribution:      6.36116      -4.99223      -0.34493
Nuclear contribution   :     -6.87871       6.42230       1.55283
                        -----------------------------------------
Total Dipole Moment    :     -0.51755       1.43007       1.20790
                        -----------------------------------------
Magnitude (a.u.)       :      1.94216
Magnitude (Debye)      :      4.93659

Rotational constants in cm-1:     0.050931     0.025152     0.023892
Rotational constants in MHz :  1526.873368   754.040991   716.262382

                             ****ORCA TERMINATED NORMALLY****
TOTAL RUN TIME: 0 days 1 hours 57 minutes 11 seconds 80 msec
