                         Program Version 4.2.1 -  RELEASE  -
|  1> %pal
|  2>  nprocs 32
|  3> end
|  4> !RI-MP2 aug-cc-pVQZ aug-cc-pVQZ/C TightSCF
|  5> %maxcore 4500
|  6> *xyzfile -1 1  09_10R.xyz
|  7>
|  8>
|  9>                          ****END OF INPUT****

CARTESIAN COORDINATES (ANGSTROEM)
---------------------------------
  C     -1.005514   -0.539514   -0.659583
  C      0.175882   -1.349984   -0.171530
  C      1.517091   -0.763184   -0.606831
  H      0.088683   -2.343597   -0.623593
  H      0.141221   -1.473806    0.909778
  C      1.866406    0.518873    0.149663
  C      0.738809    1.553856    0.030823
  C     -0.331754    1.420115    0.919272
  O     -1.132123   -0.203882   -1.818387
  C     -2.176503   -0.432449    0.303854
  O     -2.299114   -1.078631    1.321817
  O     -3.170021    0.351254   -0.154247
  O      0.826243    2.351697   -0.920819
  O      2.181684    0.142527    1.501053
  H      2.761300    0.955044   -0.298099
  O      2.558122   -1.720287   -0.416040
  H      1.481733   -0.536989   -1.672353
  H     -3.858632    0.311439    0.521230
  H      2.766258   -1.685303    0.525379
  H      1.617041    0.669408    2.074685
  H     -1.124735    2.156002    0.885657
  H     -0.297699    0.760104    1.776289

 Total Charge           Charge          ....   -1
 Multiplicity           Mult            ....    1
 Number of Electrons    NEL             ....  100
 Basis Dimension        Dim             .... 1454

ORBITAL ENERGIES
----------------

  NO   OCC          E(Eh)            E(eV)
   0   2.0000     -20.492717      -557.6352
   1   2.0000     -20.433960      -556.0363
   2   2.0000     -20.432304      -555.9913
   3   2.0000     -20.431442      -555.9678
   4   2.0000     -20.413414      -555.4772
   5   2.0000     -20.328564      -553.1683
   6   2.0000     -11.270840      -306.6952
   7   2.0000     -11.214872      -305.1722
   8   2.0000     -11.154465      -303.5284
   9   2.0000     -11.140397      -303.1456
  10   2.0000     -11.138529      -303.0948
  11   2.0000     -11.105433      -302.1942
  12   2.0000     -11.032824      -300.2184
  13   2.0000      -1.352393       -36.8005
  14   2.0000      -1.259288       -34.2670
  15   2.0000      -1.253981       -34.1226
  16   2.0000      -1.243693       -33.8426
  17   2.0000      -1.224369       -33.3168
  18   2.0000      -1.167718       -31.7752
  19   2.0000      -0.937849       -25.5202
  20   2.0000      -0.853259       -23.2184
  21   2.0000      -0.827719       -22.5234
  22   2.0000      -0.782531       -21.2938
  23   2.0000      -0.702451       -19.1147
  24   2.0000      -0.638288       -17.3687
  25   2.0000      -0.613723       -16.7002
  26   2.0000      -0.591514       -16.0959
  27   2.0000      -0.566342       -15.4110
  28   2.0000      -0.564802       -15.3690
  29   2.0000      -0.537886       -14.6366
  30   2.0000      -0.516387       -14.0516
  31   2.0000      -0.511469       -13.9178
  32   2.0000      -0.490298       -13.3417
  33   2.0000      -0.489536       -13.3210
  34   2.0000      -0.464881       -12.6501
  35   2.0000      -0.447610       -12.1801
  36   2.0000      -0.439642       -11.9633
  37   2.0000      -0.433001       -11.7826
  38   2.0000      -0.417620       -11.3640
  39   2.0000      -0.392826       -10.6894
  40   2.0000      -0.382442       -10.4068
  41   2.0000      -0.375125       -10.2077
  42   2.0000      -0.368446       -10.0259
  43   2.0000      -0.353236        -9.6120
  44   2.0000      -0.348566        -9.4850
  45   2.0000      -0.340171        -9.2565
  46   2.0000      -0.295040        -8.0284
  47   2.0000      -0.282921        -7.6987
  48   2.0000      -0.228251        -6.2110
  49   2.0000      -0.137572        -3.7435
  50   0.0000       0.102248         2.7823
  51   0.0000       0.108152         2.9430
  52   0.0000       0.113293         3.0829
  53   0.0000       0.118636         3.2283
  54   0.0000       0.125060         3.4030

MULLIKEN ATOMIC CHARGES
-----------------------
   0 C :    0.978497
   1 C :   -0.747553
   2 C :    0.671973
   3 H :    0.379463
   4 H :    0.197122
   5 C :    0.138218
   6 C :    0.843465
   7 C :   -0.950189
   8 O :   -1.086008
   9 C :    1.371281
  10 O :   -0.995045
  11 O :   -0.783320
  12 O :   -1.057161
  13 O :   -1.025508
  14 H :    0.363667
  15 O :   -1.159957
  16 H :    0.381884
  17 H :    0.316698
  18 H :    0.373530
  19 H :    0.319181
  20 H :    0.236229
  21 H :    0.233533
Sum of atomic charges:   -1.0000000

LOEWDIN ATOMIC CHARGES
----------------------
   0 C :   -0.789715
   1 C :    0.415580
   2 C :   -0.248905
   3 H :   -0.282477
   4 H :   -0.343865
   5 C :   -0.278947
   6 C :   -0.824954
   7 C :    0.616838
   8 O :    0.740441
   9 C :   -1.136788
  10 O :    0.705479
  11 O :    1.237955
  12 O :    0.631474
  13 O :    1.304396
  14 H :   -0.337463
  15 O :    1.292235
  16 H :   -0.317220
  17 H :   -0.837709
  18 H :   -0.880436
  19 H :   -0.874852
  20 H :   -0.370522
  21 H :   -0.420545

  Mayer bond orders larger than 0.100000
B(  0-C ,  1-C ) :   0.9958 B(  0-C ,  7-C ) :   0.1285 B(  0-C ,  8-O ) :   0.6475
B(  0-C ,  9-C ) :   1.2083 B(  0-C , 10-O ) :   0.1688 B(  0-C , 11-O ) :   0.1051
B(  1-C ,  2-C ) :   0.9342 B(  1-C ,  3-H ) :   0.7780 B(  1-C ,  4-H ) :   0.9920
B(  1-C ,  8-O ) :   0.1755 B(  1-C , 15-O ) :   0.2405 B(  2-C ,  5-C ) :   0.9341
B(  2-C , 16-H ) :   0.8361 B(  5-C ,  6-C ) :   0.9734 B(  5-C , 12-O ) :   0.3270
B(  5-C , 13-O ) :   0.3476 B(  5-C , 14-H ) :   0.8756 B(  5-C , 15-O ) :   0.2126
B(  6-C ,  7-C ) :   1.3854 B(  6-C , 12-O ) :   0.4676 B(  7-C , 12-O ) :   0.2771
B(  7-C , 20-H ) :   1.0077 B(  7-C , 21-H ) :   1.0109 B(  8-O ,  9-C ) :   0.1998
B(  9-C , 10-O ) :   1.0516 B(  9-C , 11-O ) :   0.6000 B( 10-O , 11-O ) :   0.1517
B( 11-O , 17-H ) :   0.9333 B( 13-O , 19-H ) :   0.9027 B( 15-O , 18-H ) :   0.8453

MP2 TOTAL ENERGY:     -722.594402558 Eh
FINAL SINGLE POINT ENERGY      -722.594402557949

DIPOLE MOMENT
-------------
                                X             Y             Z
Electronic contribution:     -4.28464      -0.36306      -2.70292
Nuclear contribution   :      3.49838      -1.16996       4.02179
                        -----------------------------------------
Total Dipole Moment    :     -0.78626      -1.53302       1.31886
                        -----------------------------------------
Magnitude (a.u.)       :      2.16974
Magnitude (Debye)      :      5.51503

Rotational constants in cm-1:     0.038836     0.020839     0.018580
Rotational constants in MHz :  1164.288661   624.751665   557.013952

                             ****ORCA TERMINATED NORMALLY****
TOTAL RUN TIME: 0 days 1 hours 33 minutes 57 seconds 489 msec
