                         Program Version 4.2.1 -  RELEASE  -
|  1> %pal
|  2>  nprocs 32
|  3> end
|  4> !RI-MP2 aug-cc-pVQZ aug-cc-pVQZ/C TightSCF
|  5> %maxcore 4500
|  6> *xyzfile 0 1  03_3P2.xyz
|  7>
|  8>
|  9>                          ****END OF INPUT****

CARTESIAN COORDINATES (ANGSTROEM)
---------------------------------
  C      0.034598    0.741215    0.137322
  C     -1.129787   -0.131605    0.447372
  C     -2.215312   -0.193958   -0.308514
  H     -1.052380   -0.728382    1.350995
  H     -2.304958    0.385120   -1.221522
  H     -3.053595   -0.825498   -0.042263
  H      0.263488    1.417643    0.958591
  H     -0.121917    1.314529   -0.773196
  Cl     1.537198   -0.238666   -0.113511

 Total Charge           Charge          ....    0
 Multiplicity           Mult            ....    1
 Number of Electrons    NEL             ....   40
 Basis Dimension        Dim             ....  554

ORBITAL ENERGIES
----------------

  NO   OCC          E(Eh)            E(eV)
   0   2.0000    -104.821664     -2852.3425
   1   2.0000     -11.300186      -307.4937
   2   2.0000     -11.249977      -306.1274
   3   2.0000     -11.239939      -305.8543
   4   2.0000     -10.547142      -287.0023
   5   2.0000      -8.014161      -218.0764
   6   2.0000      -8.012517      -218.0317
   7   2.0000      -8.012481      -218.0307
   8   2.0000      -1.142026       -31.0761
   9   2.0000      -1.056223       -28.7413
  10   2.0000      -0.916139       -24.9294
  11   2.0000      -0.781293       -21.2601
  12   2.0000      -0.670068       -18.2335
  13   2.0000      -0.624270       -16.9873
  14   2.0000      -0.592986       -16.1360
  15   2.0000      -0.543299       -14.7839
  16   2.0000      -0.524289       -14.2666
  17   2.0000      -0.439518       -11.9599
  18   2.0000      -0.434379       -11.8200
  19   2.0000      -0.382770       -10.4157
  20   0.0000       0.026125         0.7109
  21   0.0000       0.033151         0.9021
  22   0.0000       0.034329         0.9341
  23   0.0000       0.048329         1.3151
  24   0.0000       0.052697         1.4340

MULLIKEN ATOMIC CHARGES
-----------------------
   0 C :   -0.287330
   1 C :   -0.358733
   2 C :   -0.905806
   3 H :    0.496885
   4 H :    0.369325
   5 H :    0.388090
   6 H :    0.302489
   7 H :    0.298263
   8 Cl:   -0.303184
Sum of atomic charges:   -0.0000000

LOEWDIN ATOMIC CHARGES
----------------------
   0 C :   -0.185620
   1 C :    0.216810
   2 C :    0.776395
   3 H :   -0.352921
   4 H :   -0.353602
   5 H :   -0.352031
   6 H :   -0.409525
   7 H :   -0.428955
   8 Cl:    1.089450

  Mayer bond orders larger than 0.100000
B(  0-C ,  1-C ) :   0.8839 B(  0-C ,  6-H ) :   0.8580 B(  0-C ,  7-H ) :   0.8917
B(  0-C ,  8-Cl) :   0.9208 B(  1-C ,  2-C ) :   1.8319 B(  1-C ,  3-H ) :   0.7135
B(  2-C ,  4-H ) :   0.8657 B(  2-C ,  5-H ) :   0.9141

MP2 TOTAL ENERGY:     -576.808238641 Eh
FINAL SINGLE POINT ENERGY      -576.808238641335

DIPOLE MOMENT
-------------
                                X             Y             Z
Electronic contribution:      7.55281      -1.45170      -0.31274
Nuclear contribution   :     -8.31329       1.86994       0.42702
                        -----------------------------------------
Total Dipole Moment    :     -0.76048       0.41824       0.11428
                        -----------------------------------------
Magnitude (a.u.)       :      0.87540
Magnitude (Debye)      :      2.22508

Rotational constants in cm-1:     0.720630     0.092602     0.089812
Rotational constants in MHz : 21603.933628  2776.125650  2692.510266

                             ****ORCA TERMINATED NORMALLY****
TOTAL RUN TIME: 0 days 0 hours 3 minutes 5 seconds 713 msec
