                         Program Version 4.2.1 -  RELEASE  -
|  1> %pal
|  2>  nprocs 32
|  3> end
|  4> !RI-MP2 aug-cc-pVQZ aug-cc-pVQZ/C TightSCF
|  5> %maxcore 4500
|  6> *xyzfile 0 1  08_10R1.xyz
|  7>
|  8>
|  9>                          ****END OF INPUT****

CARTESIAN COORDINATES (ANGSTROEM)
---------------------------------
  S      1.154888    1.738283    0.711320
  C      2.382526    0.793642   -0.279008
  C      2.685554   -0.596752    0.312875
  H      3.305006    1.373942   -0.321064
  H      1.992381    0.689390   -1.290498
  N      3.640843   -1.354823   -0.476373
  C      1.400401   -1.393491    0.447147
  H      3.078602   -0.489096    1.324147
  O      0.862634   -1.647871    1.491786
  O      0.901671   -1.716965   -0.746775
  S     -0.265786    2.325069   -0.678486
  C     -1.216577    0.796066   -0.979577
  C     -1.780842    0.124177    0.269646
  H     -0.594051    0.091105   -1.524069
  H     -2.025567    1.115105   -1.643789
  N     -2.786294    0.948820    0.936128
  C     -2.413360   -1.202626   -0.165297
  H     -0.955473   -0.132473    0.937399
  O     -1.767477   -2.120344   -0.615182
  O     -3.723065   -1.250987   -0.034063
  H     -0.011006   -2.085744   -0.647085
  H     -3.971955   -0.380070    0.357409
  H      4.538022   -0.890214   -0.534646
  H      3.292845   -1.533014   -1.411078
  H     -2.687303    0.910381    1.943569
  H     -2.705268    1.922310    0.665238

 Total Charge           Charge          ....    0
 Multiplicity           Mult            ....    1
 Number of Electrons    NEL             ....  126
 Basis Dimension        Dim             .... 1680

ORBITAL ENERGIES
----------------

  NO   OCC          E(Eh)            E(eV)
   0   2.0000     -91.995334     -2503.3203
   1   2.0000     -91.988804     -2503.1426
   2   2.0000     -20.613420      -560.9197
   3   2.0000     -20.593775      -560.3851
   4   2.0000     -20.555834      -559.3527
   5   2.0000     -20.541683      -558.9676
   6   2.0000     -15.588051      -424.1724
   7   2.0000     -15.560964      -423.4353
   8   2.0000     -11.395812      -310.0958
   9   2.0000     -11.378736      -309.6312
  10   2.0000     -11.302109      -307.5460
  11   2.0000     -11.290053      -307.2180
  12   2.0000     -11.289715      -307.2088
  13   2.0000     -11.280964      -306.9706
  14   2.0000      -8.995088      -244.7688
  15   2.0000      -8.989011      -244.6034
  16   2.0000      -6.676364      -181.6731
  17   2.0000      -6.675201      -181.6415
  18   2.0000      -6.674403      -181.6197
  19   2.0000      -6.670284      -181.5077
  20   2.0000      -6.669156      -181.4770
  21   2.0000      -6.668404      -181.4565
  22   2.0000      -1.479128       -40.2491
  23   2.0000      -1.460239       -39.7351
  24   2.0000      -1.380139       -37.5555
  25   2.0000      -1.356888       -36.9228
  26   2.0000      -1.236811       -33.6553
  27   2.0000      -1.214127       -33.0381
  28   2.0000      -1.107252       -30.1299
  29   2.0000      -1.060058       -28.8456
  30   2.0000      -0.998851       -27.1801
  31   2.0000      -0.944094       -25.6901
  32   2.0000      -0.896959       -24.4075
  33   2.0000      -0.834519       -22.7084
  34   2.0000      -0.819238       -22.2926
  35   2.0000      -0.797903       -21.7120
  36   2.0000      -0.747629       -20.3440
  37   2.0000      -0.724264       -19.7082
  38   2.0000      -0.715435       -19.4680
  39   2.0000      -0.700676       -19.0664
  40   2.0000      -0.688417       -18.7328
  41   2.0000      -0.662305       -18.0222
  42   2.0000      -0.661445       -17.9988
  43   2.0000      -0.645171       -17.5560
  44   2.0000      -0.636505       -17.3202
  45   2.0000      -0.625088       -17.0095
  46   2.0000      -0.602518       -16.3954
  47   2.0000      -0.591426       -16.0935
  48   2.0000      -0.586477       -15.9588
  49   2.0000      -0.580417       -15.7940
  50   2.0000      -0.560291       -15.2463
  51   2.0000      -0.543120       -14.7790
  52   2.0000      -0.536391       -14.5959
  53   2.0000      -0.507666       -13.8143
  54   2.0000      -0.494779       -13.4636
  55   2.0000      -0.485600       -13.2139
  56   2.0000      -0.474002       -12.8982
  57   2.0000      -0.455449       -12.3934
  58   2.0000      -0.454305       -12.3623
  59   2.0000      -0.434611       -11.8264
  60   2.0000      -0.421853       -11.4792
  61   2.0000      -0.379792       -10.3347
  62   2.0000      -0.363307        -9.8861
  63   0.0000       0.018993         0.5168
  64   0.0000       0.021850         0.5946
  65   0.0000       0.027783         0.7560
  66   0.0000       0.036156         0.9839
  67   0.0000       0.038807         1.0560

MULLIKEN ATOMIC CHARGES
-----------------------
   0 S :   -0.207656
   1 C :   -0.655404
   2 C :    0.261325
   3 H :    0.386926
   4 H :    0.287436
   5 N :   -0.887851
   6 C :    1.409877
   7 H :    0.435552
   8 O :   -1.019894
   9 O :   -0.828144
  10 S :   -0.308039
  11 C :   -0.615965
  12 C :    0.370786
  13 H :    0.450403
  14 H :    0.253519
  15 N :   -0.819406
  16 C :    1.537879
  17 H :    0.278835
  18 O :   -0.918627
  19 O :   -0.993961
  20 H :    0.321108
  21 H :    0.387219
  22 H :    0.209550
  23 H :    0.252762
  24 H :    0.232622
  25 H :    0.179149
Sum of atomic charges:    0.0000000

LOEWDIN ATOMIC CHARGES
----------------------
   0 S :    0.874135
   1 C :    0.111058
   2 C :   -0.189102
   3 H :   -0.360469
   4 H :   -0.403677
   5 N :    1.288209
   6 C :   -1.103088
   7 H :   -0.339363
   8 O :    0.750432
   9 O :    1.280092
  10 S :    0.883626
  11 C :    0.082065
  12 C :   -0.157790
  13 H :   -0.417039
  14 H :   -0.356046
  15 N :    1.293789
  16 C :   -0.941626
  17 H :   -0.421805
  18 O :    0.839117
  19 O :    1.280467
  20 H :   -1.079667
  21 H :   -0.939378
  22 H :   -0.491751
  23 H :   -0.520933
  24 H :   -0.441998
  25 H :   -0.519257

  Mayer bond orders larger than 0.100000
B(  0-S ,  1-C ) :   0.8314 B(  0-S , 10-S ) :   1.2657 B(  1-C ,  2-C ) :   0.9325
B(  1-C ,  3-H ) :   0.8162 B(  1-C ,  4-H ) :   0.9161 B(  1-C ,  5-N ) :   0.1357
B(  2-C ,  5-N ) :   0.5938 B(  2-C ,  6-C ) :   0.9917 B(  2-C ,  7-H ) :   0.8005
B(  2-C ,  8-O ) :   0.1334 B(  5-N , 22-H ) :   0.9703 B(  5-N , 23-H ) :   0.9178
B(  6-C ,  8-O ) :   0.9139 B(  6-C ,  9-O ) :   0.8157 B(  9-O , 20-H ) :   0.8538
B( 10-S , 11-C ) :   0.7624 B( 11-C , 12-C ) :   0.7054 B( 11-C , 13-H ) :   0.8436
B( 11-C , 14-H ) :   0.9629 B( 11-C , 15-N ) :   0.1040 B( 12-C , 15-N ) :   0.4116
B( 12-C , 16-C ) :   1.1051 B( 12-C , 17-H ) :   0.8583 B( 12-C , 18-O ) :   0.1543
B( 12-C , 19-O ) :   0.2917 B( 15-N , 21-H ) :   0.1502 B( 15-N , 24-H ) :   0.9879
B( 15-N , 25-H ) :   1.0818 B( 16-C , 18-O ) :   1.1844 B( 16-C , 19-O ) :   0.3920
B( 18-O , 19-O ) :   0.1597 B( 19-O , 21-H ) :   0.7111

MP2 TOTAL ENERGY:    -1440.910751222 Eh
FINAL SINGLE POINT ENERGY     -1440.910751221708

DIPOLE MOMENT
-------------
                                X             Y             Z
Electronic contribution:     -2.89015       1.49227       1.71213
Nuclear contribution   :      3.12678       0.35223      -2.10870
                        -----------------------------------------
Total Dipole Moment    :      0.23663       1.84450      -0.39658
                        -----------------------------------------
Magnitude (a.u.)       :      1.90144
Magnitude (Debye)      :      4.83306

Rotational constants in cm-1:     0.023982     0.014487     0.010502
Rotational constants in MHz :   718.967884   434.301364   314.835100

                             ****ORCA TERMINATED NORMALLY****
TOTAL RUN TIME: 0 days 2 hours 22 minutes 4 seconds 11 msec
