                         Program Version 4.2.1 -  RELEASE  -
|  1> %pal
|  2>  nprocs 32
|  3> end
|  4> !RI-MP2 aug-cc-pVQZ aug-cc-pVQZ/C TightSCF
|  5> %maxcore 4500
|  6> *xyzfile 0 1  06_27P.xyz
|  7>
|  8>
|  9>                          ****END OF INPUT****

CARTESIAN COORDINATES (ANGSTROEM)
---------------------------------
  C     -0.108499   -2.759245    0.227597
  C      0.663781   -1.813588    1.192889
  C      1.510873   -0.503658   -1.489653
  H     -1.029150   -3.078417    0.722265
  C      2.181618   -2.094358    1.221262
  H      2.690648   -1.300294    1.779086
  H      2.341165   -3.010996    1.800325
  H      1.741064    0.142004   -2.342302
  H      0.308556   -2.036506    2.204783
  C      2.868003   -2.281015   -0.127497
  H      3.907401   -2.571377    0.056155
  H      2.418295   -3.132192   -0.645747
  C      2.873036   -1.073144   -1.057316
  H      3.470837   -0.277790   -0.603301
  H      3.411172   -1.361409   -1.967040
  C      0.568654   -1.602266   -2.045798
  H      0.051548   -1.195471   -2.920011
  C     -0.523083   -2.145216   -1.116593
  H     -1.237502   -1.338130   -0.923018
  H     -1.088692   -2.898513   -1.674196
  H      1.176074   -2.431502   -2.424028
  H      0.472912   -3.671516    0.060750
  C      0.817963    0.386187   -0.432338
  H     -0.066185    0.853761   -0.892794
  Si     1.801795    1.956827    0.030537
  C      2.977721    1.695735    1.479919
  H      3.763153    0.969787    1.262893
  H      3.463674    2.639687    1.742247
  H      2.443372    1.348959    2.368886
  C      0.623817    3.342974    0.508503
  H      1.163297    4.294045    0.531313
  H     -0.195951    3.439838   -0.207144
  H      0.185238    3.193289    1.496577
  C      2.784378    2.536699   -1.464493
  H      2.124819    2.734309   -2.313510
  H      3.305556    3.468416   -1.228079
  H      3.532878    1.810517   -1.786287
  B      0.260908   -0.331206    0.823558
  C     -3.137885   -0.500676    1.327349
  C     -3.421731    0.294421    0.125203
  O     -2.646835    0.998814   -0.480589
  O     -4.700343    0.132320   -0.264566
  C     -5.085587    0.845019   -1.440499
  H     -4.475759    0.537325   -2.290134
  H     -6.129518    0.593332   -1.608002
  H     -4.969517    1.918648   -1.292010
  C     -1.994906   -0.437922    2.017772
  C     -0.809212    0.419923    1.741304
  H     -0.303256    0.625688    2.694488
  H     -1.115565    1.361847    1.295061
  H     -3.929498   -1.167632    1.643000
  H     -1.916964   -1.107529    2.870041

 Total Charge           Charge          ....    0
 Multiplicity           Mult            ....    1
 Number of Electrons    NEL             ....  168
 Basis Dimension        Dim             .... 3110

ORBITAL ENERGIES
----------------

  NO   OCC          E(Eh)            E(eV)
   0   2.0000     -68.742602     -1870.5813
   1   2.0000     -20.596014      -560.4460
   2   2.0000     -20.533210      -558.7371
   3   2.0000     -11.373973      -309.5015
   4   2.0000     -11.280524      -306.9587
   5   2.0000     -11.264081      -306.5112
   6   2.0000     -11.228390      -305.5400
   7   2.0000     -11.215373      -305.1858
   8   2.0000     -11.212508      -305.1078
   9   2.0000     -11.210586      -305.0556
  10   2.0000     -11.208211      -304.9909
  11   2.0000     -11.206936      -304.9562
  12   2.0000     -11.206291      -304.9387
  13   2.0000     -11.205736      -304.9236
  14   2.0000     -11.199610      -304.7569
  15   2.0000     -11.191683      -304.5412
  16   2.0000     -11.189874      -304.4919
  17   2.0000     -11.188135      -304.4446
  18   2.0000     -11.185468      -304.3721
  19   2.0000     -11.169632      -303.9411
  20   2.0000      -7.574736      -206.1190
  21   2.0000      -6.091011      -165.7448
  22   2.0000      -4.197511      -114.2201
  23   2.0000      -4.197414      -114.2175
  24   2.0000      -4.197328      -114.2151
  25   2.0000      -1.457521       -39.6612
  26   2.0000      -1.353215       -36.8228
  27   2.0000      -1.111110       -30.2348
  28   2.0000      -1.092767       -29.7357
  29   2.0000      -1.041720       -28.3466
  30   2.0000      -1.038450       -28.2577
  31   2.0000      -0.999042       -27.1853
  32   2.0000      -0.972904       -26.4741
  33   2.0000      -0.948860       -25.8198
  34   2.0000      -0.931445       -25.3459
  35   2.0000      -0.918703       -24.9992
  36   2.0000      -0.915274       -24.9059
  37   2.0000      -0.910630       -24.7795
  38   2.0000      -0.872471       -23.7411
  39   2.0000      -0.826785       -22.4980
  40   2.0000      -0.791929       -21.5495
  41   2.0000      -0.780589       -21.2409
  42   2.0000      -0.753654       -20.5080
  43   2.0000      -0.710928       -19.3453
  44   2.0000      -0.692363       -18.8402
  45   2.0000      -0.669630       -18.2215
  46   2.0000      -0.664157       -18.0726
  47   2.0000      -0.654510       -17.8101
  48   2.0000      -0.643768       -17.5178
  49   2.0000      -0.638705       -17.3800
  50   2.0000      -0.614429       -16.7195
  51   2.0000      -0.608537       -16.5591
  52   2.0000      -0.594184       -16.1686
  53   2.0000      -0.583514       -15.8782
  54   2.0000      -0.576536       -15.6883
  55   2.0000      -0.568993       -15.4831
  56   2.0000      -0.567408       -15.4399
  57   2.0000      -0.563059       -15.3216
  58   2.0000      -0.558556       -15.1991
  59   2.0000      -0.552647       -15.0383
  60   2.0000      -0.548269       -14.9192
  61   2.0000      -0.544070       -14.8049
  62   2.0000      -0.535998       -14.5852
  63   2.0000      -0.529973       -14.4213
  64   2.0000      -0.528882       -14.3916
  65   2.0000      -0.527811       -14.3625
  66   2.0000      -0.523640       -14.2490
  67   2.0000      -0.517209       -14.0740
  68   2.0000      -0.514872       -14.0104
  69   2.0000      -0.487253       -13.2588
  70   2.0000      -0.480952       -13.0874
  71   2.0000      -0.472382       -12.8542
  72   2.0000      -0.460934       -12.5426
  73   2.0000      -0.459427       -12.5016
  74   2.0000      -0.447460       -12.1760
  75   2.0000      -0.443210       -12.0604
  76   2.0000      -0.436057       -11.8657
  77   2.0000      -0.426826       -11.6145
  78   2.0000      -0.426472       -11.6049
  79   2.0000      -0.412284       -11.2188
  80   2.0000      -0.409031       -11.1303
  81   2.0000      -0.401136       -10.9155
  82   2.0000      -0.375875       -10.2281
  83   2.0000      -0.358700        -9.7607
  84   0.0000       0.019095         0.5196
  85   0.0000       0.025207         0.6859
  86   0.0000       0.025332         0.6893
  87   0.0000       0.026814         0.7297
  88   0.0000       0.033928         0.9232

MULLIKEN ATOMIC CHARGES
-----------------------
   0 C :   -0.571331
   1 C :    0.275539
   2 C :    0.924466
   3 H :    0.091434
   4 C :   -0.793084
   5 H :    0.228563
   6 H :    0.023717
   7 H :    0.420478
   8 H :    0.196625
   9 C :   -0.269703
  10 H :   -0.031715
  11 H :    0.093009
  12 C :   -0.703720
  13 H :    0.305724
  14 H :   -0.084375
  15 C :   -0.881278
  16 H :   -0.021125
  17 C :   -0.653889
  18 H :    0.423028
  19 H :    0.114434
  20 H :    0.054965
  21 H :    0.039911
  22 C :   -1.030309
  23 H :   -0.017932
  24 Si:    1.970379
  25 C :   -1.084717
  26 H :    0.205983
  27 H :    0.097262
  28 H :    0.273079
  29 C :   -0.986573
  30 H :    0.202676
  31 H :    0.295967
  32 H :    0.194985
  33 C :   -0.992770
  34 H :    0.220476
  35 H :    0.193764
  36 H :    0.263197
  37 B :    1.751038
  38 C :   -0.793260
  39 C :    2.003905
  40 O :   -1.181522
  41 O :   -0.922311
  42 C :   -0.877598
  43 H :    0.348761
  44 H :    0.496956
  45 H :    0.314197
  46 C :   -0.195048
  47 C :   -0.990829
  48 H :    0.296308
  49 H :    0.453993
  50 H :    0.170410
  51 H :    0.137859
Sum of atomic charges:    0.0000000

LOEWDIN ATOMIC CHARGES
----------------------
   0 C :    0.586767
   1 C :    0.346300
   2 C :    0.160440
   3 H :   -0.259466
   4 C :    0.573180
   5 H :   -0.267559
   6 H :   -0.253040
   7 H :   -0.309222
   8 H :   -0.297206
   9 C :    0.572511
  10 H :   -0.249471
  11 H :   -0.298243
  12 C :    0.558427
  13 H :   -0.314181
  14 H :   -0.246803
  15 C :    0.598813
  16 H :   -0.252992
  17 C :    0.578341
  18 H :   -0.311935
  19 H :   -0.245259
  20 H :   -0.270378
  21 H :   -0.269224
  22 C :    0.410668
  23 H :   -0.356113
  24 Si:    0.190228
  25 C :    1.024157
  26 H :   -0.339338
  27 H :   -0.321484
  28 H :   -0.326003
  29 C :    1.014895
  30 H :   -0.327156
  31 H :   -0.317821
  32 H :   -0.343646
  33 C :    1.015641
  34 H :   -0.319574
  35 H :   -0.327774
  36 H :   -0.339022
  37 B :   -0.720460
  38 C :    0.346261
  39 C :   -1.085874
  40 O :    0.769505
  41 O :    0.841479
  42 C :    0.571468
  43 H :   -0.317525
  44 H :   -0.323750
  45 H :   -0.315843
  46 C :    0.391226
  47 C :    0.666373
  48 H :   -0.256386
  49 H :   -0.387670
  50 H :   -0.358098
  51 H :   -0.288164

  Mayer bond orders larger than 0.100000
B(  0-C ,  1-C ) :   0.7280 B(  0-C ,  3-H ) :   1.1993 B(  0-C , 17-C ) :   0.8295
B(  0-C , 21-H ) :   1.3451 B(  0-C , 37-B ) :  -0.3474 B(  0-C , 47-C ) :  -0.1081
B(  1-C ,  5-H ) :  -0.1762 B(  1-C ,  8-H ) :   1.0608 B(  1-C ,  9-C ) :  -0.1891
B(  1-C , 21-H ) :  -0.2123 B(  1-C , 37-B ) :   0.6291 B(  2-C ,  7-H ) :   1.1064
B(  2-C ,  9-C ) :  -0.1474 B(  2-C , 12-C ) :   0.4606 B(  2-C , 13-H ) :  -0.1210
B(  2-C , 15-C ) :   0.3322 B(  2-C , 16-H ) :  -0.2579 B(  2-C , 17-C ) :   0.2110
B(  2-C , 20-H ) :  -0.3016 B(  2-C , 22-C ) :   0.7043 B(  2-C , 23-H ) :  -0.1013
B(  2-C , 24-Si) :  -0.4482 B(  2-C , 37-B ) :  -0.3584 B(  4-C ,  5-H ) :   1.1956
B(  4-C ,  6-H ) :   1.3331 B(  4-C ,  9-C ) :   0.6801 B(  4-C , 10-H ) :  -0.1101
B(  5-H , 37-B ) :  -0.1101 B(  7-H , 12-C ) :  -0.1411 B(  7-H , 15-C ) :  -0.1548
B(  7-H , 22-C ) :  -0.2888 B(  7-H , 24-Si) :   0.1227 B(  9-C , 10-H ) :   1.2702
B(  9-C , 11-H ) :   1.2689 B(  9-C , 12-C ) :   0.5293 B( 10-H , 12-C ) :  -0.1478
B( 12-C , 13-H ) :   1.0370 B( 12-C , 14-H ) :   1.3844 B( 12-C , 37-B ) :   0.1608
B( 13-H , 22-C ) :  -0.1092 B( 15-C , 16-H ) :   1.4610 B( 15-C , 17-C ) :   0.7374
B( 15-C , 18-H ) :  -0.1780 B( 15-C , 20-H ) :   1.4585 B( 15-C , 37-B ) :  -0.1067
B( 17-C , 18-H ) :   0.8925 B( 17-C , 19-H ) :   1.1240 B( 17-C , 40-O ) :  -0.1179
B( 18-H , 22-C ) :  -0.1656 B( 22-C , 23-H ) :   1.0062 B( 22-C , 24-Si) :   0.8649
B( 22-C , 29-C ) :   0.4361 B( 22-C , 37-B ) :   1.3947 B( 22-C , 40-O ) :  -0.2464
B( 24-Si, 27-H ) :  -0.1048 B( 24-Si, 29-C ) :   0.6795 B( 24-Si, 31-H ) :  -0.1308
B( 24-Si, 32-H ) :  -0.1415 B( 24-Si, 33-C ) :   0.4594 B( 24-Si, 34-H ) :  -0.1099
B( 24-Si, 35-H ) :  -0.1680 B( 24-Si, 36-H ) :  -0.1714 B( 24-Si, 37-B ) :   0.3204
B( 25-C , 26-H ) :   1.0173 B( 25-C , 27-H ) :   1.2024 B( 25-C , 28-H ) :   0.9764
B( 25-C , 37-B ) :   0.2883 B( 26-H , 28-H ) :   0.1036 B( 29-C , 30-H ) :   1.0997
B( 29-C , 31-H ) :   0.9568 B( 29-C , 32-H ) :   1.0384 B( 29-C , 33-C ) :   0.1053
B( 29-C , 37-B ) :  -0.2221 B( 31-H , 32-H ) :   0.1041 B( 33-C , 34-H ) :   1.0585
B( 33-C , 35-H ) :   1.1297 B( 33-C , 36-H ) :   1.0170 B( 37-B , 46-C ) :  -0.2871
B( 37-B , 47-C ) :  -0.4077 B( 37-B , 49-H ) :  -0.2992 B( 38-C , 39-C ) :   0.9681
B( 38-C , 40-O ) :   0.1049 B( 38-C , 41-O ) :   0.2564 B( 38-C , 46-C ) :   1.6659
B( 38-C , 50-H ) :   1.1095 B( 39-C , 40-O ) :   1.1242 B( 39-C , 41-O ) :   0.1280
B( 39-C , 42-C ) :  -0.1962 B( 40-O , 41-O ) :   0.1752 B( 40-O , 49-H ) :  -0.1275
B( 41-O , 42-C ) :   0.9771 B( 42-C , 43-H ) :   0.8820 B( 42-C , 44-H ) :   0.7805
B( 42-C , 45-H ) :   0.9163 B( 46-C , 47-C ) :   0.9665 B( 46-C , 48-H ) :  -0.1615
B( 46-C , 51-H ) :   1.2136 B( 47-C , 48-H ) :   1.1597 B( 47-C , 49-H ) :   1.0957
B( 47-C , 51-H ) :  -0.1149

MP2 TOTAL ENERGY:    -1129.394064903 Eh
FINAL SINGLE POINT ENERGY     -1129.394064902993

DIPOLE MOMENT
-------------
                                X             Y             Z
Electronic contribution:    -15.74473       0.24590       3.53516
Nuclear contribution   :     15.53089      -0.49635      -3.36494
                        -----------------------------------------
Total Dipole Moment    :     -0.21384      -0.25046       0.17022
                        -----------------------------------------
Magnitude (a.u.)       :      0.37071
Magnitude (Debye)      :      0.94228

Rotational constants in cm-1:     0.012648     0.007150     0.005981
Rotational constants in MHz :   379.165599   214.364856   179.312695

                             ****ORCA TERMINATED NORMALLY****
TOTAL RUN TIME: 0 days 17 hours 41 minutes 55 seconds 644 msec
