                         Program Version 4.2.1 -  RELEASE  -
|  1> %pal
|  2>  nprocs 32
|  3> end
|  4> !RI-MP2 aug-cc-pVQZ aug-cc-pVQZ/C TightSCF
|  5> %maxcore 4500
|  6> *xyzfile 0 1  06_27TS.xyz
|  7>
|  8>
|  9>                          ****END OF INPUT****

CARTESIAN COORDINATES (ANGSTROEM)
---------------------------------
  C      0.876355    2.583375   -0.894967
  C      0.850033    1.769986    0.428352
  C     -1.937579    0.984020   -0.609883
  H      1.895869    2.566938   -1.293271
  C      0.040803    2.498762    1.514073
  H      0.036064    1.899293    2.428328
  H      0.565928    3.427295    1.767318
  H     -2.888446    0.554342   -0.937317
  H      1.881497    1.768785    0.796280
  C     -1.394207    2.856118    1.150968
  H     -1.859222    3.336154    2.018027
  H     -1.393600    3.617195    0.365757
  C     -2.278117    1.688262    0.721701
  H     -2.301590    0.941883    1.522203
  H     -3.301400    2.069710    0.638760
  C     -1.539830    1.965297   -1.741344
  H     -1.996768    1.606821   -2.669286
  C     -0.044460    2.131755   -2.033180
  H      0.338509    1.187549   -2.431097
  H      0.056109    2.849737   -2.853807
  H     -1.993360    2.943289   -1.553490
  H      0.674471    3.635050   -0.662728
  C     -0.923342   -0.179800   -0.474080
  H     -0.584558   -0.410069   -1.497137
  Si    -1.771917   -1.835873   -0.127310
  C     -3.067110   -2.113838   -1.469154
  H     -3.481120   -3.122816   -1.390462
  H     -3.902278   -1.413977   -1.397599
  H     -2.633907   -2.012753   -2.467957
  C     -2.660433   -1.943647    1.528310
  H     -3.179908   -2.903266    1.602847
  H     -1.985840   -1.867923    2.381902
  H     -3.413328   -1.157794    1.623989
  C     -0.544562   -3.258715   -0.290722
  H      0.211852   -3.299436    0.494564
  H     -1.081658   -4.211158   -0.271984
  H     -0.017452   -3.195414   -1.246200
  B      0.453856    0.236993    0.203144
  C      2.952305   -0.693785    1.524411
  H      3.977545   -0.648801    1.858558
  C      2.717761   -0.777105    0.175422
  O      1.563984   -0.577535   -0.392595
  O      3.730690   -1.021942   -0.647527
  C      3.508220   -0.857972   -2.050847
  H      2.723933   -1.529580   -2.397672
  H      4.456479   -1.106148   -2.519761
  H      3.231502    0.171542   -2.279586
  C      1.870837   -0.400814    2.385328
  H      2.104352    0.171850    3.281524
  C      0.558592   -0.687251    2.110194
  H     -0.213346   -0.373610    2.799189
  H      0.342227   -1.569500    1.530206

 Total Charge           Charge          ....    0
 Multiplicity           Mult            ....    1
 Number of Electrons    NEL             ....  168
 Basis Dimension        Dim             .... 3110

ORBITAL ENERGIES
----------------

  NO   OCC          E(Eh)            E(eV)
   0   2.0000     -68.736429     -1870.4133
   1   2.0000     -20.607868      -560.7686
   2   2.0000     -20.576130      -559.9050
   3   2.0000     -11.388057      -309.8848
   4   2.0000     -11.292743      -307.2912
   5   2.0000     -11.277660      -306.8807
   6   2.0000     -11.214263      -305.1556
   7   2.0000     -11.207271      -304.9654
   8   2.0000     -11.206503      -304.9444
   9   2.0000     -11.204957      -304.9024
  10   2.0000     -11.204831      -304.8990
  11   2.0000     -11.203756      -304.8697
  12   2.0000     -11.202124      -304.8253
  13   2.0000     -11.201483      -304.8078
  14   2.0000     -11.201332      -304.8037
  15   2.0000     -11.187276      -304.4213
  16   2.0000     -11.186482      -304.3996
  17   2.0000     -11.184836      -304.3549
  18   2.0000     -11.182117      -304.2809
  19   2.0000     -11.169343      -303.9333
  20   2.0000      -7.616619      -207.2587
  21   2.0000      -6.085145      -165.5852
  22   2.0000      -4.191674      -114.0612
  23   2.0000      -4.191589      -114.0589
  24   2.0000      -4.191302      -114.0511
  25   2.0000      -1.476970       -40.1904
  26   2.0000      -1.381251       -37.5858
  27   2.0000      -1.106731       -30.1157
  28   2.0000      -1.102532       -30.0014
  29   2.0000      -1.039108       -28.2756
  30   2.0000      -1.034191       -28.1418
  31   2.0000      -1.017940       -27.6996
  32   2.0000      -0.969796       -26.3895
  33   2.0000      -0.944323       -25.6963
  34   2.0000      -0.937729       -25.5169
  35   2.0000      -0.916314       -24.9342
  36   2.0000      -0.912500       -24.8304
  37   2.0000      -0.907172       -24.6854
  38   2.0000      -0.873309       -23.7640
  39   2.0000      -0.838700       -22.8222
  40   2.0000      -0.813891       -22.1471
  41   2.0000      -0.787604       -21.4318
  42   2.0000      -0.765464       -20.8293
  43   2.0000      -0.733765       -19.9668
  44   2.0000      -0.708614       -19.2824
  45   2.0000      -0.685357       -18.6495
  46   2.0000      -0.676111       -18.3979
  47   2.0000      -0.655735       -17.8434
  48   2.0000      -0.654226       -17.8024
  49   2.0000      -0.635189       -17.2844
  50   2.0000      -0.620592       -16.8872
  51   2.0000      -0.608283       -16.5522
  52   2.0000      -0.597336       -16.2543
  53   2.0000      -0.591722       -16.1016
  54   2.0000      -0.583014       -15.8646
  55   2.0000      -0.579212       -15.7612
  56   2.0000      -0.567177       -15.4337
  57   2.0000      -0.563437       -15.3319
  58   2.0000      -0.557537       -15.1714
  59   2.0000      -0.555571       -15.1179
  60   2.0000      -0.551156       -14.9977
  61   2.0000      -0.545241       -14.8368
  62   2.0000      -0.542591       -14.7646
  63   2.0000      -0.534104       -14.5337
  64   2.0000      -0.530430       -14.4337
  65   2.0000      -0.527930       -14.3657
  66   2.0000      -0.522497       -14.2179
  67   2.0000      -0.513932       -13.9848
  68   2.0000      -0.510911       -13.9026
  69   2.0000      -0.498480       -13.5643
  70   2.0000      -0.483106       -13.1460
  71   2.0000      -0.478702       -13.0262
  72   2.0000      -0.471445       -12.8287
  73   2.0000      -0.463230       -12.6051
  74   2.0000      -0.450785       -12.2665
  75   2.0000      -0.444247       -12.0886
  76   2.0000      -0.426400       -11.6029
  77   2.0000      -0.421138       -11.4597
  78   2.0000      -0.417328       -11.3561
  79   2.0000      -0.407956       -11.1011
  80   2.0000      -0.405744       -11.0409
  81   2.0000      -0.397177       -10.8077
  82   2.0000      -0.375371       -10.2144
  83   2.0000      -0.292811        -7.9678
  84   0.0000       0.019037         0.5180
  85   0.0000       0.024451         0.6653
  86   0.0000       0.024842         0.6760
  87   0.0000       0.027358         0.7444
  88   0.0000       0.034446         0.9373

MULLIKEN ATOMIC CHARGES
-----------------------
   0 C :   -0.766151
   1 C :    0.870929
   2 C :    0.793016
   3 H :    0.027421
   4 C :   -0.752571
   5 H :    0.069148
   6 H :    0.028041
   7 H :    0.380960
   8 H :    0.305442
   9 C :   -0.225834
  10 H :    0.045525
  11 H :    0.123405
  12 C :   -0.552761
  13 H :    0.394534
  14 H :   -0.087904
  15 C :   -0.675307
  16 H :   -0.020534
  17 C :   -0.596798
  18 H :    0.219056
  19 H :    0.087989
  20 H :    0.067738
  21 H :   -0.035929
  22 C :   -1.864569
  23 H :   -0.098030
  24 Si:    2.104721
  25 C :   -0.917830
  26 H :    0.246459
  27 H :    0.245590
  28 H :    0.281746
  29 C :   -1.172141
  30 H :    0.195447
  31 H :    0.235342
  32 H :    0.181844
  33 C :   -1.013205
  34 H :    0.176041
  35 H :    0.199158
  36 H :    0.145203
  37 B :    2.546409
  38 C :   -0.751513
  39 H :    0.052590
  40 C :    1.890028
  41 O :   -1.139323
  42 O :   -1.180650
  43 C :   -0.720628
  44 H :    0.288593
  45 H :    0.394480
  46 H :    0.302471
  47 C :   -0.179799
  48 H :    0.112297
  49 C :   -0.939411
  50 H :    0.150612
  51 H :    0.528653
Sum of atomic charges:   -0.0000000

LOEWDIN ATOMIC CHARGES
----------------------
   0 C :    0.583709
   1 C :    0.318637
   2 C :    0.160659
   3 H :   -0.256731
   4 C :    0.555822
   5 H :   -0.293257
   6 H :   -0.248690
   7 H :   -0.334620
   8 H :   -0.324374
   9 C :    0.573575
  10 H :   -0.250045
  11 H :   -0.297954
  12 C :    0.575095
  13 H :   -0.284096
  14 H :   -0.249682
  15 C :    0.592703
  16 H :   -0.253306
  17 C :    0.575446
  18 H :   -0.292082
  19 H :   -0.252305
  20 H :   -0.274761
  21 H :   -0.272504
  22 C :    0.384827
  23 H :   -0.392381
  24 Si:    0.175538
  25 C :    1.010143
  26 H :   -0.330713
  27 H :   -0.333848
  28 H :   -0.321123
  29 C :    1.021410
  30 H :   -0.325317
  31 H :   -0.354136
  32 H :   -0.333436
  33 C :    1.024264
  34 H :   -0.340170
  35 H :   -0.324797
  36 H :   -0.321193
  37 B :   -1.185466
  38 C :    0.358796
  39 H :   -0.347157
  40 C :   -0.846530
  41 O :    1.026542
  42 O :    0.889713
  43 C :    0.614652
  44 H :   -0.307855
  45 H :   -0.315043
  46 H :   -0.301980
  47 C :    0.373664
  48 H :   -0.264332
  49 C :    0.735710
  50 H :   -0.286352
  51 H :   -0.434668

  Mayer bond orders larger than 0.100000
B(  0-C ,  1-C ) :   0.1926 B(  0-C ,  3-H ) :   1.3496 B(  0-C ,  8-H ) :  -0.1545
B(  0-C , 17-C ) :   0.7020 B(  0-C , 19-H ) :  -0.1054 B(  0-C , 21-H ) :   1.5158
B(  0-C , 37-B ) :  -0.2861 B(  1-C ,  2-C ) :   0.1140 B(  1-C ,  3-H ) :  -0.1335
B(  1-C ,  4-C ) :   0.1220 B(  1-C ,  5-H ) :  -0.2772 B(  1-C ,  6-H ) :  -0.1699
B(  1-C ,  8-H ) :   0.8976 B(  1-C ,  9-C ) :  -0.1594 B(  1-C , 21-H ) :  -0.3577
B(  1-C , 22-C ) :   0.3289 B(  1-C , 24-Si) :  -0.1032 B(  1-C , 37-B ) :   0.7859
B(  1-C , 41-O ) :  -0.4184 B(  2-C ,  7-H ) :   1.0350 B(  2-C , 12-C ) :   0.4817
B(  2-C , 13-H ) :  -0.1091 B(  2-C , 15-C ) :   0.3134 B(  2-C , 16-H ) :  -0.2733
B(  2-C , 17-C ) :   0.1151 B(  2-C , 20-H ) :  -0.2872 B(  2-C , 22-C ) :   0.2948
B(  2-C , 23-H ) :  -0.1512 B(  2-C , 24-Si) :  -0.3633 B(  2-C , 25-C ) :  -0.1278
B(  2-C , 37-B ) :  -0.1330 B(  2-C , 41-O ) :   0.1049 B(  3-H , 37-B ) :  -0.1027
B(  4-C ,  5-H ) :   1.3672 B(  4-C ,  6-H ) :   1.3210 B(  4-C ,  9-C ) :   0.7159
B(  4-C , 10-H ) :  -0.1123 B(  4-C , 12-C ) :  -0.1939 B(  7-H , 15-C ) :  -0.2141
B(  7-H , 22-C ) :  -0.3424 B(  7-H , 24-Si) :   0.1271 B(  7-H , 25-C ) :   0.1150
B(  8-H , 38-C ) :   0.3186 B(  9-C , 10-H ) :   1.1852 B(  9-C , 11-H ) :   1.2186
B(  9-C , 12-C ) :   0.5113 B(  9-C , 37-B ) :   0.1323 B( 10-H , 12-C ) :  -0.1380
B( 12-C , 13-H ) :   1.0216 B( 12-C , 14-H ) :   1.3815 B( 12-C , 37-B ) :  -0.2302
B( 15-C , 16-H ) :   1.3616 B( 15-C , 17-C ) :   0.7722 B( 15-C , 20-H ) :   1.4364
B( 17-C , 18-H ) :   1.1044 B( 17-C , 19-H ) :   1.1964 B( 17-C , 37-B ) :  -0.1626
B( 18-H , 37-B ) :  -0.1370 B( 22-C , 23-H ) :   1.2401 B( 22-C , 24-Si) :   1.2473
B( 22-C , 25-C ) :   0.3032 B( 22-C , 29-C ) :   0.7314 B( 22-C , 33-C ) :   0.1401
B( 22-C , 37-B ) :   0.8458 B( 22-C , 47-C ) :  -0.2236 B( 22-C , 49-C ) :  -0.2318
B( 22-C , 50-H ) :   0.1071 B( 22-C , 51-H ) :   0.1137 B( 23-H , 37-B ) :  -0.1832
B( 24-Si, 25-C ) :   0.6741 B( 24-Si, 26-H ) :  -0.1487 B( 24-Si, 27-H ) :  -0.1154
B( 24-Si, 28-H ) :  -0.1393 B( 24-Si, 29-C ) :  -0.1137 B( 24-Si, 30-H ) :  -0.1881
B( 24-Si, 32-H ) :  -0.1170 B( 24-Si, 33-C ) :   0.6806 B( 24-Si, 36-H ) :  -0.1426
B( 24-Si, 37-B ) :  -0.4928 B( 25-C , 26-H ) :   1.0367 B( 25-C , 27-H ) :   1.0310
B( 25-C , 28-H ) :   1.0146 B( 25-C , 37-B ) :   0.1218 B( 29-C , 30-H ) :   1.1470
B( 29-C , 31-H ) :   1.0251 B( 29-C , 32-H ) :   1.1094 B( 31-H , 32-H ) :   0.1045
B( 33-C , 34-H ) :   1.0545 B( 33-C , 35-H ) :   1.1150 B( 33-C , 36-H ) :   1.1419
B( 33-C , 37-B ) :  -0.2405 B( 34-H , 36-H ) :   0.1221 B( 37-B , 40-C ) :   0.1030
B( 37-B , 41-O ) :  -0.1371 B( 37-B , 42-O ) :   0.2683 B( 37-B , 43-C ) :   0.1511
B( 37-B , 47-C ) :   0.2042 B( 37-B , 49-C ) :  -0.2214 B( 37-B , 50-H ) :  -0.1098
B( 37-B , 51-H ) :  -0.4620 B( 38-C , 39-H ) :   1.2953 B( 38-C , 40-C ) :   1.3529
B( 38-C , 41-O ) :  -0.2154 B( 38-C , 47-C ) :   0.8982 B( 38-C , 48-H ) :  -0.1260
B( 38-C , 51-H ) :  -0.1417 B( 39-H , 40-C ) :  -0.1430 B( 40-C , 41-O ) :   1.1960
B( 40-C , 42-O ) :  -0.5684 B( 40-C , 43-C ) :  -0.1683 B( 40-C , 47-C ) :  -0.3101
B( 41-O , 42-O ) :   0.4068 B( 41-O , 43-C ) :  -0.1103 B( 41-O , 46-H ) :  -0.1171
B( 41-O , 51-H ) :   0.1140 B( 42-O , 43-C ) :   0.9060 B( 43-C , 44-H ) :   0.8716
B( 43-C , 45-H ) :   0.9079 B( 43-C , 46-H ) :   0.9021 B( 44-H , 46-H ) :   0.1087
B( 47-C , 48-H ) :   1.3191 B( 47-C , 49-C ) :   1.6103 B( 47-C , 50-H ) :  -0.1939
B( 47-C , 51-H ) :  -0.3494 B( 48-H , 49-C ) :  -0.1298 B( 49-C , 50-H ) :   1.2372
B( 49-C , 51-H ) :   0.8767

MP2 TOTAL ENERGY:    -1129.373969394 Eh
FINAL SINGLE POINT ENERGY     -1129.373969393756

DIPOLE MOMENT
-------------
                                X             Y             Z
Electronic contribution:     14.76812      -3.80454       2.75025
Nuclear contribution   :    -14.32319       3.93504      -3.02021
                        -----------------------------------------
Total Dipole Moment    :      0.44493       0.13050      -0.26995
                        -----------------------------------------
Magnitude (a.u.)       :      0.53653
Magnitude (Debye)      :      1.36376

Rotational constants in cm-1:     0.011189     0.009231     0.007424
Rotational constants in MHz :   335.444292   276.735136   222.560887

                             ****ORCA TERMINATED NORMALLY****
TOTAL RUN TIME: 0 days 22 hours 30 minutes 9 seconds 501 msec
