                         Program Version 4.2.1 -  RELEASE  -
|  1> %pal
|  2>  nprocs 32
|  3> end
|  4> !RI-MP2 aug-cc-pVQZ aug-cc-pVQZ/C TightSCF
|  5> %maxcore 4500
|  6> *xyzfile 0 1  07_5TS.xyz
|  7>
|  8>
|  9>                          ****END OF INPUT****

CARTESIAN COORDINATES (ANGSTROEM)
---------------------------------
  C     -2.175398   -1.198349   -0.402162
  C     -3.544157   -1.092293   -0.214017
  C     -4.109364    0.121710    0.158172
  C     -3.288391    1.225240    0.351229
  C     -1.915264    1.111979    0.193798
  C     -1.330898   -0.104889   -0.180432
  H     -1.737402   -2.135495   -0.724833
  H     -4.177663   -1.956974   -0.375422
  H     -5.181557    0.209001    0.286636
  H     -3.720483    2.179079    0.632133
  H     -1.279245    1.976168    0.347310
  C      0.111113   -0.242377   -0.379767
  C      1.005383    0.214487    0.526270
  H      0.827599    0.675176    1.496246
  H      1.582868   -0.664949   -1.264718
  P      2.570685   -0.125993   -0.215875
  C      3.658201   -1.220939    0.765284
  H      3.929513   -0.748502    1.711300
  H      3.126646   -2.148853    0.974714
  H      4.568881   -1.447660    0.209028
  C      3.601813    1.350644   -0.528986
  H      3.034750    2.052470   -1.140033
  H      3.874362    1.838783    0.408587
  H      4.513232    1.070358   -1.059160

 Total Charge           Charge          ....    0
 Multiplicity           Mult            ....    1
 Number of Electrons    NEL             ....   88
 Basis Dimension        Dim             .... 1482

ORBITAL ENERGIES
----------------

  NO   OCC          E(Eh)            E(eV)
   0   2.0000     -79.987845     -2176.5799
   1   2.0000     -11.250896      -306.1524
   2   2.0000     -11.250730      -306.1479
   3   2.0000     -11.213913      -305.1461
   4   2.0000     -11.213121      -305.1245
   5   2.0000     -11.212488      -305.1073
   6   2.0000     -11.209268      -305.0197
   7   2.0000     -11.207776      -304.9791
   8   2.0000     -11.205839      -304.9264
   9   2.0000     -11.197386      -304.6964
  10   2.0000     -11.190091      -304.4978
  11   2.0000      -7.527457      -204.8325
  12   2.0000      -5.422391      -147.5508
  13   2.0000      -5.422189      -147.5453
  14   2.0000      -5.422105      -147.5430
  15   2.0000      -1.134821       -30.8801
  16   2.0000      -1.066992       -29.0343
  17   2.0000      -1.024861       -27.8879
  18   2.0000      -0.993462       -27.0335
  19   2.0000      -0.971718       -26.4418
  20   2.0000      -0.968484       -26.3538
  21   2.0000      -0.831133       -22.6163
  22   2.0000      -0.803935       -21.8762
  23   2.0000      -0.760870       -20.7043
  24   2.0000      -0.709541       -19.3076
  25   2.0000      -0.672761       -18.3067
  26   2.0000      -0.631775       -17.1915
  27   2.0000      -0.616085       -16.7645
  28   2.0000      -0.607098       -16.5200
  29   2.0000      -0.602828       -16.4038
  30   2.0000      -0.592295       -16.1172
  31   2.0000      -0.585302       -15.9269
  32   2.0000      -0.578893       -15.7525
  33   2.0000      -0.564244       -15.3538
  34   2.0000      -0.519293       -14.1307
  35   2.0000      -0.510772       -13.8988
  36   2.0000      -0.488265       -13.2864
  37   2.0000      -0.477885       -13.0039
  38   2.0000      -0.467570       -12.7232
  39   2.0000      -0.451698       -12.2913
  40   2.0000      -0.366392        -9.9700
  41   2.0000      -0.322817        -8.7843
  42   2.0000      -0.317672        -8.6443
  43   2.0000      -0.259512        -7.0617
  44   0.0000       0.015677         0.4266
  45   0.0000       0.026727         0.7273
  46   0.0000       0.028064         0.7637
  47   0.0000       0.032334         0.8798
  48   0.0000       0.038289         1.0419

MULLIKEN ATOMIC CHARGES
-----------------------
   0 C :   -0.449657
   1 C :   -0.262572
   2 C :   -0.394937
   3 C :   -0.282316
   4 C :   -0.478873
   5 C :    0.403062
   6 H :    0.287824
   7 H :    0.244412
   8 H :    0.328024
   9 H :    0.249384
  10 H :    0.291866
  11 C :    0.034200
  12 C :   -1.220513
  13 H :    0.337837
  14 H :   -0.107894
  15 P :    1.494742
  16 C :   -1.233257
  17 H :    0.316190
  18 H :    0.361521
  19 H :    0.317561
  20 C :   -1.248830
  21 H :    0.360105
  22 H :    0.326491
  23 H :    0.325633
Sum of atomic charges:   -0.0000000

LOEWDIN ATOMIC CHARGES
----------------------
   0 C :    0.299433
   1 C :    0.325028
   2 C :    0.321641
   3 C :    0.328313
   4 C :    0.298421
   5 C :   -0.195984
   6 H :   -0.329321
   7 H :   -0.325905
   8 H :   -0.329424
   9 H :   -0.325555
  10 H :   -0.331584
  11 C :    0.095093
  12 C :    0.182336
  13 H :   -0.373069
  14 H :   -0.388293
  15 P :    0.977429
  16 C :    0.898011
  17 H :   -0.331483
  18 H :   -0.340234
  19 H :   -0.340609
  20 C :    0.897518
  21 H :   -0.340060
  22 H :   -0.331341
  23 H :   -0.340361

  Mayer bond orders larger than 0.100000
B(  0-C ,  1-C ) :   1.3552 B(  0-C ,  2-C ) :   0.1040 B(  0-C ,  3-C ) :   0.1600
B(  0-C ,  4-C ) :   0.1398 B(  0-C ,  5-C ) :   1.1464 B(  0-C ,  6-H ) :   0.9568
B(  0-C ,  7-H ) :  -0.1308 B(  0-C , 11-C ) :  -0.4662 B(  1-C ,  2-C ) :   1.1319
B(  1-C ,  3-C ) :  -0.1233 B(  1-C ,  4-C ) :   0.1346 B(  1-C ,  5-C ) :  -0.2999
B(  1-C ,  7-H ) :   1.1265 B(  2-C ,  3-C ) :   1.1723 B(  2-C ,  7-H ) :  -0.1052
B(  2-C ,  8-H ) :   0.9922 B(  3-C ,  4-C ) :   1.2989 B(  3-C ,  5-C ) :  -0.3049
B(  3-C ,  9-H ) :   1.1105 B(  4-C ,  5-C ) :   1.0996 B(  4-C ,  9-H ) :  -0.1208
B(  4-C , 10-H ) :   0.9606 B(  4-C , 11-C ) :  -0.2465 B(  5-C , 11-C ) :   0.8011
B(  5-C , 12-C ) :  -0.2225 B( 11-C , 12-C ) :   1.2697 B( 11-C , 13-H ) :   0.1111
B( 11-C , 14-H ) :   0.3296 B( 11-C , 15-P ) :  -0.2906 B( 12-C , 13-H ) :   0.9263
B( 12-C , 15-P ) :   0.9193 B( 14-H , 15-P ) :   0.8497 B( 15-P , 16-C ) :   0.9106
B( 15-P , 20-C ) :   0.9065 B( 16-C , 17-H ) :   0.8898 B( 16-C , 18-H ) :   0.8618
B( 16-C , 19-H ) :   0.9343 B( 20-C , 21-H ) :   0.8735 B( 20-C , 22-H ) :   0.8674
B( 20-C , 23-H ) :   0.9267

MP2 TOTAL ENERGY:     -728.941385838 Eh
FINAL SINGLE POINT ENERGY      -728.941385838017

DIPOLE MOMENT
-------------
                                X             Y             Z
Electronic contribution:     -4.72771      -0.80625      -1.34216
Nuclear contribution   :      6.95883       1.02531       1.71864
                        -----------------------------------------
Total Dipole Moment    :      2.23112       0.21907       0.37647
                        -----------------------------------------
Magnitude (a.u.)       :      2.27324
Magnitude (Debye)      :      5.77812

Rotational constants in cm-1:     0.096716     0.012669     0.011727
Rotational constants in MHz :  2899.466034   379.803134   351.560880

                             ****ORCA TERMINATED NORMALLY****
TOTAL RUN TIME: 0 days 1 hours 34 minutes 24 seconds 235 msec
