                         Program Version 4.2.1 -  RELEASE  -
|  1> %pal
|  2>  nprocs 32
|  3> end
|  4> !RI-MP2 aug-cc-pVQZ aug-cc-pVQZ/C TightSCF
|  5> %maxcore 4500
|  6> *xyzfile -1 1  08_15P2.xyz
|  7>
|  8>
|  9>                          ****END OF INPUT****

CARTESIAN COORDINATES (ANGSTROEM)
---------------------------------
  C      1.325058   -0.575468    0.340354
  C      0.836765    0.579561   -0.551145
  C     -0.624306    0.929152   -0.333517
  C     -1.457297   -0.348297   -0.522301
  O     -0.989601   -1.391388    0.308922
  C      0.381480   -1.751166    0.058005
  H      0.499348   -2.082343   -0.985031
  O      2.640047   -0.777468    0.140181
  H      1.091094   -0.281329    1.400184
  O      1.699951    1.678079   -0.337782
  H      0.945280    0.231784   -1.592841
  H      2.529714    1.187606   -0.134936
  O     -2.791153   -0.101305   -0.213993
  H     -1.412655   -0.678852   -1.569256
  H     -2.752285    0.542746    0.512516
  N     -0.961589    1.492376    0.979519
  H     -0.958712    1.652118   -1.086333
  H     -0.537896    0.908818    1.694605
  H     -0.516482    2.399044    1.061660
  H      0.599559   -2.592262    0.715805

 Total Charge           Charge          ....   -1
 Multiplicity           Mult            ....    1
 Number of Electrons    NEL             ....   80
 Basis Dimension        Dim             .... 1260

ORBITAL ENERGIES
----------------

  NO   OCC          E(Eh)            E(eV)
   0   2.0000     -20.428001      -555.8742
   1   2.0000     -20.414028      -555.4939
   2   2.0000     -20.388675      -554.8041
   3   2.0000     -20.256310      -551.2022
   4   2.0000     -15.422336      -419.6631
   5   2.0000     -11.197164      -304.6903
   6   2.0000     -11.121072      -302.6198
   7   2.0000     -11.113686      -302.4188
   8   2.0000     -11.107552      -302.2518
   9   2.0000     -11.081841      -301.5522
  10   2.0000      -1.278122       -34.7795
  11   2.0000      -1.205199       -32.7951
  12   2.0000      -1.199254       -32.6334
  13   2.0000      -1.062676       -28.9169
  14   2.0000      -1.060797       -28.8658
  15   2.0000      -0.870828       -23.6964
  16   2.0000      -0.832270       -22.6472
  17   2.0000      -0.714601       -19.4453
  18   2.0000      -0.692132       -18.8339
  19   2.0000      -0.629405       -17.1270
  20   2.0000      -0.571306       -15.5460
  21   2.0000      -0.538614       -14.6564
  22   2.0000      -0.529651       -14.4125
  23   2.0000      -0.521222       -14.1832
  24   2.0000      -0.494962       -13.4686
  25   2.0000      -0.477672       -12.9981
  26   2.0000      -0.457057       -12.4372
  27   2.0000      -0.445180       -12.1140
  28   2.0000      -0.416782       -11.3412
  29   2.0000      -0.396607       -10.7922
  30   2.0000      -0.383830       -10.4446
  31   2.0000      -0.358555        -9.7568
  32   2.0000      -0.347590        -9.4584
  33   2.0000      -0.324536        -8.8311
  34   2.0000      -0.318281        -8.6609
  35   2.0000      -0.295376        -8.0376
  36   2.0000      -0.291405        -7.9295
  37   2.0000      -0.264355        -7.1935
  38   2.0000      -0.170206        -4.6315
  39   2.0000      -0.165018        -4.4904
  40   0.0000       0.106668         2.9026
  41   0.0000       0.111470         3.0332
  42   0.0000       0.116270         3.1639
  43   0.0000       0.123008         3.3472
  44   0.0000       0.125423         3.4129

MULLIKEN ATOMIC CHARGES
-----------------------
   0 C :    0.443496
   1 C :    0.609759
   2 C :   -0.235029
   3 C :    1.016261
   4 O :   -0.987252
   5 C :   -0.270939
   6 H :    0.183071
   7 O :   -1.239380
   8 H :    0.130362
   9 O :   -1.099133
  10 H :    0.229738
  11 H :    0.309854
  12 O :   -1.102183
  13 H :    0.183110
  14 H :    0.374620
  15 N :   -0.769909
  16 H :    0.403342
  17 H :    0.249118
  18 H :    0.168519
  19 H :    0.402574
Sum of atomic charges:   -1.0000000

LOEWDIN ATOMIC CHARGES
----------------------
   0 C :   -0.635383
   1 C :   -0.326271
   2 C :   -0.072388
   3 C :   -0.624729
   4 O :    0.886290
   5 C :    0.134741
   6 H :   -0.308453
   7 O :    0.605198
   8 H :   -0.359056
   9 O :    1.267470
  10 H :   -0.310585
  11 H :   -0.975879
  12 O :    1.271526
  13 H :   -0.326730
  14 H :   -0.906269
  15 N :    1.302903
  16 H :   -0.283408
  17 H :   -0.530060
  18 H :   -0.488548
  19 H :   -0.320370

  Mayer bond orders larger than 0.100000
B(  0-C ,  1-C ) :   0.8015 B(  0-C ,  5-C ) :   1.0105 B(  0-C ,  7-O ) :   0.5778
B(  0-C ,  8-H ) :   1.0077 B(  0-C ,  9-O ) :   0.1600 B(  1-C ,  2-C ) :   0.8440
B(  1-C ,  7-O ) :   0.1555 B(  1-C , 10-H ) :   1.0002 B(  2-C ,  3-C ) :   0.8945
B(  2-C ,  9-O ) :   0.2071 B(  2-C , 12-O ) :   0.1401 B(  2-C , 15-N ) :   0.7094
B(  2-C , 16-H ) :   0.7706 B(  3-C ,  4-O ) :   0.5182 B(  3-C , 12-O ) :   0.3591
B(  3-C , 13-H ) :   1.0814 B(  4-O ,  5-C ) :   0.7157 B(  5-C ,  6-H ) :   0.9618
B(  5-C ,  7-O ) :   0.1081 B(  5-C , 19-H ) :   0.8299 B(  7-O , 11-H ) :   0.1074
B(  9-O , 11-H ) :   0.8884 B( 12-O , 14-H ) :   0.7996 B( 14-H , 15-N ) :   0.1010
B( 15-N , 17-H ) :   0.9464 B( 15-N , 18-H ) :   1.0161

MP2 TOTAL ENERGY:     -551.477692696 Eh
FINAL SINGLE POINT ENERGY      -551.477692696429

DIPOLE MOMENT
-------------
                                X             Y             Z
Electronic contribution:     -1.54999      -0.40466      -0.14554
Nuclear contribution   :     -0.51065       1.28875       0.02053
                        -----------------------------------------
Total Dipole Moment    :     -2.06064       0.88409      -0.12500
                        -----------------------------------------
Magnitude (a.u.)       :      2.24577
Magnitude (Debye)      :      5.70830

Rotational constants in cm-1:     0.070816     0.038816     0.028603
Rotational constants in MHz :  2123.020088  1163.686131   857.511219

                             ****ORCA TERMINATED NORMALLY****
TOTAL RUN TIME: 0 days 0 hours 51 minutes 46 seconds 112 msec
