                         Program Version 4.2.1 -  RELEASE  -
|  1> %pal
|  2>  nprocs 32
|  3> end
|  4> !RI-MP2 aug-cc-pVQZ aug-cc-pVQZ/C TightSCF
|  5> %maxcore 4500
|  6> *xyzfile 0 2  04_17TS.xyz
|  7>
|  8>
|  9>                          ****END OF INPUT****

CARTESIAN COORDINATES (ANGSTROEM)
---------------------------------
  N      1.762185   -0.464392    1.058765
  H      1.462405   -0.497280    2.021498
  C      0.756336   -0.449213    0.000495
  H      1.197992   -0.960905   -0.855250
  C     -0.488677   -1.203269    0.445299
  C      0.494814    1.010126   -0.402890
  H     -0.185339   -2.174124    0.839964
  H     -1.006247   -0.671926    1.252842
  S     -1.679780   -1.481101   -0.884872
  O     -0.433607    1.675469    0.043520
  H     -2.624486   -0.252108   -0.469721
  N      1.401294    1.517311   -1.246296
  H      2.246960    0.998975   -1.452285
  H      1.342682    2.497525   -1.476435
  C      3.084074   -0.403159    0.784002
  H      3.721673   -0.475902    1.677874
  O      3.540264   -0.280845   -0.335885
  O     -3.294489    0.519918    0.093306
  O     -2.645451    0.929112    1.212988
  H     -1.836509    1.386806    0.859318

 Total Charge           Charge          ....    0
 Multiplicity           Mult            ....    2
 Number of Electrons    NEL             ....   95
 Basis Dimension        Dim             .... 1298

ORBITAL ENERGIES
----------------
                 SPIN UP ORBITALS
  NO   OCC          E(Eh)            E(eV)
   0   1.0000     -91.966694     -2502.5410
   1   1.0000     -20.661656      -562.2322
   2   1.0000     -20.620289      -561.1066
   3   1.0000     -20.558117      -559.4148
   4   1.0000     -20.552073      -559.2503
   5   1.0000     -15.627775      -425.2534
   6   1.0000     -15.601862      -424.5483
   7   1.0000     -11.383459      -309.7597
   8   1.0000     -11.383398      -309.7580
   9   1.0000     -11.315569      -307.9123
  10   1.0000     -11.282638      -307.0162
  11   1.0000      -8.968941      -244.0573
  12   1.0000      -6.660013      -181.2282
  13   1.0000      -6.647573      -180.8897
  14   1.0000      -6.646374      -180.8570
  15   1.0000      -1.528534       -41.5935
  16   1.0000      -1.425133       -38.7798
  17   1.0000      -1.415809       -38.5261
  18   1.0000      -1.280024       -34.8312
  19   1.0000      -1.239085       -33.7172
  20   1.0000      -1.193041       -32.4643
  21   1.0000      -1.100162       -29.9369
  22   1.0000      -0.994964       -27.0743
  23   1.0000      -0.885722       -24.1017
  24   1.0000      -0.858387       -23.3579
  25   1.0000      -0.821126       -22.3440
  26   1.0000      -0.785784       -21.3823
  27   1.0000      -0.761593       -20.7240
  28   1.0000      -0.749804       -20.4032
  29   1.0000      -0.727723       -19.8024
  30   1.0000      -0.703424       -19.1411
  31   1.0000      -0.690779       -18.7970
  32   1.0000      -0.646656       -17.5964
  33   1.0000      -0.642408       -17.4808
  34   1.0000      -0.638323       -17.3697
  35   1.0000      -0.610930       -16.6242
  36   1.0000      -0.586682       -15.9644
  37   1.0000      -0.582314       -15.8456
  38   1.0000      -0.561137       -15.2693
  39   1.0000      -0.539518       -14.6810
  40   1.0000      -0.508384       -13.8338
  41   1.0000      -0.487501       -13.2656
  42   1.0000      -0.478259       -13.0141
  43   1.0000      -0.465511       -12.6672
  44   1.0000      -0.444669       -12.1001
  45   1.0000      -0.428277       -11.6540
  46   1.0000      -0.417734       -11.3671
  47   1.0000      -0.374193       -10.1823
  48   0.0000       0.013467         0.3665
  49   0.0000       0.025652         0.6980
  50   0.0000       0.030813         0.8385
  51   0.0000       0.034245         0.9318
  52   0.0000       0.048061         1.3078

                 SPIN DOWN ORBITALS
  NO   OCC          E(Eh)            E(eV)
   0   1.0000     -91.960723     -2502.3785
   1   1.0000     -20.634383      -561.4901
   2   1.0000     -20.616254      -560.9968
   3   1.0000     -20.558100      -559.4143
   4   1.0000     -20.552060      -559.2500
   5   1.0000     -15.627789      -425.2538
   6   1.0000     -15.601868      -424.5484
   7   1.0000     -11.383467      -309.7599
   8   1.0000     -11.383422      -309.7587
   9   1.0000     -11.315500      -307.9104
  10   1.0000     -11.283046      -307.0273
  11   1.0000      -8.962435      -243.8802
  12   1.0000      -6.644735      -180.8124
  13   1.0000      -6.642913      -180.7628
  14   1.0000      -6.632512      -180.4798
  15   1.0000      -1.483611       -40.3711
  16   1.0000      -1.425005       -38.7764
  17   1.0000      -1.415524       -38.5184
  18   1.0000      -1.279958       -34.8294
  19   1.0000      -1.238863       -33.7112
  20   1.0000      -1.136478       -30.9251
  21   1.0000      -1.091583       -29.7035
  22   1.0000      -0.975391       -26.5418
  23   1.0000      -0.876460       -23.8497
  24   1.0000      -0.838156       -22.8074
  25   1.0000      -0.820239       -22.3198
  26   1.0000      -0.775340       -21.0981
  27   1.0000      -0.747644       -20.3444
  28   1.0000      -0.739793       -20.1308
  29   1.0000      -0.715071       -19.4581
  30   1.0000      -0.689539       -18.7633
  31   1.0000      -0.649216       -17.6661
  32   1.0000      -0.642854       -17.4930
  33   1.0000      -0.639089       -17.3905
  34   1.0000      -0.613359       -16.6904
  35   1.0000      -0.588251       -16.0071
  36   1.0000      -0.581568       -15.8253
  37   1.0000      -0.578904       -15.7528
  38   1.0000      -0.549133       -14.9427
  39   1.0000      -0.508473       -13.8362
  40   1.0000      -0.494055       -13.4439
  41   1.0000      -0.475359       -12.9352
  42   1.0000      -0.463263       -12.6060
  43   1.0000      -0.444324       -12.0907
  44   1.0000      -0.427268       -11.6265
  45   1.0000      -0.411223       -11.1899
  46   1.0000      -0.363067        -9.8795
  47   0.0000       0.004355         0.1185
  48   0.0000       0.013521         0.3679
  49   0.0000       0.025667         0.6984
  50   0.0000       0.031730         0.8634
  51   0.0000       0.034289         0.9331

MULLIKEN ATOMIC CHARGES AND SPIN POPULATIONS
--------------------------------------------
   0 N :   -0.558747    0.000409
   1 H :    0.156825   -0.000228
   2 C :    0.503336    0.022118
   3 H :    0.300664    0.001353
   4 C :   -0.616967   -0.107549
   5 C :    1.118469   -0.002660
   6 H :    0.282059    0.002698
   7 H :    0.358873    0.022870
   8 S :   -0.131815    0.716625
   9 O :   -0.940992    0.002013
  10 H :    0.230566   -0.315854
  11 N :   -0.866770    0.000448
  12 H :    0.355105   -0.000190
  13 H :    0.213402    0.000073
  14 C :    0.299814   -0.000061
  15 H :    0.510790   -0.000069
  16 O :   -0.832904    0.000366
  17 O :   -0.330805    0.636577
  18 O :   -0.443515    0.027883
  19 H :    0.392612   -0.006822
Sum of atomic charges         :    0.0000000

LOEWDIN ATOMIC CHARGES AND SPIN POPULATIONS
-------------------------------------------
   0 N :    0.836271    0.000278
   1 H :   -0.475721    0.000086
   2 C :   -0.160279    0.006791
   3 H :   -0.362395    0.003360
   4 C :    0.061672    0.082386
   5 C :   -0.740575   -0.000531
   6 H :   -0.365002    0.011774
   7 H :   -0.437737    0.004766
   8 S :    1.496227    0.332265
   9 O :    0.887527   -0.000826
  10 H :   -1.347425    0.047426
  11 N :    1.266411   -0.000206
  12 H :   -0.605869   -0.000030
  13 H :   -0.465259   -0.000037
  14 C :   -0.379612   -0.000028
  15 H :   -0.339344   -0.000034
  16 O :    0.740802    0.000241
  17 O :    0.752379    0.424228
  18 O :    0.884398    0.089345
  19 H :   -1.246468   -0.001252

  Mayer bond orders larger than 0.100000
B(  0-N ,  1-H ) :   1.0745 B(  0-N ,  2-C ) :   0.5836 B(  0-N ,  5-C ) :   0.1141
B(  0-N , 14-C ) :   1.1840 B(  2-C ,  3-H ) :   0.8798 B(  2-C ,  4-C ) :   0.7455
B(  2-C ,  5-C ) :   0.8536 B(  2-C ,  9-O ) :   0.1852 B(  2-C , 11-N ) :  -0.1479
B(  4-C ,  6-H ) :   0.9315 B(  4-C ,  7-H ) :   0.9380 B(  4-C ,  8-S ) :   0.8777
B(  5-C ,  9-O ) :   0.9752 B(  5-C , 11-N ) :   1.0646 B(  8-S , 10-H ) :   0.4352
B(  9-O , 11-N ) :   0.1531 B(  9-O , 19-H ) :   0.1124 B( 10-H , 17-O ) :   0.4151
B( 11-N , 12-H ) :   0.8553 B( 11-N , 13-H ) :   1.0707 B( 14-C , 15-H ) :   0.7570
B( 14-C , 16-O ) :   1.5725 B( 17-O , 18-O ) :   0.8984 B( 18-O , 19-H ) :   0.7347

MP2 TOTAL ENERGY:     -965.096277310 Eh
FINAL SINGLE POINT ENERGY      -965.096277309605

DIPOLE MOMENT
-------------
                                X             Y             Z
Electronic contribution:     -2.48512      -0.12229      -1.62831
Nuclear contribution   :      4.27846      -0.05143       2.40270
                        -----------------------------------------
Total Dipole Moment    :      1.79335      -0.17372       0.77439
                        -----------------------------------------
Magnitude (a.u.)       :      1.96111
Magnitude (Debye)      :      4.98474

Rotational constants in cm-1:     0.050339     0.018169     0.016308
Rotational constants in MHz :  1509.117672   544.704508   488.912533

                             ****ORCA TERMINATED NORMALLY****
TOTAL RUN TIME: 0 days 2 hours 25 minutes 44 seconds 925 msec
