                         Program Version 4.2.1 -  RELEASE  -
|  1> %pal
|  2>  nprocs 32
|  3> end
|  4> !RI-MP2 aug-cc-pVQZ aug-cc-pVQZ/C TightSCF
|  5> %maxcore 4500
|  6> *xyzfile 0 1  08_11R1.xyz
|  7>
|  8>
|  9>                          ****END OF INPUT****

CARTESIAN COORDINATES (ANGSTROEM)
---------------------------------
  O      2.821036   -0.933830    0.527642
  C      3.238793   -1.782040   -0.551615
  H      3.585424   -1.176654   -1.389436
  H      4.054962   -2.384560   -0.162572
  H      2.413188   -2.422802   -0.861931
  P      1.647779    0.102911    0.378947
  O      1.374017    0.906064    1.582842
  O      2.030807    0.961250   -0.915592
  O      0.425610   -0.826146   -0.102727
  C     -0.703577   -0.239907   -0.777952
  C     -1.493449    0.733443    0.126290
  O     -2.850052    0.347881    0.014402
  C     -2.884807   -1.070293   -0.172629
  C     -1.715245   -1.329460   -1.128345
  H     -2.041642   -1.211192   -2.161836
  H     -1.271287   -2.317845   -1.016142
  H     -0.326607    0.261571   -1.671004
  H      1.478419    1.768318   -0.951542
  C     -1.371996    2.195849   -0.266798
  H     -1.140090    0.605985    1.155720
  O     -0.025733    2.651242   -0.166195
  H     -2.033050    2.799775    0.359657
  H     -1.672700    2.330311   -1.306650
  H      0.292145    2.504324    0.739051
  C     -2.767700   -1.814694    1.147752
  H     -3.847935   -1.285157   -0.636454
  H     -2.889215   -2.887941    0.984297
  H     -3.543113   -1.480303    1.838310
  H     -1.792761   -1.656579    1.613151

 Total Charge           Charge          ....    0
 Multiplicity           Mult            ....    1
 Number of Electrons    NEL             ....  120
 Basis Dimension        Dim             .... 1814

ORBITAL ENERGIES
----------------

  NO   OCC          E(Eh)            E(eV)
   0   2.0000     -80.095863     -2179.5192
   1   2.0000     -20.595789      -560.4399
   2   2.0000     -20.591130      -560.3131
   3   2.0000     -20.589029      -560.2560
   4   2.0000     -20.571655      -559.7832
   5   2.0000     -20.563160      -559.5520
   6   2.0000     -20.509142      -558.0821
   7   2.0000     -11.309755      -307.7541
   8   2.0000     -11.299842      -307.4843
   9   2.0000     -11.289102      -307.1921
  10   2.0000     -11.287203      -307.1404
  11   2.0000     -11.286531      -307.1221
  12   2.0000     -11.237822      -305.7967
  13   2.0000     -11.219547      -305.2994
  14   2.0000      -7.612640      -207.1505
  15   2.0000      -5.511810      -149.9840
  16   2.0000      -5.511370      -149.9720
  17   2.0000      -5.509912      -149.9323
  18   2.0000      -1.456983       -39.6465
  19   2.0000      -1.402493       -38.1638
  20   2.0000      -1.387177       -37.7470
  21   2.0000      -1.382722       -37.6258
  22   2.0000      -1.370749       -37.3000
  23   2.0000      -1.299400       -35.3585
  24   2.0000      -1.076583       -29.2953
  25   2.0000      -1.055223       -28.7141
  26   2.0000      -0.976638       -26.5757
  27   2.0000      -0.969909       -26.3926
  28   2.0000      -0.903516       -24.5859
  29   2.0000      -0.837556       -22.7911
  30   2.0000      -0.811025       -22.0691
  31   2.0000      -0.804434       -21.8898
  32   2.0000      -0.750086       -20.4109
  33   2.0000      -0.726831       -19.7781
  34   2.0000      -0.705121       -19.1873
  35   2.0000      -0.681810       -18.5530
  36   2.0000      -0.672960       -18.3122
  37   2.0000      -0.670256       -18.2386
  38   2.0000      -0.650961       -17.7136
  39   2.0000      -0.645322       -17.5601
  40   2.0000      -0.635850       -17.3024
  41   2.0000      -0.620497       -16.8846
  42   2.0000      -0.609259       -16.5788
  43   2.0000      -0.601743       -16.3743
  44   2.0000      -0.591733       -16.1019
  45   2.0000      -0.567389       -15.4395
  46   2.0000      -0.559252       -15.2180
  47   2.0000      -0.552315       -15.0293
  48   2.0000      -0.537630       -14.6297
  49   2.0000      -0.532793       -14.4980
  50   2.0000      -0.526873       -14.3369
  51   2.0000      -0.515050       -14.0152
  52   2.0000      -0.503109       -13.6903
  53   2.0000      -0.499139       -13.5823
  54   2.0000      -0.489419       -13.3178
  55   2.0000      -0.472532       -12.8582
  56   2.0000      -0.469810       -12.7842
  57   2.0000      -0.468512       -12.7488
  58   2.0000      -0.443231       -12.0609
  59   2.0000      -0.426310       -11.6005
  60   0.0000       0.019230         0.5233
  61   0.0000       0.026627         0.7245
  62   0.0000       0.028156         0.7662
  63   0.0000       0.032262         0.8779
  64   0.0000       0.039929         1.0865

MULLIKEN ATOMIC CHARGES
-----------------------
   0 O :   -1.278959
   1 C :   -0.807565
   2 H :    0.322073
   3 H :    0.488114
   4 H :    0.347346
   5 P :    3.172678
   6 O :   -1.362230
   7 O :   -1.195266
   8 O :   -1.102809
   9 C :    0.611226
  10 C :    0.913961
  11 O :   -1.255417
  12 C :    0.292839
  13 C :   -0.835725
  14 H :    0.269177
  15 H :    0.282566
  16 H :    0.483065
  17 H :    0.471180
  18 C :   -0.181546
  19 H :    0.254335
  20 O :   -1.069235
  21 H :    0.323335
  22 H :    0.282739
  23 H :    0.461051
  24 C :   -1.127786
  25 H :    0.456985
  26 H :    0.240521
  27 H :    0.310296
  28 H :    0.233051
Sum of atomic charges:   -0.0000000

LOEWDIN ATOMIC CHARGES
----------------------
   0 O :    0.668239
   1 C :    0.557845
   2 H :   -0.319856
   3 H :   -0.321297
   4 H :   -0.322463
   5 P :   -0.949640
   6 O :    0.394362
   7 O :    1.141322
   8 O :    0.740252
   9 C :   -0.263266
  10 C :   -0.268656
  11 O :    0.934930
  12 C :   -0.197335
  13 C :    0.527871
  14 H :   -0.257225
  15 H :   -0.274696
  16 H :   -0.322377
  17 H :   -1.025635
  18 C :    0.235745
  19 H :   -0.344020
  20 O :    1.327493
  21 H :   -0.278677
  22 H :   -0.300637
  23 H :   -0.889143
  24 C :    0.934368
  25 H :   -0.293232
  26 H :   -0.273340
  27 H :   -0.271753
  28 H :   -0.289179

  Mayer bond orders larger than 0.100000
B(  0-O ,  1-C ) :   1.0279 B(  0-O ,  6-O ) :  -0.1027 B(  1-C ,  2-H ) :   0.8958
B(  1-C ,  3-H ) :   0.7756 B(  1-C ,  4-H ) :   0.8489 B(  5-P ,  6-O ) :   1.0291
B(  5-P ,  7-O ) :   0.5959 B(  5-P ,  8-O ) :   0.7369 B(  7-O ,  9-C ) :  -0.1518
B(  7-O , 16-H ) :  -0.1450 B(  7-O , 17-H ) :   0.7768 B(  8-O ,  9-C ) :   0.2284
B(  9-C , 10-C ) :   0.9861 B(  9-C , 11-O ) :   0.1664 B(  9-C , 13-C ) :   0.5226
B(  9-C , 16-H ) :   0.8553 B( 10-C , 11-O ) :   0.1122 B( 10-C , 13-C ) :  -0.1270
B( 10-C , 18-C ) :   0.3598 B( 10-C , 19-H ) :   1.0228 B( 10-C , 21-H ) :  -0.1321
B( 10-C , 22-H ) :  -0.1290 B( 11-O , 12-C ) :   0.6300 B( 11-O , 13-C ) :   0.1618
B( 12-C , 13-C ) :   1.0921 B( 12-C , 24-C ) :   0.8068 B( 12-C , 25-H ) :   0.7516
B( 13-C , 14-H ) :   0.9968 B( 13-C , 15-H ) :   0.9946 B( 18-C , 20-O ) :   0.6971
B( 18-C , 21-H ) :   1.0164 B( 18-C , 22-H ) :   1.0084 B( 20-O , 23-H ) :   0.6624
B( 24-C , 26-H ) :   1.0173 B( 24-C , 27-H ) :   0.9586 B( 24-C , 28-H ) :   0.9470

MP2 TOTAL ENERGY:    -1067.186514967 Eh
FINAL SINGLE POINT ENERGY     -1067.186514966648

DIPOLE MOMENT
-------------
                                X             Y             Z
Electronic contribution:      9.75642       5.43478       2.48260
Nuclear contribution   :    -10.20798      -6.57854      -3.80003
                        -----------------------------------------
Total Dipole Moment    :     -0.45155      -1.14376      -1.31743
                        -----------------------------------------
Magnitude (a.u.)       :      1.80214
Magnitude (Debye)      :      4.58068

Rotational constants in cm-1:     0.031634     0.015761     0.012549
Rotational constants in MHz :   948.352866   472.507127   376.206086

                             ****ORCA TERMINATED NORMALLY****
TOTAL RUN TIME: 0 days 2 hours 28 minutes 54 seconds 825 msec
