                         Program Version 4.2.1 -  RELEASE  -
|  1> %pal
|  2>  nprocs 32
|  3> end
|  4> !RI-MP2 aug-cc-pVQZ aug-cc-pVQZ/C TightSCF
|  5> %maxcore 4500
|  6> *xyzfile 1 1  05_15P1.xyz
|  7>
|  8>
|  9>                          ****END OF INPUT****

CARTESIAN COORDINATES (ANGSTROEM)
---------------------------------
  C     -1.311633    0.527027    0.000008
  C      0.058798    0.222312    0.000000
  C      0.524499   -1.110994    0.000012
  C      0.969704    1.299197   -0.000022
  C      1.877470   -1.348038    0.000005
  H     -0.184748   -1.928479    0.000028
  C      2.323788    1.045377   -0.000028
  H      0.603089    2.319323   -0.000032
  C      2.771361   -0.273044   -0.000015
  H      2.253473   -2.362529    0.000015
  H      3.033690    1.861558   -0.000043
  H      3.836642   -0.471298   -0.000020
  O     -2.204118   -0.375827    0.000009
  C     -3.620183   -0.037462    0.000024
  H     -4.044367   -0.485816   -0.894243
  H     -4.044304   -0.485593    0.894433
  H     -3.743634    1.044771   -0.000109
  H     -1.639722    1.568432   -0.000008

 Total Charge           Charge          ....    1
 Multiplicity           Mult            ....    1
 Number of Electrons    NEL             ....   64
 Basis Dimension        Dim             .... 1134

ORBITAL ENERGIES
----------------

  NO   OCC          E(Eh)            E(eV)
   0   2.0000     -20.822069      -566.5973
   1   2.0000     -11.559616      -314.5532
   2   2.0000     -11.463808      -311.9461
   3   2.0000     -11.426681      -310.9358
   4   2.0000     -11.419574      -310.7424
   5   2.0000     -11.417850      -310.6955
   6   2.0000     -11.416962      -310.6713
   7   2.0000     -11.390789      -309.9591
   8   2.0000     -11.390324      -309.9465
   9   2.0000      -1.662805       -45.2472
  10   2.0000      -1.339501       -36.4497
  11   2.0000      -1.244345       -33.8604
  12   2.0000      -1.193730       -32.4830
  13   2.0000      -1.161603       -31.6088
  14   2.0000      -1.074711       -29.2444
  15   2.0000      -1.005510       -27.3613
  16   2.0000      -0.985291       -26.8111
  17   2.0000      -0.906492       -24.6669
  18   2.0000      -0.897214       -24.4144
  19   2.0000      -0.853282       -23.2190
  20   2.0000      -0.844022       -22.9670
  21   2.0000      -0.793819       -21.6009
  22   2.0000      -0.785766       -21.3818
  23   2.0000      -0.761715       -20.7273
  24   2.0000      -0.747930       -20.3522
  25   2.0000      -0.719859       -19.5884
  26   2.0000      -0.711487       -19.3605
  27   2.0000      -0.677315       -18.4307
  28   2.0000      -0.666045       -18.1240
  29   2.0000      -0.661558       -18.0019
  30   2.0000      -0.520748       -14.1703
  31   2.0000      -0.506791       -13.7905
  32   0.0000      -0.142797        -3.8857
  33   0.0000      -0.080177        -2.1817
  34   0.0000      -0.063911        -1.7391
  35   0.0000      -0.060338        -1.6419
  36   0.0000      -0.058115        -1.5814

MULLIKEN ATOMIC CHARGES
-----------------------
   0 C :    0.618284
   1 C :   -0.096112
   2 C :   -0.128188
   3 C :   -0.179795
   4 C :   -0.365204
   5 H :    0.356924
   6 C :   -0.298755
   7 H :    0.293375
   8 C :   -0.317650
   9 H :    0.330639
  10 H :    0.299032
  11 H :    0.321668
  12 O :   -0.657175
  13 C :   -0.570913
  14 H :    0.329681
  15 H :    0.329687
  16 H :    0.323041
  17 H :    0.411461
Sum of atomic charges:    1.0000000

LOEWDIN ATOMIC CHARGES
----------------------
   0 C :    0.059437
   1 C :   -0.078432
   2 C :    0.372788
   3 C :    0.366767
   4 C :    0.406775
   5 H :   -0.298799
   6 C :    0.405799
   7 H :   -0.292749
   8 C :    0.404433
   9 H :   -0.302130
  10 H :   -0.302934
  11 H :   -0.282792
  12 O :    0.947111
  13 C :    0.746793
  14 H :   -0.281132
  15 H :   -0.281129
  16 H :   -0.305012
  17 H :   -0.284793

  Mayer bond orders larger than 0.100000
B(  0-C ,  1-C ) :   0.9373 B(  0-C ,  2-C ) :  -0.3384 B(  0-C ,  3-C ) :  -0.4174
B(  0-C , 12-O ) :   1.0339 B(  0-C , 17-H ) :   0.9418 B(  1-C ,  2-C ) :   1.0259
B(  1-C ,  3-C ) :   0.8683 B(  1-C ,  4-C ) :  -0.2928 B(  1-C ,  6-C ) :  -0.3896
B(  1-C , 12-O ) :   0.1603 B(  1-C , 17-H ) :  -0.2313 B(  2-C ,  3-C ) :   0.1040
B(  2-C ,  4-C ) :   1.2226 B(  2-C ,  5-H ) :   0.8565 B(  2-C ,  9-H ) :  -0.1192
B(  3-C ,  6-C ) :   1.2197 B(  3-C ,  7-H ) :   0.9695 B(  3-C , 10-H ) :  -0.1345
B(  4-C ,  8-C ) :   1.1421 B(  4-C ,  9-H ) :   1.0479 B(  6-C ,  8-C ) :   1.1845
B(  6-C , 10-H ) :   1.0972 B(  8-C , 11-H ) :   1.0173 B( 12-O , 13-C ) :   0.7737
B( 13-C , 14-H ) :   0.9005 B( 13-C , 15-H ) :   0.9005 B( 13-C , 16-H ) :   0.8793

MP2 TOTAL ENERGY:     -384.546720608 Eh
FINAL SINGLE POINT ENERGY      -384.546720607741

DIPOLE MOMENT
-------------
                                X             Y             Z
Electronic contribution:      2.68231      -0.43462      -0.00001
Nuclear contribution   :     -3.99459       1.06241       0.00002
                        -----------------------------------------
Total Dipole Moment    :     -1.31228       0.62779       0.00001
                        -----------------------------------------
Magnitude (a.u.)       :      1.45472
Magnitude (Debye)      :      3.69760

Rotational constants in cm-1:     0.166389     0.030604     0.025978
Rotational constants in MHz :  4988.226474   917.486110   778.800702

                             ****ORCA TERMINATED NORMALLY****
TOTAL RUN TIME: 0 days 0 hours 37 minutes 19 seconds 24 msec
