                         Program Version 4.2.1 -  RELEASE  -
|  1> %pal
|  2>  nprocs 32
|  3> end
|  4> !RI-MP2 aug-cc-pVQZ aug-cc-pVQZ/C TightSCF
|  5> %maxcore 4500
|  6> *xyzfile -1 1  08_3P2.xyz
|  7>
|  8>
|  9>                          ****END OF INPUT****

CARTESIAN COORDINATES (ANGSTROEM)
---------------------------------
  C     -0.382612    1.307323   -0.009961
  N      0.987298    1.074714   -0.046862
  C      1.567819   -0.160687   -0.018371
  N      0.853283   -1.235369   -0.007620
  C     -0.496770   -1.107215   -0.034820
  C     -1.209131    0.104771    0.009562
  N     -2.539739    0.124683    0.049971
  O     -0.798649    2.473184   -0.000252
  N      2.989081   -0.174358   -0.018721
  H      3.289859   -1.100216   -0.297064
  H      3.365716    0.005781    0.908845
  H      1.567551    1.896357   -0.133702
  N     -1.258266   -2.284511   -0.098497
  H     -2.219717   -2.054432    0.141826
  H     -0.873118   -3.029537    0.466140
  H     -2.838538    1.095310    0.089612

 Total Charge           Charge          ....   -1
 Multiplicity           Mult            ....    1
 Number of Electrons    NEL             ....   74
 Basis Dimension        Dim             .... 1076

ORBITAL ENERGIES
----------------

  NO   OCC          E(Eh)            E(eV)
   0   2.0000     -20.350996      -553.7788
   1   2.0000     -15.470511      -420.9740
   2   2.0000     -15.457533      -420.6208
   3   2.0000     -15.409257      -419.3072
   4   2.0000     -15.392454      -418.8500
   5   2.0000     -15.296087      -416.2277
   6   2.0000     -11.196100      -304.6614
   7   2.0000     -11.184235      -304.3385
   8   2.0000     -11.112502      -302.3866
   9   2.0000     -11.078819      -301.4700
  10   2.0000      -1.224283       -33.3144
  11   2.0000      -1.171638       -31.8819
  12   2.0000      -1.081393       -29.4262
  13   2.0000      -1.061269       -28.8786
  14   2.0000      -1.005543       -27.3622
  15   2.0000      -0.959475       -26.1086
  16   2.0000      -0.800868       -21.7927
  17   2.0000      -0.707246       -19.2452
  18   2.0000      -0.697874       -18.9901
  19   2.0000      -0.605155       -16.4671
  20   2.0000      -0.571730       -15.5576
  21   2.0000      -0.555125       -15.1057
  22   2.0000      -0.531601       -14.4656
  23   2.0000      -0.481974       -13.1152
  24   2.0000      -0.467008       -12.7079
  25   2.0000      -0.457851       -12.4588
  26   2.0000      -0.442198       -12.0328
  27   2.0000      -0.410473       -11.1695
  28   2.0000      -0.375993       -10.2313
  29   2.0000      -0.351849        -9.5743
  30   2.0000      -0.314174        -8.5491
  31   2.0000      -0.293203        -7.9785
  32   2.0000      -0.276932        -7.5357
  33   2.0000      -0.240971        -6.5572
  34   2.0000      -0.229664        -6.2495
  35   2.0000      -0.214927        -5.8485
  36   2.0000      -0.044624        -1.2143
  37   0.0000       0.094343         2.5672
  38   0.0000       0.112165         3.0522
  39   0.0000       0.116381         3.1669
  40   0.0000       0.121672         3.3109
  41   0.0000       0.134278         3.6539

MULLIKEN ATOMIC CHARGES
-----------------------
   0 C :    1.275652
   1 N :   -0.624019
   2 C :    0.664325
   3 N :   -0.669981
   4 C :    0.789529
   5 C :   -0.068965
   6 N :   -1.135326
   7 O :   -0.983197
   8 N :   -0.793530
   9 H :    0.283718
  10 H :    0.283568
  11 H :    0.078558
  12 N :   -0.920036
  13 H :    0.321328
  14 H :    0.240883
  15 H :    0.257493
Sum of atomic charges:   -1.0000000

LOEWDIN ATOMIC CHARGES
----------------------
   0 C :   -0.914099
   1 N :    0.761652
   2 C :   -0.676501
   3 N :    0.557190
   4 C :   -0.582645
   5 C :   -0.503929
   6 N :    0.863699
   7 O :    0.627431
   8 N :    1.230452
   9 H :   -0.561315
  10 H :   -0.513063
  11 H :   -0.518642
  12 N :    1.194860
  13 H :   -0.644489
  14 H :   -0.534996
  15 H :   -0.785603

  Mayer bond orders larger than 0.100000
B(  0-C ,  1-N ) :   1.0443 B(  0-C ,  4-C ) :  -0.1937 B(  0-C ,  5-C ) :   1.3360
B(  0-C ,  7-O ) :   0.7990 B(  1-N ,  2-C ) :   1.0389 B(  1-N ,  7-O ) :   0.1963
B(  1-N , 11-H ) :   1.1692 B(  2-C ,  3-N ) :   1.6146 B(  2-C ,  8-N ) :   0.8711
B(  3-N ,  4-C ) :   0.8491 B(  4-C ,  5-C ) :   1.3982 B(  4-C , 12-N ) :   0.7085
B(  5-C ,  6-N ) :   0.8819 B(  5-C ,  7-O ) :   0.3670 B(  6-N , 15-H ) :   0.9042
B(  8-N ,  9-H ) :   0.8914 B(  8-N , 10-H ) :   0.8806 B( 12-N , 13-H ) :   0.8717
B( 12-N , 14-H ) :   0.9578

MP2 TOTAL ENERGY:     -504.352638388 Eh
FINAL SINGLE POINT ENERGY      -504.352638388269

DIPOLE MOMENT
-------------
                                X             Y             Z
Electronic contribution:      1.11176       2.47431      -0.46069
Nuclear contribution   :      2.23586      -3.09409       1.14956
                        -----------------------------------------
Total Dipole Moment    :      3.34762      -0.61978       0.68887
                        -----------------------------------------
Magnitude (a.u.)       :      3.47350
Magnitude (Debye)      :      8.82895

Rotational constants in cm-1:     0.063462     0.046354     0.026907
Rotational constants in MHz :  1902.556712  1389.650946   806.649378

                             ****ORCA TERMINATED NORMALLY****
TOTAL RUN TIME: 0 days 0 hours 37 minutes 20 seconds 289 msec
