                         Program Version 4.2.1 -  RELEASE  -
|  1> %pal
|  2>  nprocs 32
|  3> end
|  4> !RI-MP2 aug-cc-pVQZ aug-cc-pVQZ/C TightSCF
|  5> %maxcore 4500
|  6> *xyzfile 1 1  08_13P1.xyz
|  7>
|  8>
|  9>                          ****END OF INPUT****

CARTESIAN COORDINATES (ANGSTROEM)
---------------------------------
  C      0.581015    0.547436   -0.000007
  C      1.930379   -0.136797    0.000006
  H      2.074293   -0.754039    0.889415
  H      2.074328   -0.754007   -0.889417
  H      2.713059    0.621816    0.000037
  N     -0.537619   -0.467397   -0.000008
  C     -1.912814    0.121509    0.000007
  H     -2.026734    0.733988    0.891493
  H     -2.026702    0.734107   -0.891401
  H     -2.645036   -0.683054   -0.000060
  H     -0.426274   -1.075953   -0.815216
  H      0.430598    1.165988   -0.884611
  H      0.430586    1.166002    0.884584
  H     -0.426263   -1.075963    0.815191

 Total Charge           Charge          ....    1
 Multiplicity           Mult            ....    1
 Number of Electrons    NEL             ....   34
 Basis Dimension        Dim             ....  780

ORBITAL ENERGIES
----------------

  NO   OCC          E(Eh)            E(eV)
   0   2.0000     -15.879043      -432.0907
   1   2.0000     -11.470064      -312.1163
   2   2.0000     -11.467229      -312.0392
   3   2.0000     -11.394492      -310.0599
   4   2.0000      -1.508064       -41.0365
   5   2.0000      -1.226032       -33.3620
   6   2.0000      -1.140020       -31.0215
   7   2.0000      -1.055928       -28.7333
   8   2.0000      -0.974283       -26.5116
   9   2.0000      -0.868108       -23.6224
  10   2.0000      -0.849185       -23.1075
  11   2.0000      -0.798791       -21.7362
  12   2.0000      -0.760406       -20.6917
  13   2.0000      -0.757050       -20.6004
  14   2.0000      -0.712204       -19.3800
  15   2.0000      -0.704363       -19.1667
  16   2.0000      -0.688862       -18.7449
  17   0.0000      -0.104038        -2.8310
  18   0.0000      -0.080121        -2.1802
  19   0.0000      -0.077640        -2.1127
  20   0.0000      -0.070278        -1.9124
  21   0.0000      -0.051012        -1.3881

MULLIKEN ATOMIC CHARGES
-----------------------
   0 C :   -0.384237
   1 C :   -0.818962
   2 H :    0.250818
   3 H :    0.250819
   4 H :    0.295388
   5 N :    0.047341
   6 C :   -0.779516
   7 H :    0.303865
   8 H :    0.303861
   9 H :    0.370889
  10 H :    0.273205
  11 H :    0.306657
  12 H :    0.306658
  13 H :    0.273213
Sum of atomic charges:    1.0000000

LOEWDIN ATOMIC CHARGES
----------------------
   0 C :    0.530678
   1 C :    0.991663
   2 H :   -0.261499
   3 H :   -0.261500
   4 H :   -0.260736
   5 N :    1.159040
   6 C :    0.981103
   7 H :   -0.241682
   8 H :   -0.241685
   9 H :   -0.232710
  10 H :   -0.340478
  11 H :   -0.240856
  12 H :   -0.240857
  13 H :   -0.340481

  Mayer bond orders larger than 0.100000
B(  0-C ,  1-C ) :   0.9852 B(  0-C ,  5-N ) :   0.8045 B(  0-C , 11-H ) :   0.8669
B(  0-C , 12-H ) :   0.8669 B(  1-C ,  2-H ) :   0.9301 B(  1-C ,  3-H ) :   0.9301
B(  1-C ,  4-H ) :   0.9659 B(  5-N ,  6-C ) :   0.8051 B(  5-N , 10-H ) :   0.9298
B(  5-N , 13-H ) :   0.9297 B(  6-C ,  7-H ) :   0.9184 B(  6-C ,  8-H ) :   0.9184
B(  6-C ,  9-H ) :   0.8792

MP2 TOTAL ENERGY:     -174.529702113 Eh
FINAL SINGLE POINT ENERGY      -174.529702113257

DIPOLE MOMENT
-------------
                                X             Y             Z
Electronic contribution:     -0.90568      -0.53937      -0.00002
Nuclear contribution   :      0.18445       0.08325       0.00002
                        -----------------------------------------
Total Dipole Moment    :     -0.72123      -0.45612      -0.00001
                        -----------------------------------------
Magnitude (a.u.)       :      0.85336
Magnitude (Debye)      :      2.16906

Rotational constants in cm-1:     0.790000     0.124786     0.116903
Rotational constants in MHz : 23683.591245  3741.004055  3504.652365

                             ****ORCA TERMINATED NORMALLY****
TOTAL RUN TIME: 0 days 0 hours 8 minutes 22 seconds 920 msec
