                         Program Version 4.2.1 -  RELEASE  -
|  1> %pal
|  2>  nprocs 320
|  3> end
|  4> !RI-MP2 aug-cc-pVQZ aug-cc-pVQZ/C TightSCF MORead Slowconv
|  5> %maxcore 4500
|  6> %moinp "02_7P.gbw"
|  7> %scf
|  8> DIISMaxEq 15
|  9> directresetfreq 10
| 10> end
| 11> *xyzfile 0 1  02_7P.xyz
| 12>
| 13>
| 14>                          ****END OF INPUT****

CARTESIAN COORDINATES (ANGSTROEM)
---------------------------------
  O     -6.598913    0.392072    1.321540
  C     -5.977665    0.689440    0.070693
  C     -4.538391    1.151756    0.387323
  C     -3.625313    0.137244   -0.306980
  C     -4.480028   -1.137120   -0.378698
  C     -5.829086   -0.571663   -0.802374
  C     -2.229192   -0.099381    0.280332
  C     -1.815984   -1.623194    0.148013
  C     -2.476366   -2.317649   -1.020813
  C     -3.773951   -2.132644   -1.241877
  C     -1.236398    0.812334   -0.366990
  C     -0.425357    1.645839    0.276106
  C     -0.328226   -1.779863    0.153242
  C      0.384978   -2.155734    1.208202
  C      1.862171   -2.179696    1.232081
  O      2.401622   -2.000530    0.017102
  C      3.833082   -1.808491   -0.101301
  C      4.423326   -3.011683   -0.816278
  C      4.222023   -4.325193   -0.070778
  C      0.581158    2.459366   -0.451115
  C      1.655226    3.107824    0.401705
  C      1.136813    4.473231    0.871954
  O      2.502880   -2.317261    2.244972
  C      4.030572   -0.504391   -0.855056
  C      3.474146    0.713141   -0.124718
  C      3.495852    1.965398   -0.997212
  C      3.002623    3.244345   -0.322294
  O      3.974076    3.761915    0.587302
  O      0.543601    2.607217   -1.654942
  H     -4.348754    2.176324    0.066135
  H     -4.414453    1.115784    1.471756
  H     -6.553545    1.465767   -0.441784
  H     -6.666334   -1.259719   -0.666319
  H     -5.795636   -0.289496   -1.860192
  H     -4.583418   -1.539083    0.639077
  H     -4.295770   -2.647357   -2.041763
  H     -1.885319   -2.999716   -1.622118
  H      0.198449   -1.528228   -0.762066
  H     -0.078752   -2.405238    2.155846
  H      4.237530   -1.738279    0.910054
  H      3.547533   -0.594848   -1.833933
  H      5.100480   -0.371411   -1.042904
  H      2.447142    0.494724    0.179050
  H      4.045515    0.865133    0.799613
  H      4.514445    2.160193   -1.345816
  H      2.883934    1.790208   -1.884195
  H      2.907121    4.015431   -1.087981
  H      1.805917    2.478187    1.286052
  H     -1.164321    0.778116   -1.452654
  H     -3.494760    0.451686   -1.348760
  H      3.983585   -3.072876   -1.816960
  H      5.492012   -2.820493   -0.953508
  H      3.161295   -4.559081    0.035209
  H      4.653206   -4.281241    0.931538
  H      4.692045   -5.151643   -0.606940
  H      0.224561    4.375027    1.464326
  H      0.917430    5.109089    0.011532
  H      1.895358    4.964722    1.480077
  H      4.184588    3.082939    1.234945
  H     -7.515457    0.149346    1.165384
  H     -0.431236    1.699366    1.360459
  H     -2.205256   -2.093845    1.057571
  H     -2.241335    0.113907    1.352469

 Total Charge           Charge          ....    0
 Multiplicity           Mult            ....    1
 Number of Electrons    NEL             ....  218
 Basis Dimension        Dim             .... 3884

ORBITAL ENERGIES
----------------

  NO   OCC          E(Eh)            E(eV)
   0   2.0000     -20.589775      -560.2763
   1   2.0000     -20.561208      -559.4989
   2   2.0000     -20.551361      -559.2310
   3   2.0000     -20.537261      -558.8473
   4   2.0000     -20.534791      -558.7801
   5   2.0000     -11.376022      -309.5573
   6   2.0000     -11.327555      -308.2384
   7   2.0000     -11.287862      -307.1583
   8   2.0000     -11.285013      -307.0808
   9   2.0000     -11.276625      -306.8526
  10   2.0000     -11.261034      -306.4283
  11   2.0000     -11.258166      -306.3503
  12   2.0000     -11.257848      -306.3416
  13   2.0000     -11.254466      -306.2496
  14   2.0000     -11.240023      -305.8566
  15   2.0000     -11.237296      -305.7824
  16   2.0000     -11.237173      -305.7790
  17   2.0000     -11.236758      -305.7677
  18   2.0000     -11.236164      -305.7516
  19   2.0000     -11.235305      -305.7282
  20   2.0000     -11.233903      -305.6900
  21   2.0000     -11.230766      -305.6047
  22   2.0000     -11.225007      -305.4480
  23   2.0000     -11.224399      -305.4314
  24   2.0000     -11.224281      -305.4282
  25   2.0000     -11.223671      -305.4116
  26   2.0000     -11.220674      -305.3301
  27   2.0000     -11.213865      -305.1448
  28   2.0000     -11.210355      -305.0493
  29   2.0000      -1.455520       -39.6067
  30   2.0000      -1.385719       -37.7073
  31   2.0000      -1.367741       -37.2181
  32   2.0000      -1.359139       -36.9841
  33   2.0000      -1.355710       -36.8907
  34   2.0000      -1.178400       -32.0659
  35   2.0000      -1.123765       -30.5792
  36   2.0000      -1.107700       -30.1420
  37   2.0000      -1.092259       -29.7219
  38   2.0000      -1.084187       -29.5022
  39   2.0000      -1.065923       -29.0052
  40   2.0000      -1.047972       -28.5168
  41   2.0000      -1.020412       -27.7668
  42   2.0000      -0.992748       -27.0141
  43   2.0000      -0.973569       -26.4921
  44   2.0000      -0.962811       -26.1994
  45   2.0000      -0.927364       -25.2348
  46   2.0000      -0.907604       -24.6972
  47   2.0000      -0.881979       -23.9999
  48   2.0000      -0.850900       -23.1542
  49   2.0000      -0.838067       -22.8050
  50   2.0000      -0.818244       -22.2656
  51   2.0000      -0.814587       -22.1660
  52   2.0000      -0.797122       -21.6908
  53   2.0000      -0.787101       -21.4181
  54   2.0000      -0.773774       -21.0555
  55   2.0000      -0.767314       -20.8797
  56   2.0000      -0.739843       -20.1322
  57   2.0000      -0.732339       -19.9280
  58   2.0000      -0.707096       -19.2411
  59   2.0000      -0.694069       -18.8866
  60   2.0000      -0.689783       -18.7700
  61   2.0000      -0.675803       -18.3895
  62   2.0000      -0.672199       -18.2915
  63   2.0000      -0.665138       -18.0993
  64   2.0000      -0.662184       -18.0189
  65   2.0000      -0.652460       -17.7543
  66   2.0000      -0.643328       -17.5058
  67   2.0000      -0.640367       -17.4253
  68   2.0000      -0.635172       -17.2839
  69   2.0000      -0.621667       -16.9164
  70   2.0000      -0.620320       -16.8798
  71   2.0000      -0.601888       -16.3782
  72   2.0000      -0.595867       -16.2144
  73   2.0000      -0.590107       -16.0576
  74   2.0000      -0.577969       -15.7273
  75   2.0000      -0.575831       -15.6691
  76   2.0000      -0.574537       -15.6339
  77   2.0000      -0.570171       -15.5152
  78   2.0000      -0.565872       -15.3982
  79   2.0000      -0.561147       -15.2696
  80   2.0000      -0.554625       -15.0921
  81   2.0000      -0.546860       -14.8808
  82   2.0000      -0.541199       -14.7268
  83   2.0000      -0.537713       -14.6319
  84   2.0000      -0.529948       -14.4206
  85   2.0000      -0.526381       -14.3236
  86   2.0000      -0.521672       -14.1954
  87   2.0000      -0.511660       -13.9230
  88   2.0000      -0.510543       -13.8926
  89   2.0000      -0.506529       -13.7834
  90   2.0000      -0.504615       -13.7313
  91   2.0000      -0.499994       -13.6055
  92   2.0000      -0.493147       -13.4192
  93   2.0000      -0.491996       -13.3879
  94   2.0000      -0.489024       -13.3070
  95   2.0000      -0.475127       -12.9289
  96   2.0000      -0.474134       -12.9018
  97   2.0000      -0.472850       -12.8669
  98   2.0000      -0.465083       -12.6556
  99   2.0000      -0.460711       -12.5366
 100   2.0000      -0.449808       -12.2399
 101   2.0000      -0.444702       -12.1010
 102   2.0000      -0.440349       -11.9825
 103   2.0000      -0.439609       -11.9624
 104   2.0000      -0.425534       -11.5794
 105   2.0000      -0.404913       -11.0182
 106   2.0000      -0.387294       -10.5388
 107   2.0000      -0.376978       -10.2581
 108   2.0000      -0.356304        -9.6955
 109   0.0000       0.017059         0.4642
 110   0.0000       0.022344         0.6080
 111   0.0000       0.024632         0.6703
 112   0.0000       0.026381         0.7179
 113   0.0000       0.028728         0.7817

MULLIKEN ATOMIC CHARGES
-----------------------
   0 O :   -1.019634
   1 C :    0.556721
   2 C :   -0.755371
   3 C :    0.541540
   4 C :    0.561994
   5 C :   -1.073373
   6 C :    0.472375
   7 C :    0.392051
   8 C :   -0.523828
   9 C :   -0.843365
  10 C :    0.017747
  11 C :   -0.689819
  12 C :   -0.308081
  13 C :   -0.873049
  14 C :    1.955491
  15 O :   -0.952625
  16 C :    0.928067
  17 C :   -0.787784
  18 C :   -0.928968
  19 C :    1.569415
  20 C :    0.044224
  21 C :   -1.214156
  22 O :   -1.205289
  23 C :   -0.394189
  24 C :   -0.078822
  25 C :   -0.931881
  26 C :    0.947918
  27 O :   -1.350657
  28 O :   -1.353463
  29 H :    0.257727
  30 H :    0.215066
  31 H :    0.188082
  32 H :    0.264040
  33 H :    0.222697
  34 H :    0.313398
  35 H :    0.230754
  36 H :    0.174777
  37 H :    0.245744
  38 H :    0.155163
  39 H :    0.185872
  40 H :    0.225507
  41 H :    0.322038
  42 H :    0.022222
  43 H :    0.233938
  44 H :    0.163061
  45 H :    0.302734
  46 H :    0.363371
  47 H :    0.053090
  48 H :    0.107983
  49 H :    0.067856
  50 H :    0.232156
  51 H :    0.243834
  52 H :    0.206083
  53 H :    0.169483
  54 H :    0.267423
  55 H :    0.226848
  56 H :    0.242389
  57 H :    0.262781
  58 H :    0.346262
  59 H :    0.297757
  60 H :   -0.050994
  61 H :    0.289398
  62 H :    0.248271
Sum of atomic charges:    0.0000000

LOEWDIN ATOMIC CHARGES
----------------------
   0 O :    1.301144
   1 C :   -0.155846
   2 C :    0.570799
   3 C :    0.118182
   4 C :    0.085525
   5 C :    0.548175
   6 C :    0.177395
   7 C :    0.115429
   8 C :    0.428917
   9 C :    0.440998
  10 C :    0.375036
  11 C :    0.394459
  12 C :    0.354739
  13 C :    0.353285
  14 C :   -1.081864
  15 O :    0.884831
  16 C :   -0.202980
  17 C :    0.510393
  18 C :    0.932747
  19 C :   -0.682594
  20 C :    0.040558
  21 C :    0.937599
  22 O :    0.734759
  23 C :    0.531029
  24 C :    0.530349
  25 C :    0.535818
  26 C :   -0.199413
  27 O :    1.320518
  28 O :    0.791519
  29 H :   -0.238535
  30 H :   -0.287527
  31 H :   -0.270508
  32 H :   -0.252542
  33 H :   -0.255361
  34 H :   -0.251544
  35 H :   -0.287574
  36 H :   -0.297578
  37 H :   -0.323244
  38 H :   -0.340640
  39 H :   -0.357034
  40 H :   -0.262748
  41 H :   -0.253751
  42 H :   -0.312109
  43 H :   -0.246110
  44 H :   -0.260757
  45 H :   -0.302475
  46 H :   -0.305234
  47 H :   -0.319109
  48 H :   -0.297946
  49 H :   -0.280954
  50 H :   -0.269018
  51 H :   -0.269121
  52 H :   -0.291785
  53 H :   -0.277043
  54 H :   -0.277362
  55 H :   -0.267636
  56 H :   -0.267415
  57 H :   -0.281727
  58 H :   -0.794805
  59 H :   -0.778650
  60 H :   -0.317501
  61 H :   -0.304747
  62 H :   -0.291415

  Mayer bond orders larger than 0.100000
B(  0-O ,  2-C ) :   0.1448 B(  0-O ,  5-C ) :   0.2335 B(  0-O , 59-H ) :   0.9522
B(  1-C ,  2-C ) :   1.0402 B(  1-C ,  4-C ) :  -0.1558 B(  1-C ,  5-C ) :   1.1379
B(  1-C , 31-H ) :   1.1062 B(  2-C ,  3-C ) :   0.4142 B(  2-C ,  6-C ) :   0.1399
B(  2-C , 29-H ) :   1.0075 B(  2-C , 30-H ) :   1.0226 B(  3-C ,  4-C ) :   0.7147
B(  3-C ,  5-C ) :  -0.1793 B(  3-C ,  6-C ) :   1.0473 B(  3-C , 10-C ) :  -0.1235
B(  3-C , 29-H ) :  -0.1069 B(  3-C , 30-H ) :  -0.1310 B(  3-C , 49-H ) :   1.0259
B(  4-C ,  5-C ) :   0.3291 B(  4-C ,  6-C ) :  -0.2473 B(  4-C ,  7-C ) :   0.1704
B(  4-C ,  8-C ) :  -0.4611 B(  4-C ,  9-C ) :   0.4544 B(  4-C , 32-H ) :  -0.1906
B(  4-C , 33-H ) :  -0.1740 B(  4-C , 34-H ) :   1.0247 B(  5-C , 32-H ) :   1.0980
B(  5-C , 33-H ) :   1.1121 B(  6-C ,  7-C ) :   0.9581 B(  6-C ,  8-C ) :   0.1736
B(  6-C , 10-C ) :   0.8889 B(  6-C , 11-C ) :  -0.5662 B(  6-C , 60-H ) :  -0.1207
B(  6-C , 61-H ) :  -0.1396 B(  6-C , 62-H ) :   0.8213 B(  7-C ,  8-C ) :   1.0473
B(  7-C , 10-C ) :  -0.1374 B(  7-C , 12-C ) :   0.2252 B(  7-C , 13-C ) :  -0.5219
B(  7-C , 37-H ) :   0.1357 B(  7-C , 61-H ) :   0.9760 B(  8-C ,  9-C ) :   1.2454
B(  8-C , 12-C ) :  -0.2669 B(  8-C , 35-H ) :  -0.2590 B(  8-C , 36-H ) :   1.1975
B(  9-C , 34-H ) :  -0.1303 B(  9-C , 35-H ) :   1.1516 B(  9-C , 36-H ) :  -0.2457
B( 10-C , 11-C ) :   0.8462 B( 10-C , 19-C ) :  -0.1451 B( 10-C , 28-O ) :  -0.3372
B( 10-C , 48-H ) :   1.1732 B( 10-C , 60-H ) :   0.1298 B( 11-C , 19-C ) :   0.6595
B( 11-C , 20-C ) :  -0.3548 B( 11-C , 28-O ) :   0.6421 B( 11-C , 48-H ) :  -0.1200
B( 11-C , 60-H ) :   1.1490 B( 12-C , 13-C ) :   1.7153 B( 12-C , 14-C ) :  -0.5003
B( 12-C , 15-O ) :  -0.3368 B( 12-C , 37-H ) :   0.8365 B( 13-C , 14-C ) :   1.6764
B( 13-C , 15-O ) :  -0.1730 B( 13-C , 22-O ) :   0.2565 B( 13-C , 38-H ) :   1.0521
B( 14-C , 15-O ) :   1.0170 B( 15-O , 16-C ) :   0.3938 B( 15-O , 17-C ) :   0.1248
B( 15-O , 22-O ) :   0.3387 B( 15-O , 23-C ) :   0.1594 B( 15-O , 37-H ) :   0.1071
B( 15-O , 42-H ) :   0.1525 B( 16-C , 17-C ) :   0.2682 B( 16-C , 18-C ) :  -0.2930
B( 16-C , 23-C ) :   0.5868 B( 16-C , 24-C ) :  -0.2028 B( 16-C , 39-H ) :   1.0574
B( 16-C , 50-H ) :  -0.1040 B( 17-C , 18-C ) :   1.0613 B( 17-C , 23-C ) :   0.1278
B( 17-C , 50-H ) :   0.9533 B( 17-C , 51-H ) :   0.9931 B( 18-C , 52-H ) :   0.9612
B( 18-C , 53-H ) :   1.0523 B( 18-C , 54-H ) :   1.0251 B( 19-C , 20-C ) :   1.1913
B( 19-C , 21-C ) :   0.1807 B( 19-C , 28-O ) :  -0.1468 B( 20-C , 26-C ) :   0.7227
B( 20-C , 27-O ) :   0.2618 B( 20-C , 28-O ) :   0.2587 B( 20-C , 47-H ) :   1.1238
B( 20-C , 55-H ) :  -0.1834 B( 20-C , 56-H ) :  -0.2750 B( 20-C , 57-H ) :  -0.1282
B( 21-C , 55-H ) :   1.0995 B( 21-C , 56-H ) :   1.0948 B( 21-C , 57-H ) :   1.0827
B( 22-O , 42-H ) :   0.1001 B( 23-C , 24-C ) :   0.9399 B( 23-C , 39-H ) :  -0.1178
B( 23-C , 40-H ) :   0.8282 B( 23-C , 41-H ) :   0.9224 B( 24-C , 25-C ) :   0.6992
B( 24-C , 26-C ) :  -0.1128 B( 24-C , 28-O ) :  -0.1067 B( 24-C , 42-H ) :   0.8902
B( 24-C , 43-H ) :   0.9347 B( 25-C , 26-C ) :   1.1127 B( 25-C , 27-O ) :   0.5236
B( 25-C , 44-H ) :   1.1187 B( 25-C , 45-H ) :   0.9065 B( 26-C , 27-O ) :  -0.4765
B( 26-C , 46-H ) :   0.9689 B( 27-O , 58-H ) :   0.8814

MP2 TOTAL ENERGY:    -1308.986075573 Eh
FINAL SINGLE POINT ENERGY     -1308.986075572511

DIPOLE MOMENT
-------------
                                X             Y             Z
Electronic contribution:     -6.82775      -0.65259       2.67638
Nuclear contribution   :      5.35236      -0.02857      -3.18066
                        -----------------------------------------
Total Dipole Moment    :     -1.47539      -0.68116      -0.50428
                        -----------------------------------------
Magnitude (a.u.)       :      1.70148
Magnitude (Debye)      :      4.32483

Rotational constants in cm-1:     0.006914     0.003254     0.002429
Rotational constants in MHz :   207.289546    97.563700    72.828608

                             ****ORCA TERMINATED NORMALLY****
TOTAL RUN TIME: 0 days 2 hours 31 minutes 46 seconds 581 msec
