                         Program Version 4.2.1 -  RELEASE  -
|  1> %pal
|  2>  nprocs 32
|  3> end
|  4> !RI-MP2 aug-cc-pVQZ aug-cc-pVQZ/C TightSCF
|  5> %maxcore 4500
|  6> *xyzfile -1 1  02_13TS.xyz
|  7>
|  8>
|  9>                          ****END OF INPUT****

CARTESIAN COORDINATES (ANGSTROEM)
---------------------------------
  C      4.807920   -0.859905   -1.801578
  C      3.343081   -0.429695   -1.888038
  H      2.837300   -1.066487   -2.622062
  H      3.272752    0.591277   -2.283713
  H      5.230406   -0.911970   -2.810833
  H      4.844973   -1.879078   -1.398590
  C      2.603734   -0.533475   -0.571424
  H      2.900721   -1.354565    0.073721
  C      1.264547   -0.182168   -0.476909
  H      0.753339    0.263089   -1.321081
  C      3.817180    0.832133    0.555718
  C      3.117099    0.977728    1.736495
  H      3.479268    0.473354    2.627674
  C      1.820244    1.495121    1.759527
  H      1.246458    1.388851    2.674585
  C      1.151881    1.862100    0.615049
  H      1.725944    2.167107   -0.251181
  C     -0.273417    2.322804    0.622780
  H     -0.822444    1.884466    1.457661
  H     -0.777097    2.040176   -0.302092
  H     -0.323476    3.414905    0.714450
  C      0.430725   -0.919856    0.516660
  C     -0.994032   -1.007491    0.264076
  O      0.992005   -1.441795    1.479622
  C     -1.922044   -1.777056    1.086232
  C     -1.703976   -0.474916   -0.839570
  O     -1.361365    0.252611   -1.784200
  O     -1.741767   -2.492591    2.056912
  C     -3.165271   -0.947981   -0.737630
  H     -3.312010   -1.676284   -1.548837
  C     -4.172997    0.189310   -0.928225
  C     -4.048271    1.240482    0.177112
  H     -4.370787    0.799048    1.124397
  H     -2.992760    1.486859    0.302712
  C     -4.823059    2.525448   -0.099548
  H     -4.509070    2.972741   -1.047379
  H     -4.649263    3.263563    0.687875
  H     -5.901582    2.354660   -0.153483
  N     -3.212806   -1.587802    0.558222
  H     -3.850152   -2.349158    0.733473
  C     -5.593068   -0.363754   -1.039291
  H     -6.322393    0.419406   -1.259014
  H     -5.893988   -0.843419   -0.102146
  H     -5.660559   -1.109861   -1.836417
  H     -3.896875    0.659778   -1.878504
  C      5.189589    0.211491    0.493278
  H      5.904024    0.833277    1.047053
  H      5.173454   -0.761837    0.996234
  H      3.627528    1.564496   -0.222414
  C      5.686309    0.047605   -0.942296
  H      6.709656   -0.342510   -0.933689
  H      5.738243    1.039380   -1.409122

 Total Charge           Charge          ....   -1
 Multiplicity           Mult            ....    1
 Number of Electrons    NEL             ....  180
 Basis Dimension        Dim             .... 3208

ORBITAL ENERGIES
----------------

  NO   OCC          E(Eh)            E(eV)
   0   2.0000     -20.368120      -554.2447
   1   2.0000     -20.357815      -553.9643
   2   2.0000     -20.356323      -553.9237
   3   2.0000     -15.428486      -419.8304
   4   2.0000     -11.191231      -304.5289
   5   2.0000     -11.172425      -304.0171
   6   2.0000     -11.167212      -303.8753
   7   2.0000     -11.137277      -303.0607
   8   2.0000     -11.134712      -302.9909
   9   2.0000     -11.130985      -302.8895
  10   2.0000     -11.130801      -302.8845
  11   2.0000     -11.128740      -302.8284
  12   2.0000     -11.127769      -302.8020
  13   2.0000     -11.125427      -302.7383
  14   2.0000     -11.118698      -302.5552
  15   2.0000     -11.118685      -302.5548
  16   2.0000     -11.117673      -302.5272
  17   2.0000     -11.115686      -302.4732
  18   2.0000     -11.107992      -302.2638
  19   2.0000     -11.107393      -302.2475
  20   2.0000     -11.100474      -302.0593
  21   2.0000     -11.099416      -302.0305
  22   2.0000     -11.091342      -301.8108
  23   2.0000     -11.051564      -300.7283
  24   2.0000      -1.226334       -33.3702
  25   2.0000      -1.209796       -32.9202
  26   2.0000      -1.201565       -32.6962
  27   2.0000      -1.100896       -29.9569
  28   2.0000      -1.022761       -27.8308
  29   2.0000      -0.982224       -26.7277
  30   2.0000      -0.980640       -26.6846
  31   2.0000      -0.947227       -25.7753
  32   2.0000      -0.913630       -24.8611
  33   2.0000      -0.900898       -24.5147
  34   2.0000      -0.891431       -24.2571
  35   2.0000      -0.869390       -23.6573
  36   2.0000      -0.827995       -22.5309
  37   2.0000      -0.818358       -22.2686
  38   2.0000      -0.765583       -20.8326
  39   2.0000      -0.757486       -20.6122
  40   2.0000      -0.723256       -19.6808
  41   2.0000      -0.703703       -19.1487
  42   2.0000      -0.682567       -18.5736
  43   2.0000      -0.670111       -18.2346
  44   2.0000      -0.638205       -17.3664
  45   2.0000      -0.614186       -16.7128
  46   2.0000      -0.608415       -16.5558
  47   2.0000      -0.571761       -15.5584
  48   2.0000      -0.552393       -15.0314
  49   2.0000      -0.542310       -14.7570
  50   2.0000      -0.537608       -14.6291
  51   2.0000      -0.524540       -14.2734
  52   2.0000      -0.521660       -14.1951
  53   2.0000      -0.520661       -14.1679
  54   2.0000      -0.512318       -13.9409
  55   2.0000      -0.506716       -13.7885
  56   2.0000      -0.487219       -13.2579
  57   2.0000      -0.479401       -13.0452
  58   2.0000      -0.472663       -12.8618
  59   2.0000      -0.468351       -12.7445
  60   2.0000      -0.460713       -12.5366
  61   2.0000      -0.460219       -12.5232
  62   2.0000      -0.450925       -12.2703
  63   2.0000      -0.444605       -12.0983
  64   2.0000      -0.443610       -12.0712
  65   2.0000      -0.434709       -11.8290
  66   2.0000      -0.418363       -11.3842
  67   2.0000      -0.417081       -11.3494
  68   2.0000      -0.416822       -11.3423
  69   2.0000      -0.414064       -11.2673
  70   2.0000      -0.404611       -11.0100
  71   2.0000      -0.399815       -10.8795
  72   2.0000      -0.391034       -10.6406
  73   2.0000      -0.388967       -10.5843
  74   2.0000      -0.380526       -10.3546
  75   2.0000      -0.376772       -10.2525
  76   2.0000      -0.371017       -10.0959
  77   2.0000      -0.364422        -9.9164
  78   2.0000      -0.360033        -9.7970
  79   2.0000      -0.359016        -9.7693
  80   2.0000      -0.357686        -9.7331
  81   2.0000      -0.348177        -9.4744
  82   2.0000      -0.314833        -8.5670
  83   2.0000      -0.292448        -7.9579
  84   2.0000      -0.259060        -7.0494
  85   2.0000      -0.247190        -6.7264
  86   2.0000      -0.240119        -6.5340
  87   2.0000      -0.192390        -5.2352
  88   2.0000      -0.181593        -4.9414
  89   2.0000      -0.160981        -4.3805
  90   0.0000       0.078494         2.1359
  91   0.0000       0.082662         2.2493
  92   0.0000       0.088769         2.4155
  93   0.0000       0.090937         2.4745
  94   0.0000       0.094154         2.5621

MULLIKEN ATOMIC CHARGES
-----------------------
   0 C :   -0.558045
   1 C :   -0.504734
   2 H :    0.261574
   3 H :    0.163167
   4 H :    0.159990
   5 H :    0.167913
   6 C :    0.502812
   7 H :    0.126377
   8 C :   -0.470663
   9 H :    0.052508
  10 C :    0.776184
  11 C :   -0.555163
  12 H :    0.052695
  13 C :   -0.462855
  14 H :    0.007632
  15 C :    0.080030
  16 H :    0.244367
  17 C :   -0.860896
  18 H :    0.164591
  19 H :    0.183851
  20 H :    0.232649
  21 C :    2.131537
  22 C :   -1.258635
  23 O :   -1.284948
  24 C :    1.464722
  25 C :    1.257200
  26 O :   -1.321999
  27 O :   -1.146792
  28 C :    0.141130
  29 H :    0.385479
  30 C :    0.761565
  31 C :   -0.702085
  32 H :    0.152041
  33 H :    0.434218
  34 C :   -1.006665
  35 H :    0.177021
  36 H :    0.222665
  37 H :    0.246160
  38 N :   -0.843554
  39 H :   -0.011248
  40 C :   -1.200926
  41 H :    0.248055
  42 H :    0.190667
  43 H :    0.237016
  44 H :    0.171058
  45 C :   -0.507872
  46 H :    0.189496
  47 H :    0.117839
  48 H :    0.277843
  49 C :   -0.574979
  50 H :    0.180611
  51 H :    0.109392
Sum of atomic charges:   -1.0000000

LOEWDIN ATOMIC CHARGES
----------------------
   0 C :    0.532027
   1 C :    0.523986
   2 H :   -0.261870
   3 H :   -0.267827
   4 H :   -0.266090
   5 H :   -0.267071
   6 C :    0.267262
   7 H :   -0.345795
   8 C :    0.246460
   9 H :   -0.429502
  10 C :    0.252374
  11 C :    0.365489
  12 H :   -0.301940
  13 C :    0.337017
  14 H :   -0.316909
  15 C :    0.299481
  16 H :   -0.337251
  17 C :    0.912622
  18 H :   -0.294501
  19 H :   -0.363842
  20 H :   -0.265805
  21 C :   -0.751725
  22 C :   -0.160318
  23 O :    0.730227
  24 C :   -0.922955
  25 C :   -0.752654
  26 O :    0.752331
  27 O :    0.651897
  28 C :   -0.108317
  29 H :   -0.273735
  30 C :    0.100061
  31 C :    0.504805
  32 H :   -0.265559
  33 H :   -0.326128
  34 C :    0.935880
  35 H :   -0.275879
  36 H :   -0.279537
  37 H :   -0.298957
  38 N :    0.818545
  39 H :   -0.495159
  40 C :    0.923789
  41 H :   -0.292128
  42 H :   -0.275470
  43 H :   -0.274976
  44 H :   -0.296750
  45 C :    0.516505
  46 H :   -0.264544
  47 H :   -0.270285
  48 H :   -0.358132
  49 C :    0.525049
  50 H :   -0.265831
  51 H :   -0.268367

  Mayer bond orders larger than 0.100000
B(  0-C ,  1-C ) :   0.8549 B(  0-C ,  4-H ) :   1.1155 B(  0-C ,  5-H ) :   1.0674
B(  0-C ,  6-C ) :  -0.2417 B(  0-C , 49-C ) :   0.7959 B(  0-C , 50-H ) :  -0.1013
B(  1-C ,  2-H ) :   0.9830 B(  1-C ,  3-H ) :   1.1131 B(  1-C ,  4-H ) :  -0.1487
B(  1-C ,  6-C ) :   0.6125 B(  1-C ,  8-C ) :  -0.1336 B(  6-C ,  7-H ) :   0.9516
B(  6-C ,  8-C ) :   1.0211 B(  6-C , 10-C ) :   0.3286 B(  6-C , 13-C ) :   0.1397
B(  6-C , 15-C ) :   0.2824 B(  6-C , 22-C ) :  -0.2288 B(  6-C , 23-O ) :  -0.1104
B(  7-H , 22-C ) :  -0.1133 B(  8-C ,  9-H ) :   1.1263 B(  8-C , 21-C ) :   0.9990
B(  8-C , 23-O ) :   0.6073 B(  8-C , 25-C ) :   0.2013 B(  8-C , 26-O ) :  -0.2463
B(  9-H , 21-C ) :  -0.1167 B(  9-H , 22-C ) :   0.1569 B(  9-H , 26-O ) :   0.2319
B( 10-C , 11-C ) :   0.7804 B( 10-C , 12-H ) :  -0.1109 B( 10-C , 13-C ) :  -0.4186
B( 10-C , 15-C ) :   0.1628 B( 10-C , 45-C ) :   0.2590 B( 10-C , 46-H ) :  -0.2355
B( 10-C , 47-H ) :  -0.1578 B( 10-C , 48-H ) :   1.0806 B( 10-C , 49-C ) :  -0.1579
B( 11-C , 12-H ) :   1.3264 B( 11-C , 13-C ) :   1.1629 B( 11-C , 14-H ) :  -0.2522
B( 11-C , 15-C ) :  -0.3027 B( 11-C , 45-C ) :  -0.1489 B( 12-H , 13-C ) :  -0.2025
B( 13-C , 14-H ) :   1.2855 B( 13-C , 15-C ) :   1.3172 B( 13-C , 17-C ) :  -0.2363
B( 15-C , 16-H ) :   0.9947 B( 15-C , 17-C ) :   0.4778 B( 15-C , 18-H ) :  -0.1793
B( 15-C , 19-H ) :  -0.1282 B( 15-C , 48-H ) :  -0.1072 B( 17-C , 18-H ) :   1.0714
B( 17-C , 19-H ) :   1.0424 B( 17-C , 20-H ) :   1.0682 B( 21-C , 22-C ) :   0.2918
B( 21-C , 23-O ) :  -0.8125 B( 21-C , 24-C ) :  -0.2860 B( 21-C , 25-C ) :  -0.1375
B( 21-C , 27-O ) :  -0.1142 B( 22-C , 23-O ) :   0.8495 B( 22-C , 24-C ) :   1.5004
B( 22-C , 25-C ) :   0.7138 B( 22-C , 26-O ) :   0.3581 B( 22-C , 27-O ) :   1.2416
B( 22-C , 28-C ) :  -0.4454 B( 22-C , 38-N ) :  -0.4021 B( 24-C , 27-O ) :  -0.4446
B( 24-C , 28-C ) :  -0.1151 B( 24-C , 38-N ) :   1.5215 B( 25-C , 28-C ) :   1.2939
B( 25-C , 29-H ) :   0.1054 B( 25-C , 30-C ) :  -0.1313 B( 25-C , 38-N ) :   0.2279
B( 26-O , 28-C ) :   0.1683 B( 27-O , 28-C ) :   0.1222 B( 27-O , 38-N ) :   0.2614
B( 28-C , 29-H ) :   0.7110 B( 28-C , 30-C ) :   0.8224 B( 28-C , 38-N ) :   0.3139
B( 28-C , 39-H ) :  -0.1002 B( 30-C , 31-C ) :   0.4948 B( 30-C , 34-C ) :  -0.1486
B( 30-C , 40-C ) :   0.2371 B( 30-C , 41-H ) :  -0.2148 B( 30-C , 42-H ) :  -0.1774
B( 30-C , 43-H ) :  -0.1076 B( 30-C , 44-H ) :   0.9852 B( 31-C , 32-H ) :   1.0625
B( 31-C , 33-H ) :   0.6353 B( 31-C , 34-C ) :   0.7438 B( 31-C , 36-H ) :  -0.1990
B( 31-C , 40-C ) :   0.1425 B( 33-H , 34-C ) :  -0.1346 B( 34-C , 35-H ) :   1.0591
B( 34-C , 36-H ) :   1.1098 B( 34-C , 37-H ) :   1.0447 B( 38-N , 39-H ) :   1.2577
B( 40-C , 41-H ) :   1.1297 B( 40-C , 42-H ) :   1.0973 B( 40-C , 43-H ) :   1.0667
B( 45-C , 46-H ) :   1.1205 B( 45-C , 47-H ) :   1.1517 B( 45-C , 49-C ) :   0.9213
B( 49-C , 50-H ) :   1.0684 B( 49-C , 51-H ) :   1.0761

MP2 TOTAL ENERGY:    -1057.678988893 Eh
FINAL SINGLE POINT ENERGY     -1057.678988892503

DIPOLE MOMENT
-------------
                                X             Y             Z
Electronic contribution:      0.66340     -13.98544       7.36924
Nuclear contribution   :      0.11137      15.51827      -9.06424
                        -----------------------------------------
Total Dipole Moment    :      0.77477       1.53284      -1.69500
                        -----------------------------------------
Magnitude (a.u.)       :      2.41307
Magnitude (Debye)      :      6.13353

Rotational constants in cm-1:     0.016067     0.004158     0.004033
Rotational constants in MHz :   481.675577   124.655753   120.912249

                             ****ORCA TERMINATED NORMALLY****
TOTAL RUN TIME: 0 days 16 hours 14 minutes 21 seconds 174 msec
