                         Program Version 4.2.1 -  RELEASE  -
|  1> %pal
|  2>  nprocs 32
|  3> end
|  4> !RI-MP2 aug-cc-pVQZ aug-cc-pVQZ/C TightSCF
|  5> %maxcore 4500
|  6> *xyzfile 0 1  09_21R1.xyz
|  7>
|  8>
|  9>                          ****END OF INPUT****

CARTESIAN COORDINATES (ANGSTROEM)
---------------------------------
  C     -3.551814   -0.563157    0.028392
  C     -2.247905   -0.738748    0.199358
  C     -1.295544    0.387288   -0.024427
  O     -1.702147    1.515887   -0.209156
  C      0.173293    0.108144   -0.002026
  C      0.702478   -1.176693   -0.110663
  C      2.076591   -1.370736   -0.111441
  C      2.931188   -0.284663    0.008454
  C      2.410935    1.000142    0.117736
  C      1.041283    1.195046    0.105142
  H      0.614879    2.187259    0.176548
  H      3.077274    1.849126    0.209726
  H      4.003729   -0.437863    0.014589
  H      2.479369   -2.371651   -0.206236
  H      0.051268   -2.034010   -0.216566
  H     -1.859065   -1.696427    0.519839
  H     -3.933449    0.401437   -0.285852
  H     -4.259864   -1.364699    0.198044

 Total Charge           Charge          ....    0
 Multiplicity           Mult            ....    1
 Number of Electrons    NEL             ....   70
 Basis Dimension        Dim             .... 1168

ORBITAL ENERGIES
----------------

  NO   OCC          E(Eh)            E(eV)
   0   2.0000     -20.536911      -558.8378
   1   2.0000     -11.333814      -308.4088
   2   2.0000     -11.252401      -306.1934
   3   2.0000     -11.251889      -306.1795
   4   2.0000     -11.249540      -306.1155
   5   2.0000     -11.247084      -306.0487
   6   2.0000     -11.243686      -305.9563
   7   2.0000     -11.243328      -305.9465
   8   2.0000     -11.241155      -305.8874
   9   2.0000     -11.241096      -305.8858
  10   2.0000      -1.385814       -37.7099
  11   2.0000      -1.169617       -31.8269
  12   2.0000      -1.075644       -29.2698
  13   2.0000      -1.039701       -28.2917
  14   2.0000      -1.029222       -28.0066
  15   2.0000      -0.899664       -24.4811
  16   2.0000      -0.845355       -23.0033
  17   2.0000      -0.818860       -22.2823
  18   2.0000      -0.745128       -20.2760
  19   2.0000      -0.721595       -19.6356
  20   2.0000      -0.676042       -18.3960
  21   2.0000      -0.651965       -17.7409
  22   2.0000      -0.633813       -17.2469
  23   2.0000      -0.618467       -16.8294
  24   2.0000      -0.602889       -16.4055
  25   2.0000      -0.592126       -16.1126
  26   2.0000      -0.557187       -15.1618
  27   2.0000      -0.542096       -14.7512
  28   2.0000      -0.523959       -14.2577
  29   2.0000      -0.504385       -13.7250
  30   2.0000      -0.502751       -13.6805
  31   2.0000      -0.422754       -11.5037
  32   2.0000      -0.388946       -10.5838
  33   2.0000      -0.351475        -9.5641
  34   2.0000      -0.347475        -9.4553
  35   0.0000       0.021699         0.5905
  36   0.0000       0.024992         0.6801
  37   0.0000       0.030665         0.8344
  38   0.0000       0.038440         1.0460
  39   0.0000       0.041280         1.1233

MULLIKEN ATOMIC CHARGES
-----------------------
   0 C :   -0.789693
   1 C :   -0.626313
   2 C :    1.227339
   3 O :   -0.828572
   4 C :   -0.130058
   5 C :   -0.069347
   6 C :   -0.348476
   7 C :   -0.366492
   8 C :   -0.349344
   9 C :   -0.302776
  10 H :    0.289308
  11 H :    0.258722
  12 H :    0.306578
  13 H :    0.256452
  14 H :    0.322341
  15 H :    0.422298
  16 H :    0.388829
  17 H :    0.339206
Sum of atomic charges:    0.0000000

LOEWDIN ATOMIC CHARGES
----------------------
   0 C :    0.794038
   1 C :    0.315193
   2 C :   -0.704529
   3 O :    0.737697
   4 C :   -0.126599
   5 C :    0.327976
   6 C :    0.355319
   7 C :    0.344249
   8 C :    0.357315
   9 C :    0.317743
  10 H :   -0.340428
  11 H :   -0.318920
  12 H :   -0.316125
  13 H :   -0.319292
  14 H :   -0.347121
  15 H :   -0.383040
  16 H :   -0.360683
  17 H :   -0.332792

  Mayer bond orders larger than 0.100000
B(  0-C ,  1-C ) :   1.6588 B(  0-C ,  2-C ) :  -0.2306 B(  0-C , 16-H ) :   0.8358
B(  0-C , 17-H ) :   1.0282 B(  1-C ,  2-C ) :   0.8402 B(  1-C ,  3-O ) :   0.1357
B(  1-C ,  4-C ) :  -0.1469 B(  1-C ,  5-C ) :  -0.1131 B(  1-C , 15-H ) :   0.8221
B(  1-C , 17-H ) :  -0.1169 B(  2-C ,  3-O ) :   0.7274 B(  2-C ,  4-C ) :   0.9899
B(  2-C ,  5-C ) :  -0.3431 B(  2-C ,  9-C ) :  -0.3281 B(  3-O ,  4-C ) :   0.4634
B(  3-O ,  9-C ) :  -0.1096 B(  3-O , 10-H ) :   0.1158 B(  4-C ,  5-C ) :   1.0982
B(  4-C ,  6-C ) :  -0.2674 B(  4-C ,  8-C ) :  -0.3136 B(  4-C ,  9-C ) :   1.0691
B(  4-C , 14-H ) :  -0.1018 B(  5-C ,  6-C ) :   1.1365 B(  5-C , 13-H ) :  -0.1211
B(  5-C , 14-H ) :   0.9441 B(  6-C ,  7-C ) :   1.2073 B(  6-C ,  9-C ) :   0.1346
B(  6-C , 13-H ) :   1.1057 B(  7-C ,  8-C ) :   1.1915 B(  7-C , 12-H ) :   1.0259
B(  8-C ,  9-C ) :   1.2819 B(  8-C , 11-H ) :   1.1154 B(  9-C , 10-H ) :   0.9027
B(  9-C , 11-H ) :  -0.1386

MP2 TOTAL ENERGY:     -422.245584675 Eh
FINAL SINGLE POINT ENERGY      -422.245584675260

DIPOLE MOMENT
-------------
                                X             Y             Z
Electronic contribution:      0.29757       2.33772      -0.24344
Nuclear contribution   :      0.14653      -3.42478       0.40465
                        -----------------------------------------
Total Dipole Moment    :      0.44410      -1.08706       0.16121
                        -----------------------------------------
Magnitude (a.u.)       :      1.18529
Magnitude (Debye)      :      3.01277

Rotational constants in cm-1:     0.117216     0.028335     0.022965
Rotational constants in MHz :  3514.046432   849.453510   688.465036

                             ****ORCA TERMINATED NORMALLY****
TOTAL RUN TIME: 0 days 0 hours 43 minutes 44 seconds 917 msec
