                         Program Version 4.2.1 -  RELEASE  -
|  1> %pal
|  2>  nprocs 32
|  3> end
|  4> !RI-MP2 aug-cc-pVQZ aug-cc-pVQZ/C TightSCF
|  5> %maxcore 4500
|  6> *xyzfile 0 1  02_38TS.xyz
|  7>
|  8>
|  9>                          ****END OF INPUT****

CARTESIAN COORDINATES (ANGSTROEM)
---------------------------------
  C     -5.292603    0.358811   -1.146888
  C     -4.185014    0.963708   -1.719417
  C     -2.922914    0.785644   -1.172526
  C     -2.737522   -0.006253   -0.033131
  C     -3.864462   -0.614933    0.537689
  C     -5.119764   -0.429574   -0.017107
  H     -6.277996    0.498994   -1.574220
  H     -4.297171    1.582333   -2.601998
  H     -2.078458    1.269602   -1.643347
  H     -3.749447   -1.228225    1.417476
  H     -5.974529   -0.909721    0.444604
  C     -1.390790   -0.188949    0.533498
  C     -1.088788   -1.025322    1.679578
  O     -1.853731   -1.624987    2.375688
  O      0.276426   -1.143421    1.982901
  N     -0.357402    0.451592   -0.008117
  N     -0.019235    1.245742   -0.804142
  C      1.167622   -0.513801    1.166220
  C      1.670945    0.709247    1.592382
  H      1.425091    0.997314    2.609326
  C      1.798681   -1.396600    0.152541
  C      1.039201   -2.293620   -0.597918
  C      3.185260   -1.393235    0.003299
  C      1.652590   -3.142839   -1.503971
  H     -0.036594   -2.321266   -0.484642
  C      3.798011   -2.246918   -0.899415
  H      3.782110   -0.720256    0.605149
  C      3.032147   -3.119609   -1.660425
  H      1.050209   -3.827131   -2.088333
  H      4.876273   -2.238007   -1.001125
  H      3.509785   -3.787545   -2.366839
  C      2.099532    1.689930    0.709187
  C      2.341727    3.130453    1.107207
  C      1.988812    1.600440   -0.677715
  C      1.925949    3.921324   -0.144424
  H      3.406934    3.271569    1.321827
  C      2.175870    2.948571   -1.308212
  H      2.157665    0.697094   -1.241403
  H      0.859360    4.148612   -0.091547
  H      2.463469    4.863477   -0.250881
  H      1.500825    3.097885   -2.152485
  H      3.199961    3.032961   -1.690839
  H      1.790485    3.419378    2.003664

 Total Charge           Charge          ....    0
 Multiplicity           Mult            ....    1
 Number of Electrons    NEL             ....  174
 Basis Dimension        Dim             .... 2828

ORBITAL ENERGIES
----------------

  NO   OCC          E(Eh)            E(eV)
   0   2.0000     -20.610970      -560.8530
   1   2.0000     -20.531888      -558.7011
   2   2.0000     -15.709128      -427.4671
   3   2.0000     -15.654330      -425.9760
   4   2.0000     -11.385881      -309.8256
   5   2.0000     -11.358556      -309.0820
   6   2.0000     -11.274012      -306.7815
   7   2.0000     -11.271474      -306.7124
   8   2.0000     -11.265142      -306.5401
   9   2.0000     -11.264162      -306.5134
  10   2.0000     -11.257047      -306.3198
  11   2.0000     -11.256035      -306.2923
  12   2.0000     -11.255768      -306.2850
  13   2.0000     -11.252194      -306.1878
  14   2.0000     -11.250965      -306.1543
  15   2.0000     -11.250026      -306.1288
  16   2.0000     -11.247415      -306.0577
  17   2.0000     -11.243975      -305.9641
  18   2.0000     -11.239951      -305.8546
  19   2.0000     -11.236133      -305.7507
  20   2.0000     -11.223702      -305.4125
  21   2.0000     -11.221050      -305.3403
  22   2.0000     -11.220360      -305.3215
  23   2.0000     -11.218572      -305.2729
  24   2.0000     -11.213866      -305.1448
  25   2.0000      -1.473898       -40.1068
  26   2.0000      -1.430843       -38.9352
  27   2.0000      -1.375632       -37.4329
  28   2.0000      -1.187519       -32.3140
  29   2.0000      -1.173806       -31.9409
  30   2.0000      -1.156716       -31.4758
  31   2.0000      -1.114077       -30.3156
  32   2.0000      -1.098043       -29.8793
  33   2.0000      -1.043958       -28.4075
  34   2.0000      -1.037761       -28.2389
  35   2.0000      -1.007656       -27.4197
  36   2.0000      -1.005520       -27.3616
  37   2.0000      -0.990202       -26.9448
  38   2.0000      -0.973006       -26.4768
  39   2.0000      -0.891611       -24.2620
  40   2.0000      -0.868365       -23.6294
  41   2.0000      -0.850920       -23.1547
  42   2.0000      -0.842303       -22.9202
  43   2.0000      -0.827145       -22.5078
  44   2.0000      -0.812587       -22.1116
  45   2.0000      -0.804367       -21.8879
  46   2.0000      -0.762603       -20.7515
  47   2.0000      -0.755181       -20.5495
  48   2.0000      -0.733842       -19.9689
  49   2.0000      -0.713095       -19.4043
  50   2.0000      -0.693517       -18.8716
  51   2.0000      -0.684867       -18.6362
  52   2.0000      -0.676378       -18.4052
  53   2.0000      -0.659360       -17.9421
  54   2.0000      -0.654237       -17.8027
  55   2.0000      -0.645599       -17.5676
  56   2.0000      -0.642660       -17.4877
  57   2.0000      -0.639359       -17.3978
  58   2.0000      -0.622624       -16.9425
  59   2.0000      -0.618393       -16.8273
  60   2.0000      -0.614315       -16.7163
  61   2.0000      -0.607689       -16.5361
  62   2.0000      -0.596909       -16.2427
  63   2.0000      -0.588700       -16.0193
  64   2.0000      -0.573193       -15.5974
  65   2.0000      -0.570273       -15.5179
  66   2.0000      -0.567102       -15.4316
  67   2.0000      -0.551314       -15.0020
  68   2.0000      -0.538075       -14.6418
  69   2.0000      -0.530748       -14.4424
  70   2.0000      -0.521733       -14.1971
  71   2.0000      -0.514655       -14.0045
  72   2.0000      -0.509974       -13.8771
  73   2.0000      -0.505416       -13.7531
  74   2.0000      -0.500918       -13.6307
  75   2.0000      -0.499694       -13.5974
  76   2.0000      -0.494280       -13.4501
  77   2.0000      -0.486875       -13.2485
  78   2.0000      -0.472181       -12.8487
  79   2.0000      -0.450220       -12.2511
  80   2.0000      -0.391000       -10.6397
  81   2.0000      -0.379865       -10.3367
  82   2.0000      -0.371027       -10.0962
  83   2.0000      -0.358348        -9.7511
  84   2.0000      -0.328036        -8.9263
  85   2.0000      -0.308590        -8.3972
  86   2.0000      -0.278512        -7.5787
  87   0.0000       0.014186         0.3860
  88   0.0000       0.021081         0.5736
  89   0.0000       0.023558         0.6411
  90   0.0000       0.027650         0.7524
  91   0.0000       0.030241         0.8229

MULLIKEN ATOMIC CHARGES
-----------------------
   0 C :   -0.450291
   1 C :   -0.399694
   2 C :   -0.596209
   3 C :    0.709452
   4 C :   -0.726210
   5 C :   -0.358993
   6 H :    0.346179
   7 H :    0.213864
   8 H :    0.324160
   9 H :    0.366505
  10 H :    0.212001
  11 C :   -0.437497
  12 C :    2.275613
  13 O :   -1.132224
  14 O :   -1.298321
  15 N :    0.242583
  16 N :   -0.580541
  17 C :    2.175473
  18 C :   -0.897572
  19 H :    0.111657
  20 C :    0.944366
  21 C :   -0.862389
  22 C :   -0.597948
  23 C :   -0.613787
  24 H :    0.323232
  25 C :   -0.387009
  26 H :    0.324798
  27 C :   -0.477143
  28 H :    0.201414
  29 H :    0.238752
  30 H :    0.370273
  31 C :    0.440547
  32 C :   -0.729011
  33 C :    0.123614
  34 C :   -0.630429
  35 H :    0.253781
  36 C :   -0.916901
  37 H :    0.697045
  38 H :    0.163210
  39 H :    0.300507
  40 H :    0.309502
  41 H :    0.205072
  42 H :    0.218567
Sum of atomic charges:    0.0000000

LOEWDIN ATOMIC CHARGES
----------------------
   0 C :    0.333632
   1 C :    0.342583
   2 C :    0.318260
   3 C :   -0.109548
   4 C :    0.331608
   5 C :    0.345210
   6 H :   -0.325038
   7 H :   -0.320825
   8 H :   -0.422467
   9 H :   -0.433078
  10 H :   -0.319972
  11 C :   -0.325116
  12 C :   -1.050067
  13 O :    0.723594
  14 O :    0.857686
  15 N :    0.128093
  16 N :    0.551082
  17 C :   -0.584120
  18 C :    0.343748
  19 H :   -0.303510
  20 C :   -0.119360
  21 C :    0.353198
  22 C :    0.334106
  23 C :    0.375338
  24 H :   -0.330193
  25 C :    0.369726
  26 H :   -0.313099
  27 C :    0.356030
  28 H :   -0.312100
  29 H :   -0.314066
  30 H :   -0.313625
  31 C :   -0.074319
  32 C :    0.538248
  33 C :    0.181808
  34 C :    0.539449
  35 H :   -0.253872
  36 C :    0.526365
  37 H :   -0.333097
  38 H :   -0.262779
  39 H :   -0.251034
  40 H :   -0.263408
  41 H :   -0.252993
  42 H :   -0.262077

  Mayer bond orders larger than 0.100000
B(  0-C ,  1-C ) :   1.2649 B(  0-C ,  5-C ) :   1.1570 B(  0-C ,  6-H ) :   1.0064
B(  1-C ,  2-C ) :   1.2294 B(  1-C ,  3-C ) :  -0.5225 B(  1-C ,  4-C ) :   0.2300
B(  1-C ,  6-H ) :  -0.1159 B(  1-C ,  7-H ) :   1.1370 B(  2-C ,  3-C ) :   0.8967
B(  2-C ,  7-H ) :  -0.1324 B(  2-C ,  8-H ) :   0.7348 B(  2-C , 11-C ) :  -0.2833
B(  2-C , 15-N ) :   0.1565 B(  2-C , 16-N ) :  -0.2883 B(  3-C ,  4-C ) :   1.1150
B(  3-C ,  5-C ) :  -0.4219 B(  3-C ,  8-H ) :  -0.1155 B(  3-C ,  9-H ) :  -0.1087
B(  3-C , 11-C ) :   0.2007 B(  3-C , 12-C ) :  -0.2294 B(  3-C , 15-N ) :   0.3586
B(  4-C ,  5-C ) :   1.3086 B(  4-C ,  6-H ) :  -0.1135 B(  4-C ,  9-H ) :   0.8518
B(  4-C , 10-H ) :  -0.1853 B(  4-C , 11-C ) :  -0.2770 B(  5-C , 10-H ) :   1.1968
B(  8-H , 11-C ) :   0.1065 B(  8-H , 16-N ) :   0.1600 B(  9-H , 11-C ) :   0.1213
B( 11-C , 12-C ) :   1.3825 B( 11-C , 13-O ) :   0.6519 B( 11-C , 14-O ) :   0.4769
B( 11-C , 15-N ) :   0.3789 B( 11-C , 17-C ) :  -0.1550 B( 12-C , 13-O ) :   0.1452
B( 12-C , 14-O ) :   0.5998 B( 13-O , 17-C ) :   0.2549 B( 14-O , 17-C ) :  -1.1956
B( 14-O , 18-C ) :   0.3699 B( 14-O , 19-H ) :   0.1102 B( 14-O , 20-C ) :   0.2997
B( 15-N , 16-N ) :   1.0255 B( 15-N , 17-C ) :   0.1774 B( 15-N , 21-C ) :   0.1423
B( 16-N , 18-C ) :   0.1046 B( 16-N , 33-C ) :   0.3001 B( 17-C , 18-C ) :   1.5646
B( 17-C , 19-H ) :  -0.2319 B( 17-C , 20-C ) :   0.1472 B( 17-C , 21-C ) :  -0.3931
B( 17-C , 22-C ) :  -0.1153 B( 18-C , 19-H ) :   1.2286 B( 18-C , 20-C ) :  -0.4615
B( 18-C , 31-C ) :   0.8746 B( 18-C , 33-C ) :  -0.3833 B( 20-C , 21-C ) :   0.8149
B( 20-C , 22-C ) :   0.8113 B( 20-C , 23-C ) :  -0.4926 B( 20-C , 25-C ) :  -0.4023
B( 21-C , 23-C ) :   1.2645 B( 21-C , 24-H ) :   0.9153 B( 21-C , 28-H ) :  -0.1527
B( 22-C , 23-C ) :   0.1240 B( 22-C , 25-C ) :   1.3096 B( 22-C , 26-H ) :   0.9718
B( 22-C , 29-H ) :  -0.1610 B( 23-C , 27-C ) :   1.3024 B( 23-C , 28-H ) :   1.1936
B( 25-C , 27-C ) :   1.1572 B( 25-C , 29-H ) :   1.1727 B( 27-C , 30-H ) :   0.9864
B( 31-C , 32-C ) :   0.1706 B( 31-C , 33-C ) :   1.1723 B( 31-C , 34-C ) :  -0.1587
B( 31-C , 35-H ) :  -0.1930 B( 31-C , 42-H ) :  -0.1708 B( 32-C , 34-C ) :   1.1755
B( 32-C , 35-H ) :   1.0520 B( 32-C , 42-H ) :   1.1144 B( 33-C , 34-C ) :  -0.1652
B( 33-C , 36-C ) :   0.4030 B( 33-C , 37-H ) :   0.4412 B( 33-C , 40-H ) :  -0.1384
B( 33-C , 41-H ) :  -0.1517 B( 34-C , 36-C ) :   1.0849 B( 34-C , 38-H ) :   1.0318
B( 34-C , 39-H ) :   0.9215 B( 36-C , 37-H ) :  -0.1142 B( 36-C , 40-H ) :   1.0041
B( 36-C , 41-H ) :   1.1126

MP2 TOTAL ENERGY:    -1069.159233891 Eh
FINAL SINGLE POINT ENERGY     -1069.159233891231

DIPOLE MOMENT
-------------
                                X             Y             Z
Electronic contribution:     -5.32249     -10.71220       7.35800
Nuclear contribution   :      7.49824      11.68458      -8.62658
                        -----------------------------------------
Total Dipole Moment    :      2.17575       0.97238      -1.26858
                        -----------------------------------------
Magnitude (a.u.)       :      2.69976
Magnitude (Debye)      :      6.86224

Rotational constants in cm-1:     0.010328     0.005958     0.004832
Rotational constants in MHz :   309.615138   178.603306   144.871982

                             ****ORCA TERMINATED NORMALLY****
TOTAL RUN TIME: 0 days 15 hours 11 minutes 5 seconds 872 msec
