                         Program Version 4.2.1 -  RELEASE  -
|  1> %pal
|  2>  nprocs 32
|  3> end
|  4> !RI-MP2 aug-cc-pVQZ aug-cc-pVQZ/C TightSCF
|  5> %maxcore 4500
|  6> *xyzfile 0 1  02_1R1.xyz
|  7>
|  8>
|  9>                          ****END OF INPUT****

CARTESIAN COORDINATES (ANGSTROEM)
---------------------------------
  C     -1.412557    0.674272   -0.000025
  O     -2.741037    0.418597   -0.000016
  C     -0.415228   -0.213543    0.000019
  C      1.008439    0.140179    0.000001
  C      1.358896    1.602418   -0.000048
  C      1.916161   -0.844388    0.000021
  C      3.408210   -0.740018    0.000003
  C     -3.144135   -0.934998    0.000045
  H      2.432699    1.771281    0.000007
  H      0.943027    2.100408   -0.880330
  H      0.942928    2.100488    0.880140
  H      3.829936   -1.240156    0.877414
  H      3.829921   -1.240316   -0.877324
  H      3.769240    0.287205   -0.000096
  H     -4.231705   -0.930499    0.000041
  H     -2.779075   -1.453433   -0.892139
  H     -2.779081   -1.453350    0.892280
  H      1.533946   -1.863075    0.000057
  H     -1.245577    1.743190   -0.000077
  H     -0.636679   -1.274045    0.000068

 Total Charge           Charge          ....    0
 Multiplicity           Mult            ....    1
 Number of Electrons    NEL             ....   62
 Basis Dimension        Dim             .... 1192

ORBITAL ENERGIES
----------------

  NO   OCC          E(Eh)            E(eV)
   0   2.0000     -20.580668      -560.0284
   1   2.0000     -11.284941      -307.0789
   2   2.0000     -11.278452      -306.9023
   3   2.0000     -11.232660      -305.6562
   4   2.0000     -11.217689      -305.2488
   5   2.0000     -11.216115      -305.2060
   6   2.0000     -11.216109      -305.2059
   7   2.0000     -11.214796      -305.1701
   8   2.0000      -1.408358       -38.3234
   9   2.0000      -1.108342       -30.1595
  10   2.0000      -1.024761       -27.8852
  11   2.0000      -0.975242       -26.5377
  12   2.0000      -0.947904       -25.7938
  13   2.0000      -0.897075       -24.4106
  14   2.0000      -0.775328       -21.0978
  15   2.0000      -0.721097       -19.6220
  16   2.0000      -0.687314       -18.7028
  17   2.0000      -0.662012       -18.0143
  18   2.0000      -0.651364       -17.7245
  19   2.0000      -0.619264       -16.8510
  20   2.0000      -0.577659       -15.7189
  21   2.0000      -0.569221       -15.4893
  22   2.0000      -0.554342       -15.0844
  23   2.0000      -0.543082       -14.7780
  24   2.0000      -0.526482       -14.3263
  25   2.0000      -0.516477       -14.0540
  26   2.0000      -0.500593       -13.6218
  27   2.0000      -0.491591       -13.3769
  28   2.0000      -0.474884       -12.9223
  29   2.0000      -0.400972       -10.9110
  30   2.0000      -0.291256        -7.9255
  31   0.0000       0.024503         0.6668
  32   0.0000       0.028481         0.7750
  33   0.0000       0.030949         0.8422
  34   0.0000       0.037148         1.0108
  35   0.0000       0.039995         1.0883

MULLIKEN ATOMIC CHARGES
-----------------------
   0 C :    0.471789
   1 O :   -0.981810
   2 C :   -0.938239
   3 C :    0.271765
   4 C :   -0.636806
   5 C :   -0.278552
   6 C :   -0.791303
   7 C :   -0.661460
   8 H :    0.322236
   9 H :    0.214263
  10 H :    0.214221
  11 H :    0.223581
  12 H :    0.223566
  13 H :    0.264573
  14 H :    0.524511
  15 H :    0.255434
  16 H :    0.255430
  17 H :    0.171823
  18 H :    0.560418
  19 H :    0.314559
Sum of atomic charges:    0.0000000

LOEWDIN ATOMIC CHARGES
----------------------
   0 C :    0.008127
   1 O :    0.867313
   2 C :    0.315133
   3 C :   -0.055827
   4 C :    0.878545
   5 C :    0.382921
   6 C :    0.903825
   7 C :    0.557221
   8 H :   -0.330208
   9 H :   -0.280036
  10 H :   -0.280047
  11 H :   -0.287826
  12 H :   -0.287829
  13 H :   -0.336183
  14 H :   -0.319171
  15 H :   -0.308646
  16 H :   -0.308646
  17 H :   -0.339968
  18 H :   -0.384494
  19 H :   -0.394202

  Mayer bond orders larger than 0.100000
B(  0-C ,  1-O ) :   0.2894 B(  0-C ,  2-C ) :   1.9268 B(  0-C ,  3-C ) :  -0.4415
B(  0-C , 18-H ) :   0.6798 B(  1-O ,  2-C ) :   0.3868 B(  1-O ,  7-C ) :   0.9286
B(  2-C ,  3-C ) :   0.7624 B(  2-C ,  5-C ) :  -0.3865 B(  2-C , 19-H ) :   0.9066
B(  3-C ,  4-C ) :   0.7245 B(  3-C ,  5-C ) :   1.3529 B(  3-C ,  6-C ) :  -0.1254
B(  3-C , 17-H ) :  -0.1376 B(  4-C ,  8-H ) :   0.9422 B(  4-C ,  9-H ) :   1.0026
B(  4-C , 10-H ) :   1.0026 B(  5-C ,  6-C ) :   0.7656 B(  5-C , 11-H ) :  -0.1047
B(  5-C , 12-H ) :  -0.1047 B(  5-C , 17-H ) :   1.1255 B(  6-C , 11-H ) :   1.0282
B(  6-C , 12-H ) :   1.0282 B(  6-C , 13-H ) :   0.9519 B(  7-C , 14-H ) :   0.7203
B(  7-C , 15-H ) :   0.9230 B(  7-C , 16-H ) :   0.9230

MP2 TOTAL ENERGY:     -348.536280164 Eh
FINAL SINGLE POINT ENERGY      -348.536280163628

DIPOLE MOMENT
-------------
                                X             Y             Z
Electronic contribution:     -5.68839       1.16782      -0.00003
Nuclear contribution   :      5.77819      -1.50072       0.00004
                        -----------------------------------------
Total Dipole Moment    :      0.08980      -0.33290       0.00001
                        -----------------------------------------
Magnitude (a.u.)       :      0.34480
Magnitude (Debye)      :      0.87641

Rotational constants in cm-1:     0.170826     0.029207     0.025296
Rotational constants in MHz :  5121.236805   875.616903   758.355152

                             ****ORCA TERMINATED NORMALLY****
TOTAL RUN TIME: 0 days 0 hours 36 minutes 22 seconds 32 msec
