                         Program Version 4.2.1 -  RELEASE  -
|  1> %pal
|  2>  nprocs 32
|  3> end
|  4> !RI-MP2 aug-cc-pVQZ aug-cc-pVQZ/C TightSCF
|  5> %maxcore 4500
|  6> *xyzfile -1 1  07_2R.xyz
|  7>
|  8>
|  9>                          ****END OF INPUT****

CARTESIAN COORDINATES (ANGSTROEM)
---------------------------------
  O      2.344375    0.735017   -0.000012
  H      1.291203    1.729454   -0.000119
  O      2.257963   -1.509466    0.000175
  O      0.310045    2.091195   -0.000173
  C      1.739619   -0.391046    0.000074
  C      0.219389   -0.290680    0.000040
  C     -0.411568    0.970166   -0.000078
  C     -1.809689    1.039702   -0.000132
  H     -2.274664    2.018914   -0.000232
  C     -2.567082   -0.119332   -0.000054
  H     -3.650494   -0.047894   -0.000093
  C     -1.951794   -1.368804    0.000071
  C     -0.564901   -1.435799    0.000111
  H     -2.547456   -2.274741    0.000128
  H     -0.041498   -2.384952    0.000204

 Total Charge           Charge          ....   -1
 Multiplicity           Mult            ....    1
 Number of Electrons    NEL             ....   72
 Basis Dimension        Dim             .... 1030

ORBITAL ENERGIES
----------------

  NO   OCC          E(Eh)            E(eV)
   0   2.0000     -20.403546      -555.2087
   1   2.0000     -20.339268      -553.4596
   2   2.0000     -20.329306      -553.1885
   3   2.0000     -11.178689      -304.1876
   4   2.0000     -11.161517      -303.7203
   5   2.0000     -11.117034      -302.5099
   6   2.0000     -11.102657      -302.1186
   7   2.0000     -11.094841      -301.9060
   8   2.0000     -11.092942      -301.8543
   9   2.0000     -11.081708      -301.5486
  10   2.0000      -1.246003       -33.9055
  11   2.0000      -1.211234       -32.9593
  12   2.0000      -1.117874       -30.4189
  13   2.0000      -1.012338       -27.5471
  14   2.0000      -0.889790       -24.2124
  15   2.0000      -0.864987       -23.5375
  16   2.0000      -0.718482       -19.5509
  17   2.0000      -0.682241       -18.5647
  18   2.0000      -0.615260       -16.7421
  19   2.0000      -0.561101       -15.2683
  20   2.0000      -0.545094       -14.8328
  21   2.0000      -0.510230       -13.8841
  22   2.0000      -0.474648       -12.9158
  23   2.0000      -0.460628       -12.5343
  24   2.0000      -0.444002       -12.0819
  25   2.0000      -0.442376       -12.0377
  26   2.0000      -0.414553       -11.2805
  27   2.0000      -0.399444       -10.8694
  28   2.0000      -0.394717       -10.7408
  29   2.0000      -0.356962        -9.7134
  30   2.0000      -0.342336        -9.3154
  31   2.0000      -0.256818        -6.9884
  32   2.0000      -0.246719        -6.7136
  33   2.0000      -0.245007        -6.6670
  34   2.0000      -0.208943        -5.6856
  35   2.0000      -0.170143        -4.6298
  36   0.0000       0.095529         2.5995
  37   0.0000       0.101360         2.7581
  38   0.0000       0.113249         3.0817
  39   0.0000       0.127073         3.4578
  40   0.0000       0.136073         3.7027

MULLIKEN ATOMIC CHARGES
-----------------------
   0 O :   -0.937067
   1 H :    0.422203
   2 O :   -0.925797
   3 O :   -0.917464
   4 C :    1.451699
   5 C :   -0.641637
   6 C :    1.211240
   7 C :   -0.597559
   8 H :    0.282537
   9 C :   -0.431018
  10 H :    0.213166
  11 C :   -0.465567
  12 C :   -0.159480
  13 H :    0.227747
  14 H :    0.266997
Sum of atomic charges:   -1.0000000

LOEWDIN ATOMIC CHARGES
----------------------
   0 O :    0.796783
   1 H :   -1.334416
   2 O :    0.550620
   3 O :    1.196531
   4 C :   -1.297225
   5 C :   -0.182794
   6 C :   -0.502883
   7 C :    0.299511
   8 H :   -0.346559
   9 C :    0.284692
  10 H :   -0.336157
  11 C :    0.308047
  12 C :    0.272110
  13 H :   -0.347952
  14 H :   -0.360307

  Mayer bond orders larger than 0.100000
B(  0-O ,  1-H ) :   0.1536 B(  0-O ,  2-O ) :   0.1832 B(  0-O ,  4-C ) :   1.0748
B(  1-H ,  3-O ) :   0.7207 B(  2-O ,  4-C ) :   1.1372 B(  2-O ,  5-C ) :   0.3491
B(  3-O ,  5-C ) :   0.3241 B(  3-O ,  7-C ) :   0.3088 B(  4-C ,  5-C ) :   1.3168
B(  4-C ,  6-C ) :  -0.2220 B(  4-C , 12-C ) :  -0.2102 B(  5-C ,  6-C ) :   1.1827
B(  5-C ,  7-C ) :  -0.1800 B(  5-C , 11-C ) :  -0.2127 B(  5-C , 12-C ) :   1.0372
B(  5-C , 14-H ) :  -0.1021 B(  6-C ,  7-C ) :   1.2151 B(  6-C ,  9-C ) :  -0.1695
B(  7-C ,  8-H ) :   0.9746 B(  7-C ,  9-C ) :   1.2821 B(  7-C , 10-H ) :  -0.1339
B(  7-C , 12-C ) :   0.1036 B(  9-C , 10-H ) :   1.1418 B(  9-C , 11-C ) :   1.2617
B( 10-H , 11-C ) :  -0.1017 B( 11-C , 12-C ) :   1.1751 B( 11-C , 13-H ) :   1.1260
B( 12-C , 13-H ) :  -0.1464 B( 12-C , 14-H ) :   0.9533

MP2 TOTAL ENERGY:     -494.811390983 Eh
FINAL SINGLE POINT ENERGY      -494.811390982942

DIPOLE MOMENT
-------------
                                X             Y             Z
Electronic contribution:      4.13173       0.91509       0.00005
Nuclear contribution   :     -6.94896      -0.91265      -0.00011
                        -----------------------------------------
Total Dipole Moment    :     -2.81723       0.00244      -0.00006
                        -----------------------------------------
Magnitude (a.u.)       :      2.81723
Magnitude (Debye)      :      7.16083

Rotational constants in cm-1:     0.081188     0.041660     0.027532
Rotational constants in MHz :  2433.955771  1248.927838   825.395381

                             ****ORCA TERMINATED NORMALLY****
TOTAL RUN TIME: 0 days 0 hours 35 minutes 22 seconds 818 msec
