                         Program Version 4.2.1 -  RELEASE  -
|  1> %pal
|  2>  nprocs 32
|  3> end
|  4> !RI-MP2 aug-cc-pVQZ aug-cc-pVQZ/C TightSCF
|  5> %maxcore 4500
|  6> *xyzfile 0 1  03_1R1.xyz
|  7>
|  8>
|  9>                          ****END OF INPUT****

CARTESIAN COORDINATES (ANGSTROEM)
---------------------------------
  C      0.000001    0.000001   -0.006963
  C     -1.335246    0.578142   -0.433795
  C      0.166927   -1.445466   -0.433661
  C      1.168342    0.867254   -0.433762
  H     -2.153240   -0.032974   -0.049415
  H     -1.406917    0.609127   -1.523041
  H     -1.449253    1.592851   -0.049495
  H     -0.654800   -2.051519   -0.049233
  H      1.105199   -1.848263   -0.049307
  H      0.175851   -1.523145   -1.522898
  H      1.048097    1.881235   -0.049434
  H      1.231079    0.913787   -1.523005
  H      2.104076    0.458627   -0.049381
  F     -0.000026    0.000076    1.412699

 Total Charge           Charge          ....    0
 Multiplicity           Mult            ....    1
 Number of Electrons    NEL             ....   42
 Basis Dimension        Dim             ....  814

ORBITAL ENERGIES
----------------

  NO   OCC          E(Eh)            E(eV)
   0   2.0000     -26.254890      -714.4319
   1   2.0000     -11.311928      -307.8132
   2   2.0000     -11.219379      -305.2948
   3   2.0000     -11.219379      -305.2948
   4   2.0000     -11.219357      -305.2942
   5   2.0000      -1.565113       -42.5889
   6   2.0000      -1.089096       -29.6358
   7   2.0000      -0.950971       -25.8772
   8   2.0000      -0.950971       -25.8772
   9   2.0000      -0.784168       -21.3383
  10   2.0000      -0.667095       -18.1526
  11   2.0000      -0.667095       -18.1526
  12   2.0000      -0.659815       -17.9545
  13   2.0000      -0.585726       -15.9384
  14   2.0000      -0.585724       -15.9384
  15   2.0000      -0.551692       -15.0123
  16   2.0000      -0.537410       -14.6237
  17   2.0000      -0.537409       -14.6236
  18   2.0000      -0.524214       -14.2646
  19   2.0000      -0.475327       -12.9343
  20   2.0000      -0.475327       -12.9343
  21   0.0000       0.025485         0.6935
  22   0.0000       0.033424         0.9095
  23   0.0000       0.033424         0.9095
  24   0.0000       0.040050         1.0898
  25   0.0000       0.054133         1.4730

MULLIKEN ATOMIC CHARGES
-----------------------
   0 C :    1.230537
   1 C :   -0.915794
   2 C :   -0.915791
   3 C :   -0.915790
   4 H :    0.269524
   5 H :    0.241511
   6 H :    0.269543
   7 H :    0.269530
   8 H :    0.269521
   9 H :    0.241516
  10 H :    0.269530
  11 H :    0.241521
  12 H :    0.269515
  13 F :   -0.824872
Sum of atomic charges:   -0.0000000

LOEWDIN ATOMIC CHARGES
----------------------
   0 C :   -0.856892
   1 C :    0.875801
   2 C :    0.875799
   3 C :    0.875798
   4 H :   -0.285813
   5 H :   -0.277488
   6 H :   -0.285818
   7 H :   -0.285818
   8 H :   -0.285813
   9 H :   -0.277487
  10 H :   -0.285812
  11 H :   -0.277487
  12 H :   -0.285819
  13 F :    0.776849

  Mayer bond orders larger than 0.100000
B(  0-C ,  1-C ) :   0.7455 B(  0-C ,  2-C ) :   0.7455 B(  0-C ,  3-C ) :   0.7455
B(  1-C ,  4-H ) :   0.9628 B(  1-C ,  5-H ) :   0.9689 B(  1-C ,  6-H ) :   0.9628
B(  1-C , 13-F ) :   0.1224 B(  2-C ,  7-H ) :   0.9628 B(  2-C ,  8-H ) :   0.9628
B(  2-C ,  9-H ) :   0.9689 B(  2-C , 13-F ) :   0.1224 B(  3-C , 10-H ) :   0.9628
B(  3-C , 11-H ) :   0.9689 B(  3-C , 12-H ) :   0.9628 B(  3-C , 13-F ) :   0.1224

MP2 TOTAL ENERGY:     -257.309505938 Eh
FINAL SINGLE POINT ENERGY      -257.309505937699

DIPOLE MOMENT
-------------
                                X             Y             Z
Electronic contribution:     -0.00011       0.00032       5.62657
Nuclear contribution   :      0.00012      -0.00036      -6.48780
                        -----------------------------------------
Total Dipole Moment    :      0.00001      -0.00005      -0.86123
                        -----------------------------------------
Magnitude (a.u.)       :      0.86123
Magnitude (Debye)      :      2.18907

Rotational constants in cm-1:     0.157642     0.157642     0.151265
Rotational constants in MHz :  4725.987509  4725.973494  4534.824088

                             ****ORCA TERMINATED NORMALLY****
TOTAL RUN TIME: 0 days 0 hours 10 minutes 21 seconds 566 msec
