                         Program Version 4.2.1 -  RELEASE  -
|  1> %pal
|  2>  nprocs 32
|  3> end
|  4> !RI-MP2 aug-cc-pVQZ aug-cc-pVQZ/C TightSCF
|  5> %maxcore 4500
|  6> *xyzfile 0 1  06_30TS.xyz
|  7>
|  8>
|  9>                          ****END OF INPUT****

CARTESIAN COORDINATES (ANGSTROEM)
---------------------------------
  C      1.464571    2.484376    0.157466
  C      0.480151    1.860386    1.168136
  C     -0.897948    0.904185   -1.424954
  H      2.340174    1.837289    0.048701
  C     -0.812764    2.698229    1.295381
  H     -1.073186    2.780394    2.355545
  H     -0.614148    3.723006    0.963938
  H     -1.333241    0.415303   -2.299778
  H      0.992874    1.943797    2.130770
  C     -2.049641    2.147735    0.587386
  H     -2.325702    1.217499    1.085426
  H     -2.883527    2.833783    0.769630
  C     -1.980031    1.885449   -0.919628
  H     -2.959840    1.491812   -1.209431
  H     -1.884745    2.833709   -1.457889
  C      0.345617    1.616827   -1.998886
  H      1.133696    0.869543   -2.149727
  C      0.909043    2.800599   -1.223522
  H      1.709964    3.250542   -1.818958
  H      0.141067    3.574862   -1.140302
  H      0.081854    1.979349   -2.998572
  H      1.833045    3.422678    0.588893
  C     -0.556048   -0.230497   -0.420367
  H      0.173314   -0.862409   -0.950409
  Si    -1.981186   -1.493611   -0.320221
  C     -3.506265   -1.002839    0.675878
  H     -4.212503   -1.838416    0.658197
  H     -3.286506   -0.787758    1.723493
  H     -4.017687   -0.134009    0.258262
  C     -1.399284   -3.147456    0.380788
  H     -1.340077   -3.156416    1.472085
  H     -2.121518   -3.919623    0.101606
  H     -0.426878   -3.443742   -0.020030
  C     -2.571852   -1.844896   -2.075039
  H     -3.270695   -2.685745   -2.070120
  H     -3.089689   -0.993014   -2.521061
  H     -1.739764   -2.111178   -2.732202
  B      0.191759    0.286732    0.903669
  C      1.846038   -0.460656    1.322886
  H      2.394551    0.330019    1.810056
  C      0.733331   -1.079473    1.909762
  H      0.456112   -2.027884    1.469864
  C     -0.242177   -0.360953    2.591643
  H      0.000456    0.464532    3.243852
  H     -1.185637   -0.854632    2.781370
  C      2.554681   -1.191811    0.264876
  O      2.162516   -2.196522   -0.280530
  O      3.698734   -0.575119   -0.072399
  C      4.435973   -1.173755   -1.141072
  H      3.837136   -1.192533   -2.051585
  H      5.315984   -0.550486   -1.275103
  H      4.722545   -2.192950   -0.882737

 Total Charge           Charge          ....    0
 Multiplicity           Mult            ....    1
 Number of Electrons    NEL             ....  168
 Basis Dimension        Dim             .... 3110

ORBITAL ENERGIES
----------------

  NO   OCC          E(Eh)            E(eV)
   0   2.0000     -68.737494     -1870.4423
   1   2.0000     -20.601730      -560.6016
   2   2.0000     -20.537199      -558.8456
   3   2.0000     -11.378898      -309.6356
   4   2.0000     -11.291789      -307.2652
   5   2.0000     -11.284589      -307.0693
   6   2.0000     -11.245669      -306.0102
   7   2.0000     -11.243193      -305.9428
   8   2.0000     -11.213036      -305.1222
   9   2.0000     -11.207354      -304.9676
  10   2.0000     -11.206222      -304.9368
  11   2.0000     -11.205475      -304.9165
  12   2.0000     -11.203768      -304.8700
  13   2.0000     -11.203217      -304.8550
  14   2.0000     -11.202469      -304.8347
  15   2.0000     -11.199000      -304.7403
  16   2.0000     -11.188970      -304.4674
  17   2.0000     -11.187100      -304.4165
  18   2.0000     -11.184159      -304.3364
  19   2.0000     -11.174008      -304.0602
  20   2.0000      -7.599370      -206.7894
  21   2.0000      -6.086063      -165.6102
  22   2.0000      -4.192607      -114.0866
  23   2.0000      -4.192542      -114.0849
  24   2.0000      -4.192152      -114.0743
  25   2.0000      -1.463469       -39.8230
  26   2.0000      -1.359315       -36.9888
  27   2.0000      -1.159905       -31.5626
  28   2.0000      -1.105129       -30.0721
  29   2.0000      -1.041756       -28.3476
  30   2.0000      -1.037103       -28.2210
  31   2.0000      -1.014875       -27.6162
  32   2.0000      -0.966770       -26.3071
  33   2.0000      -0.949472       -25.8364
  34   2.0000      -0.943619       -25.6772
  35   2.0000      -0.917040       -24.9539
  36   2.0000      -0.912762       -24.8375
  37   2.0000      -0.909158       -24.7395
  38   2.0000      -0.869474       -23.6596
  39   2.0000      -0.819497       -22.2997
  40   2.0000      -0.795900       -21.6575
  41   2.0000      -0.782226       -21.2854
  42   2.0000      -0.760290       -20.6885
  43   2.0000      -0.733583       -19.9618
  44   2.0000      -0.704036       -19.1578
  45   2.0000      -0.684072       -18.6145
  46   2.0000      -0.676783       -18.4162
  47   2.0000      -0.661106       -17.9896
  48   2.0000      -0.640492       -17.4287
  49   2.0000      -0.631442       -17.1824
  50   2.0000      -0.626217       -17.0402
  51   2.0000      -0.615944       -16.7607
  52   2.0000      -0.612480       -16.6664
  53   2.0000      -0.593412       -16.1476
  54   2.0000      -0.585379       -15.9290
  55   2.0000      -0.574103       -15.6221
  56   2.0000      -0.568168       -15.4606
  57   2.0000      -0.566631       -15.4188
  58   2.0000      -0.558598       -15.2002
  59   2.0000      -0.555462       -15.1149
  60   2.0000      -0.552584       -15.0366
  61   2.0000      -0.550474       -14.9792
  62   2.0000      -0.539955       -14.6929
  63   2.0000      -0.533723       -14.5233
  64   2.0000      -0.530244       -14.4287
  65   2.0000      -0.527614       -14.3571
  66   2.0000      -0.524325       -14.2676
  67   2.0000      -0.516687       -14.0598
  68   2.0000      -0.495886       -13.4937
  69   2.0000      -0.484872       -13.1940
  70   2.0000      -0.480458       -13.0739
  71   2.0000      -0.471195       -12.8219
  72   2.0000      -0.466515       -12.6945
  73   2.0000      -0.458835       -12.4855
  74   2.0000      -0.457126       -12.4390
  75   2.0000      -0.448038       -12.1917
  76   2.0000      -0.435163       -11.8414
  77   2.0000      -0.424672       -11.5559
  78   2.0000      -0.422228       -11.4894
  79   2.0000      -0.412446       -11.2232
  80   2.0000      -0.401850       -10.9349
  81   2.0000      -0.396490       -10.7890
  82   2.0000      -0.380491       -10.3537
  83   2.0000      -0.341511        -9.2930
  84   0.0000       0.017856         0.4859
  85   0.0000       0.024448         0.6653
  86   0.0000       0.024721         0.6727
  87   0.0000       0.027003         0.7348
  88   0.0000       0.034419         0.9366

MULLIKEN ATOMIC CHARGES
-----------------------
   0 C :   -0.916946
   1 C :    0.181057
   2 C :    0.772420
   3 H :    0.208684
   4 C :   -0.634138
   5 H :   -0.125164
   6 H :   -0.032027
   7 H :    0.333495
   8 H :    0.295912
   9 C :   -0.731174
  10 H :    0.400279
  11 H :   -0.033355
  12 C :   -0.418103
  13 H :    0.033525
  14 H :    0.075252
  15 C :   -1.027634
  16 H :    0.291560
  17 C :   -0.447820
  18 H :    0.050894
  19 H :    0.086833
  20 H :   -0.073350
  21 H :   -0.055500
  22 C :   -1.162195
  23 H :    0.222086
  24 Si:    1.605530
  25 C :   -0.922325
  26 H :    0.111998
  27 H :    0.255789
  28 H :    0.200600
  29 C :   -0.989092
  30 H :    0.201773
  31 H :    0.120481
  32 H :    0.321236
  33 C :   -0.901483
  34 H :    0.172922
  35 H :    0.279895
  36 H :    0.292906
  37 B :    3.457753
  38 C :   -1.025322
  39 H :    0.261369
  40 C :   -0.012538
  41 H :    0.518276
  42 C :   -1.246159
  43 H :    0.054291
  44 H :    0.147545
  45 C :    1.759875
  46 O :   -1.180388
  47 O :   -0.977502
  48 C :   -1.019601
  49 H :    0.389637
  50 H :    0.458013
  51 H :    0.369930
Sum of atomic charges:    0.0000000

LOEWDIN ATOMIC CHARGES
----------------------
   0 C :    0.573773
   1 C :    0.329964
   2 C :    0.160805
   3 H :   -0.287115
   4 C :    0.593235
   5 H :   -0.251403
   6 H :   -0.269287
   7 H :   -0.345212
   8 H :   -0.317327
   9 C :    0.573343
  10 H :   -0.354097
  11 H :   -0.239591
  12 C :    0.585869
  13 H :   -0.270496
  14 H :   -0.266581
  15 C :    0.585305
  16 H :   -0.257122
  17 C :    0.570765
  18 H :   -0.250940
  19 H :   -0.297078
  20 H :   -0.252439
  21 H :   -0.245739
  22 C :    0.425867
  23 H :   -0.392409
  24 Si:    0.196117
  25 C :    1.019700
  26 H :   -0.321601
  27 H :   -0.335029
  28 H :   -0.337734
  29 C :    1.018079
  30 H :   -0.333054
  31 H :   -0.324139
  32 H :   -0.323064
  33 C :    1.012881
  34 H :   -0.329514
  35 H :   -0.331513
  36 H :   -0.314736
  37 B :   -0.990642
  38 C :    0.313600
  39 H :   -0.308407
  40 C :    0.385001
  41 H :   -0.369516
  42 C :    0.850479
  43 H :   -0.274000
  44 H :   -0.262669
  45 C :   -1.038783
  46 O :    0.783277
  47 O :    0.872698
  48 C :    0.585939
  49 H :   -0.312817
  50 H :   -0.320035
  51 H :   -0.312608

  Mayer bond orders larger than 0.100000
B(  0-C ,  1-C ) :   0.2228 B(  0-C ,  3-H ) :   1.1391 B(  0-C , 17-C ) :   0.7765
B(  0-C , 21-H ) :   1.3960 B(  0-C , 37-B ) :  -0.4679 B(  0-C , 47-O ) :  -0.1101
B(  1-C ,  3-H ) :  -0.1200 B(  1-C ,  5-H ) :  -0.2428 B(  1-C ,  6-H ) :  -0.3958
B(  1-C ,  8-H ) :   1.0692 B(  1-C ,  9-C ) :   0.2130 B(  1-C , 17-C ) :  -0.2688
B(  1-C , 22-C ) :  -0.1600 B(  1-C , 37-B ) :   0.5526 B(  1-C , 42-C ) :   0.1427
B(  2-C ,  7-H ) :   0.9961 B(  2-C , 12-C ) :   0.3442 B(  2-C , 13-H ) :  -0.1680
B(  2-C , 14-H ) :  -0.2821 B(  2-C , 15-C ) :   0.1542 B(  2-C , 16-H ) :  -0.1494
B(  2-C , 17-C ) :  -0.2440 B(  2-C , 20-H ) :  -0.1201 B(  2-C , 22-C ) :   0.7305
B(  3-H , 37-B ) :  -0.1846 B(  3-H , 47-O ) :   0.1016 B(  4-C ,  5-H ) :   1.5490
B(  4-C ,  6-H ) :   1.5768 B(  4-C ,  8-H ) :  -0.1616 B(  4-C ,  9-C ) :   0.7330
B(  4-C , 10-H ) :  -0.1700 B(  4-C , 12-C ) :  -0.1341 B(  4-C , 37-B ) :  -0.2716
B(  5-H ,  6-H ) :   0.1175 B(  5-H ,  9-C ) :  -0.1074 B(  5-H , 37-B ) :  -0.1239
B(  7-H , 12-C ) :  -0.1598 B(  7-H , 22-C ) :  -0.1144 B(  8-H , 37-B ) :  -0.1747
B(  9-C , 10-H ) :   0.9218 B(  9-C , 11-H ) :   1.2740 B(  9-C , 12-C ) :   0.6729
B(  9-C , 22-C ) :   0.1248 B( 10-H , 22-C ) :   0.1395 B( 12-C , 13-H ) :   1.2995
B( 12-C , 14-H ) :   1.3500 B( 12-C , 24-Si) :  -0.1318 B( 12-C , 37-B ) :  -0.1033
B( 15-C , 16-H ) :   1.1908 B( 15-C , 17-C ) :   0.6776 B( 15-C , 18-H ) :  -0.1302
B( 15-C , 20-H ) :   1.4253 B( 15-C , 22-C ) :  -0.1097 B( 16-H , 22-C ) :  -0.1095
B( 17-C , 18-H ) :   1.1746 B( 17-C , 19-H ) :   1.2913 B( 17-C , 37-B ) :   0.1385
B( 22-C , 23-H ) :   0.9524 B( 22-C , 24-Si) :   1.0459 B( 22-C , 25-C ) :   0.2878
B( 22-C , 29-C ) :   0.4990 B( 22-C , 33-C ) :   0.1349 B( 22-C , 36-H ) :  -0.1687
B( 22-C , 37-B ) :   0.2681 B( 22-C , 38-C ) :   0.1591 B( 22-C , 40-C ) :  -0.4892
B( 22-C , 42-C ) :  -0.1625 B( 23-H , 40-C ) :   0.1077 B( 23-H , 46-O ) :  -0.1584
B( 24-Si, 25-C ) :   0.2996 B( 24-Si, 26-H ) :  -0.1125 B( 24-Si, 27-H ) :  -0.1183
B( 24-Si, 29-C ) :   0.2866 B( 24-Si, 30-H ) :  -0.1789 B( 24-Si, 33-C ) :   0.6584
B( 24-Si, 34-H ) :  -0.1442 B( 24-Si, 35-H ) :  -0.1978 B( 24-Si, 37-B ) :  -0.2229
B( 24-Si, 42-C ) :  -0.2778 B( 24-Si, 44-H ) :  -0.1074 B( 25-C , 26-H ) :   1.1917
B( 25-C , 27-H ) :   1.0067 B( 25-C , 28-H ) :   1.0568 B( 29-C , 30-H ) :   1.0494
B( 29-C , 31-H ) :   1.1700 B( 29-C , 32-H ) :   0.9444 B( 29-C , 33-C ) :   0.1260
B( 29-C , 37-B ) :  -0.1910 B( 29-C , 41-H ) :  -0.1010 B( 33-C , 34-H ) :   1.1226
B( 33-C , 35-H ) :   1.0111 B( 33-C , 36-H ) :   0.9936 B( 33-C , 37-B ) :  -0.1558
B( 37-B , 38-C ) :  -0.3532 B( 37-B , 39-H ) :  -0.1745 B( 37-B , 40-C ) :  -0.2311
B( 37-B , 42-C ) :  -0.1017 B( 37-B , 43-H ) :  -0.2760 B( 37-B , 44-H ) :  -0.1143
B( 37-B , 46-O ) :   0.1124 B( 38-C , 39-H ) :   1.0636 B( 38-C , 40-C ) :   0.8888
B( 38-C , 41-H ) :  -0.2700 B( 38-C , 42-C ) :  -0.5021 B( 38-C , 45-C ) :   1.8837
B( 38-C , 46-O ) :   0.4971 B( 38-C , 47-O ) :   0.1492 B( 40-C , 41-H ) :   0.9963
B( 40-C , 42-C ) :   1.4312 B( 40-C , 44-H ) :  -0.1351 B( 40-C , 45-C ) :  -0.1869
B( 41-H , 42-C ) :  -0.1958 B( 42-C , 43-H ) :   1.4940 B( 42-C , 44-H ) :   1.3146
B( 45-C , 46-O ) :   0.4931 B( 45-C , 47-O ) :   0.4710 B( 45-C , 48-C ) :  -0.2355
B( 46-O , 47-O ) :   0.1550 B( 47-O , 48-C ) :   0.9942 B( 48-C , 49-H ) :   0.8515
B( 48-C , 50-H ) :   0.8442 B( 48-C , 51-H ) :   0.9211

MP2 TOTAL ENERGY:    -1129.379640351 Eh
FINAL SINGLE POINT ENERGY     -1129.379640350874

DIPOLE MOMENT
-------------
                                X             Y             Z
Electronic contribution:     13.30870      -5.92625       5.41770
Nuclear contribution   :    -12.95154       6.21420      -4.97539
                        -----------------------------------------
Total Dipole Moment    :      0.35715       0.28795       0.44231
                        -----------------------------------------
Magnitude (a.u.)       :      0.63727
Magnitude (Debye)      :      1.61980

Rotational constants in cm-1:     0.011743     0.009151     0.007232
Rotational constants in MHz :   352.032646   274.340498   216.799837

                             ****ORCA TERMINATED NORMALLY****
TOTAL RUN TIME: 0 days 19 hours 28 minutes 2 seconds 531 msec
