                         Program Version 4.2.1 -  RELEASE  -
|  1> %pal
|  2>  nprocs 32
|  3> end
|  4> !RI-MP2 aug-cc-pVQZ aug-cc-pVQZ/C TightSCF
|  5> %maxcore 4500
|  6> *xyzfile 0 1  10_55TS.xyz
|  7>
|  8>
|  9>                          ****END OF INPUT****

CARTESIAN COORDINATES (ANGSTROEM)
---------------------------------
  S     -1.487164   -0.027807    0.117394
  C     -0.661079   -1.401508   -0.787652
  C      0.544624   -2.085203   -0.112238
  C      1.490629   -1.027353    0.353401
  C      1.530142    1.063353   -0.399592
  C      0.517544    2.073265    0.042720
  C     -0.860178    1.604970   -0.431734
  C      2.811755   -0.689543    0.048022
  C      2.819900    0.720267    0.016906
  H      1.192147    0.513398   -1.266513
  H      1.049523   -0.456585    1.155410
  O     -1.225618   -0.168211    1.547975
  O     -2.860599   -0.048511   -0.381383
  H     -1.494688   -2.092671   -0.919310
  H     -0.405722   -0.998325   -1.768115
  H      0.987578   -2.767526   -0.841505
  H      0.181139   -2.673911    0.733738
  H      0.688453    3.067245   -0.388131
  H      0.525050    2.189502    1.128218
  H     -0.924465    1.577275   -1.521063
  H     -1.662824    2.249526   -0.069929
  H      3.606972   -1.378000   -0.217446
  H      3.581171    1.399272    0.384597

 Total Charge           Charge          ....    0
 Multiplicity           Mult            ....    1
 Number of Electrons    NEL             ....   92
 Basis Dimension        Dim             .... 1436

ORBITAL ENERGIES
----------------

  NO   OCC          E(Eh)            E(eV)
   0   2.0000     -92.169958     -2508.0721
   1   2.0000     -20.540407      -558.9329
   2   2.0000     -20.536027      -558.8137
   3   2.0000     -11.287477      -307.1479
   4   2.0000     -11.285100      -307.0832
   5   2.0000     -11.261985      -306.4542
   6   2.0000     -11.258654      -306.3636
   7   2.0000     -11.257439      -306.3305
   8   2.0000     -11.256551      -306.3063
   9   2.0000     -11.233961      -305.6916
  10   2.0000     -11.232846      -305.6613
  11   2.0000      -9.140132      -248.7156
  12   2.0000      -6.825070      -185.7196
  13   2.0000      -6.824815      -185.7126
  14   2.0000      -6.824282      -185.6982
  15   2.0000      -1.437829       -39.1253
  16   2.0000      -1.328363       -36.1466
  17   2.0000      -1.154274       -31.4094
  18   2.0000      -1.096513       -29.8376
  19   2.0000      -1.084149       -29.5012
  20   2.0000      -0.967696       -26.3324
  21   2.0000      -0.961735       -26.1701
  22   2.0000      -0.860087       -23.4042
  23   2.0000      -0.838453       -22.8155
  24   2.0000      -0.785843       -21.3839
  25   2.0000      -0.746030       -20.3005
  26   2.0000      -0.695356       -18.9216
  27   2.0000      -0.680010       -18.5040
  28   2.0000      -0.659794       -17.9539
  29   2.0000      -0.646301       -17.5868
  30   2.0000      -0.629605       -17.1324
  31   2.0000      -0.619699       -16.8629
  32   2.0000      -0.613454       -16.6929
  33   2.0000      -0.600471       -16.3397
  34   2.0000      -0.579877       -15.7793
  35   2.0000      -0.558141       -15.1878
  36   2.0000      -0.545225       -14.8363
  37   2.0000      -0.530903       -14.4466
  38   2.0000      -0.524598       -14.2750
  39   2.0000      -0.513566       -13.9749
  40   2.0000      -0.488218       -13.2851
  41   2.0000      -0.479449       -13.0465
  42   2.0000      -0.463670       -12.6171
  43   2.0000      -0.428694       -11.6653
  44   2.0000      -0.341248        -9.2858
  45   2.0000      -0.325439        -8.8557
  46   0.0000       0.020112         0.5473
  47   0.0000       0.024247         0.6598
  48   0.0000       0.026930         0.7328
  49   0.0000       0.033199         0.9034
  50   0.0000       0.038683         1.0526

MULLIKEN ATOMIC CHARGES
-----------------------
   0 S :    2.736014
   1 C :   -0.567672
   2 C :   -0.596675
   3 C :   -0.086287
   4 C :   -0.075091
   5 C :   -0.390875
   6 C :   -0.694106
   7 C :   -0.623610
   8 C :   -0.689613
   9 H :    0.381031
  10 H :    0.492371
  11 O :   -1.361088
  12 O :   -1.527810
  13 H :    0.335615
  14 H :    0.309571
  15 H :    0.281606
  16 H :    0.244480
  17 H :    0.300176
  18 H :    0.173941
  19 H :    0.288686
  20 H :    0.323772
  21 H :    0.364066
  22 H :    0.381496
Sum of atomic charges:    0.0000000

LOEWDIN ATOMIC CHARGES
----------------------
   0 S :   -0.106798
   1 C :    0.460627
   2 C :    0.533304
   3 C :    0.271264
   4 C :    0.271818
   5 C :    0.531089
   6 C :    0.436348
   7 C :    0.373691
   8 C :    0.372993
   9 H :   -0.388927
  10 H :   -0.429929
  11 O :    0.343978
  12 O :    0.322282
  13 H :   -0.337363
  14 H :   -0.318899
  15 H :   -0.271888
  16 H :   -0.275322
  17 H :   -0.262175
  18 H :   -0.277248
  19 H :   -0.316678
  20 H :   -0.329657
  21 H :   -0.301827
  22 H :   -0.300683

  Mayer bond orders larger than 0.100000
B(  0-S ,  1-C ) :   0.9301 B(  0-S ,  6-C ) :   0.9744 B(  0-S , 11-O ) :   0.7800
B(  0-S , 12-O ) :   0.7396 B(  1-C ,  2-C ) :   0.9655 B(  1-C , 13-H ) :   0.8941
B(  1-C , 14-H ) :   0.8703 B(  2-C ,  3-C ) :   0.8217 B(  2-C , 11-O ) :   0.1661
B(  2-C , 15-H ) :   0.9081 B(  2-C , 16-H ) :   1.0042 B(  3-C ,  4-C ) :   0.2864
B(  3-C ,  7-C ) :   1.4463 B(  3-C ,  8-C ) :  -0.1883 B(  3-C , 10-H ) :   0.7482
B(  3-C , 16-H ) :  -0.1137 B(  4-C ,  5-C ) :   0.6946 B(  4-C ,  7-C ) :  -0.1682
B(  4-C ,  8-C ) :   1.4997 B(  4-C ,  9-H ) :   0.8616 B(  5-C ,  6-C ) :   0.9645
B(  5-C , 17-H ) :   0.8968 B(  5-C , 18-H ) :   0.9844 B(  6-C , 19-H ) :   0.8680
B(  6-C , 20-H ) :   0.9076 B(  7-C ,  8-C ) :   1.5455 B(  7-C , 10-H ) :  -0.1232
B(  7-C , 21-H ) :   0.8960 B(  8-C , 22-H ) :   0.8801 B( 11-O , 12-O ) :   0.1200

MP2 TOTAL ENERGY:     -859.393247655 Eh
FINAL SINGLE POINT ENERGY      -859.393247655187

DIPOLE MOMENT
-------------
                                X             Y             Z
Electronic contribution:     -6.05314      -0.43146       2.46460
Nuclear contribution   :      7.32874       0.62861      -3.58650
                        -----------------------------------------
Total Dipole Moment    :      1.27560       0.19714      -1.12190
                        -----------------------------------------
Magnitude (a.u.)       :      1.71017
Magnitude (Debye)      :      4.34691

Rotational constants in cm-1:     0.054338     0.028347     0.021838
Rotational constants in MHz :  1629.012587   849.833553   654.672107

                             ****ORCA TERMINATED NORMALLY****
TOTAL RUN TIME: 0 days 1 hours 35 minutes 48 seconds 126 msec
