                         Program Version 4.2.1 -  RELEASE  -
|  1> %pal
|  2>  nprocs 32
|  3> end
|  4> !RI-MP2 aug-cc-pVQZ aug-cc-pVQZ/C TightSCF
|  5> %maxcore 4500
|  6> *xyzfile 1 1  05_23P1.xyz
|  7>
|  8>
|  9>                          ****END OF INPUT****

CARTESIAN COORDINATES (ANGSTROEM)
---------------------------------
  C      1.158515    0.295585   -0.000002
  C     -0.260039    0.116468   -0.000002
  C     -0.794350   -1.190160   -0.000009
  C     -1.136048    1.219535    0.000006
  C     -2.157208   -1.378319   -0.000009
  H     -0.127503   -2.040810   -0.000016
  C     -2.500174    1.018578    0.000008
  H     -0.761413    2.232708    0.000013
  C     -3.009659   -0.275641    0.000000
  H     -2.565768   -2.380182   -0.000016
  H     -3.171125    1.867239    0.000016
  H     -4.082209   -0.428144    0.000001
  O      1.856959   -0.782983    0.000012
  C      3.306942   -0.796636    0.000010
  H      3.680062   -0.309755    0.899118
  H      3.571890   -1.848289    0.000036
  H      3.680059   -0.309801   -0.899124
  C      1.851544    1.604302   -0.000014
  H      2.497462    1.677358   -0.879548
  H      1.168318    2.443870   -0.000052
  H      2.497416    1.677398    0.879551

 Total Charge           Charge          ....    1
 Multiplicity           Mult            ....    1
 Number of Electrons    NEL             ....   72
 Basis Dimension        Dim             .... 1306

ORBITAL ENERGIES
----------------

  NO   OCC          E(Eh)            E(eV)
   0   2.0000     -20.806781      -566.1813
   1   2.0000     -11.559608      -314.5529
   2   2.0000     -11.456857      -311.7569
   3   2.0000     -11.413758      -310.5841
   4   2.0000     -11.413608      -310.5801
   5   2.0000     -11.408872      -310.4512
   6   2.0000     -11.406842      -310.3959
   7   2.0000     -11.404486      -310.3318
   8   2.0000     -11.381029      -309.6935
   9   2.0000     -11.380378      -309.6758
  10   2.0000      -1.649556       -44.8867
  11   2.0000      -1.329521       -36.1781
  12   2.0000      -1.252579       -34.0844
  13   2.0000      -1.189093       -32.3569
  14   2.0000      -1.174052       -31.9476
  15   2.0000      -1.151726       -31.3401
  16   2.0000      -1.030686       -28.0464
  17   2.0000      -0.987387       -26.8682
  18   2.0000      -0.952170       -25.9099
  19   2.0000      -0.903551       -24.5869
  20   2.0000      -0.861392       -23.4397
  21   2.0000      -0.857217       -23.3261
  22   2.0000      -0.833935       -22.6925
  23   2.0000      -0.786740       -21.4083
  24   2.0000      -0.775325       -21.0977
  25   2.0000      -0.760778       -20.7018
  26   2.0000      -0.751504       -20.4495
  27   2.0000      -0.743449       -20.2303
  28   2.0000      -0.725786       -19.7497
  29   2.0000      -0.704719       -19.1764
  30   2.0000      -0.687456       -18.7066
  31   2.0000      -0.665814       -18.1177
  32   2.0000      -0.657535       -17.8924
  33   2.0000      -0.648352       -17.6425
  34   2.0000      -0.509429       -13.8623
  35   2.0000      -0.496001       -13.4969
  36   0.0000      -0.129532        -3.5247
  37   0.0000      -0.078362        -2.1323
  38   0.0000      -0.060600        -1.6490
  39   0.0000      -0.059240        -1.6120
  40   0.0000      -0.057154        -1.5552

MULLIKEN ATOMIC CHARGES
-----------------------
   0 C :    1.157514
   1 C :    0.096623
   2 C :   -0.303268
   3 C :   -0.341170
   4 C :   -0.384306
   5 H :    0.314497
   6 C :   -0.268547
   7 H :    0.339333
   8 C :   -0.336997
   9 H :    0.292279
  10 H :    0.269170
  11 H :    0.337562
  12 O :   -0.660102
  13 C :   -0.655392
  14 H :    0.297639
  15 H :    0.438274
  16 H :    0.297648
  17 C :   -0.775713
  18 H :    0.255958
  19 H :    0.373027
  20 H :    0.255971
Sum of atomic charges:    1.0000000

LOEWDIN ATOMIC CHARGES
----------------------
   0 C :   -0.326536
   1 C :   -0.059591
   2 C :    0.363522
   3 C :    0.375839
   4 C :    0.405197
   5 H :   -0.320790
   6 C :    0.407643
   7 H :   -0.327303
   8 C :    0.401049
   9 H :   -0.302924
  10 H :   -0.302447
  11 H :   -0.285276
  12 O :    0.953331
  13 C :    0.723087
  14 H :   -0.285173
  15 H :   -0.284889
  16 H :   -0.285173
  17 C :    0.977489
  18 H :   -0.256140
  19 H :   -0.314781
  20 H :   -0.256135

  Mayer bond orders larger than 0.100000
B(  0-C ,  1-C ) :   0.3440 B(  0-C ,  2-C ) :  -0.4221 B(  0-C ,  3-C ) :  -0.4236
B(  0-C ,  5-H ) :   0.1187 B(  0-C ,  7-H ) :   0.1396 B(  0-C , 12-O ) :   0.6144
B(  0-C , 13-C ) :  -0.1327 B(  0-C , 17-C ) :   0.8227 B(  1-C ,  2-C ) :   0.9831
B(  1-C ,  3-C ) :   1.0034 B(  1-C ,  4-C ) :  -0.3926 B(  1-C ,  5-H ) :  -0.1550
B(  1-C ,  6-C ) :  -0.4064 B(  1-C ,  7-H ) :  -0.1331 B(  1-C , 12-O ) :   0.4048
B(  1-C , 17-C ) :  -0.1210 B(  2-C ,  3-C ) :   0.1276 B(  2-C ,  4-C ) :   1.2309
B(  2-C ,  5-H ) :   0.9213 B(  2-C ,  9-H ) :  -0.1540 B(  2-C , 12-O ) :  -0.1862
B(  3-C ,  4-C ) :   0.1354 B(  3-C ,  6-C ) :   1.2640 B(  3-C ,  7-H ) :   0.9107
B(  3-C , 10-H ) :  -0.1252 B(  4-C ,  8-C ) :   1.2000 B(  4-C ,  9-H ) :   1.1041
B(  6-C ,  7-H ) :  -0.1034 B(  6-C ,  8-C ) :   1.1438 B(  6-C , 10-H ) :   1.1148
B(  8-C , 11-H ) :   1.0180 B( 12-O , 13-C ) :   0.8544 B( 13-C , 14-H ) :   0.9152
B( 13-C , 15-H ) :   0.8075 B( 13-C , 16-H ) :   0.9152 B( 17-C , 18-H ) :   0.9928
B( 17-C , 19-H ) :   0.9399 B( 17-C , 20-H ) :   0.9928

MP2 TOTAL ENERGY:     -423.797273913 Eh
FINAL SINGLE POINT ENERGY      -423.797273913056

DIPOLE MOMENT
-------------
                                X             Y             Z
Electronic contribution:     -5.06492      -2.09322       0.00002
Nuclear contribution   :      6.50728       2.60561      -0.00002
                        -----------------------------------------
Total Dipole Moment    :      1.44236       0.51239      -0.00000
                        -----------------------------------------
Magnitude (a.u.)       :      1.53066
Magnitude (Debye)      :      3.89064

Rotational constants in cm-1:     0.106890     0.028158     0.022477
Rotational constants in MHz :  3204.485237   844.169974   673.837875

                             ****ORCA TERMINATED NORMALLY****
TOTAL RUN TIME: 0 days 0 hours 57 minutes 32 seconds 788 msec
