                         Program Version 4.2.1 -  RELEASE  -
|  1> %pal
|  2>  nprocs 32
|  3> end
|  4> !RI-MP2 aug-cc-pVQZ aug-cc-pVQZ/C TightSCF
|  5> %maxcore 4500
|  6> *xyzfile 0 1  10_70P.xyz
|  7>
|  8>
|  9>                          ****END OF INPUT****

CARTESIAN COORDINATES (ANGSTROEM)
---------------------------------
  C      5.887656   -0.075538    1.460352
  C      5.087684   -1.058372    0.614697
  C      3.691711   -0.549498    0.291804
  C      2.780142   -1.610999   -0.368341
  C      1.386299   -1.072451   -0.570642
  C      0.416216   -0.916492    0.331817
  C     -0.768654   -0.046962   -0.029704
  C     -2.146834   -0.611463    0.384062
  C     -3.003303    0.390429    1.198306
  C     -2.951945    1.763078    0.582053
  C     -1.768465    2.259545    0.249407
  C     -0.533953    1.438327    0.489929
  C      0.692237    1.943418   -0.193233
  C      1.909078    1.696402    0.276077
  C      3.079701    1.689850   -0.627909
  C      3.348715   -2.131240   -1.688313
  C     -2.880466   -1.157357   -0.856500
  C     -4.258494   -1.708050   -0.493966
  C     -5.121633   -0.678960    0.229039
  C     -4.413478   -0.145918    1.463172
  C      0.543039   -1.369999    1.759475
  O      3.317075    2.530003   -1.450413
  O      3.891448    0.602811   -0.557601
  O     -2.966159   -0.214732   -1.914398
  O     -5.411120    0.444793   -0.617628
  H      6.003273    0.875612    0.939137
  H      6.884152   -0.464902    1.676231
  H      5.392651    0.118515    2.416276
  H      5.615446   -1.256874   -0.320184
  H      4.988166   -2.014568    1.137944
  H      3.222331   -0.234523    1.225150
  H      2.750445   -2.438343    0.347914
  H      1.204468   -0.667700   -1.563525
  H     -3.871104    2.314968    0.426554
  H     -1.665827    3.244801   -0.191606
  H      0.582407    2.311655   -1.210417
  H      2.020617    1.283846    1.270049
  H      3.497301   -1.308785   -2.390911
  H      2.656184   -2.843578   -2.140237
  H      4.305368   -2.636100   -1.551360
  H     -2.271779   -1.969883   -1.261817
  H     -4.143143   -2.580612    0.157384
  H     -4.755464   -2.051836   -1.405683
  H     -6.066864   -1.140029    0.536630
  H     -4.350333   -0.968580    2.182223
  H     -5.028639    0.631348    1.922555
  H     -0.311510   -1.975419    2.070183
  H      0.579378   -0.514460    2.442627
  H      1.440075   -1.963989    1.926789
  H     -3.575906    0.482566   -1.642912
  H     -5.953612    0.147967   -1.354030
  H     -2.516364    0.473313    2.178930
  H     -0.347836    1.385705    1.570329
  H     -1.997742   -1.479952    1.032351
  H     -0.787609    0.050320   -1.115738

 Total Charge           Charge          ....    0
 Multiplicity           Mult            ....    1
 Number of Electrons    NEL             ....  188
 Basis Dimension        Dim             .... 3380

ORBITAL ENERGIES
----------------

  NO   OCC          E(Eh)            E(eV)
   0   2.0000     -20.581733      -560.0574
   1   2.0000     -20.571624      -559.7823
   2   2.0000     -20.540767      -558.9427
   3   2.0000     -20.520291      -558.3855
   4   2.0000     -11.368824      -309.3614
   5   2.0000     -11.295338      -307.3618
   6   2.0000     -11.293078      -307.3003
   7   2.0000     -11.278547      -306.9049
   8   2.0000     -11.246713      -306.0386
   9   2.0000     -11.245445      -306.0041
  10   2.0000     -11.239066      -305.8305
  11   2.0000     -11.238455      -305.8139
  12   2.0000     -11.236315      -305.7557
  13   2.0000     -11.233516      -305.6795
  14   2.0000     -11.233415      -305.6768
  15   2.0000     -11.233318      -305.6741
  16   2.0000     -11.231866      -305.6346
  17   2.0000     -11.230422      -305.5953
  18   2.0000     -11.229828      -305.5792
  19   2.0000     -11.225444      -305.4599
  20   2.0000     -11.223702      -305.4125
  21   2.0000     -11.221751      -305.3594
  22   2.0000     -11.221000      -305.3389
  23   2.0000     -11.213537      -305.1358
  24   2.0000     -11.213114      -305.1243
  25   2.0000      -1.439457       -39.1696
  26   2.0000      -1.381228       -37.5851
  27   2.0000      -1.352116       -36.7930
  28   2.0000      -1.345824       -36.6217
  29   2.0000      -1.163789       -31.6683
  30   2.0000      -1.121947       -30.5297
  31   2.0000      -1.108253       -30.1571
  32   2.0000      -1.077268       -29.3139
  33   2.0000      -1.066354       -29.0170
  34   2.0000      -1.040636       -28.3171
  35   2.0000      -1.015926       -27.6448
  36   2.0000      -1.005166       -27.3519
  37   2.0000      -0.973939       -26.5022
  38   2.0000      -0.945142       -25.7186
  39   2.0000      -0.936886       -25.4940
  40   2.0000      -0.888030       -24.1645
  41   2.0000      -0.862819       -23.4785
  42   2.0000      -0.851797       -23.1786
  43   2.0000      -0.832172       -22.6446
  44   2.0000      -0.819126       -22.2896
  45   2.0000      -0.795247       -21.6398
  46   2.0000      -0.777130       -21.1468
  47   2.0000      -0.740123       -20.1398
  48   2.0000      -0.736456       -20.0400
  49   2.0000      -0.727312       -19.7912
  50   2.0000      -0.713837       -19.4245
  51   2.0000      -0.690281       -18.7835
  52   2.0000      -0.683846       -18.6084
  53   2.0000      -0.669240       -18.2110
  54   2.0000      -0.657027       -17.8786
  55   2.0000      -0.652946       -17.7676
  56   2.0000      -0.644888       -17.5483
  57   2.0000      -0.627732       -17.0814
  58   2.0000      -0.626447       -17.0465
  59   2.0000      -0.614151       -16.7119
  60   2.0000      -0.610092       -16.6015
  61   2.0000      -0.604771       -16.4566
  62   2.0000      -0.597684       -16.2638
  63   2.0000      -0.592433       -16.1209
  64   2.0000      -0.581954       -15.8358
  65   2.0000      -0.581495       -15.8233
  66   2.0000      -0.577322       -15.7097
  67   2.0000      -0.571320       -15.5464
  68   2.0000      -0.565116       -15.3776
  69   2.0000      -0.547040       -14.8857
  70   2.0000      -0.543380       -14.7861
  71   2.0000      -0.539431       -14.6787
  72   2.0000      -0.531969       -14.4756
  73   2.0000      -0.528988       -14.3945
  74   2.0000      -0.522037       -14.2054
  75   2.0000      -0.520242       -14.1565
  76   2.0000      -0.514427       -13.9983
  77   2.0000      -0.510527       -13.8921
  78   2.0000      -0.503254       -13.6942
  79   2.0000      -0.495246       -13.4763
  80   2.0000      -0.493755       -13.4358
  81   2.0000      -0.490204       -13.3391
  82   2.0000      -0.477027       -12.9806
  83   2.0000      -0.475733       -12.9454
  84   2.0000      -0.474064       -12.8999
  85   2.0000      -0.464752       -12.6466
  86   2.0000      -0.443269       -12.0620
  87   2.0000      -0.437499       -11.9049
  88   2.0000      -0.432418       -11.7667
  89   2.0000      -0.427656       -11.6371
  90   2.0000      -0.415234       -11.2991
  91   2.0000      -0.375985       -10.2311
  92   2.0000      -0.346888        -9.4393
  93   2.0000      -0.330491        -8.9931
  94   0.0000       0.013075         0.3558
  95   0.0000       0.019191         0.5222
  96   0.0000       0.023755         0.6464
  97   0.0000       0.025907         0.7050
  98   0.0000       0.030786         0.8377

MULLIKEN ATOMIC CHARGES
-----------------------
   0 C :   -0.950410
   1 C :   -0.693775
   2 C :    1.493159
   3 C :   -0.042907
   4 C :   -0.398590
   5 C :    1.047865
   6 C :    0.746987
   7 C :    0.869282
   8 C :    0.553609
   9 C :   -0.377063
  10 C :   -0.886914
  11 C :    0.801796
  12 C :   -0.195162
  13 C :   -1.107258
  14 C :    1.611775
  15 C :   -1.171812
  16 C :    0.847192
  17 C :   -1.139127
  18 C :    0.644966
  19 C :   -1.035022
  20 C :   -1.287023
  21 O :   -1.198984
  22 O :   -1.178255
  23 O :   -1.508283
  24 O :   -1.007266
  25 H :    0.226960
  26 H :    0.266720
  27 H :    0.159133
  28 H :    0.147507
  29 H :    0.222719
  30 H :    0.196032
  31 H :    0.156822
  32 H :   -0.044480
  33 H :    0.192506
  34 H :    0.163980
  35 H :    0.149373
  36 H :    0.124891
  37 H :    0.195765
  38 H :    0.256517
  39 H :    0.194897
  40 H :    0.239189
  41 H :    0.141414
  42 H :    0.096223
  43 H :    0.274045
  44 H :    0.089744
  45 H :    0.161600
  46 H :    0.328668
  47 H :    0.133592
  48 H :    0.190715
  49 H :    0.517540
  50 H :    0.293989
  51 H :    0.407656
  52 H :    0.367207
  53 H :    0.182101
  54 H :   -0.471805
Sum of atomic charges:   -0.0000000

LOEWDIN ATOMIC CHARGES
----------------------
   0 C :    0.944680
   1 C :    0.500748
   2 C :   -0.199576
   3 C :    0.124753
   4 C :    0.393474
   5 C :    0.030235
   6 C :    0.154333
   7 C :    0.173566
   8 C :    0.134085
   9 C :    0.415020
  10 C :    0.435020
  11 C :    0.114380
  12 C :    0.381055
  13 C :    0.323009
  14 C :   -1.055890
  15 C :    0.938096
  16 C :   -0.159455
  17 C :    0.540071
  18 C :   -0.157045
  19 C :    0.532474
  20 C :    0.948912
  21 O :    0.672842
  22 O :    0.882243
  23 O :    1.347289
  24 O :    1.326146
  25 H :   -0.286362
  26 H :   -0.275698
  27 H :   -0.275942
  28 H :   -0.285181
  29 H :   -0.260625
  30 H :   -0.361492
  31 H :   -0.306287
  32 H :   -0.305944
  33 H :   -0.303530
  34 H :   -0.292501
  35 H :   -0.281099
  36 H :   -0.359843
  37 H :   -0.269726
  38 H :   -0.264082
  39 H :   -0.282558
  40 H :   -0.285986
  41 H :   -0.256564
  42 H :   -0.260932
  43 H :   -0.272512
  44 H :   -0.256213
  45 H :   -0.259006
  46 H :   -0.278563
  47 H :   -0.264545
  48 H :   -0.303520
  49 H :   -0.895027
  50 H :   -0.741077
  51 H :   -0.271577
  52 H :   -0.302353
  53 H :   -0.316489
  54 H :   -0.365235

  Mayer bond orders larger than 0.100000
B(  0-C ,  1-C ) :   0.8674 B(  0-C ,  2-C ) :  -0.1344 B(  0-C , 25-H ) :   0.9969
B(  0-C , 26-H ) :   1.0586 B(  0-C , 27-H ) :   1.0334 B(  1-C ,  3-C ) :   0.1576
B(  1-C , 26-H ) :  -0.1494 B(  1-C , 28-H ) :   1.1628 B(  1-C , 29-H ) :   1.0811
B(  2-C ,  3-C ) :   0.5355 B(  2-C , 21-O ) :   0.1192 B(  2-C , 22-O ) :  -0.3502
B(  2-C , 28-H ) :  -0.2353 B(  2-C , 29-H ) :  -0.1528 B(  2-C , 30-H ) :   0.9906
B(  3-C ,  4-C ) :   0.1722 B(  3-C ,  5-C ) :  -0.1391 B(  3-C ,  6-C ) :   0.1385
B(  3-C , 15-C ) :   0.5156 B(  3-C , 31-H ) :   1.0708 B(  3-C , 37-H ) :  -0.2952
B(  3-C , 39-H ) :  -0.1487 B(  4-C ,  5-C ) :   0.4914 B(  4-C ,  6-C ) :  -0.4024
B(  4-C ,  7-C ) :  -0.3160 B(  4-C , 15-C ) :  -0.4770 B(  4-C , 31-H ) :  -0.1793
B(  4-C , 32-H ) :   1.7967 B(  4-C , 38-H ) :  -0.1056 B(  4-C , 53-H ) :   0.1128
B(  5-C ,  6-C ) :   0.8410 B(  5-C , 20-C ) :   0.1879 B(  5-C , 32-H ) :  -0.4750
B(  5-C , 46-H ) :  -0.2109 B(  5-C , 47-H ) :  -0.3307 B(  5-C , 48-H ) :  -0.1582
B(  5-C , 54-H ) :  -0.1741 B(  6-C ,  7-C ) :   1.0914 B(  6-C ,  9-C ) :  -0.1292
B(  6-C , 10-C ) :   0.4148 B(  6-C , 11-C ) :   0.3333 B(  6-C , 12-C ) :  -0.3055
B(  6-C , 23-O ) :  -0.4145 B(  6-C , 53-H ) :  -0.1693 B(  6-C , 54-H ) :   0.8730
B(  7-C ,  8-C ) :   0.8798 B(  7-C , 11-C ) :   0.3603 B(  7-C , 16-C ) :   0.4469
B(  7-C , 17-C ) :  -0.2003 B(  7-C , 19-C ) :  -0.1438 B(  7-C , 20-C ) :  -0.2358
B(  7-C , 23-O ) :  -0.2839 B(  7-C , 40-H ) :  -0.1734 B(  7-C , 41-H ) :  -0.1327
B(  7-C , 53-H ) :   0.8909 B(  8-C ,  9-C ) :   0.7518 B(  8-C , 10-C ) :  -0.3225
B(  8-C , 11-C ) :   0.1638 B(  8-C , 18-C ) :  -0.1758 B(  8-C , 19-C ) :   0.1638
B(  8-C , 24-O ) :  -0.1078 B(  8-C , 44-H ) :  -0.2736 B(  8-C , 45-H ) :  -0.1748
B(  8-C , 51-H ) :   0.9114 B(  8-C , 53-H ) :   0.1003 B(  9-C , 10-C ) :   1.2774
B(  9-C , 11-C ) :  -0.2618 B(  9-C , 12-C ) :   0.1077 B(  9-C , 33-H ) :   1.2666
B(  9-C , 34-H ) :  -0.2953 B(  9-C , 51-H ) :  -0.2355 B(  9-C , 52-H ) :  -0.1171
B(  9-C , 54-H ) :   0.2074 B( 10-C , 11-C ) :   0.4695 B( 10-C , 12-C ) :  -0.4472
B( 10-C , 33-H ) :  -0.2411 B( 10-C , 34-H ) :   1.2250 B( 11-C , 12-C ) :   0.2739
B( 11-C , 13-C ) :  -0.7816 B( 11-C , 51-H ) :  -0.1296 B( 11-C , 52-H ) :   1.1288
B( 11-C , 54-H ) :   0.1783 B( 12-C , 13-C ) :   1.6342 B( 12-C , 14-C ) :  -0.4024
B( 12-C , 21-O ) :   0.1282 B( 12-C , 35-H ) :   1.2364 B( 12-C , 52-H ) :  -0.1785
B( 13-C , 14-C ) :   1.5250 B( 13-C , 21-O ) :   0.2452 B( 13-C , 22-O ) :   0.1069
B( 13-C , 36-H ) :   1.1750 B( 14-C , 21-O ) :   0.2300 B( 14-C , 22-O ) :   1.0916
B( 15-C , 37-H ) :   1.1787 B( 15-C , 38-H ) :   1.0826 B( 15-C , 39-H ) :   1.1560
B( 16-C , 17-C ) :   0.5301 B( 16-C , 40-H ) :   1.1788 B( 16-C , 42-H ) :  -0.1930
B( 17-C , 18-C ) :   0.8107 B( 17-C , 23-O ) :   0.2924 B( 17-C , 24-O ) :   0.1726
B( 17-C , 41-H ) :   1.1995 B( 17-C , 42-H ) :   1.2398 B( 18-C , 19-C ) :   0.8730
B( 18-C , 24-O ) :   0.3103 B( 18-C , 43-H ) :   0.9945 B( 19-C , 24-O ) :   0.1953
B( 19-C , 44-H ) :   1.3627 B( 19-C , 45-H ) :   1.2710 B( 20-C , 46-H ) :   1.0904
B( 20-C , 47-H ) :   1.2719 B( 20-C , 48-H ) :   1.1644 B( 21-O , 22-O ) :   0.2109
B( 22-O , 30-H ) :   0.2181 B( 23-O , 49-H ) :   0.6714 B( 23-O , 54-H ) :   0.2290
B( 24-O , 50-H ) :   0.9152 B( 46-H , 47-H ) :   0.1041

MP2 TOTAL ENERGY:    -1117.318493473 Eh
FINAL SINGLE POINT ENERGY     -1117.318493472720

DIPOLE MOMENT
-------------
                                X             Y             Z
Electronic contribution:     -5.27278      13.40179      -7.66633
Nuclear contribution   :      3.54651     -15.42531       9.41555
                        -----------------------------------------
Total Dipole Moment    :     -1.72628      -2.02352       1.74922
                        -----------------------------------------
Magnitude (a.u.)       :      3.18347
Magnitude (Debye)      :      8.09173

Rotational constants in cm-1:     0.016852     0.003906     0.003660
Rotational constants in MHz :   505.217726   117.088800   109.722810

                             ****ORCA TERMINATED NORMALLY****
TOTAL RUN TIME: 0 days 22 hours 37 minutes 43 seconds 593 msec
