                         Program Version 4.2.1 -  RELEASE  -
|  1> %pal
|  2>  nprocs 32
|  3> end
|  4> !RI-MP2 aug-cc-pVQZ aug-cc-pVQZ/C TightSCF
|  5> %maxcore 4500
|  6> *xyzfile 0 1  08_5R1.xyz
|  7>
|  8>
|  9>                          ****END OF INPUT****

CARTESIAN COORDINATES (ANGSTROEM)
---------------------------------
  C      1.053369    0.025775   -0.018733
  O      1.602966    0.671160   -0.865082
  O      1.605813   -1.041885    0.574795
  C     -0.334709    0.308851    0.524242
  C     -0.771112    1.732747    0.277637
  H     -0.100041    2.416920    0.801536
  H     -1.784704    1.883742    0.646979
  H     -0.734227    1.965857   -0.785285
  Cl    -1.461431   -0.856055   -0.281308
  H      2.467970   -1.196513    0.163433
  H     -0.360202    0.044498    1.578997

 Total Charge           Charge          ....    0
 Multiplicity           Mult            ....    1
 Number of Electrons    NEL             ....   56
 Basis Dimension        Dim             ....  714

ORBITAL ENERGIES
----------------

  NO   OCC          E(Eh)            E(eV)
   0   2.0000    -104.838788     -2852.8084
   1   2.0000     -20.624981      -561.2343
   2   2.0000     -20.563953      -559.5736
   3   2.0000     -11.401885      -310.2611
   4   2.0000     -11.324101      -308.1444
   5   2.0000     -11.240289      -305.8638
   6   2.0000     -10.564229      -287.4673
   7   2.0000      -8.031254      -218.5415
   8   2.0000      -8.029516      -218.4942
   9   2.0000      -8.029469      -218.4930
  10   2.0000      -1.485486       -40.4221
  11   2.0000      -1.381945       -37.6046
  12   2.0000      -1.162721       -31.6392
  13   2.0000      -1.025113       -27.8947
  14   2.0000      -0.931374       -25.3440
  15   2.0000      -0.804173       -21.8827
  16   2.0000      -0.728976       -19.8364
  17   2.0000      -0.713761       -19.4224
  18   2.0000      -0.662242       -18.0205
  19   2.0000      -0.623338       -16.9619
  20   2.0000      -0.613737       -16.7006
  21   2.0000      -0.571293       -15.5457
  22   2.0000      -0.549263       -14.9462
  23   2.0000      -0.524731       -14.2787
  24   2.0000      -0.499655       -13.5963
  25   2.0000      -0.487086       -13.2543
  26   2.0000      -0.449621       -12.2348
  27   2.0000      -0.442315       -12.0360
  28   0.0000       0.023902         0.6504
  29   0.0000       0.030339         0.8256
  30   0.0000       0.038202         1.0395
  31   0.0000       0.042517         1.1569
  32   0.0000       0.054696         1.4884

MULLIKEN ATOMIC CHARGES
-----------------------
   0 C :    1.075727
   1 O :   -0.760992
   2 O :   -0.686539
   3 C :    0.019157
   4 C :   -0.788482
   5 H :    0.240751
   6 H :    0.317774
   7 H :    0.242447
   8 Cl:   -0.348197
   9 H :    0.344354
  10 H :    0.343999
Sum of atomic charges:    0.0000000

LOEWDIN ATOMIC CHARGES
----------------------
   0 C :   -1.182509
   1 O :    0.715736
   2 O :    1.242141
   3 C :   -0.609173
   4 C :    0.779583
   5 H :   -0.284375
   6 H :   -0.305881
   7 H :   -0.317453
   8 Cl:    1.182324
   9 H :   -0.802761
  10 H :   -0.417631

  Mayer bond orders larger than 0.100000
B(  0-C ,  1-O ) :   1.4804 B(  0-C ,  2-O ) :   0.8612 B(  0-C ,  3-C ) :   0.9783
B(  2-O ,  9-H ) :   0.9202 B(  3-C ,  4-C ) :   0.9005 B(  3-C ,  8-Cl) :   0.7394
B(  3-C , 10-H ) :   0.8175 B(  4-C ,  5-H ) :   0.9383 B(  4-C ,  6-H ) :   0.9343
B(  4-C ,  7-H ) :   0.9517

MP2 TOTAL ENERGY:     -727.161297395 Eh
FINAL SINGLE POINT ENERGY      -727.161297395437

DIPOLE MOMENT
-------------
                                X             Y             Z
Electronic contribution:     -1.40025      -5.99166      -1.94047
Nuclear contribution   :      1.57983       6.13776       2.71695
                        -----------------------------------------
Total Dipole Moment    :      0.17959       0.14611       0.77647
                        -----------------------------------------
Magnitude (a.u.)       :      0.81025
Magnitude (Debye)      :      2.05950

Rotational constants in cm-1:     0.130068     0.076839     0.057700
Rotational constants in MHz :  3899.353956  2303.575276  1729.813928

                             ****ORCA TERMINATED NORMALLY****
TOTAL RUN TIME: 0 days 0 hours 8 minutes 11 seconds 182 msec
