                         Program Version 4.2.1 -  RELEASE  -
|  1> %pal
|  2>  nprocs 32
|  3> end
|  4> !RI-MP2 aug-cc-pVQZ aug-cc-pVQZ/C TightSCF
|  5> %maxcore 4500
|  6> *xyzfile 0 1  02_8R.xyz
|  7>
|  8>
|  9>                          ****END OF INPUT****

CARTESIAN COORDINATES (ANGSTROEM)
---------------------------------
  C      1.731985    1.636876   -1.662106
  C      0.864790    2.531497   -0.911376
  C     -0.429664    2.720710   -1.165446
  C      0.859417   -0.255599    1.140238
  C      2.052832   -0.873068    1.105032
  C      2.999041    1.395054   -1.330618
  C      2.454174   -2.100726    0.354502
  C      2.920331   -1.732934   -1.070760
  C      3.912658    0.431579   -2.018179
  C      4.160034   -0.823601   -1.165106
  C      3.514956   -2.881812    1.130194
  C     -1.313187    3.654496   -0.404753
  C      0.762160    0.930856    2.028560
  C     -1.629824   -0.141967    0.760018
  C     -1.647535    0.841791    1.676995
  N     -0.525454    1.367257    2.269506
  O      1.706134    1.491199    2.547137
  C     -0.331118   -0.722351    0.377439
  O     -0.228160   -1.544858   -0.516981
  C     -2.879736   -0.601737    0.116900
  C     -3.844109    0.317864   -0.294691
  C     -3.130846   -1.960803   -0.078142
  C     -5.038841   -0.104827   -0.860196
  C     -4.321842   -2.382964   -0.646042
  C     -5.282474   -1.458473   -1.036484
  H     -0.888677    2.171825   -1.985032
  H      1.567908   -2.722125    0.221123
  H      3.109602   -2.672746   -1.596404
  H      2.073342   -1.267140   -1.575098
  H      3.493119    0.138871   -2.985279
  H      4.871617    0.919596   -2.220429
  H      4.487718   -0.503062   -0.171546
  H      5.001181   -1.378837   -1.586798
  H      4.427764   -2.296991    1.269072
  H      3.151372   -3.169594    2.119107
  H      3.780952   -3.794518    0.592666
  H     -1.729204    4.425427   -1.060129
  H     -2.164868    3.126497    0.034681
  H     -0.766576    4.152003    0.398604
  H      1.327229    3.067998   -0.084972
  H     -2.578737    1.291600    1.997029
  H     -0.606141    2.148965    2.902311
  H     -3.649868    1.378825   -0.191699
  H     -2.384277   -2.686894    0.211868
  H     -5.773328    0.626802   -1.175094
  H     -4.501124   -3.442189   -0.786539
  H     -6.211122   -1.792213   -1.483360
  H      1.295186    1.135009   -2.522867
  H      3.404368    1.891233   -0.449603
  H      2.817734   -0.409029    1.724722

 Total Charge           Charge          ....    0
 Multiplicity           Mult            ....    1
 Number of Electrons    NEL             ....  180
 Basis Dimension        Dim             .... 3150

ORBITAL ENERGIES
----------------

  NO   OCC          E(Eh)            E(eV)
   0   2.0000     -20.530279      -558.6573
   1   2.0000     -20.529987      -558.6493
   2   2.0000     -15.616960      -424.9591
   3   2.0000     -11.367615      -309.3285
   4   2.0000     -11.334178      -308.4187
   5   2.0000     -11.312983      -307.8419
   6   2.0000     -11.275726      -306.8281
   7   2.0000     -11.245090      -305.9944
   8   2.0000     -11.243121      -305.9409
   9   2.0000     -11.240069      -305.8578
  10   2.0000     -11.234003      -305.6928
  11   2.0000     -11.233229      -305.6717
  12   2.0000     -11.231865      -305.6346
  13   2.0000     -11.230407      -305.5949
  14   2.0000     -11.229245      -305.5633
  15   2.0000     -11.228678      -305.5479
  16   2.0000     -11.227048      -305.5035
  17   2.0000     -11.226212      -305.4808
  18   2.0000     -11.223088      -305.3957
  19   2.0000     -11.221861      -305.3624
  20   2.0000     -11.221274      -305.3464
  21   2.0000     -11.220037      -305.3127
  22   2.0000     -11.219662      -305.3025
  23   2.0000     -11.218376      -305.2675
  24   2.0000     -11.216671      -305.2211
  25   2.0000      -1.403097       -38.1802
  26   2.0000      -1.380516       -37.5658
  27   2.0000      -1.280155       -34.8348
  28   2.0000      -1.161068       -31.5943
  29   2.0000      -1.130407       -30.7599
  30   2.0000      -1.104085       -30.0437
  31   2.0000      -1.090349       -29.6699
  32   2.0000      -1.074453       -29.2374
  33   2.0000      -1.050724       -28.5916
  34   2.0000      -1.015539       -27.6342
  35   2.0000      -1.008148       -27.4331
  36   2.0000      -0.999180       -27.1891
  37   2.0000      -0.949452       -25.8359
  38   2.0000      -0.937194       -25.5023
  39   2.0000      -0.906573       -24.6691
  40   2.0000      -0.867254       -23.5992
  41   2.0000      -0.843507       -22.9530
  42   2.0000      -0.837924       -22.8011
  43   2.0000      -0.823737       -22.4150
  44   2.0000      -0.805244       -21.9118
  45   2.0000      -0.771112       -20.9830
  46   2.0000      -0.757403       -20.6100
  47   2.0000      -0.751166       -20.4403
  48   2.0000      -0.742108       -20.1938
  49   2.0000      -0.713952       -19.4276
  50   2.0000      -0.692995       -18.8573
  51   2.0000      -0.677851       -18.4453
  52   2.0000      -0.649262       -17.6673
  53   2.0000      -0.647196       -17.6111
  54   2.0000      -0.641512       -17.4564
  55   2.0000      -0.633489       -17.2381
  56   2.0000      -0.631760       -17.1911
  57   2.0000      -0.625654       -17.0249
  58   2.0000      -0.617835       -16.8122
  59   2.0000      -0.615174       -16.7397
  60   2.0000      -0.600190       -16.3320
  61   2.0000      -0.595155       -16.1950
  62   2.0000      -0.586796       -15.9675
  63   2.0000      -0.581061       -15.8115
  64   2.0000      -0.573171       -15.5968
  65   2.0000      -0.571143       -15.5416
  66   2.0000      -0.563769       -15.3409
  67   2.0000      -0.553977       -15.0745
  68   2.0000      -0.543565       -14.7912
  69   2.0000      -0.538239       -14.6462
  70   2.0000      -0.525760       -14.3067
  71   2.0000      -0.522546       -14.2192
  72   2.0000      -0.509093       -13.8531
  73   2.0000      -0.508603       -13.8398
  74   2.0000      -0.501063       -13.6346
  75   2.0000      -0.496776       -13.5180
  76   2.0000      -0.494949       -13.4682
  77   2.0000      -0.489581       -13.3222
  78   2.0000      -0.484348       -13.1798
  79   2.0000      -0.465373       -12.6634
  80   2.0000      -0.460969       -12.5436
  81   2.0000      -0.456793       -12.4300
  82   2.0000      -0.445041       -12.1102
  83   2.0000      -0.425981       -11.5915
  84   2.0000      -0.412467       -11.2238
  85   2.0000      -0.376316       -10.2401
  86   2.0000      -0.374020       -10.1776
  87   2.0000      -0.336642        -9.1605
  88   2.0000      -0.307505        -8.3676
  89   2.0000      -0.302365        -8.2278
  90   0.0000       0.018175         0.4946
  91   0.0000       0.023463         0.6385
  92   0.0000       0.025460         0.6928
  93   0.0000       0.027289         0.7426
  94   0.0000       0.032679         0.8892

MULLIKEN ATOMIC CHARGES
-----------------------
   0 C :   -0.130713
   1 C :    0.057326
   2 C :   -0.250292
   3 C :   -1.503795
   4 C :    0.805422
   5 C :   -0.118999
   6 C :    0.184000
   7 C :   -0.502360
   8 C :   -0.432783
   9 C :   -0.557603
  10 C :   -1.084556
  11 C :   -0.957945
  12 C :    2.122754
  13 C :    0.218407
  14 C :    0.348641
  15 N :   -1.052420
  16 O :   -1.225595
  17 C :    1.601232
  18 O :   -1.184825
  19 C :    0.714052
  20 C :   -0.688298
  21 C :   -0.665324
  22 C :   -0.495029
  23 C :   -0.301737
  24 C :   -0.377141
  25 H :    0.212031
  26 H :    0.354903
  27 H :    0.167060
  28 H :    0.380872
  29 H :    0.185302
  30 H :    0.290530
  31 H :    0.211404
  32 H :    0.259640
  33 H :    0.183078
  34 H :    0.239849
  35 H :    0.185168
  36 H :    0.285556
  37 H :    0.336475
  38 H :    0.214752
  39 H :    0.124519
  40 H :    0.257717
  41 H :   -0.158603
  42 H :    0.273110
  43 H :    0.288009
  44 H :    0.212199
  45 H :    0.227412
  46 H :    0.344568
  47 H :    0.149502
  48 H :    0.070842
  49 H :    0.181689
Sum of atomic charges:   -0.0000000

LOEWDIN ATOMIC CHARGES
----------------------
   0 C :    0.355017
   1 C :    0.331069
   2 C :    0.374682
   3 C :   -0.081922
   4 C :    0.362309
   5 C :    0.378980
   6 C :    0.124553
   7 C :    0.546507
   8 C :    0.516315
   9 C :    0.545871
  10 C :    0.942921
  11 C :    0.890271
  12 C :   -0.873861
  13 C :   -0.106415
  14 C :    0.209689
  15 N :    0.833544
  16 O :    0.744132
  17 C :   -0.683014
  18 O :    0.807564
  19 C :   -0.126935
  20 C :    0.329837
  21 C :    0.337469
  22 C :    0.351174
  23 C :    0.352840
  24 C :    0.337963
  25 H :   -0.309394
  26 H :   -0.354998
  27 H :   -0.250674
  28 H :   -0.327629
  29 H :   -0.287761
  30 H :   -0.270814
  31 H :   -0.300100
  32 H :   -0.255271
  33 H :   -0.285761
  34 H :   -0.262500
  35 H :   -0.264588
  36 H :   -0.280588
  37 H :   -0.328462
  38 H :   -0.304084
  39 H :   -0.340530
  40 H :   -0.293201
  41 H :   -0.485051
  42 H :   -0.345929
  43 H :   -0.337316
  44 H :   -0.319626
  45 H :   -0.318667
  46 H :   -0.322386
  47 H :   -0.320252
  48 H :   -0.302092
  49 H :   -0.332885

  Mayer bond orders larger than 0.100000
B(  0-C ,  1-C ) :   0.5334 B(  0-C ,  2-C ) :  -0.4187 B(  0-C ,  3-C ) :   0.1018
B(  0-C ,  5-C ) :   1.1551 B(  0-C ,  8-C ) :  -0.3947 B(  0-C , 39-H ) :  -0.1348
B(  0-C , 47-H ) :   1.1567 B(  1-C ,  2-C ) :   1.2170 B(  1-C ,  5-C ) :  -0.5743
B(  1-C , 11-C ) :  -0.2816 B(  1-C , 39-H ) :   1.1509 B(  2-C , 11-C ) :   0.7644
B(  2-C , 25-H ) :   1.0696 B(  2-C , 36-H ) :  -0.1322 B(  3-C ,  4-C ) :   0.1728
B(  3-C ,  6-C ) :  -0.3092 B(  3-C , 12-C ) :   0.9134 B(  3-C , 13-C ) :  -0.3704
B(  3-C , 16-O ) :   1.0281 B(  3-C , 17-C ) :   1.1278 B(  3-C , 18-O ) :   0.5235
B(  3-C , 19-C ) :   0.1325 B(  3-C , 20-C ) :  -0.1518 B(  3-C , 49-H ) :  -0.3496
B(  4-C ,  6-C ) :   0.6436 B(  4-C , 10-C ) :  -0.1697 B(  4-C , 12-C ) :  -0.1738
B(  4-C , 16-O ) :  -0.2711 B(  4-C , 20-C ) :   0.1031 B(  4-C , 49-H ) :   1.1620
B(  5-C ,  8-C ) :   0.6846 B(  5-C ,  9-C ) :  -0.1250 B(  5-C , 30-H ) :  -0.2060
B(  5-C , 48-H ) :   1.2595 B(  6-C ,  7-C ) :   0.8863 B(  6-C , 10-C ) :   0.5344
B(  6-C , 18-O ) :  -0.1357 B(  6-C , 26-H ) :   0.8119 B(  6-C , 33-H ) :  -0.1702
B(  6-C , 34-H ) :  -0.1444 B(  6-C , 35-H ) :  -0.1540 B(  7-C ,  9-C ) :   0.7551
B(  7-C , 27-H ) :   1.0584 B(  7-C , 28-H ) :   0.8091 B(  8-C ,  9-C ) :   0.9338
B(  8-C , 29-H ) :   1.0913 B(  8-C , 30-H ) :   1.0031 B(  9-C , 31-H ) :   0.9881
B(  9-C , 32-H ) :   0.9984 B( 10-C , 33-H ) :   1.1061 B( 10-C , 34-H ) :   1.0858
B( 10-C , 35-H ) :   1.1546 B( 11-C , 36-H ) :   1.0433 B( 11-C , 37-H ) :   0.8639
B( 11-C , 38-H ) :   1.0529 B( 12-C , 13-C ) :   0.1366 B( 12-C , 14-C ) :   0.1643
B( 12-C , 15-N ) :   0.9836 B( 12-C , 16-O ) :  -0.2775 B( 12-C , 17-C ) :  -0.2042
B( 12-C , 41-H ) :  -0.3283 B( 13-C , 14-C ) :   1.6032 B( 13-C , 17-C ) :   0.9297
B( 13-C , 18-O ) :   0.1653 B( 13-C , 19-C ) :   0.1403 B( 13-C , 20-C ) :  -0.3053
B( 13-C , 21-C ) :  -0.3663 B( 13-C , 40-H ) :  -0.1257 B( 14-C , 15-N ) :   0.8228
B( 14-C , 19-C ) :  -0.4072 B( 14-C , 40-H ) :   1.0159 B( 14-C , 41-H ) :  -0.2162
B( 15-N , 16-O ) :   0.3559 B( 15-N , 17-C ) :  -0.3241 B( 15-N , 41-H ) :   1.6219
B( 17-C , 18-O ) :   0.3335 B( 17-C , 19-C ) :  -0.4423 B( 17-C , 21-C ) :  -0.2064
B( 18-O , 19-C ) :  -0.1802 B( 19-C , 20-C ) :   0.9719 B( 19-C , 21-C ) :   1.2842
B( 19-C , 22-C ) :  -0.4452 B( 19-C , 23-C ) :  -0.3704 B( 19-C , 43-H ) :  -0.1941
B( 20-C , 21-C ) :   0.1045 B( 20-C , 22-C ) :   1.3103 B( 20-C , 23-C ) :   0.1044
B( 20-C , 42-H ) :   0.9297 B( 20-C , 44-H ) :  -0.1161 B( 21-C , 22-C ) :   0.2169
B( 21-C , 23-C ) :   1.3460 B( 21-C , 43-H ) :   0.9850 B( 21-C , 45-H ) :  -0.1340
B( 21-C , 46-H ) :  -0.1086 B( 22-C , 24-C ) :   1.2789 B( 22-C , 44-H ) :   1.1312
B( 22-C , 46-H ) :  -0.1083 B( 23-C , 24-C ) :   1.0928 B( 23-C , 45-H ) :   1.1695
B( 23-C , 46-H ) :  -0.1003 B( 24-C , 46-H ) :   1.0185

MP2 TOTAL ENERGY:    -1056.751259253 Eh
FINAL SINGLE POINT ENERGY     -1056.751259253167

DIPOLE MOMENT
-------------
                                X             Y             Z
Electronic contribution:    -14.19971      -0.18915       8.78275
Nuclear contribution   :     13.68085       0.34918      -8.42328
                        -----------------------------------------
Total Dipole Moment    :     -0.51885       0.16003       0.35947
                        -----------------------------------------
Magnitude (a.u.)       :      0.65118
Magnitude (Debye)      :      1.65517

Rotational constants in cm-1:     0.010695     0.005273     0.004636
Rotational constants in MHz :   320.634140   158.089869   138.998644

                             ****ORCA TERMINATED NORMALLY****
TOTAL RUN TIME: 0 days 16 hours 50 minutes 8 seconds 740 msec
