                         Program Version 4.2.1 -  RELEASE  -
|  1> %pal
|  2>  nprocs 32
|  3> end
|  4> !RI-MP2 aug-cc-pVQZ aug-cc-pVQZ/C TightSCF
|  5> %maxcore 4500
|  6> *xyzfile 0 1  05_7P2.xyz
|  7>
|  8>
|  9>                          ****END OF INPUT****

CARTESIAN COORDINATES (ANGSTROEM)
---------------------------------
  H      2.772564    0.191067   -0.308839
  C     -0.251885   -1.185822   -0.026677
  C     -0.966199   -0.056800    0.038207
  H      1.617649    2.178368   -0.049264
  H      1.466206   -1.296120    1.268611
  H     -0.730715   -2.145322   -0.184218
  C     -2.459042   -0.029468   -0.104780
  C      1.237487   -1.159898    0.195247
  C     -0.266890    1.215308    0.198197
  N      1.770170    0.107407   -0.291362
  C      1.059846    1.250035   -0.015452
  H      1.725896   -1.973124   -0.344600
  H     -0.817266    2.130593    0.365570
  H     -2.920267    0.421214    0.778979
  H     -2.867335   -1.032985   -0.229009
  H     -2.757824    0.574333   -0.966158

 Total Charge           Charge          ....    0
 Multiplicity           Mult            ....    1
 Number of Electrons    NEL             ....   52
 Basis Dimension        Dim             ....  974

ORBITAL ENERGIES
----------------

  NO   OCC          E(Eh)            E(eV)
   0   2.0000     -15.564450      -423.5302
   1   2.0000     -11.267402      -306.6016
   2   2.0000     -11.258534      -306.3603
   3   2.0000     -11.227266      -305.5094
   4   2.0000     -11.213066      -305.1230
   5   2.0000     -11.205751      -304.9240
   6   2.0000     -11.198757      -304.7337
   7   2.0000      -1.245450       -33.8904
   8   2.0000      -1.086234       -29.5579
   9   2.0000      -1.018352       -27.7108
  10   2.0000      -0.955240       -25.9934
  11   2.0000      -0.858445       -23.3595
  12   2.0000      -0.808456       -21.9992
  13   2.0000      -0.722178       -19.6515
  14   2.0000      -0.661327       -17.9956
  15   2.0000      -0.633625       -17.2418
  16   2.0000      -0.609983       -16.5985
  17   2.0000      -0.584472       -15.9043
  18   2.0000      -0.577050       -15.7023
  19   2.0000      -0.561031       -15.2664
  20   2.0000      -0.537244       -14.6192
  21   2.0000      -0.492446       -13.4001
  22   2.0000      -0.480988       -13.0884
  23   2.0000      -0.454200       -12.3594
  24   2.0000      -0.378049       -10.2872
  25   2.0000      -0.269328        -7.3288
  26   0.0000       0.023844         0.6488
  27   0.0000       0.030329         0.8253
  28   0.0000       0.030761         0.8371
  29   0.0000       0.039052         1.0627
  30   0.0000       0.043313         1.1786

MULLIKEN ATOMIC CHARGES
-----------------------
   0 H :    0.146044
   1 C :   -0.446132
   2 C :    0.412298
   3 H :    0.434278
   4 H :    0.243824
   5 H :    0.293972
   6 C :   -0.824019
   7 C :   -0.306782
   8 C :   -0.458569
   9 N :   -0.576797
  10 C :   -0.206666
  11 H :    0.319619
  12 H :    0.311129
  13 H :    0.211891
  14 H :    0.212518
  15 H :    0.233393
Sum of atomic charges:   -0.0000000

LOEWDIN ATOMIC CHARGES
----------------------
   0 H :   -0.486805
   1 C :    0.374403
   2 C :   -0.102604
   3 H :   -0.309357
   4 H :   -0.269349
   5 H :   -0.316772
   6 C :    0.889428
   7 C :    0.343202
   8 C :    0.336316
   9 N :    0.850710
  10 C :    0.209056
  11 H :   -0.295808
  12 H :   -0.343300
  13 H :   -0.286232
  14 H :   -0.309111
  15 H :   -0.283778

  Mayer bond orders larger than 0.100000
B(  0-H ,  9-N ) :   1.0780 B(  1-C ,  2-C ) :   1.3288 B(  1-C ,  5-H ) :   0.9236
B(  1-C ,  7-C ) :   1.1297 B(  2-C ,  6-C ) :   0.6534 B(  2-C ,  7-C ) :  -0.2021
B(  2-C ,  8-C ) :   0.7295 B(  2-C , 10-C ) :  -0.2423 B(  2-C , 13-H ) :  -0.1239
B(  2-C , 14-H ) :  -0.1104 B(  3-H , 10-C ) :   0.9078 B(  4-H ,  7-C ) :   0.8777
B(  6-C , 13-H ) :   1.0464 B(  6-C , 14-H ) :   1.0349 B(  6-C , 15-H ) :   1.0172
B(  7-C ,  9-N ) :   0.8017 B(  7-C , 11-H ) :   0.9660 B(  8-C , 10-C ) :   1.5765
B(  8-C , 12-H ) :   0.9551 B(  9-N , 10-C ) :   0.9642

MP2 TOTAL ENERGY:     -288.250439781 Eh
FINAL SINGLE POINT ENERGY      -288.250439780542

DIPOLE MOMENT
-------------
                                X             Y             Z
Electronic contribution:      3.08547       0.96471      -0.25261
Nuclear contribution   :     -2.56680      -0.97649       0.33807
                        -----------------------------------------
Total Dipole Moment    :      0.51867      -0.01178       0.08546
                        -----------------------------------------
Magnitude (a.u.)       :      0.52580
Magnitude (Debye)      :      1.33647

Rotational constants in cm-1:     0.174023     0.080893     0.057438
Rotational constants in MHz :  5217.079652  2425.102512  1721.947056

                             ****ORCA TERMINATED NORMALLY****
TOTAL RUN TIME: 0 days 0 hours 23 minutes 32 seconds 682 msec
