                         Program Version 4.2.1 -  RELEASE  -
|  1> %pal
|  2>  nprocs 32
|  3> end
|  4> !RI-MP2 aug-cc-pVQZ aug-cc-pVQZ/C TightSCF
|  5> %maxcore 4500
|  6> *xyzfile 0 1  04_82P2.xyz
|  7>
|  8>
|  9>                          ****END OF INPUT****

CARTESIAN COORDINATES (ANGSTROEM)
---------------------------------
  O      2.030534   -1.248345   -0.277783
  C      3.127511   -0.824056    0.570058
  C      3.055743    0.697802    0.579816
  C      1.554947    0.936393    0.474728
  C      1.142514   -0.190432   -0.488051
  C      4.412122   -1.419842    0.052382
  H      2.920260   -1.186716    1.583700
  O      3.709730    1.231358   -0.548127
  O      1.295093    2.225232    0.000550
  N     -0.219942   -0.658642   -0.243840
  H      1.205591    0.161516   -1.522319
  C     -1.330316    0.136659   -0.147929
  C     -0.674784   -1.957443   -0.189070
  H      1.084363    0.760642    1.449796
  H      3.473147    1.110802    1.504302
  H      3.267212    2.063373   -0.760456
  H      0.325553    2.295480   -0.119444
  N     -1.968443   -2.045507   -0.050452
  C     -2.399524   -0.736785   -0.024870
  C     -3.667911   -0.149617    0.099945
  N     -3.762711    1.185557    0.089508
  C     -2.652370    1.909625   -0.034689
  N     -1.402429    1.474969   -0.156706
  N     -4.787052   -0.882699    0.229618
  H     -4.735483   -1.887027    0.230752
  H     -5.673517   -0.414072    0.306090
  H     -2.787722    2.985808   -0.034575
  H      0.016557   -2.782062   -0.250328
  H      4.329053   -2.506594    0.013438
  H      5.240308   -1.159041    0.714842
  H      4.628265   -1.037630   -0.943726

 Total Charge           Charge          ....    0
 Multiplicity           Mult            ....    1
 Number of Electrons    NEL             ....  132
 Basis Dimension        Dim             .... 2038

ORBITAL ENERGIES
----------------

  NO   OCC          E(Eh)            E(eV)
   0   2.0000     -20.576401      -559.9123
   1   2.0000     -20.559065      -559.4406
   2   2.0000     -20.558340      -559.4209
   3   2.0000     -15.628361      -425.2693
   4   2.0000     -15.590540      -424.2402
   5   2.0000     -15.569527      -423.6684
   6   2.0000     -15.564085      -423.5203
   7   2.0000     -15.556212      -423.3060
   8   2.0000     -11.344952      -308.7118
   9   2.0000     -11.340553      -308.5921
  10   2.0000     -11.321441      -308.0721
  11   2.0000     -11.319906      -308.0303
  12   2.0000     -11.317510      -307.9651
  13   2.0000     -11.295542      -307.3673
  14   2.0000     -11.295467      -307.3653
  15   2.0000     -11.289976      -307.2159
  16   2.0000     -11.254404      -306.2479
  17   2.0000     -11.217722      -305.2497
  18   2.0000      -1.426857       -38.8268
  19   2.0000      -1.384149       -37.6646
  20   2.0000      -1.372803       -37.3559
  21   2.0000      -1.356170       -36.9033
  22   2.0000      -1.312814       -35.7235
  23   2.0000      -1.259866       -34.2827
  24   2.0000      -1.201562       -32.6962
  25   2.0000      -1.166475       -31.7414
  26   2.0000      -1.065176       -28.9849
  27   2.0000      -1.044142       -28.4125
  28   2.0000      -1.034657       -28.1545
  29   2.0000      -0.943684       -25.6790
  30   2.0000      -0.903408       -24.5830
  31   2.0000      -0.887719       -24.1561
  32   2.0000      -0.850174       -23.1344
  33   2.0000      -0.819716       -22.3056
  34   2.0000      -0.795609       -21.6496
  35   2.0000      -0.773833       -21.0571
  36   2.0000      -0.752492       -20.4763
  37   2.0000      -0.735325       -20.0092
  38   2.0000      -0.713397       -19.4125
  39   2.0000      -0.704670       -19.1750
  40   2.0000      -0.688187       -18.7265
  41   2.0000      -0.674969       -18.3668
  42   2.0000      -0.665579       -18.1113
  43   2.0000      -0.642719       -17.4893
  44   2.0000      -0.635988       -17.3061
  45   2.0000      -0.632940       -17.2232
  46   2.0000      -0.615343       -16.7443
  47   2.0000      -0.600774       -16.3479
  48   2.0000      -0.590242       -16.0613
  49   2.0000      -0.575644       -15.6641
  50   2.0000      -0.569030       -15.4841
  51   2.0000      -0.556145       -15.1335
  52   2.0000      -0.541993       -14.7484
  53   2.0000      -0.535645       -14.5756
  54   2.0000      -0.523685       -14.2502
  55   2.0000      -0.512347       -13.9417
  56   2.0000      -0.502200       -13.6656
  57   2.0000      -0.473564       -12.8863
  58   2.0000      -0.463888       -12.6230
  59   2.0000      -0.458210       -12.4685
  60   2.0000      -0.449769       -12.2388
  61   2.0000      -0.447885       -12.1876
  62   2.0000      -0.421809       -11.4780
  63   2.0000      -0.411097       -11.1865
  64   2.0000      -0.377835       -10.2814
  65   2.0000      -0.317293        -8.6340
  66   0.0000       0.021765         0.5922
  67   0.0000       0.024856         0.6764
  68   0.0000       0.028752         0.7824
  69   0.0000       0.031956         0.8696
  70   0.0000       0.035700         0.9714

MULLIKEN ATOMIC CHARGES
-----------------------
   0 O :   -1.211200
   1 C :    0.211849
   2 C :    0.596411
   3 C :    0.254773
   4 C :    0.702809
   5 C :   -0.936641
   6 H :    0.226203
   7 O :   -0.968647
   8 O :   -1.023336
   9 N :   -0.451018
  10 H :    0.435386
  11 C :    1.091125
  12 C :    0.293470
  13 H :    0.249666
  14 H :    0.362953
  15 H :    0.284504
  16 H :    0.220166
  17 N :   -1.020590
  18 C :   -0.278061
  19 C :    1.072570
  20 N :   -0.935637
  21 C :   -0.065852
  22 N :   -0.714563
  23 N :   -0.829898
  24 H :    0.310135
  25 H :    0.270550
  26 H :    0.582931
  27 H :    0.530761
  28 H :    0.263766
  29 H :    0.217937
  30 H :    0.257477
Sum of atomic charges:    0.0000000

LOEWDIN ATOMIC CHARGES
----------------------
   0 O :    0.934665
   1 C :   -0.209666
   2 C :   -0.231187
   3 C :   -0.246400
   4 C :   -0.360673
   5 C :    0.922699
   6 H :   -0.279149
   7 O :    1.315559
   8 O :    1.332204
   9 N :    0.439389
  10 H :   -0.281392
  11 C :   -0.565925
  12 C :   -0.024865
  13 H :   -0.271899
  14 H :   -0.261748
  15 H :   -0.850355
  16 H :   -0.947552
  17 N :    0.619530
  18 C :   -0.423712
  19 C :   -0.492392
  20 N :    0.599614
  21 C :   -0.135238
  22 N :    0.656307
  23 N :    1.267248
  24 H :   -0.480453
  25 H :   -0.483187
  26 H :   -0.370359
  27 H :   -0.316455
  28 H :   -0.279556
  29 H :   -0.272427
  30 H :   -0.302625

  Mayer bond orders larger than 0.100000
B(  0-O ,  1-C ) :   0.5436 B(  0-O ,  3-C ) :   0.2139 B(  0-O ,  4-C ) :   0.4604
B(  0-O ,  9-N ) :  -0.1584 B(  1-C ,  2-C ) :   0.8134 B(  1-C ,  5-C ) :   0.5565
B(  1-C ,  6-H ) :   1.0284 B(  1-C , 28-H ) :  -0.1263 B(  2-C ,  3-C ) :   0.8985
B(  2-C ,  7-O ) :   0.1574 B(  2-C ,  8-O ) :   0.1140 B(  2-C , 14-H ) :   0.9075
B(  3-C ,  4-C ) :   0.8667 B(  3-C ,  7-O ) :   0.1805 B(  3-C ,  8-O ) :   0.1718
B(  3-C ,  9-N ) :   0.1574 B(  3-C , 13-H ) :   0.9788 B(  4-C ,  9-N ) :   0.5933
B(  4-C , 10-H ) :   0.8139 B(  4-C , 12-C ) :   0.1123 B(  5-C , 28-H ) :   1.0376
B(  5-C , 29-H ) :   1.0678 B(  5-C , 30-H ) :   0.9371 B(  7-O , 15-H ) :   0.9365
B(  8-O , 16-H ) :   0.9635 B(  9-N , 11-C ) :   1.0416 B(  9-N , 12-C ) :   1.3200
B(  9-N , 22-N ) :   0.1513 B( 11-C , 12-C ) :   0.2478 B( 11-C , 17-N ) :   0.3745
B( 11-C , 18-C ) :   1.1677 B( 11-C , 19-C ) :  -0.3473 B( 11-C , 21-C ) :  -0.1540
B( 11-C , 22-N ) :   0.9386 B( 12-C , 17-N ) :   1.1661 B( 12-C , 18-C ) :   0.2462
B( 12-C , 27-H ) :   0.6363 B( 16-H , 22-N ) :   0.2100 B( 17-N , 18-C ) :   0.3461
B( 18-C , 19-C ) :   1.4335 B( 18-C , 20-N ) :   0.1980 B( 18-C , 21-C ) :   0.2124
B( 19-C , 20-N ) :   0.7143 B( 19-C , 23-N ) :   0.8704 B( 20-N , 21-C ) :   1.2849
B( 20-N , 23-N ) :   0.1342 B( 21-C , 22-N ) :   1.5850 B( 21-C , 26-H ) :   0.7069
B( 23-N , 24-H ) :   0.9106 B( 23-N , 25-H ) :   0.9864

MP2 TOTAL ENERGY:     -887.048407260 Eh
FINAL SINGLE POINT ENERGY      -887.048407259810

DIPOLE MOMENT
-------------
                                X             Y             Z
Electronic contribution:    -13.48889       1.14413      -1.57218
Nuclear contribution   :     13.15596      -1.54533       2.12959
                        -----------------------------------------
Total Dipole Moment    :     -0.33292      -0.40120       0.55741
                        -----------------------------------------
Magnitude (a.u.)       :      0.76322
Magnitude (Debye)      :      1.93996

Rotational constants in cm-1:     0.035396     0.008585     0.007107
Rotational constants in MHz :  1061.154121   257.380680   213.067097

                             ****ORCA TERMINATED NORMALLY****
TOTAL RUN TIME: 0 days 4 hours 15 minutes 14 seconds 608 msec
