                         Program Version 4.2.1 -  RELEASE  -
|  1> %pal
|  2>  nprocs 32
|  3> end
|  4> !RI-MP2 aug-cc-pVQZ aug-cc-pVQZ/C TightSCF
|  5> %maxcore 4500
|  6> *xyzfile 0 1  01_9R2.xyz
|  7>
|  8>
|  9>                          ****END OF INPUT****

CARTESIAN COORDINATES (ANGSTROEM)
---------------------------------
  C      1.029232    1.492029   -0.000221
  C      0.695944    0.205325   -0.000056
  C     -0.733642   -0.205869    0.000058
  O     -1.605891    0.822405   -0.000019
  C      1.680416   -0.924313    0.000029
  O     -1.102424   -1.352212    0.000207
  H      2.701387   -0.543656   -0.000070
  H      1.539154   -1.561350   -0.875162
  H      1.539245   -1.561139    0.875387
  H     -2.492257    0.436934    0.000067
  H      2.069573    1.795173   -0.000305
  H      0.277720    2.269452   -0.000276

 Total Charge           Charge          ....    0
 Multiplicity           Mult            ....    1
 Number of Electrons    NEL             ....   46
 Basis Dimension        Dim             ....  756

ORBITAL ENERGIES
----------------

  NO   OCC          E(Eh)            E(eV)
   0   2.0000     -20.609356      -560.8091
   1   2.0000     -20.546971      -559.1115
   2   2.0000     -11.385305      -309.8099
   3   2.0000     -11.257981      -306.3452
   4   2.0000     -11.249963      -306.1270
   5   2.0000     -11.226804      -305.4969
   6   2.0000      -1.468279       -39.9539
   7   2.0000      -1.362791       -37.0834
   8   2.0000      -1.106367       -30.1058
   9   2.0000      -0.952696       -25.9242
  10   2.0000      -0.890184       -24.2231
  11   2.0000      -0.765840       -20.8396
  12   2.0000      -0.709356       -19.3026
  13   2.0000      -0.687555       -18.7093
  14   2.0000      -0.638984       -17.3876
  15   2.0000      -0.616842       -16.7851
  16   2.0000      -0.598154       -16.2766
  17   2.0000      -0.572501       -15.5786
  18   2.0000      -0.540279       -14.7017
  19   2.0000      -0.533686       -14.5223
  20   2.0000      -0.486739       -13.2448
  21   2.0000      -0.456101       -12.4111
  22   2.0000      -0.385385       -10.4869
  23   0.0000       0.024656         0.6709
  24   0.0000       0.030369         0.8264
  25   0.0000       0.034243         0.9318
  26   0.0000       0.043825         1.1925
  27   0.0000       0.048599         1.3224

MULLIKEN ATOMIC CHARGES
-----------------------
   0 C :   -0.792755
   1 C :   -0.237459
   2 C :    1.389789
   3 O :   -0.645407
   4 C :   -0.652775
   5 O :   -0.753978
   6 H :    0.297114
   7 H :    0.218146
   8 H :    0.218148
   9 H :    0.309988
  10 H :    0.297219
  11 H :    0.351970
Sum of atomic charges:   -0.0000000

LOEWDIN ATOMIC CHARGES
----------------------
   0 C :    0.794019
   1 C :   -0.128695
   2 C :   -1.070285
   3 O :    1.240901
   4 C :    0.852577
   5 O :    0.714275
   6 H :   -0.309472
   7 H :   -0.291372
   8 H :   -0.291372
   9 H :   -0.811910
  10 H :   -0.330820
  11 H :   -0.367847

  Mayer bond orders larger than 0.100000
B(  0-C ,  1-C ) :   1.4759 B(  0-C , 10-H ) :   1.0033 B(  0-C , 11-H ) :   0.9602
B(  1-C ,  2-C ) :   1.0776 B(  1-C ,  3-O ) :   0.1593 B(  1-C ,  4-C ) :   0.7615
B(  1-C ,  5-O ) :   0.2078 B(  2-C ,  3-O ) :   0.7507 B(  2-C ,  5-O ) :   1.2670
B(  3-O ,  9-H ) :   0.9319 B(  4-C ,  6-H ) :   0.9719 B(  4-C ,  7-H ) :   0.9829
B(  4-C ,  8-H ) :   0.9829

MP2 TOTAL ENERGY:     -306.037544604 Eh
FINAL SINGLE POINT ENERGY      -306.037544604038

DIPOLE MOMENT
-------------
                                X             Y             Z
Electronic contribution:     -5.26749      -0.07633       0.00026
Nuclear contribution   :      5.61170       0.82996      -0.00036
                        -----------------------------------------
Total Dipole Moment    :      0.34421       0.75363      -0.00010
                        -----------------------------------------
Magnitude (a.u.)       :      0.82852
Magnitude (Debye)      :      2.10592

Rotational constants in cm-1:     0.180684     0.117252     0.072047
Rotational constants in MHz :  5416.784268  3515.140783  2159.907036

                             ****ORCA TERMINATED NORMALLY****
TOTAL RUN TIME: 0 days 0 hours 9 minutes 39 seconds 80 msec
