                         Program Version 4.2.1 -  RELEASE  -
|  1> %pal
|  2>  nprocs 32
|  3> end
|  4> !RI-MP2 aug-cc-pVQZ aug-cc-pVQZ/C TightSCF
|  5> %maxcore 4500
|  6> *xyzfile 1 1  05_28TS.xyz
|  7>
|  8>
|  9>                          ****END OF INPUT****

CARTESIAN COORDINATES (ANGSTROEM)
---------------------------------
  C      0.031439   -2.587645   -0.790679
  C      0.044410   -1.416041    1.581902
  C      1.505873   -1.050449    1.309770
  C      2.227955   -2.059498    0.419463
  C      1.503275   -2.189182   -0.917372
  H      1.553677   -0.071252    0.832061
  H      2.018487   -0.970197    2.270524
  H      2.240732   -3.031191    0.916945
  H      1.579000   -1.233886   -1.436426
  H      2.001971   -2.936018   -1.538444
  N     -0.607130   -1.756068    0.279815
  O     -1.878626   -1.694045    0.242158
  C     -0.678626   -2.314638   -2.115984
  H     -0.612044   -1.264551   -2.399796
  H     -0.180713   -2.891532   -2.895352
  H     -1.723836   -2.619440   -2.087281
  C     -0.145605   -4.075325   -0.446673
  H     -1.190849   -4.293290   -0.224981
  H      0.150443   -4.671502   -1.310901
  H      0.462440   -4.392160    0.397484
  C     -0.674595   -0.232123    2.219068
  H     -0.179610    0.003641    3.161240
  H     -0.622182    0.647080    1.580517
  H     -1.717567   -0.462189    2.431818
  C     -0.089299   -2.619991    2.533197
  H      0.247354   -2.320647    3.526400
  H     -1.131692   -2.931886    2.605919
  H      0.506277   -3.475540    2.224933
  C     -2.609998    0.400234   -0.986583
  H     -2.939783   -0.125376   -1.882730
  H     -2.264882   -0.713750   -0.338043
  O     -3.627452    0.945976   -0.245125
  C     -1.383928    1.116545   -1.009073
  H     -0.624983    0.758891   -1.691273
  C     -1.153355    2.212520   -0.229268
  H     -1.987189    2.570828    0.367389
  C      0.057455    2.977315   -0.143742
  C      0.021581    4.206396    0.537887
  C      1.274490    2.535817   -0.688838
  C      1.159001    4.981545    0.646507
  H     -0.912195    4.547216    0.970105
  C      2.412082    3.304953   -0.562608
  H      1.356189    1.574798   -1.177031
  C      2.354418    4.531087    0.095218
  H      1.121729    5.932255    1.162535
  H      3.344304    2.932561   -0.965291
  H      3.248961    5.135092    0.187233
  C     -4.851177    0.287844   -0.294758
  O     -4.975826   -0.730504   -0.898610
  C     -5.878582    1.034806    0.482640
  H     -5.540440    1.170969    1.510785
  H     -6.019711    2.025275    0.046755
  H     -6.814906    0.484196    0.464527
  N      3.633740   -1.711704    0.234591
  C      4.076397   -0.588524   -0.389686
  C      5.571721   -0.423653   -0.472562
  H      5.849090   -0.291386   -1.518460
  H      5.850801    0.486713    0.059419
  H      6.129439   -1.262570   -0.056985
  O      3.312204    0.244048   -0.854852
  H      4.323423   -2.352495    0.590037

 Total Charge           Charge          ....    1
 Multiplicity           Mult            ....    1
 Number of Electrons    NEL             ....  210
 Basis Dimension        Dim             .... 3758

ORBITAL ENERGIES
----------------

  NO   OCC          E(Eh)            E(eV)
   0   2.0000     -20.783554      -565.5492
   1   2.0000     -20.743530      -564.4602
   2   2.0000     -20.668194      -562.4102
   3   2.0000     -20.611352      -560.8634
   4   2.0000     -15.785976      -429.5583
   5   2.0000     -15.685439      -426.8225
   6   2.0000     -11.502722      -313.0050
   7   2.0000     -11.465433      -311.9903
   8   2.0000     -11.448495      -311.5294
   9   2.0000     -11.406810      -310.3951
  10   2.0000     -11.398591      -310.1714
  11   2.0000     -11.398338      -310.1645
  12   2.0000     -11.381778      -309.7139
  13   2.0000     -11.368566      -309.3544
  14   2.0000     -11.356352      -309.0220
  15   2.0000     -11.353672      -308.9491
  16   2.0000     -11.348766      -308.8156
  17   2.0000     -11.347038      -308.7686
  18   2.0000     -11.344603      -308.7023
  19   2.0000     -11.335374      -308.4512
  20   2.0000     -11.331409      -308.3433
  21   2.0000     -11.330974      -308.3315
  22   2.0000     -11.330635      -308.3222
  23   2.0000     -11.328706      -308.2698
  24   2.0000     -11.325675      -308.1873
  25   2.0000     -11.325542      -308.1837
  26   2.0000     -11.324074      -308.1437
  27   2.0000     -11.323381      -308.1248
  28   2.0000      -1.624623       -44.2082
  29   2.0000      -1.600622       -43.5551
  30   2.0000      -1.499833       -40.8125
  31   2.0000      -1.482239       -40.3338
  32   2.0000      -1.341602       -36.5068
  33   2.0000      -1.294274       -35.2190
  34   2.0000      -1.280410       -34.8417
  35   2.0000      -1.231407       -33.5083
  36   2.0000      -1.221277       -33.2326
  37   2.0000      -1.167253       -31.7626
  38   2.0000      -1.158175       -31.5155
  39   2.0000      -1.129341       -30.7309
  40   2.0000      -1.125155       -30.6170
  41   2.0000      -1.108979       -30.1768
  42   2.0000      -1.084721       -29.5168
  43   2.0000      -1.059337       -28.8260
  44   2.0000      -1.056329       -28.7442
  45   2.0000      -1.047009       -28.4906
  46   2.0000      -1.045634       -28.4531
  47   2.0000      -0.968596       -26.3568
  48   2.0000      -0.965112       -26.2620
  49   2.0000      -0.937789       -25.5185
  50   2.0000      -0.936903       -25.4944
  51   2.0000      -0.935932       -25.4680
  52   2.0000      -0.898899       -24.4603
  53   2.0000      -0.875188       -23.8151
  54   2.0000      -0.865973       -23.5643
  55   2.0000      -0.829882       -22.5822
  56   2.0000      -0.828798       -22.5527
  57   2.0000      -0.811866       -22.0920
  58   2.0000      -0.810869       -22.0649
  59   2.0000      -0.807009       -21.9598
  60   2.0000      -0.801191       -21.8015
  61   2.0000      -0.789656       -21.4876
  62   2.0000      -0.776967       -21.1424
  63   2.0000      -0.762141       -20.7389
  64   2.0000      -0.752828       -20.4855
  65   2.0000      -0.745564       -20.2878
  66   2.0000      -0.731993       -19.9186
  67   2.0000      -0.727974       -19.8092
  68   2.0000      -0.727180       -19.7876
  69   2.0000      -0.711356       -19.3570
  70   2.0000      -0.709155       -19.2971
  71   2.0000      -0.707485       -19.2516
  72   2.0000      -0.699988       -19.0477
  73   2.0000      -0.698248       -19.0003
  74   2.0000      -0.690019       -18.7764
  75   2.0000      -0.683604       -18.6018
  76   2.0000      -0.679443       -18.4886
  77   2.0000      -0.677619       -18.4390
  78   2.0000      -0.676551       -18.4099
  79   2.0000      -0.672322       -18.2948
  80   2.0000      -0.666579       -18.1385
  81   2.0000      -0.659385       -17.9428
  82   2.0000      -0.650518       -17.7015
  83   2.0000      -0.645327       -17.5602
  84   2.0000      -0.645027       -17.5521
  85   2.0000      -0.642374       -17.4799
  86   2.0000      -0.638044       -17.3621
  87   2.0000      -0.630601       -17.1595
  88   2.0000      -0.623339       -16.9619
  89   2.0000      -0.617618       -16.8062
  90   2.0000      -0.612457       -16.6658
  91   2.0000      -0.607923       -16.5424
  92   2.0000      -0.602716       -16.4007
  93   2.0000      -0.596624       -16.2350
  94   2.0000      -0.594096       -16.1662
  95   2.0000      -0.584914       -15.9163
  96   2.0000      -0.575153       -15.6507
  97   2.0000      -0.573746       -15.6124
  98   2.0000      -0.569166       -15.4878
  99   2.0000      -0.540913       -14.7190
 100   2.0000      -0.518221       -14.1015
 101   2.0000      -0.494773       -13.4635
 102   2.0000      -0.475048       -12.9267
 103   2.0000      -0.445031       -12.1099
 104   2.0000      -0.406285       -11.0556
 105   0.0000      -0.153452        -4.1756
 106   0.0000      -0.053522        -1.4564
 107   0.0000      -0.049715        -1.3528
 108   0.0000      -0.044678        -1.2158
 109   0.0000      -0.041576        -1.1313

MULLIKEN ATOMIC CHARGES
-----------------------
   0 C :    1.284174
   1 C :    1.406934
   2 C :   -1.266563
   3 C :    2.053663
   4 C :   -0.884886
   5 H :    0.770625
   6 H :   -0.099375
   7 H :    0.341233
   8 H :    0.445306
   9 H :   -0.003061
  10 N :    2.384305
  11 O :   -1.661278
  12 C :   -1.290332
  13 H :    0.177204
  14 H :    0.002263
  15 H :    0.248598
  16 C :   -1.239783
  17 H :    0.143856
  18 H :    0.198176
  19 H :    0.235260
  20 C :   -1.373115
  21 H :    0.027871
  22 H :    0.284715
  23 H :    0.266956
  24 C :   -1.334794
  25 H :    0.180701
  26 H :    0.160987
  27 H :    0.285751
  28 C :    1.177879
  29 H :    0.435408
  30 H :   -0.033454
  31 O :   -0.786642
  32 C :   -0.612565
  33 H :    0.258528
  34 C :    0.119087
  35 H :    0.118459
  36 C :    0.890707
  37 C :   -0.857808
  38 C :   -0.596245
  39 C :   -0.313934
  40 H :    0.287736
  41 C :   -0.374070
  42 H :    0.440528
  43 C :   -0.413504
  44 H :    0.266721
  45 H :    0.304987
  46 H :    0.332353
  47 C :    0.796631
  48 O :   -0.849513
  49 C :   -0.751275
  50 H :    0.281063
  51 H :    0.285032
  52 H :    0.353483
  53 N :   -1.116260
  54 C :    0.919608
  55 C :   -0.867902
  56 H :    0.278422
  57 H :    0.287975
  58 H :    0.267121
  59 O :   -1.126848
  60 H :   -0.147100
Sum of atomic charges:    1.0000000

LOEWDIN ATOMIC CHARGES
----------------------
   0 C :   -0.358665
   1 C :   -0.360567
   2 C :    0.535272
   3 C :    0.036863
   4 C :    0.530173
   5 H :   -0.317980
   6 H :   -0.238278
   7 H :   -0.295231
   8 H :   -0.327634
   9 H :   -0.238848
  10 N :    0.186257
  11 O :    1.083915
  12 C :    0.923716
  13 H :   -0.300806
  14 H :   -0.252417
  15 H :   -0.265402
  16 C :    0.955679
  17 H :   -0.252864
  18 H :   -0.256810
  19 H :   -0.300848
  20 C :    0.923217
  21 H :   -0.252177
  22 H :   -0.331286
  23 H :   -0.263612
  24 C :    0.955899
  25 H :   -0.255976
  26 H :   -0.251848
  27 H :   -0.307257
  28 C :    0.011719
  29 H :   -0.299224
  30 H :   -0.936407
  31 O :    0.913746
  32 C :    0.422493
  33 H :   -0.333604
  34 C :    0.393133
  35 H :   -0.324201
  36 C :   -0.056955
  37 C :    0.361042
  38 C :    0.342487
  39 C :    0.379801
  40 H :   -0.305099
  41 C :    0.381709
  42 H :   -0.383081
  43 C :    0.382399
  44 H :   -0.310951
  45 H :   -0.326299
  46 H :   -0.300758
  47 C :   -0.969686
  48 O :    0.765573
  49 C :    0.902331
  50 H :   -0.291319
  51 H :   -0.287822
  52 H :   -0.305394
  53 N :    0.898763
  54 C :   -0.774336
  55 C :    0.921604
  56 H :   -0.288033
  57 H :   -0.286505
  58 H :   -0.301397
  59 O :    0.782306
  60 H :   -0.480520

  Mayer bond orders larger than 0.100000
B(  0-C ,  1-C ) :   0.4456 B(  0-C ,  4-C ) :   0.1563 B(  0-C , 10-N ) :   1.1638
B(  0-C , 11-O ) :   0.1452 B(  0-C , 12-C ) :  -0.2161 B(  0-C , 13-H ) :  -0.2865
B(  0-C , 14-H ) :  -0.1460 B(  0-C , 15-H ) :  -0.3309 B(  0-C , 17-H ) :  -0.2857
B(  0-C , 18-H ) :  -0.1389 B(  0-C , 19-H ) :  -0.1829 B(  0-C , 30-H ) :  -0.1340
B(  1-C , 10-N ) :   0.8654 B(  1-C , 11-O ) :   0.2299 B(  1-C , 21-H ) :  -0.1504
B(  1-C , 22-H ) :  -0.4994 B(  1-C , 23-H ) :  -0.1870 B(  1-C , 24-C ) :  -0.1257
B(  1-C , 25-H ) :  -0.1287 B(  1-C , 26-H ) :  -0.2743 B(  1-C , 27-H ) :  -0.1958
B(  1-C , 32-C ) :   0.1712 B(  1-C , 38-C ) :  -0.1323 B(  2-C ,  3-C ) :   0.7492
B(  2-C ,  5-H ) :   0.7338 B(  2-C ,  6-H ) :   1.4564 B(  2-C , 20-C ) :   0.2301
B(  2-C , 53-N ) :   0.1092 B(  2-C , 59-O ) :   0.1495 B(  3-C ,  4-C ) :   0.7714
B(  3-C ,  5-H ) :  -0.1192 B(  3-C ,  6-H ) :  -0.1781 B(  3-C ,  7-H ) :   0.8393
B(  3-C ,  9-H ) :  -0.1509 B(  3-C , 10-N ) :  -0.1774 B(  3-C , 53-N ) :  -1.3707
B(  3-C , 54-C ) :  -0.3886 B(  3-C , 59-O ) :   0.1796 B(  3-C , 60-H ) :  -0.4136
B(  4-C ,  8-H ) :   0.9862 B(  4-C ,  9-H ) :   1.2158 B(  4-C , 10-N ) :   0.2265
B(  4-C , 53-N ) :   0.2041 B(  5-H ,  6-H ) :  -0.2032 B(  5-H , 20-C ) :  -0.1618
B(  5-H , 53-N ) :   0.2378 B(  5-H , 59-O ) :  -0.2085 B(  8-H , 53-N ) :   0.1653
B(  8-H , 59-O ) :  -0.1927 B( 10-N , 11-O ) :  -1.2176 B( 10-N , 12-C ) :  -0.5656
B( 10-N , 14-H ) :  -0.1084 B( 10-N , 16-C ) :  -0.1505 B( 10-N , 20-C ) :  -0.5938
B( 10-N , 21-H ) :  -0.1043 B( 10-N , 24-C ) :  -0.1735 B( 10-N , 26-H ) :  -0.1206
B( 10-N , 28-C ) :   0.1471 B( 10-N , 32-C ) :  -0.1105 B( 11-O , 12-C ) :   0.1452
B( 11-O , 20-C ) :   0.1403 B( 11-O , 30-H ) :   0.6161 B( 11-O , 32-C ) :   0.1947
B( 12-C , 13-H ) :   1.1648 B( 12-C , 14-H ) :   1.4567 B( 12-C , 15-H ) :   1.2448
B( 16-C , 17-H ) :   1.3593 B( 16-C , 18-H ) :   1.1167 B( 16-C , 19-H ) :   1.1512
B( 20-C , 21-H ) :   1.4200 B( 20-C , 22-H ) :   1.0688 B( 20-C , 23-H ) :   1.1600
B( 24-C , 25-H ) :   1.1480 B( 24-C , 26-H ) :   1.3637 B( 24-C , 27-H ) :   1.1095
B( 28-C , 29-H ) :   0.8687 B( 28-C , 30-H ) :   0.6408 B( 28-C , 31-O ) :   0.1445
B( 28-C , 32-C ) :   0.7224 B( 28-C , 33-H ) :  -0.2652 B( 28-C , 34-C ) :  -0.4669
B( 29-H , 31-O ) :  -0.1839 B( 29-H , 32-C ) :  -0.1803 B( 30-H , 34-C ) :   0.1128
B( 31-O , 32-C ) :   0.1454 B( 31-O , 47-C ) :   0.8701 B( 31-O , 49-C ) :  -0.1899
B( 32-C , 33-H ) :   1.1020 B( 32-C , 34-C ) :   1.3298 B( 32-C , 36-C ) :  -0.2767
B( 32-C , 38-C ) :  -0.1539 B( 34-C , 35-H ) :   1.1627 B( 34-C , 36-C ) :   0.4734
B( 34-C , 37-C ) :  -0.6606 B( 34-C , 38-C ) :  -0.1868 B( 35-H , 36-C ) :  -0.1745
B( 36-C , 37-C ) :   1.1615 B( 36-C , 38-C ) :   0.6835 B( 36-C , 39-C ) :  -0.5736
B( 36-C , 41-C ) :  -0.5725 B( 37-C , 39-C ) :   1.4043 B( 37-C , 40-H ) :   0.9585
B( 37-C , 41-C ) :   0.1377 B( 37-C , 43-C ) :   0.2371 B( 37-C , 44-H ) :  -0.1474
B( 38-C , 39-C ) :   0.1546 B( 38-C , 41-C ) :   1.2292 B( 38-C , 42-H ) :   0.6984
B( 38-C , 45-H ) :  -0.1345 B( 39-C , 43-C ) :   1.1989 B( 39-C , 44-H ) :   1.1486
B( 41-C , 42-H ) :  -0.1204 B( 41-C , 43-C ) :   1.1123 B( 41-C , 45-H ) :   0.9917
B( 41-C , 46-H ) :  -0.1309 B( 43-C , 44-H ) :  -0.1101 B( 43-C , 46-H ) :   1.0344
B( 47-C , 48-O ) :   1.3030 B( 47-C , 49-C ) :   0.8075 B( 49-C , 50-H ) :   0.9351
B( 49-C , 51-H ) :   0.9267 B( 49-C , 52-H ) :   0.9487 B( 53-N , 54-C ) :   1.2389
B( 53-N , 60-H ) :   1.6804 B( 54-C , 55-C ) :   0.4990 B( 54-C , 56-H ) :  -0.1306
B( 54-C , 57-H ) :  -0.1461 B( 54-C , 58-H ) :  -0.1519 B( 54-C , 59-O ) :   0.9740
B( 55-C , 56-H ) :   1.0219 B( 55-C , 57-H ) :   1.0055 B( 55-C , 58-H ) :   1.0430

MP2 TOTAL ENERGY:    -1266.258166711 Eh
FINAL SINGLE POINT ENERGY     -1266.258166710989

DIPOLE MOMENT
-------------
                                X             Y             Z
Electronic contribution:     -7.12750      14.42459      -4.92970
Nuclear contribution   :      7.55531     -14.32544       5.85887
                        -----------------------------------------
Total Dipole Moment    :      0.42781       0.09915       0.92917
                        -----------------------------------------
Magnitude (a.u.)       :      1.02772
Magnitude (Debye)      :      2.61226

Rotational constants in cm-1:     0.006567     0.004867     0.003265
Rotational constants in MHz :   196.859122   145.917509    97.873317

                             ****ORCA TERMINATED NORMALLY****
TOTAL RUN TIME: 1 days 19 hours 32 minutes 57 seconds 388 msec
