                         Program Version 4.2.1 -  RELEASE  -
|  1> %pal
|  2>  nprocs 32
|  3> end
|  4> !RI-MP2 aug-cc-pVQZ aug-cc-pVQZ/C TightSCF
|  5> %maxcore 4500
|  6> *xyzfile 0 2  04_83P1.xyz
|  7>
|  8>
|  9>                          ****END OF INPUT****

CARTESIAN COORDINATES (ANGSTROEM)
---------------------------------
  O      2.948715   -1.308680   -0.082153
  C      2.739308   -0.113695   -0.079759
  O      3.708271    0.789126   -0.351288
  C      1.465183    0.499975    0.204013
  C      0.304319   -0.344031    0.556291
  H      1.365228    1.576104    0.170970
  C     -1.020036    0.313465    0.212107
  H      0.280189   -0.511876    1.644567
  H      0.392646   -1.337157    0.111175
  S     -2.326709   -0.844617   -0.094874
  C     -3.693130    0.314926   -0.338815
  H     -3.858730    0.899781    0.562977
  H     -4.573914   -0.284826   -0.560833
  H     -3.475781    0.980004   -1.171131
  O     -1.181321    1.503977    0.179169
  H      4.518533    0.292624   -0.528594

 Total Charge           Charge          ....    0
 Multiplicity           Mult            ....    2
 Number of Electrons    NEL             ....   77
 Basis Dimension        Dim             .... 1046

ORBITAL ENERGIES
----------------
                 SPIN UP ORBITALS
  NO   OCC          E(Eh)            E(eV)
   0   1.0000     -91.976827     -2502.8167
   1   1.0000     -20.610657      -560.8445
   2   1.0000     -20.564649      -559.5925
   3   1.0000     -20.563625      -559.5647
   4   1.0000     -11.384076      -309.7765
   5   1.0000     -11.371821      -309.4430
   6   1.0000     -11.280508      -306.9582
   7   1.0000     -11.264515      -306.5230
   8   1.0000     -11.264510      -306.5229
   9   1.0000      -8.979834      -244.3537
  10   1.0000      -6.661313      -181.2635
  11   1.0000      -6.660220      -181.2338
  12   1.0000      -6.659641      -181.2181
  13   1.0000      -1.471761       -40.0487
  14   1.0000      -1.417931       -38.5839
  15   1.0000      -1.374677       -37.4069
  16   1.0000      -1.118543       -30.4371
  17   1.0000      -1.070591       -29.1322
  18   1.0000      -0.984828       -26.7985
  19   1.0000      -0.901437       -24.5293
  20   1.0000      -0.805129       -21.9087
  21   1.0000      -0.751162       -20.4402
  22   1.0000      -0.720418       -19.6036
  23   1.0000      -0.707936       -19.2639
  24   1.0000      -0.670338       -18.2408
  25   1.0000      -0.653513       -17.7830
  26   1.0000      -0.645813       -17.5735
  27   1.0000      -0.632565       -17.2130
  28   1.0000      -0.604416       -16.4470
  29   1.0000      -0.598226       -16.2786
  30   1.0000      -0.576094       -15.6763
  31   1.0000      -0.554114       -15.0782
  32   1.0000      -0.535999       -14.5853
  33   1.0000      -0.520692       -14.1687
  34   1.0000      -0.492847       -13.4111
  35   1.0000      -0.478567       -13.0225
  36   1.0000      -0.427284       -11.6270
  37   1.0000      -0.395625       -10.7655
  38   1.0000      -0.377449       -10.2709
  39   0.0000       0.024269         0.6604
  40   0.0000       0.028306         0.7702
  41   0.0000       0.034242         0.9318
  42   0.0000       0.038341         1.0433
  43   0.0000       0.042564         1.1582

                 SPIN DOWN ORBITALS
  NO   OCC          E(Eh)            E(eV)
   0   1.0000     -91.976800     -2502.8160
   1   1.0000     -20.610881      -560.8506
   2   1.0000     -20.565166      -559.6066
   3   1.0000     -20.551854      -559.2444
   4   1.0000     -11.389777      -309.9316
   5   1.0000     -11.370931      -309.4188
   6   1.0000     -11.267258      -306.5977
   7   1.0000     -11.264499      -306.5226
   8   1.0000     -11.259090      -306.3754
   9   1.0000      -8.979799      -244.3527
  10   1.0000      -6.661281      -181.2627
  11   1.0000      -6.660196      -181.2331
  12   1.0000      -6.659567      -181.2160
  13   1.0000      -1.465762       -39.8854
  14   1.0000      -1.418708       -38.6050
  15   1.0000      -1.356054       -36.9001
  16   1.0000      -1.093386       -29.7526
  17   1.0000      -1.059484       -28.8300
  18   1.0000      -0.961245       -26.1568
  19   1.0000      -0.900020       -24.4908
  20   1.0000      -0.790693       -21.5159
  21   1.0000      -0.742421       -20.2023
  22   1.0000      -0.713188       -19.4068
  23   1.0000      -0.702112       -19.1054
  24   1.0000      -0.651084       -17.7169
  25   1.0000      -0.647953       -17.6317
  26   1.0000      -0.635316       -17.2878
  27   1.0000      -0.624446       -16.9920
  28   1.0000      -0.600477       -16.3398
  29   1.0000      -0.593186       -16.1414
  30   1.0000      -0.572272       -15.5723
  31   1.0000      -0.549006       -14.9392
  32   1.0000      -0.529937       -14.4203
  33   1.0000      -0.491145       -13.3647
  34   1.0000      -0.464742       -12.6463
  35   1.0000      -0.462256       -12.5786
  36   1.0000      -0.420785       -11.4502
  37   1.0000      -0.379953       -10.3390
  38   0.0000       0.024198         0.6585
  39   0.0000       0.028377         0.7722
  40   0.0000       0.034329         0.9341
  41   0.0000       0.038395         1.0448
  42   0.0000       0.040881         1.1124

MULLIKEN ATOMIC CHARGES AND SPIN POPULATIONS
--------------------------------------------
   0 O :   -0.746506    0.271725
   1 C :    1.311354   -0.214587
   2 O :   -0.700212   -0.000639
   3 C :   -0.888990    1.109460
   4 C :   -0.166433   -0.210128
   5 H :    0.427576   -0.071952
   6 C :    0.443267    0.042216
   7 H :    0.339851    0.068478
   8 H :    0.227361    0.016207
   9 S :    0.221813    0.001327
  10 C :   -0.994846    0.000782
  11 H :    0.279184   -0.000009
  12 H :    0.440897    0.000103
  13 H :    0.285584   -0.000160
  14 O :   -0.806498   -0.009036
  15 H :    0.326598   -0.003787
Sum of atomic charges         :    0.0000000

LOEWDIN ATOMIC CHARGES AND SPIN POPULATIONS
-------------------------------------------
   0 O :    0.705988    0.176406
   1 C :   -1.051488    0.119716
   2 O :    1.231794   -0.005849
   3 C :    0.334705    0.400372
   4 C :    0.316238    0.125632
   5 H :   -0.339256    0.132946
   6 C :   -1.102508    0.016460
   7 H :   -0.288873    0.028989
   8 H :   -0.363639    0.009557
   9 S :    1.315119    0.003893
  10 C :    0.533259    0.000861
  11 H :   -0.370856    0.000118
  12 H :   -0.388412    0.000190
  13 H :   -0.374914    0.000112
  14 O :    0.664275   -0.005207
  15 H :   -0.821430   -0.004195

  Mayer bond orders larger than 0.100000
B(  0-O ,  1-C ) :   1.3058 B(  0-O ,  3-C ) :   0.1945 B(  1-C ,  2-O ) :   0.7195
B(  1-C ,  3-C ) :   1.2251 B(  1-C ,  4-C ) :  -0.1578 B(  2-O ,  3-C ) :   0.1602
B(  2-O , 15-H ) :   0.9426 B(  3-C ,  4-C ) :   0.9402 B(  3-C ,  5-H ) :   0.8011
B(  3-C ,  6-C ) :  -0.2250 B(  4-C ,  6-C ) :   0.9678 B(  4-C ,  7-H ) :   0.7267
B(  4-C ,  8-H ) :   0.9299 B(  4-C , 14-O ) :   0.1211 B(  6-C ,  9-S ) :   1.0074
B(  6-C , 14-O ) :   1.3152 B(  9-S , 10-C ) :   1.0331 B( 10-C , 11-H ) :   0.9076
B( 10-C , 12-H ) :   0.8035 B( 10-C , 13-H ) :   0.9068

MP2 TOTAL ENERGY:     -817.528307440 Eh
FINAL SINGLE POINT ENERGY      -817.528307439707

DIPOLE MOMENT
-------------
                                X             Y             Z
Electronic contribution:      4.68320      -1.55382      -0.16064
Nuclear contribution   :     -5.10350       1.62746       0.22409
                        -----------------------------------------
Total Dipole Moment    :     -0.42030       0.07364       0.06345
                        -----------------------------------------
Magnitude (a.u.)       :      0.43140
Magnitude (Debye)      :      1.09652

Rotational constants in cm-1:     0.135922     0.018063     0.016382
Rotational constants in MHz :  4074.826119   541.503250   491.117910

                             ****ORCA TERMINATED NORMALLY****
TOTAL RUN TIME: 0 days 0 hours 38 minutes 42 seconds 768 msec
