                         Program Version 4.2.1 -  RELEASE  -
|  1> %pal
|  2>  nprocs 32
|  3> end
|  4> !RI-MP2 aug-cc-pVQZ aug-cc-pVQZ/C TightSCF
|  5> %maxcore 4500
|  6> *xyzfile 0 1  04_13P2.xyz
|  7>
|  8>
|  9>                          ****END OF INPUT****

CARTESIAN COORDINATES (ANGSTROEM)
---------------------------------
  O      0.886175   -0.574895    0.000000
  N      0.000000    0.509287    0.000000
  O     -1.105982    0.148791    0.000000
  H      1.758452   -0.156181    0.000000

 Total Charge           Charge          ....    0
 Multiplicity           Mult            ....    1
 Number of Electrons    NEL             ....   24
 Basis Dimension        Dim             ....  286

ORBITAL ENERGIES
----------------

  NO   OCC          E(Eh)            E(eV)
   0   2.0000     -20.656442      -562.0904
   1   2.0000     -20.639950      -561.6416
   2   2.0000     -15.790702      -429.6869
   3   2.0000      -1.613794       -43.9136
   4   2.0000      -1.410259       -38.3751
   5   2.0000      -0.946758       -25.7626
   6   2.0000      -0.792803       -21.5733
   7   2.0000      -0.733616       -19.9627
   8   2.0000      -0.689616       -18.7654
   9   2.0000      -0.624094       -16.9825
  10   2.0000      -0.529448       -14.4070
  11   2.0000      -0.458265       -12.4700
  12   0.0000       0.024614         0.6698
  13   0.0000       0.081032         2.2050
  14   0.0000       0.082162         2.2358
  15   0.0000       0.086507         2.3540
  16   0.0000       0.111064         3.0222

MULLIKEN ATOMIC CHARGES
-----------------------
   0 O :   -0.458873
   1 N :    0.475353
   2 O :   -0.373036
   3 H :    0.356556
Sum of atomic charges:    0.0000000

LOEWDIN ATOMIC CHARGES
----------------------
   0 O :    0.929463
   1 N :   -0.358369
   2 O :    0.344807
   3 H :   -0.915900

  Mayer bond orders larger than 0.100000
B(  0-O ,  1-N ) :   0.9920 B(  0-O ,  3-H ) :   0.9250 B(  1-N ,  2-O ) :   1.8657

MP2 TOTAL ENERGY:     -205.477798865 Eh
FINAL SINGLE POINT ENERGY      -205.477798864575

DIPOLE MOMENT
-------------
                                X             Y             Z
Electronic contribution:     -0.81388       0.45028       0.00000
Nuclear contribution   :      1.68260      -0.15331       0.00000
                        -----------------------------------------
Total Dipole Moment    :      0.86872       0.29697       0.00000
                        -----------------------------------------
Magnitude (a.u.)       :      0.91808
Magnitude (Debye)      :      2.33356

Rotational constants in cm-1:     3.228890     0.429337     0.378949
Rotational constants in MHz : 96799.674023 12871.201887 11360.610888

                             ****ORCA TERMINATED NORMALLY****
TOTAL RUN TIME: 0 days 0 hours 0 minutes 33 seconds 303 msec
