                         Program Version 4.2.1 -  RELEASE  -
|  1> %pal
|  2>  nprocs 32
|  3> end
|  4> !RI-MP2 aug-cc-pVQZ aug-cc-pVQZ/C TightSCF
|  5> %maxcore 4500
|  6> *xyzfile 0 1  10_90P.xyz
|  7>
|  8>
|  9>                          ****END OF INPUT****

CARTESIAN COORDINATES (ANGSTROEM)
---------------------------------
  C     -1.665886   -2.109708    0.699441
  C     -0.409113   -1.933222    1.130181
  C      0.590870   -1.171900    0.397317
  C      0.218599   -0.579977   -0.762634
  C     -1.171731   -0.583273   -1.292580
  C     -2.121123   -1.526947   -0.563121
  C      1.958564   -1.014126    0.835638
  C      2.407798    0.327680   -1.164481
  C      2.809001   -0.290344    0.075136
  O      1.067942    0.119589   -1.521314
  O      3.074710    0.988042   -1.906238
  O     -3.225332   -1.738484   -1.018861
  C     -1.090162    2.210543    0.799750
  C     -1.908525    1.379770    0.155182
  C     -1.761382    0.861087   -1.244578
  C     -1.364932    2.605238    2.223805
  C      0.150592    2.823201    0.214785
  C      2.413103   -1.640709    2.117953
  H     -2.384278   -2.703033    1.249980
  H     -0.105443   -2.390755    2.064110
  H      3.840902   -0.135869    0.358353
  H     -0.522450    2.335576    2.868794
  H     -1.490952    3.688909    2.309259
  H     -2.262746    2.123640    2.611950
  H      0.299600    2.591618   -0.837281
  H      0.122069    3.911211    0.322960
  H      1.035796    2.480908    0.761190
  H      1.826720   -1.269800    2.962203
  H      2.288998   -2.725910    2.086420
  H      3.462585   -1.421499    2.306617
  H     -1.127593    1.502407   -1.855021
  H     -2.738917    0.803736   -1.725920
  H     -1.146569   -0.889364   -2.342114
  H     -2.770332    1.001173    0.699052

 Total Charge           Charge          ....    0
 Multiplicity           Mult            ....    1
 Number of Electrons    NEL             ....  130
 Basis Dimension        Dim             .... 2176

ORBITAL ENERGIES
----------------

  NO   OCC          E(Eh)            E(eV)
   0   2.0000     -20.642842      -561.7203
   1   2.0000     -20.544511      -559.0446
   2   2.0000     -20.543436      -559.0153
   3   2.0000     -11.393413      -310.0305
   4   2.0000     -11.352836      -308.9264
   5   2.0000     -11.337830      -308.5180
   6   2.0000     -11.302207      -307.5487
   7   2.0000     -11.284572      -307.0688
   8   2.0000     -11.267235      -306.5970
   9   2.0000     -11.259977      -306.3995
  10   2.0000     -11.259744      -306.3932
  11   2.0000     -11.249531      -306.1153
  12   2.0000     -11.246571      -306.0348
  13   2.0000     -11.244554      -305.9799
  14   2.0000     -11.242773      -305.9314
  15   2.0000     -11.224589      -305.4366
  16   2.0000     -11.222877      -305.3900
  17   2.0000     -11.222698      -305.3851
  18   2.0000      -1.494974       -40.6803
  19   2.0000      -1.392053       -37.8797
  20   2.0000      -1.388017       -37.7699
  21   2.0000      -1.185946       -32.2712
  22   2.0000      -1.140698       -31.0400
  23   2.0000      -1.110213       -30.2104
  24   2.0000      -1.072409       -29.1817
  25   2.0000      -1.029600       -28.0168
  26   2.0000      -1.008891       -27.4533
  27   2.0000      -0.974406       -26.5149
  28   2.0000      -0.948376       -25.8066
  29   2.0000      -0.905652       -24.6440
  30   2.0000      -0.881510       -23.9871
  31   2.0000      -0.859110       -23.3776
  32   2.0000      -0.837605       -22.7924
  33   2.0000      -0.755684       -20.5632
  34   2.0000      -0.745701       -20.2916
  35   2.0000      -0.725454       -19.7406
  36   2.0000      -0.709663       -19.3109
  37   2.0000      -0.687111       -18.6972
  38   2.0000      -0.661727       -18.0065
  39   2.0000      -0.656690       -17.8695
  40   2.0000      -0.649801       -17.6820
  41   2.0000      -0.645413       -17.5626
  42   2.0000      -0.623513       -16.9666
  43   2.0000      -0.612567       -16.6688
  44   2.0000      -0.611965       -16.6524
  45   2.0000      -0.602703       -16.4004
  46   2.0000      -0.600387       -16.3373
  47   2.0000      -0.594832       -16.1862
  48   2.0000      -0.590253       -16.0616
  49   2.0000      -0.568357       -15.4658
  50   2.0000      -0.555178       -15.1072
  51   2.0000      -0.542678       -14.7670
  52   2.0000      -0.541363       -14.7312
  53   2.0000      -0.531666       -14.4674
  54   2.0000      -0.529004       -14.3949
  55   2.0000      -0.522424       -14.2159
  56   2.0000      -0.512935       -13.9577
  57   2.0000      -0.505184       -13.7468
  58   2.0000      -0.481052       -13.0901
  59   2.0000      -0.473812       -12.8931
  60   2.0000      -0.458986       -12.4897
  61   2.0000      -0.421718       -11.4755
  62   2.0000      -0.404445       -11.0055
  63   2.0000      -0.347986        -9.4692
  64   2.0000      -0.317779        -8.6472
  65   0.0000       0.013228         0.3599
  66   0.0000       0.023822         0.6482
  67   0.0000       0.025024         0.6809
  68   0.0000       0.029688         0.8079
  69   0.0000       0.037433         1.0186

MULLIKEN ATOMIC CHARGES
-----------------------
   0 C :   -0.743302
   1 C :   -0.701334
   2 C :    0.007091
   3 C :    1.687746
   4 C :   -0.323170
   5 C :    1.570169
   6 C :    0.611493
   7 C :    1.530695
   8 C :   -1.216644
   9 O :   -1.055797
  10 O :   -1.034985
  11 O :   -1.000295
  12 C :    0.414223
  13 C :   -0.390496
  14 C :   -0.418632
  15 C :   -1.058576
  16 C :   -0.784495
  17 C :   -0.945702
  18 H :    0.197979
  19 H :    0.149277
  20 H :    0.226465
  21 H :    0.175716
  22 H :    0.325419
  23 H :    0.215602
  24 H :    0.303249
  25 H :    0.358542
  26 H :    0.216239
  27 H :    0.162007
  28 H :    0.231775
  29 H :    0.271749
  30 H :    0.279706
  31 H :    0.266200
  32 H :    0.369151
  33 H :    0.102933
Sum of atomic charges:    0.0000000

LOEWDIN ATOMIC CHARGES
----------------------
   0 C :    0.372303
   1 C :    0.367068
   2 C :   -0.078349
   3 C :   -0.458439
   4 C :    0.069748
   5 C :   -0.693853
   6 C :   -0.062978
   7 C :   -1.034565
   8 C :    0.322400
   9 O :    0.896354
  10 O :    0.670823
  11 O :    0.753570
  12 C :   -0.007937
  13 C :    0.399256
  14 C :    0.517525
  15 C :    0.900633
  16 C :    0.909598
  17 C :    0.925541
  18 H :   -0.334468
  19 H :   -0.329935
  20 H :   -0.342275
  21 H :   -0.280212
  22 H :   -0.278849
  23 H :   -0.305748
  24 H :   -0.331272
  25 H :   -0.268123
  26 H :   -0.276561
  27 H :   -0.271603
  28 H :   -0.269637
  29 H :   -0.293530
  30 H :   -0.308145
  31 H :   -0.276605
  32 H :   -0.281355
  33 H :   -0.320382

  Mayer bond orders larger than 0.100000
B(  0-C ,  1-C ) :   1.5328 B(  0-C ,  5-C ) :   1.0727 B(  0-C , 11-O ) :   0.3853
B(  0-C , 18-H ) :   1.1512 B(  0-C , 19-H ) :  -0.1341 B(  1-C ,  2-C ) :   0.8117
B(  1-C ,  3-C ) :  -0.2631 B(  1-C ,  5-C ) :  -0.1717 B(  1-C , 11-O ) :   0.1274
B(  1-C , 18-H ) :  -0.1424 B(  1-C , 19-H ) :   1.1593 B(  2-C ,  3-C ) :   0.6590
B(  2-C ,  4-C ) :  -0.4115 B(  2-C ,  6-C ) :  -0.1140 B(  2-C ,  7-C ) :   0.3586
B(  2-C ,  8-C ) :  -0.1556 B(  2-C ,  9-O ) :   0.3441 B(  2-C , 17-C ) :  -0.1652
B(  2-C , 19-H ) :  -0.1437 B(  3-C ,  4-C ) :   0.5736 B(  3-C ,  5-C ) :  -0.1038
B(  3-C ,  6-C ) :  -0.3514 B(  3-C ,  7-C ) :  -0.1423 B(  3-C , 10-O ) :   0.1615
B(  3-C , 32-H ) :  -0.1158 B(  4-C ,  5-C ) :   1.1530 B(  4-C , 11-O ) :   0.5009
B(  4-C , 13-C ) :  -0.1299 B(  4-C , 14-C ) :   0.8039 B(  4-C , 32-H ) :   0.9028
B(  6-C ,  7-C ) :  -0.6892 B(  6-C ,  8-C ) :   1.2380 B(  6-C , 17-C ) :   0.5475
B(  6-C , 27-H ) :  -0.1497 B(  6-C , 28-H ) :  -0.1839 B(  7-C ,  8-C ) :   1.7024
B(  7-C ,  9-O ) :   1.0546 B(  7-C , 10-O ) :   0.4456 B(  8-C , 10-O ) :   0.3742
B(  8-C , 20-H ) :   1.0139 B( 12-C , 13-C ) :   1.2601 B( 12-C , 14-C ) :  -0.2233
B( 12-C , 15-C ) :   0.6068 B( 12-C , 16-C ) :   0.5098 B( 12-C , 22-H ) :  -0.1619
B( 12-C , 33-H ) :  -0.1053 B( 13-C , 14-C ) :   0.9924 B( 13-C , 31-H ) :  -0.1740
B( 13-C , 33-H ) :   1.1438 B( 14-C , 30-H ) :   0.9085 B( 14-C , 31-H ) :   1.0412
B( 15-C , 21-H ) :   1.0521 B( 15-C , 22-H ) :   1.0129 B( 15-C , 23-H ) :   1.0871
B( 16-C , 24-H ) :   0.9992 B( 16-C , 25-H ) :   0.9593 B( 16-C , 26-H ) :   0.8984
B( 17-C , 27-H ) :   1.1119 B( 17-C , 28-H ) :   1.0787 B( 17-C , 29-H ) :   1.0304

MP2 TOTAL ENERGY:     -805.571318414 Eh
FINAL SINGLE POINT ENERGY      -805.571318413778

DIPOLE MOMENT
-------------
                                X             Y             Z
Electronic contribution:      2.23926      -9.38523     -11.71326
Nuclear contribution   :     -1.65719       8.88789      13.76254
                        -----------------------------------------
Total Dipole Moment    :      0.58207      -0.49734       2.04927
                        -----------------------------------------
Magnitude (a.u.)       :      2.18762
Magnitude (Debye)      :      5.56048

Rotational constants in cm-1:     0.016888     0.012932     0.011061
Rotational constants in MHz :   506.293237   387.690338   331.586352

                             ****ORCA TERMINATED NORMALLY****
TOTAL RUN TIME: 0 days 6 hours 34 minutes 55 seconds 154 msec
