                         Program Version 4.2.1 -  RELEASE  -
|  1> %pal
|  2>  nprocs 32
|  3> end
|  4> !RI-MP2 aug-cc-pVQZ aug-cc-pVQZ/C TightSCF
|  5> %maxcore 4500
|  6> *xyzfile 0 1  10_55P.xyz
|  7>
|  8>
|  9>                          ****END OF INPUT****

CARTESIAN COORDINATES (ANGSTROEM)
---------------------------------
  S     -1.585684   -0.020516    0.128780
  C     -0.734422   -1.312826   -0.822062
  C      0.623281   -1.794690   -0.296820
  C      1.421517   -0.669603    0.340204
  C      1.517839    0.675583   -0.452668
  C      0.624517    1.785087    0.071112
  C     -0.827596    1.561360   -0.337867
  C      2.935850   -0.614900    0.386009
  C      3.005660    0.596485   -0.166019
  O     -1.368281   -0.246516    1.555988
  O     -2.945826    0.029669   -0.400656
  H     -1.478590   -2.110030   -0.843559
  H     -0.667335   -0.906448   -1.832107
  H      1.167152   -2.223390   -1.143378
  H      0.471636   -2.596201    0.428014
  H      0.928439    2.756562   -0.329917
  H      0.702877    1.846941    1.159155
  H     -0.962074    1.623797   -1.419434
  H     -1.504440    2.282040    0.124202
  H      1.004491   -0.475329    1.329259
  H      1.323528    0.523372   -1.521048
  H      3.821484    1.278101   -0.372649
  H      3.676768   -1.295363    0.786988

 Total Charge           Charge          ....    0
 Multiplicity           Mult            ....    1
 Number of Electrons    NEL             ....   92
 Basis Dimension        Dim             .... 1436

ORBITAL ENERGIES
----------------

  NO   OCC          E(Eh)            E(eV)
   0   2.0000     -92.163231     -2507.8890
   1   2.0000     -20.534990      -558.7855
   2   2.0000     -20.532603      -558.7205
   3   2.0000     -11.276330      -306.8445
   4   2.0000     -11.275888      -306.8325
   5   2.0000     -11.249177      -306.1057
   6   2.0000     -11.248495      -306.0871
   7   2.0000     -11.247819      -306.0687
   8   2.0000     -11.242207      -305.9160
   9   2.0000     -11.241180      -305.8881
  10   2.0000     -11.240106      -305.8588
  11   2.0000      -9.133804      -248.5435
  12   2.0000      -6.818903      -185.5518
  13   2.0000      -6.818378      -185.5375
  14   2.0000      -6.818015      -185.5276
  15   2.0000      -1.433593       -39.0101
  16   2.0000      -1.323412       -36.0119
  17   2.0000      -1.184942       -32.2439
  18   2.0000      -1.091035       -29.6886
  19   2.0000      -1.077808       -29.3286
  20   2.0000      -0.968700       -26.3597
  21   2.0000      -0.938532       -25.5388
  22   2.0000      -0.868932       -23.6448
  23   2.0000      -0.832309       -22.6483
  24   2.0000      -0.779940       -21.2233
  25   2.0000      -0.729241       -19.8437
  26   2.0000      -0.699054       -19.0222
  27   2.0000      -0.683577       -18.6011
  28   2.0000      -0.653284       -17.7768
  29   2.0000      -0.649202       -17.6657
  30   2.0000      -0.642411       -17.4809
  31   2.0000      -0.611780       -16.6474
  32   2.0000      -0.601336       -16.3632
  33   2.0000      -0.594122       -16.1669
  34   2.0000      -0.578057       -15.7297
  35   2.0000      -0.545509       -14.8440
  36   2.0000      -0.530999       -14.4492
  37   2.0000      -0.519875       -14.1465
  38   2.0000      -0.507527       -13.8105
  39   2.0000      -0.490910       -13.3583
  40   2.0000      -0.474717       -12.9177
  41   2.0000      -0.465006       -12.6535
  42   2.0000      -0.450961       -12.2713
  43   2.0000      -0.446473       -12.1491
  44   2.0000      -0.422489       -11.4965
  45   2.0000      -0.366052        -9.9608
  46   0.0000       0.018663         0.5078
  47   0.0000       0.024280         0.6607
  48   0.0000       0.026361         0.7173
  49   0.0000       0.032381         0.8811
  50   0.0000       0.038719         1.0536

MULLIKEN ATOMIC CHARGES
-----------------------
   0 S :    2.787630
   1 C :   -0.628510
   2 C :   -0.595965
   3 C :    0.218312
   4 C :    0.187212
   5 C :   -0.548895
   6 C :   -0.656874
   7 C :   -0.629374
   8 C :   -0.733508
   9 O :   -1.411791
  10 O :   -1.540686
  11 H :    0.355674
  12 H :    0.264041
  13 H :    0.194821
  14 H :    0.309533
  15 H :    0.266643
  16 H :    0.205557
  17 H :    0.249039
  18 H :    0.305239
  19 H :    0.308267
  20 H :    0.284820
  21 H :    0.425269
  22 H :    0.383544
Sum of atomic charges:   -0.0000000

LOEWDIN ATOMIC CHARGES
----------------------
   0 S :   -0.127822
   1 C :    0.453981
   2 C :    0.537020
   3 C :    0.055635
   4 C :    0.065632
   5 C :    0.526114
   6 C :    0.447436
   7 C :    0.457197
   8 C :    0.452432
   9 O :    0.343005
  10 O :    0.319208
  11 H :   -0.323043
  12 H :   -0.320635
  13 H :   -0.265732
  14 H :   -0.264578
  15 H :   -0.257537
  16 H :   -0.274291
  17 H :   -0.317554
  18 H :   -0.317206
  19 H :   -0.350275
  20 H :   -0.278540
  21 H :   -0.281819
  22 H :   -0.278628

  Mayer bond orders larger than 0.100000
B(  0-S ,  1-C ) :   1.0226 B(  0-S ,  5-C ) :  -0.1015 B(  0-S ,  6-C ) :   0.9777
B(  0-S ,  9-O ) :   0.6909 B(  0-S , 10-O ) :   0.6803 B(  1-C ,  2-C ) :   0.9148
B(  1-C , 11-H ) :   0.8914 B(  1-C , 12-H ) :   0.8636 B(  2-C ,  3-C ) :   0.7269
B(  2-C ,  9-O ) :   0.1845 B(  2-C , 13-H ) :   1.0099 B(  2-C , 14-H ) :   0.9403
B(  3-C ,  4-C ) :   0.6957 B(  3-C ,  7-C ) :   0.8328 B(  3-C ,  8-C ) :  -0.3603
B(  3-C ,  9-O ) :  -0.1939 B(  3-C , 19-H ) :   0.8562 B(  4-C ,  5-C ) :   0.6830
B(  4-C ,  6-C ) :  -0.1389 B(  4-C ,  7-C ) :  -0.3820 B(  4-C ,  8-C ) :   0.8904
B(  4-C , 20-H ) :   0.9255 B(  5-C ,  6-C ) :   0.9207 B(  5-C , 15-H ) :   0.9095
B(  5-C , 16-H ) :   1.0038 B(  6-C , 17-H ) :   0.9206 B(  6-C , 18-H ) :   0.8946
B(  7-C ,  8-C ) :   2.1261 B(  7-C , 22-H ) :   0.9331 B(  8-C , 21-H ) :   0.8645
B(  9-O , 10-O ) :   0.1198

MP2 TOTAL ENERGY:     -859.454173847 Eh
FINAL SINGLE POINT ENERGY      -859.454173847074

DIPOLE MOMENT
-------------
                                X             Y             Z
Electronic contribution:     -6.68158      -0.48738       2.53528
Nuclear contribution   :      8.49143       0.70347      -3.63160
                        -----------------------------------------
Total Dipole Moment    :      1.80985       0.21609      -1.09632
                        -----------------------------------------
Magnitude (a.u.)       :      2.12701
Magnitude (Debye)      :      5.40644

Rotational constants in cm-1:     0.064871     0.025963     0.022048
Rotational constants in MHz :  1944.787262   778.340148   660.988651

                             ****ORCA TERMINATED NORMALLY****
TOTAL RUN TIME: 0 days 1 hours 35 minutes 6 seconds 145 msec
