                         Program Version 4.2.1 -  RELEASE  -
|  1> %pal
|  2>  nprocs 32
|  3> end
|  4> !RI-MP2 aug-cc-pVQZ aug-cc-pVQZ/C TightSCF
|  5> %maxcore 4500
|  6> *xyzfile 1 1  10_25P.xyz
|  7>
|  8>
|  9>                          ****END OF INPUT****

CARTESIAN COORDINATES (ANGSTROEM)
---------------------------------
  C     -1.431821   -2.634842   -0.713814
  C     -0.551962   -1.641592    0.050978
  C     -2.598092   -0.944416    0.535394
  C     -2.869157   -2.149988   -0.370506
  H     -1.217805   -2.640544   -1.784816
  H     -1.237112   -3.642295   -0.347735
  H     -3.445143   -1.860441   -1.247547
  H     -3.431058   -2.913562    0.166455
  C     -1.354420   -1.379313    1.318782
  H     -0.940788   -0.611251    1.969907
  H     -1.501871   -2.294177    1.890609
  H      0.504511   -1.873638    0.126942
  H     -3.455302   -0.584471    1.096322
  N     -2.086413    0.153958   -0.324919
  N     -0.728358   -0.312931   -0.679949
  C      0.275475    0.846210   -0.430003
  C      1.666729    0.345786   -0.170508
  C      2.521610    0.167303   -1.256181
  C      2.122750    0.035021    1.109182
  C      3.805428   -0.324577   -1.071909
  H      2.188735    0.429735   -2.255068
  C      3.406082   -0.455667    1.294146
  H      1.486821    0.177208    1.973558
  C      4.247843   -0.638846    0.204739
  H      4.462217   -0.451287   -1.923084
  H      3.753339   -0.688411    2.292852
  H      5.251681   -1.016244    0.353437
  C     -1.910331    1.445784    0.349647
  H     -2.541259    1.479048    1.236245
  C     -0.415726    1.724366    0.603742
  H     -0.025953    1.580259    1.607962
  C     -1.987344    2.731800   -0.500990
  C     -0.638277    3.176388    0.119987
  H      0.116627    3.594489   -0.544905
  H     -0.774536    3.856102    0.959403
  H     -2.849125    3.374959   -0.335991
  H     -1.920502    2.513033   -1.567251
  H      0.272581    1.367044   -1.388296
  H     -0.725385   -0.503253   -1.681033

 Total Charge           Charge          ....    1
 Multiplicity           Mult            ....    1
 Number of Electrons    NEL             ....  130
 Basis Dimension        Dim             .... 2406

ORBITAL ENERGIES
----------------

  NO   OCC          E(Eh)            E(eV)
   0   2.0000     -15.841683      -431.0741
   1   2.0000     -15.750159      -428.5836
   2   2.0000     -11.439234      -311.2774
   3   2.0000     -11.429360      -311.0087
   4   2.0000     -11.407440      -310.4122
   5   2.0000     -11.400347      -310.2192
   6   2.0000     -11.373581      -309.4909
   7   2.0000     -11.373043      -309.4762
   8   2.0000     -11.372912      -309.4727
   9   2.0000     -11.369786      -309.3876
  10   2.0000     -11.361125      -309.1519
  11   2.0000     -11.360783      -309.1426
  12   2.0000     -11.356192      -309.0177
  13   2.0000     -11.352783      -308.9249
  14   2.0000     -11.351867      -308.9000
  15   2.0000     -11.350774      -308.8703
  16   2.0000     -11.350569      -308.8647
  17   2.0000     -11.347579      -308.7833
  18   2.0000      -1.525652       -41.5151
  19   2.0000      -1.313711       -35.7479
  20   2.0000      -1.311326       -35.6830
  21   2.0000      -1.278591       -34.7922
  22   2.0000      -1.243578       -33.8395
  23   2.0000      -1.176162       -32.0050
  24   2.0000      -1.142456       -31.0878
  25   2.0000      -1.124009       -30.5858
  26   2.0000      -1.105788       -30.0900
  27   2.0000      -1.076943       -29.3051
  28   2.0000      -1.023242       -27.8438
  29   2.0000      -0.992314       -27.0022
  30   2.0000      -0.968487       -26.3539
  31   2.0000      -0.954673       -25.9780
  32   2.0000      -0.933172       -25.3929
  33   2.0000      -0.923903       -25.1407
  34   2.0000      -0.901334       -24.5265
  35   2.0000      -0.865517       -23.5519
  36   2.0000      -0.845981       -23.0203
  37   2.0000      -0.839235       -22.8367
  38   2.0000      -0.805955       -21.9311
  39   2.0000      -0.794119       -21.6091
  40   2.0000      -0.772852       -21.0304
  41   2.0000      -0.764788       -20.8109
  42   2.0000      -0.750763       -20.4293
  43   2.0000      -0.734985       -20.0000
  44   2.0000      -0.725248       -19.7350
  45   2.0000      -0.718773       -19.5588
  46   2.0000      -0.711022       -19.3479
  47   2.0000      -0.698075       -18.9956
  48   2.0000      -0.685688       -18.6585
  49   2.0000      -0.674945       -18.3662
  50   2.0000      -0.668668       -18.1954
  51   2.0000      -0.660297       -17.9676
  52   2.0000      -0.652323       -17.7506
  53   2.0000      -0.631031       -17.1712
  54   2.0000      -0.626241       -17.0409
  55   2.0000      -0.621115       -16.9014
  56   2.0000      -0.618441       -16.8286
  57   2.0000      -0.616330       -16.7712
  58   2.0000      -0.612599       -16.6697
  59   2.0000      -0.598704       -16.2916
  60   2.0000      -0.580989       -15.8095
  61   2.0000      -0.573425       -15.6037
  62   2.0000      -0.532564       -14.4918
  63   2.0000      -0.462164       -12.5761
  64   2.0000      -0.461444       -12.5565
  65   0.0000      -0.068212        -1.8561
  66   0.0000      -0.061205        -1.6655
  67   0.0000      -0.053181        -1.4471
  68   0.0000      -0.050764        -1.3814
  69   0.0000      -0.041235        -1.1221

MULLIKEN ATOMIC CHARGES
-----------------------
   0 C :   -0.807277
   1 C :    0.219341
   2 C :    0.123127
   3 C :   -0.829919
   4 H :    0.261183
   5 H :    0.207380
   6 H :    0.277509
   7 H :    0.201762
   8 C :   -0.792328
   9 H :    0.260070
  10 H :    0.130403
  11 H :    0.503518
  12 H :    0.386700
  13 N :   -0.769471
  14 N :    1.074158
  15 C :    0.839339
  16 C :    0.772190
  17 C :   -0.838937
  18 C :   -0.159941
  19 C :   -0.467195
  20 H :    0.208696
  21 C :   -0.565006
  22 H :    0.227527
  23 C :   -0.446926
  24 H :    0.245722
  25 H :    0.254048
  26 H :    0.357046
  27 C :    0.047694
  28 H :    0.256667
  29 C :   -0.137236
  30 H :    0.210135
  31 C :   -0.727351
  32 C :   -0.780291
  33 H :    0.264841
  34 H :    0.217492
  35 H :    0.305630
  36 H :    0.240406
  37 H :    0.405060
  38 H :   -0.175765
Sum of atomic charges:    1.0000000

LOEWDIN ATOMIC CHARGES
----------------------
   0 C :    0.608197
   1 C :    0.128265
   2 C :    0.024218
   3 C :    0.597588
   4 H :   -0.236943
   5 H :   -0.234847
   6 H :   -0.245036
   7 H :   -0.240178
   8 C :    0.590990
   9 H :   -0.255484
  10 H :   -0.219956
  11 H :   -0.247000
  12 H :   -0.234959
  13 N :    0.580060
  14 N :    0.720773
  15 C :    0.120113
  16 C :   -0.047970
  17 C :    0.374617
  18 C :    0.357484
  19 C :    0.380596
  20 H :   -0.299257
  21 C :    0.386920
  22 H :   -0.322547
  23 C :    0.373491
  24 H :   -0.305485
  25 H :   -0.303538
  26 H :   -0.304484
  27 C :    0.022590
  28 H :   -0.248760
  29 C :    0.190440
  30 H :   -0.263112
  31 C :    0.620610
  32 C :    0.619823
  33 H :   -0.234850
  34 H :   -0.242834
  35 H :   -0.233899
  36 H :   -0.254667
  37 H :   -0.308186
  38 H :   -0.412785

  Mayer bond orders larger than 0.100000
B(  0-C ,  1-C ) :   0.2204 B(  0-C ,  2-C ) :  -0.2305 B(  0-C ,  3-C ) :   1.2011
B(  0-C ,  4-H ) :   1.0230 B(  0-C ,  5-H ) :   1.0955 B(  0-C , 11-H ) :  -0.1024
B(  1-C ,  3-C ) :  -0.2694 B(  1-C ,  8-C ) :   0.6971 B(  1-C , 11-H ) :   0.7797
B(  1-C , 13-N ) :  -0.1205 B(  1-C , 14-N ) :   0.7696 B(  1-C , 17-C ) :  -0.1559
B(  2-C ,  3-C ) :   0.5418 B(  2-C ,  8-C ) :   0.9286 B(  2-C , 12-H ) :   0.9145
B(  2-C , 13-N ) :   1.0182 B(  3-C ,  6-H ) :   1.0155 B(  3-C ,  7-H ) :   1.0834
B(  8-C ,  9-H ) :   1.0317 B(  8-C , 10-H ) :   1.1160 B(  8-C , 14-N ) :  -0.1833
B( 11-H , 17-C ) :   0.1007 B( 13-N , 14-N ) :   0.1900 B( 13-N , 15-C ) :  -0.1039
B( 13-N , 27-C ) :   0.7900 B( 13-N , 29-C ) :   0.1677 B( 14-N , 15-C ) :   0.8894
B( 14-N , 16-C ) :   0.2280 B( 14-N , 38-H ) :   1.1698 B( 15-C , 16-C ) :  -0.2400
B( 15-C , 17-C ) :  -0.5567 B( 15-C , 18-C ) :  -0.1536 B( 15-C , 29-C ) :   0.8158
B( 15-C , 31-C ) :  -0.2243 B( 15-C , 37-H ) :   0.9453 B( 16-C , 17-C ) :   0.8287
B( 16-C , 18-C ) :   0.8501 B( 16-C , 19-C ) :  -0.4297 B( 16-C , 20-H ) :  -0.1114
B( 16-C , 21-C ) :  -0.3009 B( 16-C , 29-C ) :   0.2192 B( 16-C , 37-H ) :  -0.2129
B( 17-C , 19-C ) :   1.4547 B( 17-C , 20-H ) :   1.1188 B( 17-C , 21-C ) :   0.1686
B( 17-C , 23-C ) :   0.1041 B( 17-C , 24-H ) :  -0.1372 B( 18-C , 19-C ) :   0.1039
B( 18-C , 21-C ) :   1.2095 B( 18-C , 22-H ) :   1.0950 B( 18-C , 25-H ) :  -0.1275
B( 18-C , 29-C ) :  -0.1575 B( 19-C , 23-C ) :   1.2006 B( 19-C , 24-H ) :   1.1535
B( 21-C , 23-C ) :   1.1764 B( 21-C , 25-H ) :   1.1322 B( 21-C , 26-H ) :  -0.1203
B( 23-C , 25-H ) :  -0.1093 B( 23-C , 26-H ) :   1.0181 B( 27-C , 28-H ) :   1.0297
B( 27-C , 29-C ) :   0.7469 B( 27-C , 31-C ) :   0.6123 B( 27-C , 32-C ) :  -0.1884
B( 27-C , 36-H ) :  -0.1452 B( 29-C , 30-H ) :   1.1418 B( 29-C , 31-C ) :  -0.1960
B( 29-C , 32-C ) :   0.6064 B( 29-C , 34-H ) :  -0.1208 B( 31-C , 32-C ) :   1.2726
B( 31-C , 35-H ) :   0.9733 B( 31-C , 36-H ) :   1.0348 B( 32-C , 33-H ) :   1.0178
B( 32-C , 34-H ) :   1.0575

MP2 TOTAL ENERGY:     -730.262099357 Eh
FINAL SINGLE POINT ENERGY      -730.262099357069

DIPOLE MOMENT
-------------
                                X             Y             Z
Electronic contribution:      5.48285       0.15361      -0.65861
Nuclear contribution   :     -6.16282      -0.72234       0.60352
                        -----------------------------------------
Total Dipole Moment    :     -0.67997      -0.56873      -0.05509
                        -----------------------------------------
Magnitude (a.u.)       :      0.88817
Magnitude (Debye)      :      2.25754

Rotational constants in cm-1:     0.022229     0.012153     0.009280
Rotational constants in MHz :   666.401733   364.341907   278.210985

                             ****ORCA TERMINATED NORMALLY****
TOTAL RUN TIME: 0 days 7 hours 19 minutes 37 seconds 882 msec
