                         Program Version 4.2.1 -  RELEASE  -
|  1> %pal
|  2>  nprocs 32
|  3> end
|  4> !RI-MP2 aug-cc-pVQZ aug-cc-pVQZ/C TightSCF
|  5> %maxcore 4500
|  6> *xyzfile 0 1  10_88P.xyz
|  7>
|  8>
|  9>                          ****END OF INPUT****

CARTESIAN COORDINATES (ANGSTROEM)
---------------------------------
  O     -2.927979    0.641168   -0.486014
  C     -2.644950   -0.120666    0.399862
  C     -1.311067   -0.790858    0.567708
  C     -0.228188   -0.347720   -0.425691
  C      0.198266    1.072216   -0.166862
  C      1.439231    1.424323    0.140836
  C      0.932806   -1.302111   -0.382981
  C      2.173713   -0.950731   -0.075847
  C      2.577870    0.455523    0.247612
  H      0.712854   -2.340788   -0.614588
  H      2.954809   -1.704473   -0.061197
  H      3.010464    0.495562    1.255625
  H      3.391898    0.767820   -0.418569
  H     -3.402032   -0.388962    1.165772
  H     -1.498556   -1.869806    0.483400
  H     -0.978389   -0.636735    1.600823
  H     -0.684352   -0.389509   -1.422519
  H      1.667224    2.470905    0.317614
  H     -0.576177    1.826782   -0.246069

 Total Charge           Charge          ....    0
 Multiplicity           Mult            ....    1
 Number of Electrons    NEL             ....   66
 Basis Dimension        Dim             .... 1180

ORBITAL ENERGIES
----------------

  NO   OCC          E(Eh)            E(eV)
   0   2.0000     -20.557721      -559.4040
   1   2.0000     -11.333337      -308.3958
   2   2.0000     -11.244692      -305.9836
   3   2.0000     -11.240957      -305.8820
   4   2.0000     -11.232028      -305.6390
   5   2.0000     -11.229080      -305.5588
   6   2.0000     -11.226388      -305.4856
   7   2.0000     -11.225003      -305.4479
   8   2.0000     -11.220522      -305.3259
   9   2.0000      -1.400636       -38.1132
  10   2.0000      -1.141592       -31.0643
  11   2.0000      -1.060910       -28.8688
  12   2.0000      -1.017550       -27.6890
  13   2.0000      -0.970843       -26.4180
  14   2.0000      -0.865309       -23.5462
  15   2.0000      -0.796845       -21.6833
  16   2.0000      -0.778132       -21.1741
  17   2.0000      -0.695987       -18.9388
  18   2.0000      -0.676105       -18.3977
  19   2.0000      -0.655742       -17.8437
  20   2.0000      -0.639097       -17.3907
  21   2.0000      -0.628764       -17.1095
  22   2.0000      -0.588703       -16.0194
  23   2.0000      -0.587474       -15.9860
  24   2.0000      -0.565044       -15.3756
  25   2.0000      -0.537430       -14.6242
  26   2.0000      -0.533666       -14.5218
  27   2.0000      -0.504839       -13.7374
  28   2.0000      -0.495932       -13.4950
  29   2.0000      -0.450744       -12.2654
  30   2.0000      -0.424566       -11.5530
  31   2.0000      -0.366876        -9.9832
  32   2.0000      -0.340743        -9.2721
  33   0.0000       0.022293         0.6066
  34   0.0000       0.027304         0.7430
  35   0.0000       0.029827         0.8116
  36   0.0000       0.035389         0.9630
  37   0.0000       0.041153         1.1198

MULLIKEN ATOMIC CHARGES
-----------------------
   0 O :   -0.797181
   1 C :    0.213578
   2 C :   -0.465615
   3 C :    0.574591
   4 C :   -0.557421
   5 C :   -0.339948
   6 C :   -0.560742
   7 C :   -0.345788
   8 C :   -0.405307
   9 H :    0.245593
  10 H :    0.284821
  11 H :    0.205161
  12 H :    0.208092
  13 H :    0.368389
  14 H :    0.235815
  15 H :    0.245766
  16 H :    0.323038
  17 H :    0.268534
  18 H :    0.298623
Sum of atomic charges:   -0.0000000

LOEWDIN ATOMIC CHARGES
----------------------
   0 O :    0.739927
   1 C :   -0.223847
   2 C :    0.463681
   3 C :    0.034100
   4 C :    0.374401
   5 C :    0.399256
   6 C :    0.379703
   7 C :    0.396227
   8 C :    0.466280
   9 H :   -0.309331
  10 H :   -0.311784
  11 H :   -0.285069
  12 H :   -0.287280
  13 H :   -0.333938
  14 H :   -0.287043
  15 H :   -0.277731
  16 H :   -0.296710
  17 H :   -0.311962
  18 H :   -0.328879

  Mayer bond orders larger than 0.100000
B(  0-O ,  1-C ) :   1.5008 B(  0-O ,  2-C ) :   0.1388 B(  1-C ,  2-C ) :   0.9203
B(  1-C ,  3-C ) :  -0.1350 B(  1-C , 13-H ) :   0.8969 B(  2-C ,  3-C ) :   0.8532
B(  2-C , 13-H ) :  -0.1011 B(  2-C , 14-H ) :   0.9124 B(  2-C , 15-H ) :   0.9622
B(  3-C ,  4-C ) :   0.5776 B(  3-C ,  5-C ) :  -0.2147 B(  3-C ,  6-C ) :   0.6443
B(  3-C ,  7-C ) :  -0.2083 B(  3-C , 16-H ) :   0.8236 B(  4-C ,  5-C ) :   1.6653
B(  4-C , 17-H ) :  -0.1459 B(  4-C , 18-H ) :   1.0089 B(  5-C ,  8-C ) :   0.8142
B(  5-C , 17-H ) :   1.0595 B(  6-C ,  7-C ) :   1.6606 B(  6-C ,  9-H ) :   1.0617
B(  6-C , 10-H ) :  -0.1390 B(  7-C ,  8-C ) :   0.8162 B(  7-C ,  9-H ) :  -0.1020
B(  7-C , 10-H ) :   1.0298 B(  8-C , 11-H ) :   0.9682 B(  8-C , 12-H ) :   1.0210

MP2 TOTAL ENERGY:     -385.381809110 Eh
FINAL SINGLE POINT ENERGY      -385.381809110287

DIPOLE MOMENT
-------------
                                X             Y             Z
Electronic contribution:     -4.09843       1.06861      -1.31952
Nuclear contribution   :      4.61812      -1.78481       2.08264
                        -----------------------------------------
Total Dipole Moment    :      0.51969      -0.71620       0.76312
                        -----------------------------------------
Magnitude (a.u.)       :      1.16849
Magnitude (Debye)      :      2.97007

Rotational constants in cm-1:     0.125873     0.034638     0.029376
Rotational constants in MHz :  3773.576463  1038.408706   880.666737

                             ****ORCA TERMINATED NORMALLY****
TOTAL RUN TIME: 0 days 0 hours 41 minutes 25 seconds 62 msec
