                         Program Version 4.2.1 -  RELEASE  -
|  1> %pal
|  2>  nprocs 32
|  3> end
|  4> !RI-MP2 aug-cc-pVQZ aug-cc-pVQZ/C TightSCF
|  5> %maxcore 4500
|  6> *xyzfile -1 1  09_15P.xyz
|  7>
|  8>
|  9>                          ****END OF INPUT****

CARTESIAN COORDINATES (ANGSTROEM)
---------------------------------
  C     -1.037318   -0.914662   -0.338961
  C     -1.534596    0.361263   -0.082840
  C     -2.890173    0.518121    0.193777
  C     -3.740532   -0.576835    0.210187
  C     -3.239189   -1.846405   -0.049670
  C     -1.887090   -2.011295   -0.321899
  C     -0.670057    1.597233   -0.130867
  O     -1.142438    2.658648    0.226086
  C      0.716173    1.487270   -0.694798
  C      1.696835    0.676128    0.177675
  C      1.611301    0.446799    1.495625
  C      2.817110    0.180468   -0.726994
  O      3.917858   -0.469754   -0.134500
  C      3.590204   -1.708326    0.453467
  H      2.392684   -0.491297   -1.505412
  H      3.251708    1.029802   -1.272097
  H      0.704448    0.934014    1.904471
  H      4.525744   -2.148020    0.808932
  H      2.893649   -1.555997    1.281411
  H      3.145664   -2.385760   -0.296829
  H     -3.254445    1.517324    0.397436
  H     -4.794248   -0.442233    0.428066
  H     -3.899506   -2.706642   -0.032411
  H     -1.487339   -3.001561   -0.507668
  H      0.024257   -1.046333   -0.498425
  H      1.077663    2.507595   -0.859701
  H      0.620358    1.019396   -1.688671

 Total Charge           Charge          ....   -1
 Multiplicity           Mult            ....    1
 Number of Electrons    NEL             ....  102
 Basis Dimension        Dim             .... 1718

ORBITAL ENERGIES
----------------

  NO   OCC          E(Eh)            E(eV)
   0   2.0000     -20.412590      -555.4548
   1   2.0000     -20.401888      -555.1636
   2   2.0000     -11.202094      -304.8245
   3   2.0000     -11.144167      -303.2482
   4   2.0000     -11.136900      -303.0505
   5   2.0000     -11.134259      -302.9786
   6   2.0000     -11.133438      -302.9562
   7   2.0000     -11.130930      -302.8880
   8   2.0000     -11.128716      -302.8278
   9   2.0000     -11.121412      -302.6290
  10   2.0000     -11.116054      -302.4832
  11   2.0000     -11.086768      -301.6863
  12   2.0000     -11.033834      -300.2459
  13   2.0000     -10.980769      -298.8019
  14   2.0000      -1.258337       -34.2411
  15   2.0000      -1.221919       -33.2501
  16   2.0000      -1.057394       -28.7731
  17   2.0000      -0.941769       -25.6269
  18   2.0000      -0.919005       -25.0074
  19   2.0000      -0.905784       -24.6476
  20   2.0000      -0.824864       -22.4457
  21   2.0000      -0.777514       -21.1572
  22   2.0000      -0.740622       -20.1533
  23   2.0000      -0.725901       -19.7528
  24   2.0000      -0.706981       -19.2379
  25   2.0000      -0.643611       -17.5136
  26   2.0000      -0.595370       -16.2008
  27   2.0000      -0.550196       -14.9716
  28   2.0000      -0.533544       -14.5185
  29   2.0000      -0.520708       -14.1692
  30   2.0000      -0.514032       -13.9875
  31   2.0000      -0.505968       -13.7681
  32   2.0000      -0.500697       -13.6247
  33   2.0000      -0.489226       -13.3125
  34   2.0000      -0.462421       -12.5831
  35   2.0000      -0.458525       -12.4771
  36   2.0000      -0.436509       -11.8780
  37   2.0000      -0.423167       -11.5150
  38   2.0000      -0.407378       -11.0853
  39   2.0000      -0.398258       -10.8372
  40   2.0000      -0.390525       -10.6267
  41   2.0000      -0.379053       -10.3146
  42   2.0000      -0.363084        -9.8800
  43   2.0000      -0.339175        -9.2294
  44   2.0000      -0.321772        -8.7559
  45   2.0000      -0.290714        -7.9107
  46   2.0000      -0.259674        -7.0661
  47   2.0000      -0.240270        -6.5381
  48   2.0000      -0.238181        -6.4812
  49   2.0000      -0.144913        -3.9433
  50   2.0000      -0.110740        -3.0134
  51   0.0000       0.082515         2.2453
  52   0.0000       0.091646         2.4938
  53   0.0000       0.100108         2.7241
  54   0.0000       0.108041         2.9399
  55   0.0000       0.109507         2.9798

MULLIKEN ATOMIC CHARGES
-----------------------
   0 C :   -0.383792
   1 C :    0.045623
   2 C :   -0.409321
   3 C :   -0.360543
   4 C :   -0.383942
   5 C :   -0.582247
   6 C :    1.508199
   7 O :   -1.052530
   8 C :   -0.573625
   9 C :    0.256158
  10 C :   -1.405231
  11 C :    0.239095
  12 O :   -0.966192
  13 C :   -0.628807
  14 H :    0.118214
  15 H :    0.360673
  16 H :    0.147212
  17 H :    0.433231
  18 H :    0.273139
  19 H :    0.180901
  20 H :    0.226341
  21 H :    0.215811
  22 H :    0.305559
  23 H :    0.181019
  24 H :    0.706569
  25 H :    0.354399
  26 H :    0.194085
Sum of atomic charges:   -1.0000000

LOEWDIN ATOMIC CHARGES
----------------------
   0 C :    0.330021
   1 C :   -0.108583
   2 C :    0.309809
   3 C :    0.333847
   4 C :    0.321118
   5 C :    0.353008
   6 C :   -0.701617
   7 O :    0.748654
   8 C :    0.362671
   9 C :   -0.252912
  10 C :    0.547609
  11 C :    0.020697
  12 O :    0.862644
  13 C :    0.501297
  14 H :   -0.329460
  15 H :   -0.338864
  16 H :   -0.548599
  17 H :   -0.334406
  18 H :   -0.426027
  19 H :   -0.315785
  20 H :   -0.353490
  21 H :   -0.331281
  22 H :   -0.328786
  23 H :   -0.324245
  24 H :   -0.367220
  25 H :   -0.312202
  26 H :   -0.317899

  Mayer bond orders larger than 0.100000
B(  0-C ,  1-C ) :   1.0223 B(  0-C ,  4-C ) :  -0.1505 B(  0-C ,  5-C ) :   1.0415
B(  0-C ,  6-C ) :  -0.2388 B(  0-C , 23-H ) :  -0.1148 B(  0-C , 24-H ) :   0.3305
B(  1-C ,  2-C ) :   1.0116 B(  1-C ,  3-C ) :  -0.4733 B(  1-C ,  5-C ) :  -0.4353
B(  1-C ,  6-C ) :   0.8462 B(  1-C ,  7-O ) :   0.5069 B(  1-C , 24-H ) :  -0.2382
B(  2-C ,  3-C ) :   1.3779 B(  2-C ,  5-C ) :   0.1908 B(  2-C ,  6-C ) :  -0.2590
B(  2-C , 20-H ) :   0.9703 B(  2-C , 21-H ) :  -0.1713 B(  3-C ,  4-C ) :   1.1670
B(  3-C , 21-H ) :   1.1646 B(  4-C ,  5-C ) :   1.3131 B(  4-C , 21-H ) :  -0.1005
B(  4-C , 22-H ) :   1.0446 B(  5-C , 22-H ) :  -0.1370 B(  5-C , 23-H ) :   1.1613
B(  5-C , 24-H ) :  -0.1246 B(  6-C ,  8-C ) :   1.2728 B(  6-C , 25-H ) :   0.1095
B(  7-O ,  8-C ) :   0.2858 B(  7-O , 20-H ) :   0.1342 B(  8-C ,  9-C ) :   0.5370
B(  8-C , 25-H ) :   0.8671 B(  8-C , 26-H ) :   0.9677 B(  9-C , 10-C ) :   0.8053
B(  9-C , 11-C ) :   0.8248 B( 10-C , 16-H ) :   1.1031 B( 10-C , 18-H ) :   0.1229
B( 11-C , 12-O ) :   0.4710 B( 11-C , 14-H ) :   1.0001 B( 11-C , 15-H ) :   0.9066
B( 12-O , 13-C ) :   0.8704 B( 13-C , 17-H ) :   0.8392 B( 13-C , 18-H ) :   0.8559
B( 13-C , 19-H ) :   0.9751

MP2 TOTAL ENERGY:     -614.444506838 Eh
FINAL SINGLE POINT ENERGY      -614.444506837656

DIPOLE MOMENT
-------------
                                X             Y             Z
Electronic contribution:     -8.18087       5.16436      -0.20419
Nuclear contribution   :      5.25690      -6.75127      -1.84384
                        -----------------------------------------
Total Dipole Moment    :     -2.92398      -1.58691      -2.04803
                        -----------------------------------------
Magnitude (a.u.)       :      3.90670
Magnitude (Debye)      :      9.93005

Rotational constants in cm-1:     0.039288     0.013568     0.010883
Rotational constants in MHz :  1177.815038   406.768653   326.272162

                             ****ORCA TERMINATED NORMALLY****
TOTAL RUN TIME: 0 days 2 hours 28 minutes 22 seconds 430 msec
