                         Program Version 4.2.1 -  RELEASE  -
|  1> %pal
|  2>  nprocs 32
|  3> end
|  4> !RI-MP2 aug-cc-pVQZ aug-cc-pVQZ/C TightSCF
|  5> %maxcore 4500
|  6> *xyzfile 0 1  03_2R1.xyz
|  7>
|  8>
|  9>                          ****END OF INPUT****

CARTESIAN COORDINATES (ANGSTROEM)
---------------------------------
  C     -0.285603    0.383929   -0.658697
  C      1.048336    0.027845   -0.005033
  O      1.491756   -1.181264   -0.397078
  O      1.660603    0.737222    0.741152
  C     -1.311899   -0.707010   -0.426580
  H     -0.096088    0.400766   -1.738681
  N     -0.816255    1.660898   -0.246853
  H      2.339468   -1.340862    0.041317
  H     -0.119545    2.389925   -0.339623
  H     -1.079345    1.627333    0.732084
  H     -2.250406   -0.438793   -0.910782
  F     -1.560957   -0.807101    0.944686
  H     -0.955563   -1.676988   -0.769256

 Total Charge           Charge          ....    0
 Multiplicity           Mult            ....    1
 Number of Electrons    NEL             ....   56
 Basis Dimension        Dim             ....  836

ORBITAL ENERGIES
----------------

  NO   OCC          E(Eh)            E(eV)
   0   2.0000     -26.286047      -715.2797
   1   2.0000     -20.621963      -561.1521
   2   2.0000     -20.558398      -559.4224
   3   2.0000     -15.553840      -423.2415
   4   2.0000     -11.391388      -309.9754
   5   2.0000     -11.322392      -308.0980
   6   2.0000     -11.293080      -307.3003
   7   2.0000      -1.596857       -43.4527
   8   2.0000      -1.480001       -40.2729
   9   2.0000      -1.376627       -37.4599
  10   2.0000      -1.211884       -32.9770
  11   2.0000      -1.033708       -28.1286
  12   2.0000      -0.918345       -24.9894
  13   2.0000      -0.815521       -22.1915
  14   2.0000      -0.734576       -19.9888
  15   2.0000      -0.731474       -19.9044
  16   2.0000      -0.717207       -19.5162
  17   2.0000      -0.696667       -18.9573
  18   2.0000      -0.674193       -18.3457
  19   2.0000      -0.641281       -17.4501
  20   2.0000      -0.634688       -17.2707
  21   2.0000      -0.611281       -16.6338
  22   2.0000      -0.577137       -15.7047
  23   2.0000      -0.539845       -14.6899
  24   2.0000      -0.523675       -14.2499
  25   2.0000      -0.495671       -13.4879
  26   2.0000      -0.469122       -12.7655
  27   2.0000      -0.418031       -11.3752
  28   0.0000       0.022830         0.6212
  29   0.0000       0.031463         0.8561
  30   0.0000       0.036146         0.9836
  31   0.0000       0.037806         1.0288
  32   0.0000       0.050909         1.3853

MULLIKEN ATOMIC CHARGES
-----------------------
   0 C :    0.126862
   1 C :    1.017032
   2 O :   -0.699226
   3 O :   -0.812110
   4 C :   -0.106856
   5 H :    0.422194
   6 N :   -0.760849
   7 H :    0.318721
   8 H :    0.245106
   9 H :    0.270395
  10 H :    0.363225
  11 F :   -0.726703
  12 H :    0.342208
Sum of atomic charges:   -0.0000000

LOEWDIN ATOMIC CHARGES
----------------------
   0 C :   -0.162479
   1 C :   -1.033641
   2 O :    1.260850
   3 O :    0.719837
   4 C :   -0.039888
   5 H :   -0.305365
   6 N :    1.268707
   7 H :   -0.799148
   8 H :   -0.510046
   9 H :   -0.518949
  10 H :   -0.321859
  11 F :    0.784754
  12 H :   -0.342774

  Mayer bond orders larger than 0.100000
B(  0-C ,  1-C ) :   0.9898 B(  0-C ,  3-O ) :   0.1034 B(  0-C ,  4-C ) :   0.9704
B(  0-C ,  5-H ) :   0.7544 B(  0-C ,  6-N ) :   0.7070 B(  1-C ,  2-O ) :   0.8712
B(  1-C ,  3-O ) :   1.3553 B(  2-O ,  7-H ) :   0.9358 B(  4-C , 10-H ) :   0.8701
B(  4-C , 11-F ) :   0.4644 B(  4-C , 12-H ) :   0.8754 B(  6-N ,  8-H ) :   0.9339
B(  6-N ,  9-H ) :   0.8734

MP2 TOTAL ENERGY:     -422.462829175 Eh
FINAL SINGLE POINT ENERGY      -422.462829175148

DIPOLE MOMENT
-------------
                                X             Y             Z
Electronic contribution:      0.80098      -2.16891       2.97181
Nuclear contribution   :     -0.56472       1.72977      -3.84405
                        -----------------------------------------
Total Dipole Moment    :      0.23626      -0.43915      -0.87224
                        -----------------------------------------
Magnitude (a.u.)       :      1.00472
Magnitude (Debye)      :      2.55380

Rotational constants in cm-1:     0.116710     0.075063     0.058878
Rotational constants in MHz :  3498.883726  2250.325159  1765.132415

                             ****ORCA TERMINATED NORMALLY****
TOTAL RUN TIME: 0 days 0 hours 12 minutes 10 seconds 101 msec
