                         Program Version 4.2.1 -  RELEASE  -
|  1> %pal
|  2>  nprocs 32
|  3> end
|  4> !RI-MP2 aug-cc-pVQZ aug-cc-pVQZ/C TightSCF
|  5> %maxcore 4500
|  6> *xyzfile 1 1  05_28P1.xyz
|  7>
|  8>
|  9>                          ****END OF INPUT****

CARTESIAN COORDINATES (ANGSTROEM)
---------------------------------
  C      1.746709    0.235966   -0.000000
  O      2.805095   -0.519016    0.000003
  C      0.488662   -0.311429    0.000003
  H      0.382795   -1.387933    0.000013
  C     -0.594866    0.550110   -0.000007
  H     -0.370394    1.614580   -0.000017
  C     -1.969945    0.214240   -0.000005
  C     -2.910149    1.266143   -0.000019
  C     -2.430078   -1.120861    0.000011
  C     -4.261663    0.994991   -0.000019
  H     -2.560613    2.292033   -0.000031
  C     -3.779741   -1.383187    0.000012
  H     -1.727002   -1.943346    0.000023
  C     -4.693674   -0.327415   -0.000003
  H     -4.981199    1.802940   -0.000030
  H     -4.135601   -2.405034    0.000024
  H     -5.755423   -0.542746   -0.000003
  C      4.111905    0.146309   -0.000004
  O      4.155961    1.321293   -0.000016
  C      5.171453   -0.884648    0.000029
  H      6.144255   -0.400707   -0.000148
  H      5.061890   -1.520185    0.880743
  H      5.061692   -1.520487   -0.880438
  H      1.919479    1.311360   -0.000013

 Total Charge           Charge          ....    1
 Multiplicity           Mult            ....    1
 Number of Electrons    NEL             ....   92
 Basis Dimension        Dim             .... 1546

ORBITAL ENERGIES
----------------

  NO   OCC          E(Eh)            E(eV)
   0   2.0000     -20.793678      -565.8248
   1   2.0000     -20.721535      -563.8616
   2   2.0000     -11.549781      -314.2855
   3   2.0000     -11.523482      -313.5699
   4   2.0000     -11.469587      -312.1033
   5   2.0000     -11.401722      -310.2566
   6   2.0000     -11.400469      -310.2225
   7   2.0000     -11.398518      -310.1694
   8   2.0000     -11.396495      -310.1144
   9   2.0000     -11.395095      -310.0763
  10   2.0000     -11.377412      -309.5951
  11   2.0000     -11.373178      -309.4799
  12   2.0000     -11.371661      -309.4386
  13   2.0000      -1.650246       -44.9055
  14   2.0000      -1.562610       -42.5208
  15   2.0000      -1.325714       -36.0745
  16   2.0000      -1.275805       -34.7164
  17   2.0000      -1.205004       -32.7898
  18   2.0000      -1.173220       -31.9249
  19   2.0000      -1.168920       -31.8079
  20   2.0000      -1.084236       -29.5036
  21   2.0000      -1.008426       -27.4407
  22   2.0000      -0.984068       -26.7779
  23   2.0000      -0.965463       -26.2716
  24   2.0000      -0.934255       -25.4224
  25   2.0000      -0.872101       -23.7311
  26   2.0000      -0.864161       -23.5150
  27   2.0000      -0.848812       -23.0974
  28   2.0000      -0.821726       -22.3603
  29   2.0000      -0.799824       -21.7643
  30   2.0000      -0.797970       -21.7139
  31   2.0000      -0.773611       -21.0510
  32   2.0000      -0.747038       -20.3279
  33   2.0000      -0.740588       -20.1524
  34   2.0000      -0.729046       -19.8384
  35   2.0000      -0.728765       -19.8307
  36   2.0000      -0.709149       -19.2969
  37   2.0000      -0.700201       -19.0534
  38   2.0000      -0.672848       -18.3091
  39   2.0000      -0.664968       -18.0947
  40   2.0000      -0.657343       -17.8872
  41   2.0000      -0.639784       -17.4094
  42   2.0000      -0.621860       -16.9217
  43   2.0000      -0.583780       -15.8855
  44   2.0000      -0.487483       -13.2651
  45   2.0000      -0.477779       -13.0010
  46   0.0000      -0.146221        -3.9789
  47   0.0000      -0.069423        -1.8891
  48   0.0000      -0.060939        -1.6582
  49   0.0000      -0.053277        -1.4497
  50   0.0000      -0.047188        -1.2840

MULLIKEN ATOMIC CHARGES
-----------------------
   0 C :    0.542877
   1 O :   -0.671821
   2 C :   -0.758263
   3 H :    0.387660
   4 C :   -0.051632
   5 H :    0.293833
   6 C :    0.476957
   7 C :   -0.377753
   8 C :   -0.256458
   9 C :   -0.285237
  10 H :    0.246250
  11 C :   -0.271787
  12 H :    0.229187
  13 C :   -0.364320
  14 H :    0.313015
  15 H :    0.287298
  16 H :    0.325226
  17 C :    0.835600
  18 O :   -0.671592
  19 C :   -0.692698
  20 H :    0.348866
  21 H :    0.296253
  22 H :    0.296235
  23 H :    0.522304
Sum of atomic charges:    1.0000000

LOEWDIN ATOMIC CHARGES
----------------------
   0 C :   -0.001731
   1 O :    0.884645
   2 C :    0.416686
   3 H :   -0.339001
   4 C :    0.406748
   5 H :   -0.312453
   6 C :   -0.054099
   7 C :    0.371423
   8 C :    0.371337
   9 C :    0.399858
  10 H :   -0.297807
  11 C :    0.400652
  12 H :   -0.317322
  13 C :    0.395883
  14 H :   -0.304832
  15 H :   -0.304239
  16 H :   -0.288536
  17 C :   -0.884906
  18 O :    0.776982
  19 C :    0.912684
  20 H :   -0.296790
  21 H :   -0.284665
  22 H :   -0.284675
  23 H :   -0.365842

  Mayer bond orders larger than 0.100000
B(  0-C ,  1-O ) :   0.8742 B(  0-C ,  2-C ) :   1.3968 B(  0-C ,  4-C ) :  -0.6141
B(  0-C , 18-O ) :   0.1480 B(  0-C , 23-H ) :   0.8015 B(  1-O ,  2-C ) :   0.1463
B(  1-O , 17-C ) :   0.7910 B(  2-C ,  3-H ) :   0.8637 B(  2-C ,  4-C ) :   0.9500
B(  2-C ,  6-C ) :  -0.5135 B(  2-C ,  8-C ) :  -0.1912 B(  4-C ,  5-H ) :   0.9799
B(  4-C ,  6-C ) :   0.8225 B(  4-C ,  7-C ) :  -0.5110 B(  4-C ,  8-C ) :  -0.4183
B(  5-H ,  6-C ) :  -0.2233 B(  6-C ,  7-C ) :   0.9683 B(  6-C ,  8-C ) :   1.1519
B(  6-C ,  9-C ) :  -0.4177 B(  6-C , 10-H ) :  -0.1202 B(  6-C , 11-C ) :  -0.3457
B(  7-C ,  8-C ) :   0.1346 B(  7-C ,  9-C ) :   1.2159 B(  7-C , 10-H ) :   1.0397
B(  7-C , 14-H ) :  -0.1337 B(  8-C ,  9-C ) :   0.1060 B(  8-C , 11-C ) :   1.1974
B(  8-C , 12-H ) :   1.0009 B(  8-C , 15-H ) :  -0.1044 B(  9-C , 13-C ) :   1.1528
B(  9-C , 14-H ) :   1.0807 B( 11-C , 13-C ) :   1.1458 B( 11-C , 15-H ) :   1.0739
B( 13-C , 16-H ) :   1.0213 B( 17-C , 18-O ) :   1.4660 B( 17-C , 19-C ) :   0.8728
B( 19-C , 20-H ) :   0.9394 B( 19-C , 21-H ) :   0.9108 B( 19-C , 22-H ) :   0.9108

MP2 TOTAL ENERGY:     -575.020286563 Eh
FINAL SINGLE POINT ENERGY      -575.020286562932

DIPOLE MOMENT
-------------
                                X             Y             Z
Electronic contribution:      0.74857       2.19022      -0.00010
Nuclear contribution   :     -0.84774      -2.67850       0.00012
                        -----------------------------------------
Total Dipole Moment    :     -0.09917      -0.48829       0.00002
                        -----------------------------------------
Magnitude (a.u.)       :      0.49826
Magnitude (Debye)      :      1.26647

Rotational constants in cm-1:     0.112791     0.008327     0.007765
Rotational constants in MHz :  3381.402950   249.627896   232.801163

                             ****ORCA TERMINATED NORMALLY****
TOTAL RUN TIME: 0 days 1 hours 27 minutes 9 seconds 259 msec
