                         Program Version 4.2.1 -  RELEASE  -
|  1> %pal
|  2>  nprocs 32
|  3> end
|  4> !RI-MP2 aug-cc-pVQZ aug-cc-pVQZ/C TightSCF
|  5> %maxcore 4500
|  6> *xyzfile 0 1  03_13R1.xyz
|  7>
|  8>
|  9>                          ****END OF INPUT****

CARTESIAN COORDINATES (ANGSTROEM)
---------------------------------
  C      1.456654    0.000023    0.875219
  C      0.025296    0.000010    0.447389
  C     -0.649212    1.200084    0.244315
  C     -0.649198   -1.200075    0.244332
  H     -0.128063    2.138654    0.396629
  C     -1.977059    1.201482   -0.155434
  C     -1.977044   -1.201494   -0.155417
  C     -2.643266   -0.000012   -0.356173
  H     -0.128037   -2.138636    0.396660
  H     -2.493362    2.141210   -0.309286
  H     -2.493336   -2.141231   -0.309255
  H     -3.680858   -0.000020   -0.667308
  H      1.706994   -0.887232    1.450579
  H      1.706991    0.887305    1.450537
  Cl     2.587802   -0.000009   -0.545526

 Total Charge           Charge          ....    0
 Multiplicity           Mult            ....    1
 Number of Electrons    NEL             ....   66
 Basis Dimension        Dim             ....  966

ORBITAL ENERGIES
----------------

  NO   OCC          E(Eh)            E(eV)
   0   2.0000    -104.819266     -2852.2772
   1   2.0000     -11.299439      -307.4734
   2   2.0000     -11.251180      -306.1602
   3   2.0000     -11.242223      -305.9164
   4   2.0000     -11.242181      -305.9153
   5   2.0000     -11.241358      -305.8929
   6   2.0000     -11.240494      -305.8694
   7   2.0000     -11.239800      -305.8505
   8   2.0000     -10.544758      -286.9374
   9   2.0000      -8.011754      -218.0109
  10   2.0000      -8.010106      -217.9661
  11   2.0000      -8.010076      -217.9652
  12   2.0000      -1.175394       -31.9841
  13   2.0000      -1.123206       -30.5640
  14   2.0000      -1.034474       -28.1495
  15   2.0000      -1.026170       -27.9235
  16   2.0000      -0.916911       -24.9504
  17   2.0000      -0.839921       -22.8554
  18   2.0000      -0.808362       -21.9967
  19   2.0000      -0.708482       -19.2788
  20   2.0000      -0.661012       -17.9871
  21   2.0000      -0.649235       -17.6666
  22   2.0000      -0.599194       -16.3049
  23   2.0000      -0.597393       -16.2559
  24   2.0000      -0.586183       -15.9509
  25   2.0000      -0.562377       -15.3031
  26   2.0000      -0.511354       -13.9147
  27   2.0000      -0.501872       -13.6566
  28   2.0000      -0.501256       -13.6399
  29   2.0000      -0.434791       -11.8313
  30   2.0000      -0.433175       -11.7873
  31   2.0000      -0.346846        -9.4381
  32   2.0000      -0.340853        -9.2751
  33   0.0000       0.024461         0.6656
  34   0.0000       0.028167         0.7665
  35   0.0000       0.028245         0.7686
  36   0.0000       0.040481         1.1016
  37   0.0000       0.041667         1.1338

MULLIKEN ATOMIC CHARGES
-----------------------
   0 C :   -0.196200
   1 C :    0.279662
   2 C :   -0.368886
   3 C :   -0.368765
   4 H :    0.324847
   5 C :   -0.320073
   6 C :   -0.320080
   7 C :   -0.309999
   8 H :    0.324857
   9 H :    0.241951
  10 H :    0.241976
  11 H :    0.324125
  12 H :    0.249010
  13 H :    0.249005
  14 Cl:   -0.351429
Sum of atomic charges:   -0.0000000

LOEWDIN ATOMIC CHARGES
----------------------
   0 C :   -0.146546
   1 C :   -0.219780
   2 C :    0.319197
   3 C :    0.319196
   4 H :   -0.316108
   5 C :    0.345130
   6 C :    0.345129
   7 C :    0.337699
   8 H :   -0.316108
   9 H :   -0.319438
  10 H :   -0.319437
  11 H :   -0.320663
  12 H :   -0.409771
  13 H :   -0.409773
  14 Cl:    1.111274

  Mayer bond orders larger than 0.100000
B(  0-C ,  1-C ) :   0.8595 B(  0-C ,  2-C ) :  -0.1431 B(  0-C ,  3-C ) :  -0.1431
B(  0-C , 12-H ) :   0.9667 B(  0-C , 13-H ) :   0.9667 B(  0-C , 14-Cl) :   0.7820
B(  1-C ,  2-C ) :   1.0351 B(  1-C ,  3-C ) :   1.0351 B(  1-C ,  5-C ) :  -0.2898
B(  1-C ,  6-C ) :  -0.2898 B(  2-C ,  4-H ) :   0.9203 B(  2-C ,  5-C ) :   1.3720
B(  2-C ,  6-C ) :   0.1527 B(  2-C ,  9-H ) :  -0.1172 B(  3-C ,  5-C ) :   0.1527
B(  3-C ,  6-C ) :   1.3720 B(  3-C ,  8-H ) :   0.9203 B(  3-C , 10-H ) :  -0.1172
B(  5-C ,  6-C ) :  -0.1023 B(  5-C ,  7-C ) :   1.1443 B(  5-C ,  9-H ) :   1.1196
B(  6-C ,  7-C ) :   1.1443 B(  6-C , 10-H ) :   1.1196 B(  7-C ,  9-H ) :  -0.1007
B(  7-C , 10-H ) :  -0.1007 B(  7-C , 11-H ) :   1.0000

MP2 TOTAL ENERGY:     -730.191020041 Eh
FINAL SINGLE POINT ENERGY      -730.191020041446

DIPOLE MOMENT
-------------
                                X             Y             Z
Electronic contribution:      8.33093      -0.00005      -2.54762
Nuclear contribution   :     -9.02030       0.00006       3.12268
                        -----------------------------------------
Total Dipole Moment    :     -0.68938       0.00001       0.57506
                        -----------------------------------------
Magnitude (a.u.)       :      0.89774
Magnitude (Debye)      :      2.28187

Rotational constants in cm-1:     0.140607     0.032854     0.029479
Rotational constants in MHz :  4215.290290   984.950900   883.749111

                             ****ORCA TERMINATED NORMALLY****
TOTAL RUN TIME: 0 days 0 hours 23 minutes 57 seconds 475 msec
