                         Program Version 4.2.1 -  RELEASE  -
|  1> %pal
|  2>  nprocs 32
|  3> end
|  4> !RI-MP2 aug-cc-pVQZ aug-cc-pVQZ/C TightSCF
|  5> %maxcore 4500
|  6> *xyzfile 1 1  04_6R1.xyz
|  7>
|  8>
|  9>                          ****END OF INPUT****

CARTESIAN COORDINATES (ANGSTROEM)
---------------------------------
  N     -1.795745    0.030235   -0.000108
  C     -0.598781   -0.862386    0.000062
  H     -2.382667   -0.075673    0.828161
  H     -2.382451   -0.075714   -0.828526
  C      0.592988    0.114957    0.000028
  O      0.329034    1.306170   -0.000046
  N      1.813484   -0.407393    0.000076
  H      2.608595    0.217562    0.000074
  H      1.986514   -1.400688    0.000145
  H     -1.346073    0.994573   -0.000092
  H     -0.602854   -1.492257    0.887992
  H     -0.602756   -1.492486   -0.887706

 Total Charge           Charge          ....    1
 Multiplicity           Mult            ....    1
 Number of Electrons    NEL             ....   40
 Basis Dimension        Dim             ....  722

ORBITAL ENERGIES
----------------

  NO   OCC          E(Eh)            E(eV)
   0   2.0000     -20.716437      -563.7229
   1   2.0000     -15.875870      -432.0044
   2   2.0000     -15.765299      -428.9956
   3   2.0000     -11.550538      -314.3061
   4   2.0000     -11.499855      -312.9270
   5   2.0000      -1.592879       -43.3445
   6   2.0000      -1.494258       -40.6608
   7   2.0000      -1.405702       -38.2511
   8   2.0000      -1.193099       -32.4659
   9   2.0000      -0.995529       -27.0897
  10   2.0000      -0.980456       -26.6796
  11   2.0000      -0.968576       -26.3563
  12   2.0000      -0.908851       -24.7311
  13   2.0000      -0.854324       -23.2473
  14   2.0000      -0.832810       -22.6619
  15   2.0000      -0.815082       -22.1795
  16   2.0000      -0.760744       -20.7009
  17   2.0000      -0.735280       -20.0080
  18   2.0000      -0.636421       -17.3179
  19   2.0000      -0.602801       -16.4031
  20   0.0000      -0.109740        -2.9862
  21   0.0000      -0.085280        -2.3206
  22   0.0000      -0.081393        -2.2148
  23   0.0000      -0.067839        -1.8460
  24   0.0000      -0.053432        -1.4540

MULLIKEN ATOMIC CHARGES
-----------------------
   0 N :   -0.259896
   1 C :   -0.432385
   2 H :    0.273526
   3 H :    0.273534
   4 C :    0.796823
   5 O :   -0.774461
   6 N :   -0.632240
   7 H :    0.299036
   8 H :    0.344802
   9 H :    0.442212
  10 H :    0.334534
  11 H :    0.334515
Sum of atomic charges:    1.0000000

LOEWDIN ATOMIC CHARGES
----------------------
   0 N :    1.547397
   1 C :    0.557001
   2 H :   -0.284621
   3 H :   -0.284622
   4 C :   -0.678725
   5 O :    0.876814
   6 N :    1.288087
   7 H :   -0.452836
   8 H :   -0.452238
   9 H :   -0.642862
  10 H :   -0.236697
  11 H :   -0.236696

  Mayer bond orders larger than 0.100000
B(  0-N ,  1-C ) :   1.0243 B(  0-N ,  2-H ) :   0.9285 B(  0-N ,  3-H ) :   0.9285
B(  0-N ,  9-H ) :   0.7744 B(  1-C ,  4-C ) :   1.0816 B(  1-C ,  5-O ) :   0.1274
B(  1-C , 10-H ) :   0.8620 B(  1-C , 11-H ) :   0.8620 B(  4-C ,  5-O ) :   1.3593
B(  4-C ,  6-N ) :   1.2538 B(  6-N ,  7-H ) :   0.9356 B(  6-N ,  8-H ) :   0.8517

MP2 TOTAL ENERGY:     -264.550233986 Eh
FINAL SINGLE POINT ENERGY      -264.550233985731

DIPOLE MOMENT
-------------
                                X             Y             Z
Electronic contribution:      1.15529       1.71845      -0.00006
Nuclear contribution   :     -2.78549      -3.39040       0.00005
                        -----------------------------------------
Total Dipole Moment    :     -1.63021      -1.67196      -0.00001
                        -----------------------------------------
Magnitude (a.u.)       :      2.33517
Magnitude (Debye)      :      5.93553

Rotational constants in cm-1:     0.343633     0.130446     0.097814
Rotational constants in MHz : 10301.845062  3910.671385  2932.402345

                             ****ORCA TERMINATED NORMALLY****
TOTAL RUN TIME: 0 days 0 hours 7 minutes 22 seconds 317 msec
