                         Program Version 4.2.1 -  RELEASE  -
|  1> %pal
|  2>  nprocs 32
|  3> end
|  4> !RI-MP2 aug-cc-pVQZ aug-cc-pVQZ/C TightSCF
|  5> %maxcore 4500
|  6> *xyzfile 0 1  10_87TS.xyz
|  7>
|  8>
|  9>                          ****END OF INPUT****

CARTESIAN COORDINATES (ANGSTROEM)
---------------------------------
  O     -1.419102    1.265305    0.751142
  C     -1.190051    0.000196    0.756491
  C     -0.028081   -0.557283    1.225558
  H      0.601716    0.007325    1.896937
  H      0.096525   -1.631183    1.171361
  C     -2.156881   -0.858222   -0.036995
  O     -3.204059   -0.163268   -0.492885
  O     -2.004603   -2.026553   -0.250639
  C     -0.412019    2.066375   -0.697162
  C      0.860039    1.587445   -0.404474
  H      1.530871    2.175853    0.210739
  H     -0.666998    3.094981   -0.484013
  H     -0.997791    1.593052   -1.475458
  C      1.140916    0.251610   -0.569952
  H      0.598202   -0.359491   -1.279212
  C      2.459323   -0.281127   -0.134654
  O      3.231807    0.291041    0.585852
  O      2.689571   -1.501739   -0.642878
  H     -3.104715    0.744316   -0.155164
  H      3.553816   -1.797102   -0.322796

 Total Charge           Charge          ....    0
 Multiplicity           Mult            ....    1
 Number of Electrons    NEL             ....   90
 Basis Dimension        Dim             .... 1328

ORBITAL ENERGIES
----------------

  NO   OCC          E(Eh)            E(eV)
   0   2.0000     -20.633098      -561.4551
   1   2.0000     -20.609917      -560.8243
   2   2.0000     -20.589573      -560.2708
   3   2.0000     -20.569344      -559.7203
   4   2.0000     -20.548362      -559.1493
   5   2.0000     -11.412865      -310.5598
   6   2.0000     -11.386000      -309.8288
   7   2.0000     -11.321380      -308.0704
   8   2.0000     -11.320353      -308.0425
   9   2.0000     -11.307629      -307.6962
  10   2.0000     -11.262184      -306.4596
  11   2.0000     -11.260249      -306.4070
  12   2.0000      -1.492099       -40.6021
  13   2.0000      -1.471831       -40.0506
  14   2.0000      -1.395076       -37.9620
  15   2.0000      -1.387733       -37.7621
  16   2.0000      -1.370745       -37.2999
  17   2.0000      -1.137854       -30.9626
  18   2.0000      -1.054943       -28.7065
  19   2.0000      -1.001343       -27.2479
  20   2.0000      -0.891684       -24.2640
  21   2.0000      -0.882534       -24.0150
  22   2.0000      -0.810763       -22.0620
  23   2.0000      -0.794488       -21.6191
  24   2.0000      -0.749603       -20.3977
  25   2.0000      -0.728246       -19.8166
  26   2.0000      -0.720477       -19.6052
  27   2.0000      -0.685721       -18.6594
  28   2.0000      -0.662629       -18.0311
  29   2.0000      -0.661032       -17.9876
  30   2.0000      -0.647426       -17.6173
  31   2.0000      -0.641903       -17.4671
  32   2.0000      -0.637261       -17.3408
  33   2.0000      -0.620016       -16.8715
  34   2.0000      -0.596422       -16.2295
  35   2.0000      -0.580188       -15.7877
  36   2.0000      -0.567576       -15.4445
  37   2.0000      -0.560556       -15.2535
  38   2.0000      -0.523003       -14.2316
  39   2.0000      -0.510528       -13.8922
  40   2.0000      -0.487788       -13.2734
  41   2.0000      -0.483033       -13.1440
  42   2.0000      -0.442199       -12.0328
  43   2.0000      -0.414485       -11.2787
  44   2.0000      -0.344975        -9.3872
  45   0.0000       0.019732         0.5369
  46   0.0000       0.022355         0.6083
  47   0.0000       0.025977         0.7069
  48   0.0000       0.032083         0.8730
  49   0.0000       0.037396         1.0176

MULLIKEN ATOMIC CHARGES
-----------------------
   0 O :   -0.981666
   1 C :    0.399713
   2 C :   -0.548442
   3 H :    0.370503
   4 H :    0.325888
   5 C :    1.254303
   6 O :   -0.883499
   7 O :   -0.810894
   8 C :   -0.381616
   9 C :   -0.299687
  10 H :    0.325778
  11 H :    0.422587
  12 H :    0.222157
  13 C :   -0.310550
  14 H :    0.428365
  15 C :    1.316933
  16 O :   -0.865711
  17 O :   -0.784227
  18 H :    0.462323
  19 H :    0.337742
Sum of atomic charges:    0.0000000

LOEWDIN ATOMIC CHARGES
----------------------
   0 O :    0.807881
   1 C :   -0.682723
   2 C :    0.662757
   3 H :   -0.324287
   4 H :   -0.323608
   5 C :   -1.081621
   6 O :    1.247176
   7 O :    0.675471
   8 C :    0.587185
   9 C :    0.308996
  10 H :   -0.324554
  11 H :   -0.287183
  12 H :   -0.313205
  13 C :    0.188544
  14 H :   -0.320096
  15 C :   -1.067988
  16 O :    0.730140
  17 O :    1.266941
  18 H :   -0.954081
  19 H :   -0.795746

  Mayer bond orders larger than 0.100000
B(  0-O ,  1-C ) :   0.6211 B(  0-O ,  2-C ) :   0.1294 B(  0-O ,  5-C ) :   0.1083
B(  0-O ,  8-C ) :   0.2965 B(  1-C ,  2-C ) :   1.3379 B(  1-C ,  5-C ) :   1.1935
B(  1-C ,  6-O ) :   0.1441 B(  1-C ,  7-O ) :   0.1790 B(  2-C ,  3-H ) :   0.8753
B(  2-C ,  4-H ) :   0.9357 B(  2-C ,  8-C ) :   0.1018 B(  2-C , 13-C ) :   0.2172
B(  5-C ,  6-O ) :   0.6350 B(  5-C ,  7-O ) :   1.3255 B(  6-O ,  7-O ) :   0.1328
B(  6-O , 18-H ) :   0.7269 B(  8-C ,  9-C ) :   1.3463 B(  8-C , 11-H ) :   0.8500
B(  8-C , 12-H ) :   1.0441 B(  8-C , 13-C ) :  -0.1932 B(  9-C , 10-H ) :   0.9067
B(  9-C , 13-C ) :   1.0489 B(  9-C , 15-C ) :  -0.1857 B( 13-C , 14-H ) :   0.8250
B( 13-C , 15-C ) :   1.2746 B( 13-C , 16-O ) :   0.1445 B( 15-C , 16-O ) :   1.1862
B( 15-C , 17-O ) :   0.7149 B( 16-O , 17-O ) :   0.1521 B( 17-O , 19-H ) :   0.9203

MP2 TOTAL ENERGY:     -646.750045297 Eh
FINAL SINGLE POINT ENERGY      -646.750045296778

DIPOLE MOMENT
-------------
                                X             Y             Z
Electronic contribution:     -0.76009      -2.67819       0.10619
Nuclear contribution   :      1.57158       3.72556      -0.43047
                        -----------------------------------------
Total Dipole Moment    :      0.81149       1.04736      -0.32428
                        -----------------------------------------
Magnitude (a.u.)       :      1.36405
Magnitude (Debye)      :      3.46714

Rotational constants in cm-1:     0.052596     0.020687     0.017005
Rotational constants in MHz :  1576.792673   620.188557   509.794757

                             ****ORCA TERMINATED NORMALLY****
TOTAL RUN TIME: 0 days 1 hours 5 minutes 33 seconds 325 msec
