                         Program Version 4.2.1 -  RELEASE  -
|  1> %pal
|  2>  nprocs 32
|  3> end
|  4> !RI-MP2 aug-cc-pVQZ aug-cc-pVQZ/C TightSCF
|  5> %maxcore 4500
|  6> *xyzfile 0 2  04_28R.xyz
|  7>
|  8>
|  9>                          ****END OF INPUT****

CARTESIAN COORDINATES (ANGSTROEM)
---------------------------------
  C     -0.000741   -0.613596    0.488632
  H      0.325088   -0.299122    1.484572
  H     -0.164122   -1.695266    0.543243
  C     -1.305519    0.075525    0.110990
  H     -1.138309    1.154662    0.033144
  C     -3.737675    0.470855    0.735013
  H     -4.480641    0.360221    1.532467
  H     -1.625414   -0.268196   -0.878819
  H     -3.614366    1.549968    0.596869
  C     -2.420347   -0.192141    1.114163
  H     -2.577898   -1.269826    1.217616
  H     -2.118984    0.180111    2.099986
  C      1.125446   -0.351379   -0.505038
  C      3.110246    1.102969    0.579284
  C      3.818648   -0.144094    0.089892
  H      3.751518    1.983005    0.517820
  H      2.769499    0.986080    1.608498
  H      4.340110    0.050754   -0.846430
  H      4.531170   -0.516054    0.827565
  S      1.699458    1.384816   -0.528656
  S      2.566158   -1.445587   -0.153915
  S     -4.535746   -0.173064   -0.748428
  H      0.784078   -0.563812   -1.518160

 Total Charge           Charge          ....    0
 Multiplicity           Mult            ....    2
 Number of Electrons    NEL             ....  103
 Basis Dimension        Dim             .... 1410

ORBITAL ENERGIES
----------------
                 SPIN UP ORBITALS
  NO   OCC          E(Eh)            E(eV)
   0   1.0000     -91.965725     -2502.5146
   1   1.0000     -91.952363     -2502.1510
   2   1.0000     -91.949208     -2502.0651
   3   1.0000     -11.291149      -307.2478
   4   1.0000     -11.269848      -306.6682
   5   1.0000     -11.267070      -306.5926
   6   1.0000     -11.263584      -306.4977
   7   1.0000     -11.231503      -305.6247
   8   1.0000     -11.231394      -305.6218
   9   1.0000     -11.223521      -305.4075
  10   1.0000      -8.967746      -244.0248
  11   1.0000      -8.954679      -243.6692
  12   1.0000      -8.951330      -243.5781
  13   1.0000      -6.663661      -181.3274
  14   1.0000      -6.645204      -180.8252
  15   1.0000      -6.643794      -180.7868
  16   1.0000      -6.636089      -180.5772
  17   1.0000      -6.635259      -180.5546
  18   1.0000      -6.634347      -180.5298
  19   1.0000      -6.632749      -180.4863
  20   1.0000      -6.631917      -180.4636
  21   1.0000      -6.631009      -180.4389
  22   1.0000      -1.141871       -31.0719
  23   1.0000      -1.103630       -30.0313
  24   1.0000      -1.057677       -28.7808
  25   1.0000      -0.994929       -27.0734
  26   1.0000      -0.978215       -26.6186
  27   1.0000      -0.923803       -25.1380
  28   1.0000      -0.851757       -23.1775
  29   1.0000      -0.805360       -21.9150
  30   1.0000      -0.787719       -21.4349
  31   1.0000      -0.767830       -20.8937
  32   1.0000      -0.665103       -18.0984
  33   1.0000      -0.646123       -17.5819
  34   1.0000      -0.627973       -17.0880
  35   1.0000      -0.621720       -16.9179
  36   1.0000      -0.606537       -16.5047
  37   1.0000      -0.566109       -15.4046
  38   1.0000      -0.555531       -15.1168
  39   1.0000      -0.545496       -14.8437
  40   1.0000      -0.539181       -14.6719
  41   1.0000      -0.504673       -13.7329
  42   1.0000      -0.493563       -13.4305
  43   1.0000      -0.479549       -13.0492
  44   1.0000      -0.468993       -12.7619
  45   1.0000      -0.464713       -12.6455
  46   1.0000      -0.461913       -12.5693
  47   1.0000      -0.424180       -11.5425
  48   1.0000      -0.414878       -11.2894
  49   1.0000      -0.367901       -10.0111
  50   1.0000      -0.351376        -9.5614
  51   1.0000      -0.344129        -9.3642
  52   0.0000       0.022658         0.6166
  53   0.0000       0.025971         0.7067
  54   0.0000       0.032834         0.8935
  55   0.0000       0.033665         0.9161
  56   0.0000       0.039534         1.0758

                 SPIN DOWN ORBITALS
  NO   OCC          E(Eh)            E(eV)
   0   1.0000     -91.956626     -2502.2670
   1   1.0000     -91.952363     -2502.1510
   2   1.0000     -91.949208     -2502.0652
   3   1.0000     -11.291144      -307.2477
   4   1.0000     -11.269848      -306.6682
   5   1.0000     -11.267070      -306.5926
   6   1.0000     -11.264614      -306.5257
   7   1.0000     -11.231518      -305.6251
   8   1.0000     -11.231346      -305.6205
   9   1.0000     -11.223445      -305.4055
  10   1.0000      -8.957729      -243.7522
  11   1.0000      -8.954679      -243.6692
  12   1.0000      -8.951331      -243.5781
  13   1.0000      -6.640103      -180.6864
  14   1.0000      -6.638529      -180.6435
  15   1.0000      -6.636089      -180.5772
  16   1.0000      -6.635259      -180.5546
  17   1.0000      -6.634347      -180.5298
  18   1.0000      -6.632750      -180.4863
  19   1.0000      -6.631917      -180.4636
  20   1.0000      -6.631009      -180.4389
  21   1.0000      -6.622633      -180.2110
  22   1.0000      -1.141761       -31.0689
  23   1.0000      -1.098341       -29.8874
  24   1.0000      -1.049540       -28.5594
  25   1.0000      -0.980526       -26.6815
  26   1.0000      -0.977772       -26.6065
  27   1.0000      -0.900454       -24.5026
  28   1.0000      -0.832622       -22.6568
  29   1.0000      -0.801295       -21.8043
  30   1.0000      -0.769393       -20.9363
  31   1.0000      -0.763086       -20.7646
  32   1.0000      -0.664098       -18.0710
  33   1.0000      -0.643467       -17.5096
  34   1.0000      -0.624381       -16.9903
  35   1.0000      -0.612988       -16.6802
  36   1.0000      -0.604346       -16.4451
  37   1.0000      -0.563299       -15.3281
  38   1.0000      -0.553755       -15.0684
  39   1.0000      -0.542267       -14.7558
  40   1.0000      -0.536001       -14.5853
  41   1.0000      -0.500712       -13.6251
  42   1.0000      -0.490002       -13.3336
  43   1.0000      -0.479231       -13.0405
  44   1.0000      -0.467600       -12.7240
  45   1.0000      -0.461554       -12.5595
  46   1.0000      -0.455068       -12.3830
  47   1.0000      -0.414946       -11.2912
  48   1.0000      -0.351729        -9.5710
  49   1.0000      -0.349284        -9.5045
  50   1.0000      -0.343547        -9.3484
  51   0.0000       0.020416         0.5555
  52   0.0000       0.022917         0.6236
  53   0.0000       0.026649         0.7252
  54   0.0000       0.033185         0.9030
  55   0.0000       0.034240         0.9317

MULLIKEN ATOMIC CHARGES AND SPIN POPULATIONS
--------------------------------------------
   0 C :   -0.342821   -0.002761
   1 H :    0.229869    0.000482
   2 H :    0.335815   -0.000224
   3 C :   -0.232139   -0.017805
   4 H :    0.306136   -0.001840
   5 C :   -0.449193   -0.200281
   6 H :    0.244978    0.045405
   7 H :    0.193538    0.002813
   8 H :    0.202712    0.023103
   9 C :   -0.496589    0.039584
  10 H :    0.288301   -0.002534
  11 H :    0.238567   -0.001925
  12 C :   -0.353372   -0.000213
  13 C :   -0.642364    0.000006
  14 C :   -0.595556   -0.000002
  15 H :    0.382612    0.000003
  16 H :    0.290148   -0.000026
  17 H :    0.244805   -0.000003
  18 H :    0.380262    0.000005
  19 S :   -0.158963   -0.000252
  20 S :   -0.186384   -0.000084
  21 S :   -0.216068    1.116598
  22 H :    0.335706   -0.000051
Sum of atomic charges         :   -0.0000000

LOEWDIN ATOMIC CHARGES AND SPIN POPULATIONS
-------------------------------------------
   0 C :    0.342793    0.000353
   1 H :   -0.301431    0.000099
   2 H :   -0.296546    0.000003
   3 C :    0.442994    0.007360
   4 H :   -0.301383    0.000486
   5 C :   -0.042104    0.183979
   6 H :   -0.393438    0.028293
   7 H :   -0.303476    0.009114
   8 H :   -0.389015    0.016965
   9 C :    0.403471    0.009218
  10 H :   -0.293887    0.000194
  11 H :   -0.270304    0.000104
  12 C :   -0.568506    0.000064
  13 C :    0.073092    0.000002
  14 C :    0.071684   -0.000002
  15 H :   -0.360944    0.000000
  16 H :   -0.355909    0.000005
  17 H :   -0.368569   -0.000001
  18 H :   -0.364558   -0.000000
  19 S :    1.324660   -0.000003
  20 S :    1.315055   -0.000008
  21 S :    1.084217    0.743736
  22 H :   -0.447895    0.000039

  Mayer bond orders larger than 0.100000
B(  0-C ,  1-H ) :   0.8460 B(  0-C ,  2-H ) :   0.7938 B(  0-C ,  3-C ) :   0.9421
B(  0-C , 12-C ) :   1.0811 B(  0-C , 20-S ) :  -0.1892 B(  3-C ,  4-H ) :   0.8515
B(  3-C ,  5-C ) :  -0.1111 B(  3-C ,  7-H ) :   0.9008 B(  3-C ,  9-C ) :   0.9439
B(  5-C ,  6-H ) :   0.9641 B(  5-C ,  8-H ) :   0.9527 B(  5-C ,  9-C ) :   1.0844
B(  5-C , 21-S ) :   0.8600 B(  9-C , 10-H ) :   0.8279 B(  9-C , 11-H ) :   0.8678
B( 12-C , 19-S ) :   0.7927 B( 12-C , 20-S ) :   0.9083 B( 12-C , 22-H ) :   0.8285
B( 13-C , 14-C ) :   1.0519 B( 13-C , 15-H ) :   0.7943 B( 13-C , 16-H ) :   0.8701
B( 13-C , 19-S ) :   0.9598 B( 14-C , 17-H ) :   0.9269 B( 14-C , 18-H ) :   0.7869
B( 14-C , 20-S ) :   0.9631

MP2 TOTAL ENERGY:    -1467.219135964 Eh
FINAL SINGLE POINT ENERGY     -1467.219135964180

DIPOLE MOMENT
-------------
                                X             Y             Z
Electronic contribution:     -0.22210      -1.25022      -6.35208
Nuclear contribution   :      0.79039       1.66043       7.26555
                        -----------------------------------------
Total Dipole Moment    :      0.56829       0.41021       0.91347
                        -----------------------------------------
Magnitude (a.u.)       :      1.15137
Magnitude (Debye)      :      2.92654

Rotational constants in cm-1:     0.068766     0.009818     0.009328
Rotational constants in MHz :  2061.551361   294.346673   279.656688

                             ****ORCA TERMINATED NORMALLY****
TOTAL RUN TIME: 0 days 3 hours 12 minutes 29 seconds 556 msec
