                         Program Version 4.2.1 -  RELEASE  -
|  1> %pal
|  2>  nprocs 32
|  3> end
|  4> !RI-MP2 aug-cc-pVQZ aug-cc-pVQZ/C TightSCF
|  5> %maxcore 4500
|  6> *xyzfile 0 2  04_19R.xyz
|  7>
|  8>
|  9>                          ****END OF INPUT****

CARTESIAN COORDINATES (ANGSTROEM)
---------------------------------
  C      0.395303    1.855468    0.619333
  H      0.000170    2.861360    0.451814
  C      2.446586    0.473977   -0.168162
  H      3.309131    0.605312   -0.828322
  H      0.917218    1.896365    1.582560
  H      2.816512    0.594008    0.852639
  C      1.401957    1.543875   -0.489656
  H      1.945262    2.472784   -0.688187
  H      0.877530    1.294153   -1.414968
  C     -0.827275    0.949479    0.783674
  C     -1.506426   -0.854884   -1.149339
  C     -1.413316   -1.664672    0.128996
  H     -2.315583   -1.214492   -1.785894
  H     -0.566582   -0.892910   -1.696079
  H     -2.396681   -1.832390    0.566339
  H     -0.922723   -2.624138   -0.041609
  S     -1.911457    0.856030   -0.690396
  S     -0.377446   -0.751122    1.312576
  S      1.964230   -1.251708   -0.429645
  H     -1.450481    1.369299    1.572081

 Total Charge           Charge          ....    0
 Multiplicity           Mult            ....    2
 Number of Electrons    NEL             ....   95
 Basis Dimension        Dim             .... 1238

ORBITAL ENERGIES
----------------
                 SPIN UP ORBITALS
  NO   OCC          E(Eh)            E(eV)
   0   1.0000     -91.957256     -2502.2842
   1   1.0000     -91.951803     -2502.1358
   2   1.0000     -91.946969     -2502.0042
   3   1.0000     -11.294738      -307.3454
   4   1.0000     -11.268684      -306.6365
   5   1.0000     -11.264390      -306.5196
   6   1.0000     -11.256019      -306.2918
   7   1.0000     -11.239269      -305.8361
   8   1.0000     -11.231380      -305.6214
   9   1.0000      -8.959992      -243.8138
  10   1.0000      -8.954088      -243.6531
  11   1.0000      -8.949424      -243.5262
  12   1.0000      -6.645099      -180.8223
  13   1.0000      -6.641701      -180.7299
  14   1.0000      -6.640903      -180.7082
  15   1.0000      -6.639808      -180.6784
  16   1.0000      -6.635528      -180.5619
  17   1.0000      -6.634684      -180.5389
  18   1.0000      -6.633776      -180.5142
  19   1.0000      -6.626780      -180.3238
  20   1.0000      -6.625473      -180.2883
  21   1.0000      -1.144246       -31.1365
  22   1.0000      -1.088467       -29.6187
  23   1.0000      -1.037502       -28.2319
  24   1.0000      -0.985068       -26.8051
  25   1.0000      -0.964730       -26.2517
  26   1.0000      -0.882586       -24.0164
  27   1.0000      -0.811123       -22.0718
  28   1.0000      -0.803676       -21.8691
  29   1.0000      -0.749125       -20.3847
  30   1.0000      -0.659167       -17.9368
  31   1.0000      -0.642977       -17.4963
  32   1.0000      -0.624133       -16.9835
  33   1.0000      -0.619862       -16.8673
  34   1.0000      -0.588405       -16.0113
  35   1.0000      -0.563091       -15.3225
  36   1.0000      -0.550124       -14.9696
  37   1.0000      -0.521540       -14.1918
  38   1.0000      -0.518212       -14.1013
  39   1.0000      -0.487473       -13.2648
  40   1.0000      -0.476649       -12.9703
  41   1.0000      -0.469006       -12.7623
  42   1.0000      -0.452337       -12.3087
  43   1.0000      -0.429998       -11.7008
  44   1.0000      -0.414102       -11.2683
  45   1.0000      -0.354729        -9.6527
  46   1.0000      -0.347740        -9.4625
  47   1.0000      -0.327685        -8.9168
  48   0.0000       0.024718         0.6726
  49   0.0000       0.027218         0.7407
  50   0.0000       0.030450         0.8286
  51   0.0000       0.036524         0.9939
  52   0.0000       0.042277         1.1504

                 SPIN DOWN ORBITALS
  NO   OCC          E(Eh)            E(eV)
   0   1.0000     -91.955670     -2502.2410
   1   1.0000     -91.951798     -2502.1356
   2   1.0000     -91.937656     -2501.7508
   3   1.0000     -11.294965      -307.3516
   4   1.0000     -11.268942      -306.6435
   5   1.0000     -11.264388      -306.5196
   6   1.0000     -11.257065      -306.3203
   7   1.0000     -11.239152      -305.8329
   8   1.0000     -11.231076      -305.6131
   9   1.0000      -8.958023      -243.7602
  10   1.0000      -8.954083      -243.6530
  11   1.0000      -8.939065      -243.2443
  12   1.0000      -6.639709      -180.6757
  13   1.0000      -6.638906      -180.6538
  14   1.0000      -6.636033      -180.5756
  15   1.0000      -6.635517      -180.5616
  16   1.0000      -6.634683      -180.5389
  17   1.0000      -6.633765      -180.5139
  18   1.0000      -6.621393      -180.1773
  19   1.0000      -6.619870      -180.1358
  20   1.0000      -6.604137      -179.7077
  21   1.0000      -1.142351       -31.0849
  22   1.0000      -1.084400       -29.5080
  23   1.0000      -1.026671       -27.9371
  24   1.0000      -0.980332       -26.6762
  25   1.0000      -0.947056       -25.7707
  26   1.0000      -0.857108       -23.3231
  27   1.0000      -0.803618       -21.8676
  28   1.0000      -0.778544       -21.1853
  29   1.0000      -0.744239       -20.2518
  30   1.0000      -0.656235       -17.8571
  31   1.0000      -0.639802       -17.4099
  32   1.0000      -0.618628       -16.8337
  33   1.0000      -0.616988       -16.7891
  34   1.0000      -0.585845       -15.9416
  35   1.0000      -0.557773       -15.1778
  36   1.0000      -0.546827       -14.8799
  37   1.0000      -0.517278       -14.0758
  38   1.0000      -0.511678       -13.9235
  39   1.0000      -0.481701       -13.1078
  40   1.0000      -0.475843       -12.9483
  41   1.0000      -0.467447       -12.7199
  42   1.0000      -0.443822       -12.0770
  43   1.0000      -0.416719       -11.3395
  44   1.0000      -0.355989        -9.6870
  45   1.0000      -0.344833        -9.3834
  46   1.0000      -0.332103        -9.0370
  47   0.0000       0.024741         0.6732
  48   0.0000       0.027240         0.7412
  49   0.0000       0.029813         0.8113
  50   0.0000       0.036554         0.9947
  51   0.0000       0.039782         1.0825

MULLIKEN ATOMIC CHARGES AND SPIN POPULATIONS
--------------------------------------------
   0 C :   -0.370549   -0.000624
   1 H :    0.279698    0.002135
   2 C :   -0.512658   -0.182233
   3 H :    0.287064    0.040208
   4 H :    0.284005   -0.000961
   5 H :    0.218563    0.013128
   6 C :   -0.383926    0.026173
   7 H :    0.283953   -0.001075
   8 H :    0.333431   -0.004627
   9 C :   -0.335644   -0.029499
  10 C :   -0.562787    0.002516
  11 C :   -0.659791   -0.021348
  12 H :    0.381300    0.001051
  13 H :    0.319611   -0.003637
  14 H :    0.322000   -0.001206
  15 H :    0.358543    0.000433
  16 S :   -0.187744    0.000030
  17 S :   -0.115091    0.092372
  18 S :   -0.274848    1.065289
  19 H :    0.334873    0.001875
Sum of atomic charges         :    0.0000000

LOEWDIN ATOMIC CHARGES AND SPIN POPULATIONS
-------------------------------------------
   0 C :    0.360666    0.000707
   1 H :   -0.298104    0.000447
   2 C :   -0.008429    0.146584
   3 H :   -0.401206    0.031870
   4 H :   -0.295583    0.000497
   5 H :   -0.388603    0.004483
   6 C :    0.400594    0.004896
   7 H :   -0.280918    0.000782
   8 H :   -0.331278   -0.000409
   9 C :   -0.542050    0.013414
  10 C :    0.061734   -0.001196
  11 C :    0.080100    0.009232
  12 H :   -0.358603   -0.000144
  13 H :   -0.431635   -0.001368
  14 H :   -0.360188    0.001039
  15 H :   -0.366433    0.000109
  16 S :    1.326659    0.000636
  17 S :    1.232420    0.105060
  18 S :    1.059115    0.680490
  19 H :   -0.458256    0.002871

  Mayer bond orders larger than 0.100000
B(  0-C ,  1-H ) :   0.9234 B(  0-C ,  4-H ) :   0.8946 B(  0-C ,  6-C ) :   0.8007
B(  0-C ,  9-C ) :   0.8233 B(  2-C ,  3-H ) :   0.9287 B(  2-C ,  5-H ) :   0.9675
B(  2-C ,  6-C ) :   0.9443 B(  2-C , 18-S ) :   0.8393 B(  6-C ,  7-H ) :   0.9403
B(  6-C ,  8-H ) :   0.8096 B(  9-C , 16-S ) :   0.8874 B(  9-C , 17-S ) :   0.9228
B(  9-C , 19-H ) :   0.8477 B( 10-C , 11-C ) :   1.0533 B( 10-C , 12-H ) :   0.8076
B( 10-C , 13-H ) :   0.8504 B( 10-C , 16-S ) :   0.9318 B( 11-C , 14-H ) :   0.8696
B( 11-C , 15-H ) :   0.8071 B( 11-C , 17-S ) :   0.9547 B( 17-S , 18-S ) :   0.1643

MP2 TOTAL ENERGY:    -1427.982784042 Eh
FINAL SINGLE POINT ENERGY     -1427.982784041788

DIPOLE MOMENT
-------------
                                X             Y             Z
Electronic contribution:     -2.31550      -4.16580       1.35317
Nuclear contribution   :      2.21242       4.54139      -1.42823
                        -----------------------------------------
Total Dipole Moment    :     -0.10308       0.37559      -0.07506
                        -----------------------------------------
Magnitude (a.u.)       :      0.39665
Magnitude (Debye)      :      1.00819

Rotational constants in cm-1:     0.045135     0.029772     0.024302
Rotational constants in MHz :  1353.109982   892.552587   728.566532

                             ****ORCA TERMINATED NORMALLY****
TOTAL RUN TIME: 0 days 2 hours 27 minutes 57 seconds 3 msec
