                         Program Version 4.2.1 -  RELEASE  -
|  1> %pal
|  2>  nprocs 32
|  3> end
|  4> !RI-MP2 aug-cc-pVQZ aug-cc-pVQZ/C TightSCF
|  5> %maxcore 4500
|  6> *xyzfile 0 2  01_23R.xyz
|  7>
|  8>
|  9>                          ****END OF INPUT****

CARTESIAN COORDINATES (ANGSTROEM)
---------------------------------
  C     -0.032803   -1.179687   -0.308029
  C     -0.582751    0.223476   -0.240587
  C      1.362941   -1.297987    0.298353
  C      2.253943   -0.154348   -0.175725
  C      1.675567    1.190243    0.260636
  C      0.192681    1.271210    0.025959
  C     -2.909826   -0.231497    0.581093
  C     -2.063213    0.368960   -0.488261
  H     -0.015937   -1.499535   -1.358356
  H     -0.726243   -1.859736    0.196401
  H      1.803643   -2.264975    0.043241
  H      1.286119   -1.263027    1.390700
  H      2.318841   -0.182099   -1.269024
  H      3.271521   -0.270442    0.205468
  H      2.174186    2.006802   -0.270612
  H      1.883587    1.359110    1.324932
  H     -3.921424   -0.557125    0.375077
  H     -2.574178   -0.222262    1.610786
  H     -2.300263    1.438266   -0.595355
  H     -2.319257   -0.085555   -1.453747
  H     -0.259830    2.258351    0.079849

 Total Charge           Charge          ....    0
 Multiplicity           Mult            ....    2
 Number of Electrons    NEL             ....   61
 Basis Dimension        Dim             .... 1238

ORBITAL ENERGIES
----------------
                 SPIN UP ORBITALS
  NO   OCC          E(Eh)            E(eV)
   0   1.0000     -11.226755      -305.4955
   1   1.0000     -11.222806      -305.3881
   2   1.0000     -11.222068      -305.3680
   3   1.0000     -11.216501      -305.2165
   4   1.0000     -11.215764      -305.1965
   5   1.0000     -11.213209      -305.1269
   6   1.0000     -11.212520      -305.1082
   7   1.0000     -11.209113      -305.0155
   8   1.0000      -1.128576       -30.7101
   9   1.0000      -1.057614       -28.7791
  10   1.0000      -0.999903       -27.2088
  11   1.0000      -0.978500       -26.6263
  12   1.0000      -0.859935       -23.4000
  13   1.0000      -0.834511       -22.7082
  14   1.0000      -0.793262       -21.5858
  15   1.0000      -0.690914       -18.8007
  16   1.0000      -0.653805       -17.7909
  17   1.0000      -0.609956       -16.5978
  18   1.0000      -0.606631       -16.5073
  19   1.0000      -0.593520       -16.1505
  20   1.0000      -0.580220       -15.7886
  21   1.0000      -0.550006       -14.9664
  22   1.0000      -0.531855       -14.4725
  23   1.0000      -0.520858       -14.1733
  24   1.0000      -0.515317       -14.0225
  25   1.0000      -0.503766       -13.7082
  26   1.0000      -0.462781       -12.5929
  27   1.0000      -0.447531       -12.1779
  28   1.0000      -0.432081       -11.7575
  29   1.0000      -0.349521        -9.5109
  30   1.0000      -0.333522        -9.0756
  31   0.0000       0.026772         0.7285
  32   0.0000       0.029254         0.7960
  33   0.0000       0.030891         0.8406
  34   0.0000       0.033060         0.8996
  35   0.0000       0.041786         1.1370

                 SPIN DOWN ORBITALS
  NO   OCC          E(Eh)            E(eV)
   0   1.0000     -11.225638      -305.4651
   1   1.0000     -11.220058      -305.3133
   2   1.0000     -11.216259      -305.2099
   3   1.0000     -11.215852      -305.1988
   4   1.0000     -11.213211      -305.1270
   5   1.0000     -11.212528      -305.1084
   6   1.0000     -11.211092      -305.0693
   7   1.0000     -11.202925      -304.8471
   8   1.0000      -1.126157       -30.6443
   9   1.0000      -1.044434       -28.4205
  10   1.0000      -1.001083       -27.2409
  11   1.0000      -0.953728       -25.9523
  12   1.0000      -0.846676       -23.0392
  13   1.0000      -0.815399       -22.1881
  14   1.0000      -0.774575       -21.0773
  15   1.0000      -0.689377       -18.7589
  16   1.0000      -0.650525       -17.7017
  17   1.0000      -0.607688       -16.5360
  18   1.0000      -0.593798       -16.1581
  19   1.0000      -0.585064       -15.9204
  20   1.0000      -0.578746       -15.7485
  21   1.0000      -0.544065       -14.8048
  22   1.0000      -0.528485       -14.3808
  23   1.0000      -0.515018       -14.0144
  24   1.0000      -0.507615       -13.8129
  25   1.0000      -0.496953       -13.5228
  26   1.0000      -0.462348       -12.5811
  27   1.0000      -0.446793       -12.1579
  28   1.0000      -0.430358       -11.7106
  29   1.0000      -0.333495        -9.0749
  30   0.0000       0.026871         0.7312
  31   0.0000       0.029436         0.8010
  32   0.0000       0.030768         0.8372
  33   0.0000       0.033238         0.9044
  34   0.0000       0.041808         1.1377

MULLIKEN ATOMIC CHARGES AND SPIN POPULATIONS
--------------------------------------------
   0 C :   -0.147141   -0.026677
   1 C :    0.203730    0.141963
   2 C :   -0.517863    0.001150
   3 C :   -0.502232   -0.001532
   4 C :   -0.407805    0.013439
   5 C :   -0.476276   -0.114434
   6 C :   -0.906142    1.260349
   7 C :   -0.360002   -0.234088
   8 H :    0.233192    0.003474
   9 H :    0.266508    0.000713
  10 H :    0.265899    0.000006
  11 H :    0.184817   -0.000197
  12 H :    0.144232    0.000429
  13 H :    0.278856    0.000342
  14 H :    0.242975   -0.003347
  15 H :    0.173989   -0.006187
  16 H :    0.378601   -0.081753
  17 H :    0.307597   -0.074688
  18 H :    0.219474    0.087229
  19 H :    0.205452    0.024015
  20 H :    0.212140    0.009793
Sum of atomic charges         :   -0.0000000

LOEWDIN ATOMIC CHARGES AND SPIN POPULATIONS
-------------------------------------------
   0 C :    0.499983    0.018753
   1 C :   -0.035637    0.035634
   2 C :    0.522341    0.001136
   3 C :    0.513053   -0.000331
   4 C :    0.506609   -0.009286
   5 C :    0.415441   -0.020471
   6 C :    0.859230    0.465867
   7 C :    0.433305    0.151170
   8 H :   -0.258322    0.002762
   9 H :   -0.282549    0.013474
  10 H :   -0.257655    0.000140
  11 H :   -0.260893    0.000192
  12 H :   -0.263604   -0.000055
  13 H :   -0.259339   -0.000009
  14 H :   -0.277272   -0.001436
  15 H :   -0.271055   -0.002202
  16 H :   -0.331789    0.152278
  17 H :   -0.329999    0.152404
  18 H :   -0.316241    0.033582
  19 H :   -0.293786    0.014776
  20 H :   -0.311822   -0.008376

  Mayer bond orders larger than 0.100000
B(  0-C ,  1-C ) :   0.4194 B(  0-C ,  2-C ) :   0.9674 B(  0-C ,  5-C ) :  -0.1136
B(  0-C ,  8-H ) :   0.9234 B(  0-C ,  9-H ) :   0.9375 B(  1-C ,  4-C ) :  -0.1811
B(  1-C ,  5-C ) :   1.6163 B(  1-C ,  6-C ) :  -0.1267 B(  1-C ,  7-C ) :   0.5938
B(  1-C , 18-H ) :  -0.1099 B(  2-C ,  3-C ) :   0.9190 B(  2-C , 10-H ) :   0.9542
B(  2-C , 11-H ) :   0.9776 B(  3-C ,  4-C ) :   0.9390 B(  3-C , 12-H ) :   1.0063
B(  3-C , 13-H ) :   0.9165 B(  4-C ,  5-C ) :   0.6834 B(  4-C , 14-H ) :   1.0347
B(  4-C , 15-H ) :   1.0120 B(  5-C ,  7-C ) :  -0.1001 B(  5-C , 14-H ) :  -0.1344
B(  5-C , 20-H ) :   1.0702 B(  6-C ,  7-C ) :   1.0813 B(  6-C , 16-H ) :   0.8813
B(  6-C , 17-H ) :   0.9160 B(  7-C , 18-H ) :   0.9775 B(  7-C , 19-H ) :   0.9767

MP2 TOTAL ENERGY:     -311.994743267 Eh
FINAL SINGLE POINT ENERGY      -311.994743266940

DIPOLE MOMENT
-------------
                                X             Y             Z
Electronic contribution:     -0.59774       1.15226      -0.33806
Nuclear contribution   :      0.65130      -1.19840       0.29310
                        -----------------------------------------
Total Dipole Moment    :      0.05356      -0.04615      -0.04496
                        -----------------------------------------
Magnitude (a.u.)       :      0.08378
Magnitude (Debye)      :      0.21295

Rotational constants in cm-1:     0.133460     0.046688     0.038301
Rotational constants in MHz :  4001.021924  1399.659448  1148.245496

                             ****ORCA TERMINATED NORMALLY****
TOTAL RUN TIME: 0 days 2 hours 0 minutes 30 seconds 802 msec
