                         Program Version 4.2.1 -  RELEASE  -
|  1> %pal
|  2>  nprocs 32
|  3> end
|  4> !RI-MP2 aug-cc-pVQZ aug-cc-pVQZ/C TightSCF
|  5> %maxcore 4500
|  6> *xyzfile 0 1  10_89TS.xyz
|  7>
|  8>
|  9>                          ****END OF INPUT****

CARTESIAN COORDINATES (ANGSTROEM)
---------------------------------
  O      1.282176   -0.244010    1.587089
  C      0.796093   -1.213083    0.904847
  C     -0.493446   -1.666873    1.002651
  C     -1.228014    0.392949   -0.087891
  C     -0.834505    1.168417    0.986616
  C      0.486320    1.574347    1.041684
  H     -1.109258   -1.383523    1.842052
  H     -0.810175   -2.484020    0.368380
  H     -1.480569    1.236408    1.851420
  H      0.855793    2.091240    1.917065
  C     -0.428160    0.375172   -1.314222
  C      0.727125    1.035377   -1.384248
  C      1.274503    1.805933   -0.222728
  H     -0.804647   -0.188419   -2.155965
  H      1.303321    1.055103   -2.301179
  H      2.316286    1.537238   -0.050236
  O      1.318615    3.205120   -0.502772
  H      0.443600    3.489766   -0.787465
  C      1.687357   -1.777714   -0.192475
  O      2.916902   -1.253690   -0.171265
  O      1.345711   -2.610827   -0.980873
  C     -2.630962   -0.123341   -0.093830
  O     -3.390908   -0.030614    0.831885
  O     -2.962119   -0.705853   -1.256164
  H      2.939112   -0.643462    0.587167
  H     -3.874359   -1.018443   -1.176870

 Total Charge           Charge          ....    0
 Multiplicity           Mult            ....    1
 Number of Electrons    NEL             ....  118
 Basis Dimension        Dim             .... 1740

ORBITAL ENERGIES
----------------

  NO   OCC          E(Eh)            E(eV)
   0   2.0000     -20.638726      -561.6083
   1   2.0000     -20.604006      -560.6635
   2   2.0000     -20.591502      -560.3233
   3   2.0000     -20.574814      -559.8691
   4   2.0000     -20.573707      -559.8390
   5   2.0000     -20.541612      -558.9657
   6   2.0000     -11.419375      -310.7370
   7   2.0000     -11.379929      -309.6636
   8   2.0000     -11.327032      -308.2242
   9   2.0000     -11.324751      -308.1621
  10   2.0000     -11.324057      -308.1433
  11   2.0000     -11.316567      -307.9395
  12   2.0000     -11.271133      -306.7031
  13   2.0000     -11.268474      -306.6308
  14   2.0000     -11.260259      -306.4072
  15   2.0000     -11.249929      -306.1261
  16   2.0000      -1.498728       -40.7825
  17   2.0000      -1.465864       -39.8882
  18   2.0000      -1.398919       -38.0665
  19   2.0000      -1.393217       -37.9114
  20   2.0000      -1.383367       -37.6433
  21   2.0000      -1.364425       -37.1279
  22   2.0000      -1.189775       -32.3754
  23   2.0000      -1.070206       -29.1218
  24   2.0000      -1.068889       -29.0859
  25   2.0000      -1.026960       -27.9450
  26   2.0000      -0.939608       -25.5680
  27   2.0000      -0.881717       -23.9928
  28   2.0000      -0.874283       -23.7904
  29   2.0000      -0.839797       -22.8520
  30   2.0000      -0.803940       -21.8763
  31   2.0000      -0.767637       -20.8885
  32   2.0000      -0.750732       -20.4284
  33   2.0000      -0.733285       -19.9537
  34   2.0000      -0.718725       -19.5575
  35   2.0000      -0.683710       -18.6047
  36   2.0000      -0.673588       -18.3293
  37   2.0000      -0.670324       -18.2404
  38   2.0000      -0.662804       -18.0358
  39   2.0000      -0.660278       -17.9671
  40   2.0000      -0.649102       -17.6630
  41   2.0000      -0.634987       -17.2789
  42   2.0000      -0.632130       -17.2011
  43   2.0000      -0.629683       -17.1345
  44   2.0000      -0.610143       -16.6028
  45   2.0000      -0.598272       -16.2798
  46   2.0000      -0.572775       -15.5860
  47   2.0000      -0.556957       -15.1556
  48   2.0000      -0.553409       -15.0590
  49   2.0000      -0.526489       -14.3265
  50   2.0000      -0.518849       -14.1186
  51   2.0000      -0.515372       -14.0240
  52   2.0000      -0.489153       -13.3105
  53   2.0000      -0.486841       -13.2476
  54   2.0000      -0.481444       -13.1008
  55   2.0000      -0.460531       -12.5317
  56   2.0000      -0.432673       -11.7736
  57   2.0000      -0.371077       -10.0975
  58   2.0000      -0.333408        -9.0725
  59   0.0000      -0.005012        -0.1364
  60   0.0000       0.018547         0.5047
  61   0.0000       0.024979         0.6797
  62   0.0000       0.028693         0.7808
  63   0.0000       0.033096         0.9006

MULLIKEN ATOMIC CHARGES
-----------------------
   0 O :   -1.205136
   1 C :    0.454915
   2 C :   -0.624274
   3 C :    0.220977
   4 C :   -0.436009
   5 C :    0.048080
   6 H :    0.428791
   7 H :    0.289553
   8 H :    0.250016
   9 H :    0.422786
  10 C :   -0.599689
  11 C :   -0.361709
  12 C :    0.761583
  13 H :    0.221960
  14 H :    0.221447
  15 H :    0.314502
  16 O :   -1.061951
  17 H :    0.345936
  18 C :    1.468610
  19 O :   -0.990977
  20 O :   -0.880900
  21 C :    1.619794
  22 O :   -0.924887
  23 O :   -0.811799
  24 H :    0.501135
  25 H :    0.327244
Sum of atomic charges:    0.0000000

LOEWDIN ATOMIC CHARGES
----------------------
   0 O :    0.820883
   1 C :   -0.698817
   2 C :    0.691398
   3 C :   -0.208797
   4 C :    0.302930
   5 C :    0.215284
   6 H :   -0.339314
   7 H :   -0.330339
   8 H :   -0.312054
   9 H :   -0.265694
  10 C :    0.346996
  11 C :    0.383895
  12 C :   -0.238767
  13 H :   -0.328821
  14 H :   -0.279315
  15 H :   -0.342646
  16 O :    1.305397
  17 H :   -0.777764
  18 C :   -1.101208
  19 O :    1.257460
  20 O :    0.684649
  21 C :   -1.054785
  22 O :    0.746809
  23 O :    1.274679
  24 H :   -0.968531
  25 H :   -0.783527

  Mayer bond orders larger than 0.100000
B(  0-O ,  1-C ) :   0.5915 B(  0-O , 12-C ) :   0.1815 B(  0-O , 18-C ) :   0.1005
B(  1-C ,  2-C ) :   1.2511 B(  1-C ,  6-H ) :  -0.1139 B(  1-C , 18-C ) :   1.1494
B(  1-C , 19-O ) :   0.1269 B(  1-C , 20-O ) :   0.1762 B(  2-C ,  4-C ) :   0.1186
B(  2-C ,  6-H ) :   0.8657 B(  2-C ,  7-H ) :   1.0087 B(  3-C ,  4-C ) :   0.8415
B(  3-C ,  5-C ) :  -0.1117 B(  3-C ,  8-H ) :  -0.1266 B(  3-C , 10-C ) :   0.6766
B(  3-C , 21-C ) :   1.4484 B(  3-C , 22-O ) :   0.4029 B(  4-C ,  5-C ) :   1.2424
B(  4-C ,  8-H ) :   1.0189 B(  4-C ,  9-H ) :  -0.1219 B(  4-C , 15-H ) :   0.1012
B(  4-C , 21-C ) :  -0.2499 B(  4-C , 22-O ) :  -0.1114 B(  5-C ,  9-H ) :   0.8982
B(  5-C , 12-C ) :   0.9252 B(  5-C , 16-O ) :   0.1950 B( 10-C , 11-C ) :   1.7053
B( 10-C , 13-H ) :   1.0679 B( 10-C , 14-H ) :  -0.1534 B( 10-C , 21-C ) :  -0.2571
B( 11-C , 12-C ) :   0.7731 B( 11-C , 14-H ) :   1.1436 B( 11-C , 16-O ) :   0.2258
B( 12-C , 15-H ) :   0.9485 B( 12-C , 16-O ) :  -0.2571 B( 16-O , 17-H ) :   0.8807
B( 18-C , 19-O ) :   0.5577 B( 18-C , 20-O ) :   1.1985 B( 19-O , 20-O ) :   0.1661
B( 19-O , 24-H ) :   0.6918 B( 21-C , 22-O ) :   0.7942 B( 21-C , 23-O ) :   0.6767
B( 22-O , 23-O ) :   0.2128 B( 23-O , 25-H ) :   0.9244

MP2 TOTAL ENERGY:     -837.207674609 Eh
FINAL SINGLE POINT ENERGY      -837.207674609133

DIPOLE MOMENT
-------------
                                X             Y             Z
Electronic contribution:     -0.87382      -2.36156      -0.14705
Nuclear contribution   :     -0.20855       3.59194       0.08486
                        -----------------------------------------
Total Dipole Moment    :     -1.08236       1.23038      -0.06218
                        -----------------------------------------
Magnitude (a.u.)       :      1.63988
Magnitude (Debye)      :      4.16826

Rotational constants in cm-1:     0.022768     0.017248     0.013015
Rotational constants in MHz :   682.569378   517.090494   390.182609

                             ****ORCA TERMINATED NORMALLY****
TOTAL RUN TIME: 0 days 2 hours 57 minutes 41 seconds 529 msec
