                         Program Version 4.2.1 -  RELEASE  -
|  1> %pal
|  2>  nprocs 32
|  3> end
|  4> !RI-MP2 aug-cc-pVQZ aug-cc-pVQZ/C TightSCF
|  5> %maxcore 4500
|  6> *xyzfile 0 1  10_55R.xyz
|  7>
|  8>
|  9>                          ****END OF INPUT****

CARTESIAN COORDINATES (ANGSTROEM)
---------------------------------
  S     -1.232660   -0.235035    0.141959
  C     -0.254425   -1.390641   -0.934291
  C      0.857753   -2.243894   -0.272366
  C      1.767207   -1.315069    0.482543
  C      1.312009    1.806067   -0.440986
  C      0.011509    2.410494   -0.011708
  C     -1.119820    1.487319   -0.504020
  C      2.361568   -0.302604   -0.155653
  C      2.004770    1.009206    0.377326
  O     -0.713826   -0.245790    1.507598
  O     -2.625117   -0.605475   -0.107077
  H     -1.039831   -2.011181   -1.364814
  H      0.170658   -0.769919   -1.722763
  H      1.363440   -2.769860   -1.088104
  H      0.417691   -2.995874    0.381908
  H     -0.182987    3.398897   -0.439597
  H     -0.038671    2.498928    1.074460
  H     -1.126804    1.395083   -1.592004
  H     -2.099500    1.862508   -0.202594
  H      1.426792    1.668785   -1.515614
  H      1.843284    1.075536    1.448498
  H      2.537500   -0.364787   -1.227993
  H      1.519093   -1.182700    1.528029

 Total Charge           Charge          ....    0
 Multiplicity           Mult            ....    1
 Number of Electrons    NEL             ....   92
 Basis Dimension        Dim             .... 1436

ORBITAL ENERGIES
----------------

  NO   OCC          E(Eh)            E(eV)
   0   2.0000     -92.169005     -2508.0461
   1   2.0000     -20.539291      -558.9025
   2   2.0000     -20.534083      -558.7608
   3   2.0000     -11.285212      -307.0862
   4   2.0000     -11.283029      -307.0268
   5   2.0000     -11.261681      -306.4459
   6   2.0000     -11.257051      -306.3199
   7   2.0000     -11.253692      -306.2285
   8   2.0000     -11.248032      -306.0745
   9   2.0000     -11.238296      -305.8096
  10   2.0000     -11.236365      -305.7570
  11   2.0000      -9.138988      -248.6845
  12   2.0000      -6.823830      -185.6859
  13   2.0000      -6.823692      -185.6821
  14   2.0000      -6.823119      -185.6665
  15   2.0000      -1.435887       -39.0725
  16   2.0000      -1.326836       -36.1051
  17   2.0000      -1.147371       -31.2216
  18   2.0000      -1.104105       -30.0442
  19   2.0000      -1.070794       -29.1378
  20   2.0000      -0.989679       -26.9305
  21   2.0000      -0.956446       -26.0262
  22   2.0000      -0.869984       -23.6735
  23   2.0000      -0.813924       -22.1480
  24   2.0000      -0.780813       -21.2470
  25   2.0000      -0.763407       -20.7734
  26   2.0000      -0.700159       -19.0523
  27   2.0000      -0.660934       -17.9849
  28   2.0000      -0.650351       -17.6970
  29   2.0000      -0.646419       -17.5900
  30   2.0000      -0.641762       -17.4632
  31   2.0000      -0.626495       -17.0478
  32   2.0000      -0.593772       -16.1573
  33   2.0000      -0.587673       -15.9914
  34   2.0000      -0.582687       -15.8557
  35   2.0000      -0.559297       -15.2192
  36   2.0000      -0.547586       -14.9006
  37   2.0000      -0.527489       -14.3537
  38   2.0000      -0.520433       -14.1617
  39   2.0000      -0.503004       -13.6874
  40   2.0000      -0.483992       -13.1701
  41   2.0000      -0.482026       -13.1166
  42   2.0000      -0.463503       -12.6126
  43   2.0000      -0.427890       -11.6435
  44   2.0000      -0.424362       -11.5475
  45   2.0000      -0.301127        -8.1941
  46   0.0000       0.018570         0.5053
  47   0.0000       0.024711         0.6724
  48   0.0000       0.032115         0.8739
  49   0.0000       0.032838         0.8936
  50   0.0000       0.042454         1.1552

MULLIKEN ATOMIC CHARGES
-----------------------
   0 S :    2.707718
   1 C :   -0.432865
   2 C :   -0.598903
   3 C :   -0.248688
   4 C :   -0.270922
   5 C :   -0.448102
   6 C :   -0.612443
   7 C :   -0.429066
   8 C :   -0.397717
   9 O :   -1.396729
  10 O :   -1.522204
  11 H :    0.315530
  12 H :    0.304805
  13 H :    0.272338
  14 H :    0.247465
  15 H :    0.302211
  16 H :    0.216812
  17 H :    0.286009
  18 H :    0.319152
  19 H :    0.228094
  20 H :    0.430973
  21 H :    0.397566
  22 H :    0.328966
Sum of atomic charges:    0.0000000

LOEWDIN ATOMIC CHARGES
----------------------
   0 S :   -0.081454
   1 C :    0.468073
   2 C :    0.494620
   3 C :    0.337937
   4 C :    0.353508
   5 C :    0.479489
   6 C :    0.447634
   7 C :    0.344258
   8 C :    0.339917
   9 O :    0.340950
  10 O :    0.315882
  11 H :   -0.342741
  12 H :   -0.345211
  13 H :   -0.277123
  14 H :   -0.279182
  15 H :   -0.273192
  16 H :   -0.303541
  17 H :   -0.317305
  18 H :   -0.343239
  19 H :   -0.323964
  20 H :   -0.332393
  21 H :   -0.328858
  22 H :   -0.374064

  Mayer bond orders larger than 0.100000
B(  0-S ,  1-C ) :   0.8725 B(  0-S ,  6-C ) :   1.0188 B(  0-S ,  9-O ) :   0.7289
B(  0-S , 10-O ) :   0.6541 B(  1-C ,  2-C ) :   0.8475 B(  1-C ,  9-O ) :  -0.1241
B(  1-C , 11-H ) :   0.8895 B(  1-C , 12-H ) :   0.8514 B(  2-C ,  3-C ) :   0.8369
B(  2-C , 13-H ) :   0.9649 B(  2-C , 14-H ) :   0.9789 B(  3-C ,  7-C ) :   1.8509
B(  3-C ,  8-C ) :  -0.2177 B(  3-C , 22-H ) :   0.8638 B(  4-C ,  5-C ) :   0.7562
B(  4-C ,  7-C ) :  -0.2674 B(  4-C ,  8-C ) :   1.7420 B(  4-C , 15-H ) :  -0.1203
B(  4-C , 19-H ) :   1.0172 B(  5-C ,  6-C ) :   0.8851 B(  5-C , 15-H ) :   0.9159
B(  5-C , 16-H ) :   0.9937 B(  6-C , 17-H ) :   0.8624 B(  6-C , 18-H ) :   0.8923
B(  7-C ,  8-C ) :   1.0282 B(  7-C , 21-H ) :   0.8530 B(  8-C , 20-H ) :   0.8488
B(  9-O , 10-O ) :   0.1559

MP2 TOTAL ENERGY:     -859.408364947 Eh
FINAL SINGLE POINT ENERGY      -859.408364946660

DIPOLE MOMENT
-------------
                                X             Y             Z
Electronic contribution:     -3.98881      -1.45877       3.35451
Nuclear contribution   :      4.79106       1.80490      -4.71765
                        -----------------------------------------
Total Dipole Moment    :      0.80225       0.34613      -1.36314
                        -----------------------------------------
Magnitude (a.u.)       :      1.61913
Magnitude (Debye)      :      4.11549

Rotational constants in cm-1:     0.043375     0.036164     0.024060
Rotational constants in MHz :  1300.339701  1084.165332   721.290627

                             ****ORCA TERMINATED NORMALLY****
TOTAL RUN TIME: 0 days 1 hours 35 minutes 31 seconds 361 msec
