                         Program Version 4.2.1 -  RELEASE  -
|  1> %pal
|  2>  nprocs 32
|  3> end
|  4> !RI-MP2 aug-cc-pVQZ aug-cc-pVQZ/C TightSCF
|  5> %maxcore 4500
|  6> *xyzfile 0 2  01_30P.xyz
|  7>
|  8>
|  9>                          ****END OF INPUT****

CARTESIAN COORDINATES (ANGSTROEM)
---------------------------------
  C      0.697063    0.000359    0.609280
  C      0.560062    0.000316    2.061087
  H      1.448630    0.000685    2.678513
  H     -0.391951   -0.000077    2.568154
  C     -0.343725   -0.753690   -0.255468
  C     -0.344472    0.753342   -0.255486
  C      0.127014    1.522570   -1.474199
  H      0.922825    1.036346   -2.031138
  H      0.488367    2.511426   -1.178426
  H     -0.709153    1.673139   -2.163838
  C     -1.459367    1.515875    0.432620
  H     -2.300860    1.648776   -0.253848
  H     -1.109111    2.510233    0.722364
  H     -1.839554    1.033246    1.328277
  C     -1.457854   -1.517319    0.432663
  H     -1.838467   -1.035083    1.328352
  H     -1.106620   -2.511344    0.722368
  H     -2.299247   -1.651019   -0.253772
  C      0.128523   -1.522480   -1.474161
  H      0.923750   -1.035414   -2.031198
  H     -0.707529   -1.674018   -2.163727
  H      0.490989   -2.510918   -1.178350
  C      2.158066    0.001069    0.190922
  H      2.661806    0.883662    0.593364
  H      2.311566    0.001053   -0.884156
  H      2.662698   -0.880946    0.593512

 Total Charge           Charge          ....    0
 Multiplicity           Mult            ....    2
 Number of Electrons    NEL             ....   71
 Basis Dimension        Dim             .... 1502

ORBITAL ENERGIES
----------------
                 SPIN UP ORBITALS
  NO   OCC          E(Eh)            E(eV)
   0   1.0000     -11.231100      -305.6138
   1   1.0000     -11.230399      -305.5947
   2   1.0000     -11.226003      -305.4751
   3   1.0000     -11.218534      -305.2718
   4   1.0000     -11.209567      -305.0278
   5   1.0000     -11.209561      -305.0277
   6   1.0000     -11.209118      -305.0156
   7   1.0000     -11.208240      -304.9917
   8   1.0000     -11.208234      -304.9915
   9   1.0000      -1.171806       -31.8865
  10   1.0000      -1.019649       -27.7461
  11   1.0000      -1.016890       -27.6710
  12   1.0000      -0.957931       -26.0666
  13   1.0000      -0.914546       -24.8861
  14   1.0000      -0.913485       -24.8572
  15   1.0000      -0.901716       -24.5369
  16   1.0000      -0.706892       -19.2355
  17   1.0000      -0.703056       -19.1311
  18   1.0000      -0.655915       -17.8483
  19   1.0000      -0.617191       -16.7946
  20   1.0000      -0.611681       -16.6447
  21   1.0000      -0.599324       -16.3084
  22   1.0000      -0.555822       -15.1247
  23   1.0000      -0.552116       -15.0239
  24   1.0000      -0.540691       -14.7129
  25   1.0000      -0.540295       -14.7022
  26   1.0000      -0.537544       -14.6273
  27   1.0000      -0.527074       -14.3424
  28   1.0000      -0.527011       -14.3407
  29   1.0000      -0.515848       -14.0369
  30   1.0000      -0.512406       -13.9433
  31   1.0000      -0.470419       -12.8008
  32   1.0000      -0.457390       -12.4462
  33   1.0000      -0.428342       -11.6558
  34   1.0000      -0.379378       -10.3234
  35   1.0000      -0.299284        -8.1439
  36   0.0000       0.023508         0.6397
  37   0.0000       0.029085         0.7914
  38   0.0000       0.029435         0.8010
  39   0.0000       0.029444         0.8012
  40   0.0000       0.042521         1.1570

                 SPIN DOWN ORBITALS
  NO   OCC          E(Eh)            E(eV)
   0   1.0000     -11.230744      -305.6041
   1   1.0000     -11.227999      -305.5294
   2   1.0000     -11.227363      -305.5121
   3   1.0000     -11.209631      -305.0296
   4   1.0000     -11.209626      -305.0294
   5   1.0000     -11.208754      -305.0057
   6   1.0000     -11.208436      -304.9970
   7   1.0000     -11.208430      -304.9969
   8   1.0000     -11.195930      -304.6568
   9   1.0000      -1.164186       -31.6791
  10   1.0000      -1.014020       -27.5929
  11   1.0000      -1.006057       -27.3762
  12   1.0000      -0.950897       -25.8752
  13   1.0000      -0.914369       -24.8812
  14   1.0000      -0.905482       -24.6394
  15   1.0000      -0.858710       -23.3667
  16   1.0000      -0.697263       -18.9735
  17   1.0000      -0.695174       -18.9167
  18   1.0000      -0.652622       -17.7588
  19   1.0000      -0.613691       -16.6994
  20   1.0000      -0.607899       -16.5418
  21   1.0000      -0.592813       -16.1313
  22   1.0000      -0.551855       -15.0167
  23   1.0000      -0.548991       -14.9388
  24   1.0000      -0.540421       -14.7056
  25   1.0000      -0.539910       -14.6917
  26   1.0000      -0.535575       -14.5737
  27   1.0000      -0.524462       -14.2713
  28   1.0000      -0.524424       -14.2703
  29   1.0000      -0.514456       -13.9991
  30   1.0000      -0.511999       -13.9322
  31   1.0000      -0.466147       -12.6845
  32   1.0000      -0.456050       -12.4098
  33   1.0000      -0.374147       -10.1811
  34   1.0000      -0.370690       -10.0870
  35   0.0000       0.023638         0.6432
  36   0.0000       0.029167         0.7937
  37   0.0000       0.029262         0.7962
  38   0.0000       0.029621         0.8060
  39   0.0000       0.042272         1.1503

MULLIKEN ATOMIC CHARGES AND SPIN POPULATIONS
--------------------------------------------
   0 C :    0.864011   -0.407980
   1 C :   -1.056014    1.301868
   2 H :    0.199039   -0.110539
   3 H :    0.171254   -0.069037
   4 C :    1.704474    0.125214
   5 C :    1.706983    0.125134
   6 C :   -1.240481    0.000257
   7 H :    0.176884    0.001735
   8 H :    0.160875    0.000660
   9 H :    0.147062    0.010922
  10 C :   -1.253090   -0.003894
  11 H :    0.150134    0.001900
  12 H :    0.162438   -0.000221
  13 H :    0.178728    0.009370
  14 C :   -1.252063   -0.003860
  15 H :    0.179025    0.009348
  16 H :    0.162374   -0.000197
  17 H :    0.150701    0.001890
  18 C :   -1.240282    0.000255
  19 H :    0.176969    0.001736
  20 H :    0.146876    0.010969
  21 H :    0.161055    0.000665
  22 C :   -1.137630    0.008462
  23 H :    0.205144   -0.005241
  24 H :    0.170386   -0.004187
  25 H :    0.205146   -0.005228
Sum of atomic charges         :    0.0000000

LOEWDIN ATOMIC CHARGES AND SPIN POPULATIONS
-------------------------------------------
   0 C :   -0.221762    0.118978
   1 C :    0.866862    0.431807
   2 H :   -0.317363    0.147742
   3 H :   -0.344850    0.147318
   4 C :   -0.206934    0.044945
   5 C :   -0.206937    0.044938
   6 C :    0.937014    0.009295
   7 H :   -0.326661    0.000554
   8 H :   -0.256047    0.000746
   9 H :   -0.256383    0.003025
  10 C :    0.931238    0.011189
  11 H :   -0.256153    0.000813
  12 H :   -0.258327    0.001290
  13 H :   -0.331189    0.002075
  14 C :    0.931239    0.011192
  15 H :   -0.331187    0.002077
  16 H :   -0.258328    0.001289
  17 H :   -0.256153    0.000813
  18 C :    0.937012    0.009297
  19 H :   -0.326660    0.000554
  20 H :   -0.256388    0.003025
  21 H :   -0.256043    0.000747
  22 C :    0.916339    0.004827
  23 H :   -0.260194    0.000794
  24 H :   -0.331942   -0.000125
  25 H :   -0.260202    0.000793

  Mayer bond orders larger than 0.100000
B(  0-C ,  1-C ) :   0.2832 B(  0-C ,  2-H ) :  -0.1295 B(  0-C ,  3-H ) :  -0.1337
B(  0-C ,  4-C ) :   0.4911 B(  0-C ,  5-C ) :   0.4911 B(  0-C , 10-C ) :   0.1114
B(  0-C , 14-C ) :   0.1118 B(  0-C , 22-C ) :   0.2344 B(  0-C , 23-H ) :  -0.2247
B(  0-C , 24-H ) :  -0.1575 B(  0-C , 25-H ) :  -0.2248 B(  1-C ,  2-H ) :   1.1252
B(  1-C ,  3-H ) :   1.2449 B(  4-C ,  5-C ) :   0.2677 B(  4-C , 14-C ) :  -0.1628
B(  4-C , 15-H ) :  -0.1629 B(  4-C , 16-H ) :  -0.3080 B(  4-C , 17-H ) :  -0.3083
B(  4-C , 18-C ) :  -0.1029 B(  4-C , 19-H ) :  -0.1679 B(  4-C , 20-H ) :  -0.3039
B(  4-C , 21-H ) :  -0.3023 B(  5-C ,  6-C ) :  -0.1033 B(  5-C ,  7-H ) :  -0.1682
B(  5-C ,  8-H ) :  -0.3023 B(  5-C ,  9-H ) :  -0.3040 B(  5-C , 10-C ) :  -0.1649
B(  5-C , 11-H ) :  -0.3091 B(  5-C , 12-H ) :  -0.3084 B(  5-C , 13-H ) :  -0.1630
B(  6-C ,  7-H ) :   1.1711 B(  6-C ,  8-H ) :   1.2420 B(  6-C ,  9-H ) :   1.2445
B( 10-C , 11-H ) :   1.2542 B( 10-C , 12-H ) :   1.2441 B( 10-C , 13-H ) :   1.1595
B( 14-C , 15-H ) :   1.1588 B( 14-C , 16-H ) :   1.2439 B( 14-C , 17-H ) :   1.2532
B( 18-C , 19-H ) :   1.1709 B( 18-C , 20-H ) :   1.2446 B( 18-C , 21-H ) :   1.2417
B( 22-C , 23-H ) :   1.1471 B( 22-C , 24-H ) :   1.1230 B( 22-C , 25-H ) :   1.1471

MP2 TOTAL ENERGY:     -352.422702880 Eh
FINAL SINGLE POINT ENERGY      -352.422702879727

DIPOLE MOMENT
-------------
                                X             Y             Z
Electronic contribution:      0.38078       0.00025       1.57364
Nuclear contribution   :     -0.41723      -0.00027      -1.70737
                        -----------------------------------------
Total Dipole Moment    :     -0.03645      -0.00002      -0.13373
                        -----------------------------------------
Magnitude (a.u.)       :      0.13861
Magnitude (Debye)      :      0.35232

Rotational constants in cm-1:     0.052706     0.052521     0.050636
Rotational constants in MHz :  1580.089819  1574.543809  1518.036277

                             ****ORCA TERMINATED NORMALLY****
TOTAL RUN TIME: 0 days 2 hours 38 minutes 0 seconds 23 msec
