                         Program Version 4.2.1 -  RELEASE  -
|  1> %pal
|  2>  nprocs 32
|  3> end
|  4> !RI-MP2 aug-cc-pVQZ aug-cc-pVQZ/C TightSCF
|  5> %maxcore 4500
|  6> *xyzfile 0 1  10_90TS.xyz
|  7>
|  8>
|  9>                          ****END OF INPUT****

CARTESIAN COORDINATES (ANGSTROEM)
---------------------------------
  C      0.676492    1.821733   -0.634720
  C     -0.618164    1.967859   -0.248788
  C     -1.506869    0.858938   -0.144540
  C     -1.008736   -0.389332   -0.460607
  C      0.340199   -0.593489   -0.815323
  C      1.207434    0.530538   -0.990160
  C     -2.894279    0.958364    0.247346
  C     -3.109043   -1.472940   -0.023351
  C     -3.639732   -0.165496    0.299514
  O     -1.773993   -1.505170   -0.401615
  O     -3.702561   -2.514190    0.007556
  O      2.417149    0.366035   -1.313969
  C      3.483320   -0.324850    0.480248
  C      2.591180   -1.363388    0.715258
  C      1.294217   -1.172354    1.141933
  C      4.780863   -0.607115   -0.200047
  C      3.399648    0.990634    1.183892
  C     -3.483062    2.293314    0.586713
  H      1.335685    2.675170   -0.729958
  H     -0.994296    2.956748   -0.017499
  H      0.617127   -1.543454   -1.248192
  H     -4.681780   -0.149679    0.587514
  H      2.842980   -2.330160    0.292330
  H      0.989135   -0.268416    1.651062
  H      0.635955   -2.021680    1.271426
  H      4.961603    0.151131   -0.962790
  H      5.601634   -0.557236    0.523321
  H      4.786358   -1.587752   -0.673281
  H      2.379341    1.293738    1.409245
  H      3.944089    0.915204    2.131343
  H      3.868359    1.771512    0.586165
  H     -2.945628    2.756378    1.417761
  H     -3.415314    2.974653   -0.264762
  H     -4.530821    2.195938    0.866335

 Total Charge           Charge          ....    0
 Multiplicity           Mult            ....    1
 Number of Electrons    NEL             ....  130
 Basis Dimension        Dim             .... 2176

ORBITAL ENERGIES
----------------

  NO   OCC          E(Eh)            E(eV)
   0   2.0000     -20.620302      -561.1070
   1   2.0000     -20.525874      -558.5374
   2   2.0000     -20.514976      -558.2409
   3   2.0000     -11.375833      -309.5522
   4   2.0000     -11.325854      -308.1922
   5   2.0000     -11.315629      -307.9139
   6   2.0000     -11.299491      -307.4748
   7   2.0000     -11.295706      -307.3718
   8   2.0000     -11.284266      -307.0605
   9   2.0000     -11.257158      -306.3228
  10   2.0000     -11.245396      -306.0028
  11   2.0000     -11.241987      -305.9100
  12   2.0000     -11.239938      -305.8543
  13   2.0000     -11.237318      -305.7830
  14   2.0000     -11.235085      -305.7222
  15   2.0000     -11.232157      -305.6425
  16   2.0000     -11.230062      -305.5855
  17   2.0000     -11.225205      -305.4533
  18   2.0000      -1.472236       -40.0616
  19   2.0000      -1.367499       -37.2115
  20   2.0000      -1.345813       -36.6214
  21   2.0000      -1.167778       -31.7769
  22   2.0000      -1.139876       -31.0176
  23   2.0000      -1.115057       -30.3422
  24   2.0000      -1.046106       -28.4660
  25   2.0000      -1.025607       -27.9082
  26   2.0000      -0.992877       -27.0176
  27   2.0000      -0.988700       -26.9039
  28   2.0000      -0.970471       -26.4079
  29   2.0000      -0.881459       -23.9857
  30   2.0000      -0.873554       -23.7706
  31   2.0000      -0.849732       -23.1224
  32   2.0000      -0.826619       -22.4934
  33   2.0000      -0.746636       -20.3170
  34   2.0000      -0.737040       -20.0559
  35   2.0000      -0.725821       -19.7506
  36   2.0000      -0.698708       -19.0128
  37   2.0000      -0.677521       -18.4363
  38   2.0000      -0.662196       -18.0193
  39   2.0000      -0.650217       -17.6933
  40   2.0000      -0.644704       -17.5433
  41   2.0000      -0.635572       -17.2948
  42   2.0000      -0.630006       -17.1433
  43   2.0000      -0.620132       -16.8747
  44   2.0000      -0.599297       -16.3077
  45   2.0000      -0.597901       -16.2697
  46   2.0000      -0.593528       -16.1507
  47   2.0000      -0.582588       -15.8530
  48   2.0000      -0.573170       -15.5968
  49   2.0000      -0.559811       -15.2332
  50   2.0000      -0.558483       -15.1971
  51   2.0000      -0.550561       -14.9815
  52   2.0000      -0.548622       -14.9288
  53   2.0000      -0.533660       -14.5216
  54   2.0000      -0.527221       -14.3464
  55   2.0000      -0.517321       -14.0770
  56   2.0000      -0.508917       -13.8483
  57   2.0000      -0.506454       -13.7813
  58   2.0000      -0.468650       -12.7526
  59   2.0000      -0.444010       -12.0821
  60   2.0000      -0.422634       -11.5005
  61   2.0000      -0.404984       -11.0202
  62   2.0000      -0.390120       -10.6157
  63   2.0000      -0.321194        -8.7401
  64   2.0000      -0.284015        -7.7284
  65   0.0000       0.016053         0.4368
  66   0.0000       0.020662         0.5622
  67   0.0000       0.026405         0.7185
  68   0.0000       0.027989         0.7616
  69   0.0000       0.033968         0.9243

MULLIKEN ATOMIC CHARGES
-----------------------
   0 C :   -0.571579
   1 C :   -0.618434
   2 C :    0.025369
   3 C :    1.216736
   4 C :   -0.548061
   5 C :    1.833981
   6 C :    0.574991
   7 C :    1.314176
   8 C :   -1.166262
   9 O :   -0.873716
  10 O :   -0.936399
  11 O :   -1.299603
  12 C :    1.139972
  13 C :   -0.540618
  14 C :   -0.512433
  15 C :   -1.089483
  16 C :   -1.014486
  17 C :   -0.921884
  18 H :    0.197477
  19 H :    0.090165
  20 H :    0.254325
  21 H :    0.258475
  22 H :    0.240335
  23 H :    0.364634
  24 H :    0.272883
  25 H :    0.239675
  26 H :    0.305030
  27 H :    0.235684
  28 H :    0.337976
  29 H :    0.319492
  30 H :    0.217184
  31 H :    0.170975
  32 H :    0.187266
  33 H :    0.296157
Sum of atomic charges:   -0.0000000

LOEWDIN ATOMIC CHARGES
----------------------
   0 C :    0.337160
   1 C :    0.351356
   2 C :   -0.102920
   3 C :   -0.480744
   4 C :    0.202233
   5 C :   -0.726116
   6 C :   -0.066334
   7 C :   -1.049197
   8 C :    0.317720
   9 O :    0.867963
  10 O :    0.652656
  11 O :    0.766122
  12 C :   -0.159126
  13 C :    0.356485
  14 C :    0.740353
  15 C :    0.925463
  16 C :    0.912125
  17 C :    0.916313
  18 H :   -0.326859
  19 H :   -0.331114
  20 H :   -0.317123
  21 H :   -0.350459
  22 H :   -0.321075
  23 H :   -0.307397
  24 H :   -0.270403
  25 H :   -0.289261
  26 H :   -0.262249
  27 H :   -0.286250
  28 H :   -0.332064
  29 H :   -0.250127
  30 H :   -0.273504
  31 H :   -0.274137
  32 H :   -0.272701
  33 H :   -0.296787

  Mayer bond orders larger than 0.100000
B(  0-C ,  1-C ) :   1.1069 B(  0-C ,  2-C ) :  -0.1256 B(  0-C ,  5-C ) :   0.9409
B(  0-C , 11-O ) :   0.2578 B(  0-C , 18-H ) :   1.0820 B(  0-C , 19-H ) :  -0.2705
B(  1-C ,  2-C ) :   0.8835 B(  1-C ,  4-C ) :   0.2437 B(  1-C ,  5-C ) :  -0.2695
B(  1-C ,  6-C ) :  -0.1277 B(  1-C , 11-O ) :   0.1036 B(  1-C , 18-H ) :  -0.1933
B(  1-C , 19-H ) :   1.2569 B(  2-C ,  3-C ) :   0.7116 B(  2-C ,  4-C ) :  -0.2926
B(  2-C ,  7-C ) :   0.4052 B(  2-C ,  8-C ) :  -0.1595 B(  2-C ,  9-O ) :   0.4937
B(  2-C , 19-H ) :  -0.1183 B(  2-C , 31-H ) :   0.1305 B(  3-C ,  4-C ) :   1.1576
B(  3-C ,  5-C ) :  -0.2160 B(  3-C ,  6-C ) :  -0.4116 B(  3-C ,  8-C ) :  -0.1181
B(  3-C ,  9-O ) :  -0.4903 B(  3-C , 11-O ) :   0.1310 B(  4-C ,  5-C ) :   1.2833
B(  4-C ,  9-O ) :   0.2691 B(  4-C , 11-O ) :   0.4612 B(  4-C , 14-C ) :   0.2125
B(  4-C , 20-H ) :   0.9369 B(  5-C , 11-O ) :  -0.3485 B(  5-C , 14-C ) :   0.1220
B(  6-C ,  7-C ) :  -0.7409 B(  6-C ,  8-C ) :   1.2961 B(  6-C ,  9-O ) :  -0.1155
B(  6-C , 17-C ) :   0.5991 B(  6-C , 31-H ) :  -0.1557 B(  6-C , 32-H ) :  -0.1600
B(  7-C ,  8-C ) :   1.7619 B(  7-C ,  9-O ) :   0.9938 B(  7-C , 10-O ) :   0.7007
B(  8-C ,  9-O ) :   0.1114 B(  8-C , 10-O ) :   0.3046 B(  8-C , 21-H ) :   0.9664
B( 11-O , 12-C ) :   0.1195 B( 12-C , 13-C ) :   0.9037 B( 12-C , 14-C ) :  -0.2405
B( 12-C , 15-C ) :   0.4595 B( 12-C , 16-C ) :   0.5513 B( 12-C , 25-H ) :  -0.1213
B( 12-C , 26-H ) :  -0.1144 B( 12-C , 27-H ) :  -0.1169 B( 12-C , 28-H ) :  -0.1279
B( 12-C , 30-H ) :  -0.1887 B( 13-C , 14-C ) :   1.2163 B( 13-C , 22-H ) :   1.0882
B( 13-C , 24-H ) :  -0.2334 B( 14-C , 23-H ) :   0.9158 B( 14-C , 24-H ) :   1.0204
B( 15-C , 25-H ) :   1.0510 B( 15-C , 26-H ) :   1.0072 B( 15-C , 27-H ) :   1.0706
B( 16-C , 28-H ) :   0.9504 B( 16-C , 29-H ) :   0.9518 B( 16-C , 30-H ) :   1.1017
B( 17-C , 31-H ) :   1.0988 B( 17-C , 32-H ) :   1.0924 B( 17-C , 33-H ) :   0.9950

MP2 TOTAL ENERGY:     -805.537399350 Eh
FINAL SINGLE POINT ENERGY      -805.537399349688

DIPOLE MOMENT
-------------
                                X             Y             Z
Electronic contribution:    -13.94169      -7.43288      -5.49204
Nuclear contribution   :     15.33737       9.16923       6.80917
                        -----------------------------------------
Total Dipole Moment    :      1.39568       1.73635       1.31713
                        -----------------------------------------
Magnitude (a.u.)       :      2.58798
Magnitude (Debye)      :      6.57814

Rotational constants in cm-1:     0.028940     0.008739     0.007449
Rotational constants in MHz :   867.585038   261.981437   223.311468

                             ****ORCA TERMINATED NORMALLY****
TOTAL RUN TIME: 0 days 5 hours 40 minutes 51 seconds 999 msec
