                         Program Version 4.2.1 -  RELEASE  -
|  1> %pal
|  2>  nprocs 32
|  3> end
|  4> !RI-MP2 aug-cc-pVQZ aug-cc-pVQZ/C TightSCF
|  5> %maxcore 4500
|  6> *xyzfile 0 1  02_26R.xyz
|  7>
|  8>
|  9>                          ****END OF INPUT****

CARTESIAN COORDINATES (ANGSTROEM)
---------------------------------
  C     -2.192819   -1.085858   -0.385874
  C      1.111565    0.800192    0.677814
  C     -3.715820    2.226838    0.131723
  C     -3.536909    0.908355    0.155386
  C     -2.390233    0.230437   -0.432702
  C     -1.008200   -1.796084   -0.962119
  C     -0.172961   -2.520950    0.101104
  C      0.413991   -1.581629    1.164431
  H     -1.346900   -2.534529   -1.696587
  H      0.631103   -3.074767   -0.391212
  H     -0.394149   -1.111798    1.728008
  H     -0.383699   -1.079145   -1.502725
  H     -0.793689   -3.267050    0.605699
  H      0.998520   -2.178273    1.873504
  C      2.545949   -0.868665   -0.183513
  H      2.296778   -1.472346   -1.060530
  H      3.215058   -1.479946    0.429263
  C      3.156194    0.484734   -0.564453
  H      4.138558    0.651070   -0.119197
  C      1.296825   -0.520757    0.592830
  C      2.185696    1.527588   -0.015684
  O      2.295431    2.723816   -0.143394
  H      3.264311    0.625987   -1.640747
  H      0.290220    1.301284    1.171906
  H     -2.928807   -1.707912    0.122614
  H     -1.655714    0.860343   -0.929836
  H     -4.582137    2.690411    0.586045
  H     -2.996932    2.884921   -0.344652
  H     -4.275641    0.276012    0.641941

 Total Charge           Charge          ....    0
 Multiplicity           Mult            ....    1
 Number of Electrons    NEL             ....   96
 Basis Dimension        Dim             .... 1776

ORBITAL ENERGIES
----------------

  NO   OCC          E(Eh)            E(eV)
   0   2.0000     -20.525805      -558.5355
   1   2.0000     -11.316954      -307.9500
   2   2.0000     -11.266028      -306.5642
   3   2.0000     -11.244577      -305.9805
   4   2.0000     -11.241081      -305.8854
   5   2.0000     -11.239941      -305.8543
   6   2.0000     -11.236651      -305.7648
   7   2.0000     -11.235780      -305.7411
   8   2.0000     -11.235076      -305.7220
   9   2.0000     -11.233194      -305.6708
  10   2.0000     -11.231669      -305.6293
  11   2.0000     -11.224595      -305.4368
  12   2.0000     -11.224030      -305.4214
  13   2.0000      -1.372135       -37.3377
  14   2.0000      -1.160820       -31.5875
  15   2.0000      -1.113586       -30.3022
  16   2.0000      -1.076459       -29.2919
  17   2.0000      -1.025782       -27.9129
  18   2.0000      -0.992110       -26.9967
  19   2.0000      -0.955235       -25.9933
  20   2.0000      -0.910953       -24.7883
  21   2.0000      -0.847982       -23.0748
  22   2.0000      -0.789445       -21.4819
  23   2.0000      -0.759172       -20.6581
  24   2.0000      -0.750175       -20.4133
  25   2.0000      -0.730284       -19.8720
  26   2.0000      -0.671128       -18.2623
  27   2.0000      -0.656483       -17.8638
  28   2.0000      -0.650765       -17.7082
  29   2.0000      -0.635587       -17.2952
  30   2.0000      -0.617476       -16.8024
  31   2.0000      -0.616730       -16.7821
  32   2.0000      -0.585003       -15.9187
  33   2.0000      -0.574413       -15.6306
  34   2.0000      -0.560611       -15.2550
  35   2.0000      -0.545949       -14.8560
  36   2.0000      -0.538973       -14.6662
  37   2.0000      -0.535454       -14.5704
  38   2.0000      -0.518144       -14.0994
  39   2.0000      -0.516483       -14.0542
  40   2.0000      -0.497597       -13.5403
  41   2.0000      -0.489952       -13.3323
  42   2.0000      -0.487334       -13.2610
  43   2.0000      -0.475698       -12.9444
  44   2.0000      -0.439947       -11.9716
  45   2.0000      -0.396300       -10.7839
  46   2.0000      -0.368228       -10.0200
  47   2.0000      -0.318711        -8.6726
  48   0.0000       0.018039         0.4909
  49   0.0000       0.024616         0.6698
  50   0.0000       0.026234         0.7139
  51   0.0000       0.029645         0.8067
  52   0.0000       0.037647         1.0244

MULLIKEN ATOMIC CHARGES
-----------------------
   0 C :   -0.132843
   1 C :   -1.447077
   2 C :   -0.851210
   3 C :   -0.563728
   4 C :   -0.373249
   5 C :   -0.440730
   6 C :   -0.353293
   7 C :   -0.278673
   8 H :    0.339413
   9 H :    0.200104
  10 H :    0.222422
  11 H :    0.145058
  12 H :    0.200241
  13 H :    0.277977
  14 C :   -0.497120
  15 H :    0.188182
  16 H :    0.320571
  17 C :   -0.695984
  18 H :    0.236666
  19 C :    0.852153
  20 C :    1.295173
  21 O :   -0.944073
  22 H :    0.216289
  23 H :    0.280473
  24 H :    0.236323
  25 H :    0.457316
  26 H :    0.323132
  27 H :    0.390872
  28 H :    0.395612
Sum of atomic charges:   -0.0000000

LOEWDIN ATOMIC CHARGES
----------------------
   0 C :    0.377160
   1 C :    0.381224
   2 C :    0.786086
   3 C :    0.318845
   4 C :    0.334064
   5 C :    0.500906
   6 C :    0.530129
   7 C :    0.532419
   8 H :   -0.264520
   9 H :   -0.273269
  10 H :   -0.293502
  11 H :   -0.305274
  12 H :   -0.261230
  13 H :   -0.258833
  14 C :    0.511978
  15 H :   -0.271424
  16 H :   -0.252427
  17 C :    0.497536
  18 H :   -0.272073
  19 C :   -0.039131
  20 C :   -0.684291
  21 O :    0.692165
  22 H :   -0.272155
  23 H :   -0.308746
  24 H :   -0.305646
  25 H :   -0.341539
  26 H :   -0.355023
  27 H :   -0.354729
  28 H :   -0.348700

  Mayer bond orders larger than 0.100000
B(  0-C ,  3-C ) :  -0.3920 B(  0-C ,  4-C ) :   1.3955 B(  0-C ,  5-C ) :   0.9414
B(  0-C ,  6-C ) :  -0.1572 B(  0-C , 24-H ) :   0.9686 B(  1-C ,  7-C ) :  -0.2324
B(  1-C , 14-C ) :  -0.1382 B(  1-C , 17-C ) :   0.1227 B(  1-C , 19-C ) :   0.9522
B(  1-C , 20-C ) :   1.5169 B(  1-C , 21-O ) :   0.3886 B(  1-C , 23-H ) :   0.9217
B(  2-C ,  3-C ) :   1.7513 B(  2-C ,  4-C ) :  -0.2838 B(  2-C , 26-H ) :   1.0358
B(  2-C , 27-H ) :   0.8503 B(  3-C ,  4-C ) :   0.8821 B(  3-C , 26-H ) :  -0.1554
B(  3-C , 28-H ) :   0.8344 B(  4-C ,  5-C ) :  -0.3488 B(  4-C , 25-H ) :   0.7430
B(  5-C ,  6-C ) :   0.8953 B(  5-C ,  8-H ) :   0.8995 B(  5-C , 11-H ) :   0.9632
B(  6-C ,  7-C ) :   0.8772 B(  6-C ,  9-H ) :   0.9662 B(  6-C , 12-H ) :   0.9782
B(  6-C , 19-C ) :  -0.1576 B(  7-C , 10-H ) :   1.0103 B(  7-C , 13-H ) :   0.9806
B(  7-C , 19-C ) :   0.5180 B( 14-C , 15-H ) :   0.9523 B( 14-C , 16-H ) :   0.9024
B( 14-C , 17-C ) :   1.1038 B( 14-C , 19-C ) :   0.6412 B( 17-C , 18-H ) :   0.9393
B( 17-C , 19-C ) :  -0.2269 B( 17-C , 20-C ) :   1.1318 B( 17-C , 21-O ) :   0.1651
B( 17-C , 22-H ) :   0.9690 B( 19-C , 20-C ) :  -0.5210 B( 20-C , 21-O ) :   0.5576

MP2 TOTAL ENERGY:     -541.125059182 Eh
FINAL SINGLE POINT ENERGY      -541.125059181587

DIPOLE MOMENT
-------------
                                X             Y             Z
Electronic contribution:      4.37203       6.73681       0.69929
Nuclear contribution   :     -4.58968      -8.76910      -0.54087
                        -----------------------------------------
Total Dipole Moment    :     -0.21765      -2.03229       0.15842
                        -----------------------------------------
Magnitude (a.u.)       :      2.05004
Magnitude (Debye)      :      5.21078

Rotational constants in cm-1:     0.032175     0.016761     0.012057
Rotational constants in MHz :   964.571234   502.475559   361.452590

                             ****ORCA TERMINATED NORMALLY****
TOTAL RUN TIME: 0 days 2 hours 38 minutes 7 seconds 866 msec
