                         Program Version 4.2.1 -  RELEASE  -
|  1> %pal
|  2>  nprocs 32
|  3> end
|  4> !RI-MP2 aug-cc-pVQZ aug-cc-pVQZ/C TightSCF
|  5> %maxcore 4500
|  6> *xyzfile 0 1  06_17P.xyz
|  7>
|  8>
|  9>                          ****END OF INPUT****

CARTESIAN COORDINATES (ANGSTROEM)
---------------------------------
  C      1.667873   -2.462403   -0.497620
  H      1.235812   -3.456192   -0.623136
  H      0.240747   -1.826575   -2.018115
  C      0.550646   -1.259276    1.088944
  O      0.194651   -0.888290    2.166956
  C     -2.100006    0.093591    0.720074
  O     -3.120109    0.950433    0.266550
  O     -1.327898    0.209494   -1.552267
  H     -4.560248    3.731986    0.149421
  H     -5.017585    2.342154   -0.847101
  H     -1.711886    4.056214    0.417408
  H     -1.034885    3.005904   -0.809703
  C     -3.334172   -2.003204    0.032465
  H      1.059459    0.416881   -2.370559
  C      2.624399    0.434626   -0.901028
  C      4.748913    0.682370    0.227789
  C      2.913393    2.109054    0.819245
  H      1.101028    1.811274   -0.278559
  H      4.848790    2.197269    1.745758
  H      4.371581   -0.737946   -1.329394
  H      2.722097   -2.480395   -0.762019
  C      0.872997   -1.389420   -1.246018
  N      0.018520   -0.915569   -0.155947
  O      1.572365   -2.105832    0.888871
  C     -1.119493   -0.163767   -0.423924
  B     -2.937718    2.266431   -0.047374
  C     -4.197740    3.017659   -0.599020
  H     -3.948948    3.611967   -1.483444
  C     -1.562712    3.007463    0.150881
  H     -0.894306    2.560496    0.890504
  C     -3.013649   -3.260856   -0.236459
  C     -2.761527   -1.216926    1.171306
  C      1.733899   -0.283994   -1.879192
  H      2.336195   -0.755090   -2.660889
  C      3.951419    0.053647   -0.717885
  C      4.229106    1.707797    1.004491
  C      2.121169    1.479922   -0.129062
  H      2.502093    2.916615    1.412713
  H      5.778848    0.371975    0.356328
  H     -2.045926   -1.814307    1.734990
  H     -3.556842   -0.923190    1.861584
  H     -3.452792   -3.792082   -1.072236
  H     -2.309907   -3.810203    0.381721
  H     -4.042212   -1.477894   -0.601689
  H     -1.561320    0.523819    1.564115

 Total Charge           Charge          ....    0
 Multiplicity           Mult            ....    1
 Number of Electrons    NEL             ....  168
 Basis Dimension        Dim             .... 2852

ORBITAL ENERGIES
----------------

  NO   OCC          E(Eh)            E(eV)
   0   2.0000     -20.618931      -561.0696
   1   2.0000     -20.558515      -559.4256
   2   2.0000     -20.551728      -559.2409
   3   2.0000     -20.547986      -559.1391
   4   2.0000     -15.625119      -425.1811
   5   2.0000     -11.425162      -310.8945
   6   2.0000     -11.376010      -309.5570
   7   2.0000     -11.315537      -307.9114
   8   2.0000     -11.303972      -307.5967
   9   2.0000     -11.302121      -307.5463
  10   2.0000     -11.247405      -306.0575
  11   2.0000     -11.244719      -305.9844
  12   2.0000     -11.239639      -305.8461
  13   2.0000     -11.238400      -305.8124
  14   2.0000     -11.238113      -305.8046
  15   2.0000     -11.235801      -305.7417
  16   2.0000     -11.235179      -305.7248
  17   2.0000     -11.235138      -305.7237
  18   2.0000     -11.234444      -305.7048
  19   2.0000     -11.223868      -305.4170
  20   2.0000     -11.189964      -304.4944
  21   2.0000     -11.178932      -304.1942
  22   2.0000      -7.602055      -206.8624
  23   2.0000      -1.498016       -40.7631
  24   2.0000      -1.426032       -38.8043
  25   2.0000      -1.391225       -37.8572
  26   2.0000      -1.374758       -37.4091
  27   2.0000      -1.275634       -34.7118
  28   2.0000      -1.167340       -31.7649
  29   2.0000      -1.101299       -29.9679
  30   2.0000      -1.086913       -29.5764
  31   2.0000      -1.034367       -28.1466
  32   2.0000      -1.023008       -27.8375
  33   2.0000      -1.013843       -27.5881
  34   2.0000      -0.961590       -26.1662
  35   2.0000      -0.956808       -26.0361
  36   2.0000      -0.928522       -25.2664
  37   2.0000      -0.921595       -25.0779
  38   2.0000      -0.878302       -23.8998
  39   2.0000      -0.865304       -23.5461
  40   2.0000      -0.836489       -22.7620
  41   2.0000      -0.806035       -21.9333
  42   2.0000      -0.780546       -21.2397
  43   2.0000      -0.764466       -20.8022
  44   2.0000      -0.738430       -20.0937
  45   2.0000      -0.726270       -19.7628
  46   2.0000      -0.713769       -19.4226
  47   2.0000      -0.704775       -19.1779
  48   2.0000      -0.684638       -18.6299
  49   2.0000      -0.665343       -18.1049
  50   2.0000      -0.654795       -17.8179
  51   2.0000      -0.647696       -17.6247
  52   2.0000      -0.646175       -17.5833
  53   2.0000      -0.630935       -17.1686
  54   2.0000      -0.624385       -16.9904
  55   2.0000      -0.616532       -16.7767
  56   2.0000      -0.612428       -16.6650
  57   2.0000      -0.604109       -16.4386
  58   2.0000      -0.593105       -16.1392
  59   2.0000      -0.586680       -15.9644
  60   2.0000      -0.584265       -15.8987
  61   2.0000      -0.578807       -15.7501
  62   2.0000      -0.562192       -15.2980
  63   2.0000      -0.560172       -15.2431
  64   2.0000      -0.553922       -15.0730
  65   2.0000      -0.542440       -14.7605
  66   2.0000      -0.530638       -14.4394
  67   2.0000      -0.525402       -14.2969
  68   2.0000      -0.522651       -14.2221
  69   2.0000      -0.517022       -14.0689
  70   2.0000      -0.506938       -13.7945
  71   2.0000      -0.504979       -13.7412
  72   2.0000      -0.496638       -13.5142
  73   2.0000      -0.495035       -13.4706
  74   2.0000      -0.488784       -13.3005
  75   2.0000      -0.485278       -13.2051
  76   2.0000      -0.471776       -12.8377
  77   2.0000      -0.466830       -12.7031
  78   2.0000      -0.442991       -12.0544
  79   2.0000      -0.428293       -11.6544
  80   2.0000      -0.424922       -11.5627
  81   2.0000      -0.369286       -10.0488
  82   2.0000      -0.344536        -9.3753
  83   2.0000      -0.337856        -9.1935
  84   0.0000       0.016733         0.4553
  85   0.0000       0.023810         0.6479
  86   0.0000       0.024716         0.6726
  87   0.0000       0.028455         0.7743
  88   0.0000       0.032411         0.8820

MULLIKEN ATOMIC CHARGES
-----------------------
   0 C :   -0.489670
   1 H :    0.307192
   2 H :    0.469471
   3 C :    1.804258
   4 O :   -1.151363
   5 C :    1.302334
   6 O :   -1.665188
   7 O :   -1.317770
   8 H :    0.300946
   9 H :    0.336302
  10 H :    0.313938
  11 H :    0.300971
  12 C :   -0.498280
  13 H :    0.363762
  14 C :    1.053893
  15 C :   -0.406776
  16 C :   -0.461793
  17 H :    0.680577
  18 H :    0.337295
  19 H :    0.236929
  20 H :    0.447452
  21 C :   -0.225580
  22 N :   -0.397615
  23 O :   -1.232224
  24 C :    1.407006
  25 B :    1.107061
  26 C :   -1.154786
  27 H :    0.335060
  28 C :   -0.973119
  29 H :    0.206032
  30 C :   -0.907643
  31 C :   -0.449784
  32 C :   -0.347786
  33 H :    0.135302
  34 C :   -0.572384
  35 C :   -0.402974
  36 C :   -0.966014
  37 H :    0.190381
  38 H :    0.259657
  39 H :    0.265944
  40 H :    0.300324
  41 H :    0.308504
  42 H :    0.377736
  43 H :    0.282498
  44 H :    0.189923
Sum of atomic charges:   -0.0000000

LOEWDIN ATOMIC CHARGES
----------------------
   0 C :    0.236789
   1 H :   -0.265233
   2 H :   -0.270565
   3 C :   -1.228827
   4 O :    0.744769
   5 C :   -0.275566
   6 O :    1.015090
   7 O :    0.821788
   8 H :   -0.299668
   9 H :   -0.310282
  10 H :   -0.286944
  11 H :   -0.292645
  12 C :    0.361175
  13 H :   -0.301368
  14 C :   -0.071044
  15 C :    0.355329
  16 C :    0.363463
  17 H :   -0.350367
  18 H :   -0.319136
  19 H :   -0.312783
  20 H :   -0.306648
  21 C :   -0.029562
  22 N :    0.392003
  23 O :    0.901449
  24 C :   -0.837779
  25 B :   -0.901199
  26 C :    1.051834
  27 H :   -0.300880
  28 C :    1.066162
  29 H :   -0.318814
  30 C :    0.809008
  31 C :    0.472771
  32 C :    0.532197
  33 H :   -0.273613
  34 C :    0.345734
  35 C :    0.348221
  36 C :    0.342470
  37 H :   -0.310927
  38 H :   -0.316092
  39 H :   -0.345364
  40 H :   -0.265180
  41 H :   -0.348608
  42 H :   -0.346428
  43 H :   -0.309895
  44 H :   -0.364837

  Mayer bond orders larger than 0.100000
B(  0-C ,  1-H ) :   1.0032 B(  0-C , 20-H ) :   0.8443 B(  0-C , 21-C ) :   0.9465
B(  0-C , 22-N ) :  -0.2240 B(  0-C , 23-O ) :   0.6170 B(  2-H , 21-C ) :   0.7887
B(  3-C ,  4-O ) :   0.6797 B(  3-C , 21-C ) :  -0.1516 B(  3-C , 22-N ) :   1.2775
B(  3-C , 23-O ) :   0.7688 B(  3-C , 24-C ) :   0.1292 B(  4-O , 22-N ) :   0.5110
B(  4-O , 23-O ) :   0.1214 B(  5-C ,  6-O ) :   0.3988 B(  5-C ,  7-O ) :   0.2901
B(  5-C , 12-C ) :  -0.4075 B(  5-C , 21-C ) :  -0.1052 B(  5-C , 24-C ) :   0.7675
B(  5-C , 31-C ) :   0.3426 B(  5-C , 39-H ) :  -0.1076 B(  5-C , 44-H ) :   1.0248
B(  6-O , 24-C ) :   0.3238 B(  6-O , 26-C ) :  -0.1401 B(  7-O , 22-N ) :   0.6364
B(  7-O , 24-C ) :  -0.1117 B(  8-H , 26-C ) :   0.9105 B(  9-H , 26-C ) :   0.8756
B( 10-H , 28-C ) :   0.9059 B( 11-H , 28-C ) :   0.8227 B( 11-H , 29-H ) :   0.1135
B( 12-C , 24-C ) :   0.2849 B( 12-C , 30-C ) :   1.7106 B( 12-C , 31-C ) :   0.9962
B( 12-C , 41-H ) :  -0.1222 B( 12-C , 43-H ) :   0.9794 B( 13-H , 14-C ) :  -0.1515
B( 13-H , 32-C ) :   0.9540 B( 14-C , 15-C ) :  -0.2921 B( 14-C , 16-C ) :  -0.4574
B( 14-C , 17-H ) :  -0.1582 B( 14-C , 19-H ) :  -0.1065 B( 14-C , 22-N ) :   0.1971
B( 14-C , 32-C ) :   0.4933 B( 14-C , 33-H ) :  -0.1458 B( 14-C , 34-C ) :   0.8685
B( 14-C , 36-C ) :   0.6398 B( 15-C , 34-C ) :   1.2682 B( 15-C , 35-C ) :   1.1552
B( 15-C , 38-H ) :   1.1435 B( 16-C , 18-H ) :  -0.1195 B( 16-C , 34-C ) :   0.2059
B( 16-C , 35-C ) :   1.2026 B( 16-C , 36-C ) :   1.4083 B( 16-C , 37-H ) :   1.1575
B( 17-H , 36-C ) :   0.4903 B( 18-H , 35-C ) :   1.0368 B( 19-H , 34-C ) :   1.0499
B( 21-C , 22-N ) :   0.6600 B( 21-C , 24-C ) :   0.2018 B( 21-C , 32-C ) :   0.6321
B( 22-N , 23-O ) :  -0.3815 B( 22-N , 24-C ) :   0.6155 B( 24-C , 30-C ) :   0.2234
B( 25-B , 26-C ) :   0.9577 B( 25-B , 28-C ) :   1.0351 B( 26-C , 27-H ) :   0.9050
B( 28-C , 29-H ) :   0.9215 B( 30-C , 31-C ) :  -0.2044 B( 30-C , 41-H ) :   1.0531
B( 30-C , 42-H ) :   0.8585 B( 31-C , 39-H ) :   1.0035 B( 31-C , 40-H ) :   1.0534
B( 32-C , 33-H ) :   1.1604 B( 32-C , 34-C ) :  -0.2695 B( 32-C , 36-C ) :  -0.1992
B( 34-C , 36-C ) :  -0.1125 B( 34-C , 38-H ) :  -0.1722 B( 35-C , 38-H ) :  -0.1160
B( 36-C , 37-H ) :  -0.1116

MP2 TOTAL ENERGY:    -1039.956882140 Eh
FINAL SINGLE POINT ENERGY     -1039.956882140141

DIPOLE MOMENT
-------------
                                X             Y             Z
Electronic contribution:      6.55616      -5.21106       3.57557
Nuclear contribution   :     -5.62120       4.61708      -4.28176
                        -----------------------------------------
Total Dipole Moment    :      0.93496      -0.59398      -0.70619
                        -----------------------------------------
Magnitude (a.u.)       :      1.31364
Magnitude (Debye)      :      3.33902

Rotational constants in cm-1:     0.013267     0.006775     0.005382
Rotational constants in MHz :   397.746206   203.122190   161.339251

                             ****ORCA TERMINATED NORMALLY****
TOTAL RUN TIME: 0 days 11 hours 46 minutes 52 seconds 701 msec
