                         Program Version 4.2.1 -  RELEASE  -
|  1> %pal
|  2>  nprocs 32
|  3> end
|  4> !RI-MP2 aug-cc-pVQZ aug-cc-pVQZ/C TightSCF
|  5> %maxcore 4500
|  6> *xyzfile 1 1  05_27TS.xyz
|  7>
|  8>
|  9>                          ****END OF INPUT****

CARTESIAN COORDINATES (ANGSTROEM)
---------------------------------
  H     -1.744103   -0.643971    0.487935
  C      0.983965    0.460110    1.134171
  C      0.891837   -1.681281   -0.430870
  C      2.424670   -1.715041   -0.341559
  C      3.044438   -0.346273   -0.132328
  C      2.502188    0.255802    1.158670
  H      2.712570   -2.369685    0.488189
  H      2.799516   -2.169644   -1.260735
  H      2.798972    0.314406   -0.964878
  H      2.768369   -0.398482    1.994681
  H      2.968955    1.225642    1.331076
  N      0.361373   -0.817102    0.665479
  O     -0.790426   -1.104343    1.108422
  C      0.476347    0.747642    2.543657
  H      1.036332    1.593840    2.942208
  H     -0.580504    1.010579    2.549760
  H      0.629545   -0.107357    3.203039
  C      0.603451    1.625139    0.206790
  H     -0.476648    1.734871    0.139136
  H      1.012854    2.541583    0.633121
  H      1.011760    1.524549   -0.795408
  C      0.347201   -3.094419   -0.235601
  H     -0.723236   -3.146186   -0.423973
  H      0.846186   -3.757045   -0.943312
  H      0.543318   -3.457968    0.773622
  C      0.419654   -1.136080   -1.789641
  H      0.722260   -1.841082   -2.565648
  H     -0.666819   -1.053848   -1.817235
  H      0.854144   -0.168680   -2.030321
  N      4.489643   -0.434538   -0.115058
  C      5.244146    0.676357   -0.371264
  C      6.738029    0.499336   -0.316668
  H      7.046957   -0.517119   -0.071935
  H      7.155465    0.777226   -1.284793
  H      7.145018    1.187804    0.424324
  O      4.716827    1.740812   -0.633187
  H      4.938961   -1.292295    0.161968
  C     -2.867115    3.730832   -0.610440
  C     -2.697317    2.877395   -1.693965
  C     -2.732500    1.505798   -1.511292
  C     -2.947193    0.979718   -0.233811
  C     -3.112040    1.843720    0.855116
  C     -3.077299    3.212473    0.663228
  H     -2.840437    4.803189   -0.758325
  H     -2.542699    3.284465   -2.685074
  H     -2.616280    0.835286   -2.351887
  H     -3.275557    1.444353    1.848574
  H     -3.217185    3.879259    1.504424
  C     -2.963183   -0.469586   -0.017563
  O     -2.989616   -1.230930   -1.131220
  C     -3.764818   -1.151760    1.074035
  C     -3.605529   -2.519584   -0.866027
  C     -3.688886   -2.619971    0.650513
  H     -4.788806   -0.767190    1.037890
  H     -3.368920   -0.966637    2.071277
  H     -4.586662   -2.499320   -1.343361
  H     -2.992228   -3.281372   -1.343073
  H     -4.551896   -3.198249    0.974986
  H     -2.790875   -3.085704    1.057774

 Total Charge           Charge          ....    1
 Multiplicity           Mult            ....    1
 Number of Electrons    NEL             ....  196
 Basis Dimension        Dim             .... 3598

ORBITAL ENERGIES
----------------

  NO   OCC          E(Eh)            E(eV)
   0   2.0000     -20.812446      -566.3354
   1   2.0000     -20.725304      -563.9642
   2   2.0000     -20.595681      -560.4370
   3   2.0000     -15.811080      -430.2414
   4   2.0000     -15.672192      -426.4620
   5   2.0000     -11.477154      -312.3092
   6   2.0000     -11.430760      -311.0468
   7   2.0000     -11.411912      -310.5339
   8   2.0000     -11.411545      -310.5239
   9   2.0000     -11.403439      -310.3034
  10   2.0000     -11.371739      -309.4407
  11   2.0000     -11.371095      -309.4232
  12   2.0000     -11.371009      -309.4209
  13   2.0000     -11.363210      -309.2087
  14   2.0000     -11.359458      -309.1066
  15   2.0000     -11.356348      -309.0219
  16   2.0000     -11.355603      -309.0017
  17   2.0000     -11.349643      -308.8395
  18   2.0000     -11.347959      -308.7937
  19   2.0000     -11.345986      -308.7400
  20   2.0000     -11.337211      -308.5012
  21   2.0000     -11.334947      -308.4396
  22   2.0000     -11.331383      -308.3426
  23   2.0000     -11.328965      -308.2768
  24   2.0000     -11.325306      -308.1772
  25   2.0000     -11.309416      -307.7449
  26   2.0000      -1.649012       -44.8719
  27   2.0000      -1.563764       -42.5522
  28   2.0000      -1.467578       -39.9348
  29   2.0000      -1.335089       -36.3296
  30   2.0000      -1.303292       -35.4644
  31   2.0000      -1.286911       -35.0186
  32   2.0000      -1.230071       -33.4719
  33   2.0000      -1.212883       -33.0042
  34   2.0000      -1.188370       -32.3372
  35   2.0000      -1.160417       -31.5766
  36   2.0000      -1.140538       -31.0356
  37   2.0000      -1.117276       -30.4026
  38   2.0000      -1.106605       -30.1123
  39   2.0000      -1.075594       -29.2684
  40   2.0000      -1.066932       -29.0327
  41   2.0000      -1.054009       -28.6810
  42   2.0000      -1.049994       -28.5718
  43   2.0000      -0.985990       -26.8302
  44   2.0000      -0.974082       -26.5061
  45   2.0000      -0.957271       -26.0487
  46   2.0000      -0.949805       -25.8455
  47   2.0000      -0.939185       -25.5565
  48   2.0000      -0.921569       -25.0772
  49   2.0000      -0.892431       -24.2843
  50   2.0000      -0.883294       -24.0357
  51   2.0000      -0.850856       -23.1530
  52   2.0000      -0.835042       -22.7227
  53   2.0000      -0.812793       -22.1172
  54   2.0000      -0.810143       -22.0451
  55   2.0000      -0.801547       -21.8112
  56   2.0000      -0.792650       -21.5691
  57   2.0000      -0.775010       -21.0891
  58   2.0000      -0.769846       -20.9486
  59   2.0000      -0.759291       -20.6614
  60   2.0000      -0.745306       -20.2808
  61   2.0000      -0.735134       -20.0040
  62   2.0000      -0.731491       -19.9049
  63   2.0000      -0.723501       -19.6875
  64   2.0000      -0.718800       -19.5596
  65   2.0000      -0.713796       -19.4234
  66   2.0000      -0.711411       -19.3585
  67   2.0000      -0.707439       -19.2504
  68   2.0000      -0.698901       -19.0181
  69   2.0000      -0.695393       -18.9226
  70   2.0000      -0.688175       -18.7262
  71   2.0000      -0.683904       -18.6100
  72   2.0000      -0.673152       -18.3174
  73   2.0000      -0.665281       -18.1032
  74   2.0000      -0.659957       -17.9584
  75   2.0000      -0.658062       -17.9068
  76   2.0000      -0.653265       -17.7762
  77   2.0000      -0.649431       -17.6719
  78   2.0000      -0.642958       -17.4958
  79   2.0000      -0.638817       -17.3831
  80   2.0000      -0.634946       -17.2778
  81   2.0000      -0.627620       -17.0784
  82   2.0000      -0.625419       -17.0185
  83   2.0000      -0.623257       -16.9597
  84   2.0000      -0.618122       -16.8200
  85   2.0000      -0.609591       -16.5878
  86   2.0000      -0.609278       -16.5793
  87   2.0000      -0.601247       -16.3608
  88   2.0000      -0.599362       -16.3095
  89   2.0000      -0.593230       -16.1426
  90   2.0000      -0.587465       -15.9857
  91   2.0000      -0.576735       -15.6938
  92   2.0000      -0.569153       -15.4874
  93   2.0000      -0.507071       -13.7981
  94   2.0000      -0.496770       -13.5178
  95   2.0000      -0.482149       -13.1199
  96   2.0000      -0.460230       -12.5235
  97   2.0000      -0.428082       -11.6487
  98   0.0000      -0.141516        -3.8509
  99   0.0000      -0.057210        -1.5568
 100   0.0000      -0.049455        -1.3457
 101   0.0000      -0.048369        -1.3162
 102   0.0000      -0.045089        -1.2269

MULLIKEN ATOMIC CHARGES
-----------------------
   0 H :    0.109508
   1 C :    1.708475
   2 C :    1.203199
   3 C :   -0.847409
   4 C :    1.801559
   5 C :   -1.147080
   6 H :    0.191592
   7 H :    0.136392
   8 H :    0.155530
   9 H :    0.258937
  10 H :    0.176259
  11 N :    1.310548
  12 O :   -1.287656
  13 C :   -1.312210
  14 H :    0.152403
  15 H :    0.312004
  16 H :    0.215659
  17 C :   -1.620868
  18 H :    0.451224
  19 H :    0.140484
  20 H :    0.207746
  21 C :   -1.446696
  22 H :    0.311221
  23 H :    0.145151
  24 H :    0.192832
  25 C :   -1.280581
  26 H :    0.035326
  27 H :    0.387352
  28 H :    0.304520
  29 N :   -1.100228
  30 C :    1.004753
  31 C :   -0.914301
  32 H :    0.212421
  33 H :    0.292629
  34 H :    0.292311
  35 O :   -0.942179
  36 H :    0.015046
  37 C :   -0.309046
  38 C :   -0.425421
  39 C :   -0.634629
  40 C :    0.008742
  41 C :   -0.599459
  42 C :   -0.503868
  43 H :    0.277629
  44 H :    0.238100
  45 H :    0.271082
  46 H :    0.235658
  47 H :    0.228026
  48 C :    3.824880
  49 O :   -1.052288
  50 C :   -0.884626
  51 C :   -0.618980
  52 C :   -0.702418
  53 H :    0.260925
  54 H :    0.253537
  55 H :    0.301705
  56 H :    0.421931
  57 H :    0.268875
  58 H :    0.313770
Sum of atomic charges:    1.0000000

LOEWDIN ATOMIC CHARGES
----------------------
   0 H :   -0.881242
   1 C :   -0.348793
   2 C :   -0.353076
   3 C :    0.538155
   4 C :   -0.018734
   5 C :    0.535670
   6 H :   -0.254052
   7 H :   -0.243191
   8 H :   -0.340015
   9 H :   -0.247856
  10 H :   -0.268152
  11 N :    0.209692
  12 O :    1.087585
  13 C :    0.922795
  14 H :   -0.256443
  15 H :   -0.283217
  16 H :   -0.257263
  17 C :    0.959425
  18 H :   -0.331042
  19 H :   -0.239467
  20 H :   -0.286732
  21 C :    0.920834
  22 H :   -0.307136
  23 H :   -0.253956
  24 H :   -0.252636
  25 C :    0.961615
  26 H :   -0.247157
  27 H :   -0.311153
  28 H :   -0.288120
  29 N :    0.878500
  30 C :   -0.806377
  31 C :    0.913709
  32 H :   -0.304527
  33 H :   -0.290329
  34 H :   -0.290048
  35 O :    0.742570
  36 H :   -0.479664
  37 C :    0.378981
  38 C :    0.385512
  39 C :    0.362499
  40 C :   -0.070511
  41 C :    0.352576
  42 C :    0.385556
  43 H :   -0.299002
  44 H :   -0.303043
  45 H :   -0.316056
  46 H :   -0.305437
  47 H :   -0.302260
  48 C :   -0.382979
  49 O :    0.981300
  50 C :    0.557277
  51 C :    0.304538
  52 C :    0.566263
  53 H :   -0.229888
  54 H :   -0.244699
  55 H :   -0.263871
  56 H :   -0.276866
  57 H :   -0.240484
  58 H :   -0.269581

  Mayer bond orders larger than 0.100000
B(  0-H ,  2-C ) :  -0.1094 B(  0-H , 11-N ) :  -0.2914 B(  0-H , 40-C ) :   0.1858
B(  0-H , 41-C ) :   0.1167 B(  0-H , 48-C ) :   0.5320 B(  0-H , 49-O ) :   0.6009
B(  0-H , 51-C ) :   0.1363 B(  1-C ,  2-C ) :   0.3476 B(  1-C ,  9-H ) :  -0.1379
B(  1-C , 11-N ) :   0.9703 B(  1-C , 12-O ) :   0.1031 B(  1-C , 14-H ) :  -0.2425
B(  1-C , 15-H ) :  -0.2051 B(  1-C , 16-H ) :  -0.2758 B(  1-C , 17-C ) :   0.1611
B(  1-C , 18-H ) :  -0.2121 B(  1-C , 20-H ) :  -0.2450 B(  2-C ,  3-C ) :   0.3912
B(  2-C ,  6-H ) :  -0.1320 B(  2-C ,  7-H ) :  -0.1195 B(  2-C , 11-N ) :   1.1372
B(  2-C , 12-O ) :   0.1630 B(  2-C , 21-C ) :  -0.3609 B(  2-C , 22-H ) :  -0.2179
B(  2-C , 23-H ) :  -0.2809 B(  2-C , 24-H ) :  -0.3699 B(  2-C , 25-C ) :   0.2662
B(  2-C , 28-H ) :  -0.2120 B(  3-C ,  4-C ) :   0.3464 B(  3-C ,  5-C ) :  -0.1406
B(  3-C ,  6-H ) :   1.2206 B(  3-C ,  7-H ) :   1.1749 B(  3-C , 29-N ) :   0.1169
B(  4-C ,  5-C ) :   0.8211 B(  4-C ,  6-H ) :  -0.1158 B(  4-C ,  7-H ) :  -0.1302
B(  4-C ,  8-H ) :   1.0292 B(  4-C , 29-N ) :  -1.1128 B(  4-C , 36-H ) :  -0.4426
B(  5-C ,  9-H ) :   1.0949 B(  5-C , 10-H ) :   1.1467 B(  5-C , 29-N ) :   0.4956
B( 10-H , 35-O ) :  -0.1073 B( 11-N , 12-O ) :   0.4345 B( 11-N , 13-C ) :  -0.1430
B( 11-N , 18-H ) :   0.1343 B( 11-N , 25-C ) :  -0.1126 B( 11-N , 40-C ) :   0.1021
B( 11-N , 48-C ) :   0.3943 B( 12-O , 48-C ) :  -0.1276 B( 13-C , 14-H ) :   1.2243
B( 13-C , 15-H ) :   1.0336 B( 13-C , 16-H ) :   1.2868 B( 13-C , 17-C ) :   0.1220
B( 17-C , 18-H ) :   0.7833 B( 17-C , 19-H ) :   1.0863 B( 17-C , 20-H ) :   1.1835
B( 17-C , 35-O ) :   0.1421 B( 17-C , 48-C ) :   0.1564 B( 21-C , 22-H ) :   0.9856
B( 21-C , 23-H ) :   1.2914 B( 21-C , 24-H ) :   1.3293 B( 21-C , 25-C ) :   0.1202
B( 25-C , 26-H ) :   1.2476 B( 25-C , 27-H ) :   0.8888 B( 25-C , 28-H ) :   1.1202
B( 29-N , 30-C ) :   1.0870 B( 29-N , 35-O ) :   0.1512 B( 29-N , 36-H ) :   1.4230
B( 30-C , 31-C ) :   0.7228 B( 30-C , 32-H ) :  -0.1703 B( 30-C , 35-O ) :   0.9531
B( 31-C , 32-H ) :   1.0524 B( 31-C , 33-H ) :   0.9722 B( 31-C , 34-H ) :   0.9487
B( 37-C , 38-C ) :   1.1801 B( 37-C , 42-C ) :   1.2204 B( 37-C , 43-H ) :   1.1466
B( 38-C , 39-C ) :   1.3363 B( 38-C , 40-C ) :  -0.5186 B( 38-C , 42-C ) :   0.1282
B( 38-C , 43-H ) :  -0.1191 B( 38-C , 44-H ) :   1.1600 B( 39-C , 40-C ) :   1.3602
B( 39-C , 42-C ) :   0.1014 B( 39-C , 44-H ) :  -0.1294 B( 39-C , 45-H ) :   1.0630
B( 39-C , 48-C ) :  -0.9682 B( 39-C , 49-O ) :  -0.1488 B( 40-C , 41-C ) :   1.4546
B( 40-C , 42-C ) :  -0.4002 B( 40-C , 46-H ) :  -0.1361 B( 40-C , 48-C ) :  -1.3515
B( 40-C , 50-C ) :   0.1628 B( 41-C , 42-C ) :   1.4090 B( 41-C , 46-H ) :   1.0486
B( 41-C , 47-H ) :  -0.1074 B( 41-C , 48-C ) :  -1.1629 B( 42-C , 43-H ) :  -0.1161
B( 42-C , 47-H ) :   1.1681 B( 48-C , 49-O ) :  -0.4944 B( 48-C , 51-C ) :  -0.5269
B( 48-C , 52-C ) :  -0.1955 B( 48-C , 53-H ) :  -0.1026 B( 48-C , 54-H ) :  -0.3326
B( 49-O , 50-C ) :   0.1029 B( 49-O , 51-C ) :   1.0626 B( 50-C , 52-C ) :   1.0528
B( 50-C , 53-H ) :   1.0279 B( 50-C , 54-H ) :   1.1020 B( 51-C , 52-C ) :   1.1165
B( 51-C , 55-H ) :   0.9349 B( 51-C , 56-H ) :   0.8355 B( 52-C , 57-H ) :   0.9329
B( 52-C , 58-H ) :   0.8886

MP2 TOTAL ENERGY:    -1153.079574849 Eh
FINAL SINGLE POINT ENERGY     -1153.079574848669

DIPOLE MOMENT
-------------
                                X             Y             Z
Electronic contribution:     -6.98254       6.98325      -2.40708
Nuclear contribution   :      5.39514      -8.78267       3.04670
                        -----------------------------------------
Total Dipole Moment    :     -1.58739      -1.79941       0.63962
                        -----------------------------------------
Magnitude (a.u.)       :      2.48331
Magnitude (Debye)      :      6.31207

Rotational constants in cm-1:     0.010754     0.004291     0.003591
Rotational constants in MHz :   322.393726   128.648881   107.661697

                             ****ORCA TERMINATED NORMALLY****
TOTAL RUN TIME: 1 days 13 hours 22 minutes 1 seconds 419 msec
