                         Program Version 4.2.1 -  RELEASE  -
|  1> %pal
|  2>  nprocs 32
|  3> end
|  4> !RI-MP2 aug-cc-pVQZ aug-cc-pVQZ/C TightSCF
|  5> %maxcore 4500
|  6> *xyzfile 0 1  02_36R.xyz
|  7>
|  8>
|  9>                          ****END OF INPUT****

CARTESIAN COORDINATES (ANGSTROEM)
---------------------------------
  C     -0.234304   -0.149218    0.669519
  C      2.173314   -0.550409    0.031958
  C     -1.405148   -0.734324    0.969644
  C      2.598668    0.858057   -0.155477
  C      0.925351   -0.945334    0.377263
  C      4.069940    1.185184    0.023660
  C      2.154727    3.109625   -0.658072
  C      3.171416   -1.641337   -0.161734
  C     -2.693853   -0.042987    1.225299
  H     -3.229322   -0.602078    2.003145
  C     -2.556271    1.419365    1.657035
  H     -1.906933    1.510392    2.531547
  H     -2.126423    2.037997    0.866625
  H     -3.528015    1.843819    1.915543
  N      1.733138    1.736254   -0.476481
  Si    -3.795771   -0.212965   -0.335515
  C     -5.518626    0.405830    0.084025
  C     -3.053663    0.809776   -1.718855
  C     -3.879828   -2.019570   -0.835865
  H     -3.092086    1.878425   -1.495816
  H     -3.598149    0.649097   -2.652918
  H     -2.008283    0.542932   -1.889925
  H     -5.513383    1.462118    0.361998
  H     -5.953375   -0.157110    0.913985
  H     -6.186489    0.295977   -0.774418
  H      1.296691    3.708373   -0.962070
  H      2.925532    3.208018   -1.431886
  H      2.559646    3.544201    0.264070
  H     -4.223897   -2.649807   -0.011480
  H     -2.905293   -2.392210   -1.158940
  H     -4.576569   -2.156984   -1.666760
  C      4.617541   -1.225662   -0.309860
  C      4.911146    0.017136    0.518976
  O      2.857728   -2.813925   -0.190372
  H      4.457873    1.531982   -0.942008
  H      4.156761    2.039252    0.701040
  H      4.685786   -0.186769    1.570365
  H      5.971308    0.273070    0.468601
  H      5.237334   -2.078991   -0.035229
  H      4.800269   -1.018870   -1.371838
  H     -0.139202    0.924423    0.609195
  H     -1.439173   -1.822397    0.977878
  H      0.799933   -2.022523    0.459744

 Total Charge           Charge          ....    0
 Multiplicity           Mult            ....    1
 Number of Electrons    NEL             ....  144
 Basis Dimension        Dim             .... 2594

ORBITAL ENERGIES
----------------

  NO   OCC          E(Eh)            E(eV)
   0   2.0000     -68.749927     -1870.7806
   1   2.0000     -20.521312      -558.4133
   2   2.0000     -15.536934      -422.7815
   3   2.0000     -11.316961      -307.9502
   4   2.0000     -11.281936      -306.9971
   5   2.0000     -11.255336      -306.2733
   6   2.0000     -11.249862      -306.1243
   7   2.0000     -11.241536      -305.8978
   8   2.0000     -11.237385      -305.7848
   9   2.0000     -11.235101      -305.7226
  10   2.0000     -11.229185      -305.5617
  11   2.0000     -11.223856      -305.4166
  12   2.0000     -11.219475      -305.2974
  13   2.0000     -11.218167      -305.2618
  14   2.0000     -11.216705      -305.2221
  15   2.0000     -11.198558      -304.7282
  16   2.0000     -11.197513      -304.6998
  17   2.0000     -11.192641      -304.5672
  18   2.0000      -6.099167      -165.9668
  19   2.0000      -4.205600      -114.4402
  20   2.0000      -4.205478      -114.4369
  21   2.0000      -4.205375      -114.4341
  22   2.0000      -1.370282       -37.2873
  23   2.0000      -1.231651       -33.5149
  24   2.0000      -1.116615       -30.3846
  25   2.0000      -1.102877       -30.0108
  26   2.0000      -1.060897       -28.8685
  27   2.0000      -0.998171       -27.1616
  28   2.0000      -0.983945       -26.7745
  29   2.0000      -0.963651       -26.2223
  30   2.0000      -0.936376       -25.4801
  31   2.0000      -0.925921       -25.1956
  32   2.0000      -0.923109       -25.1191
  33   2.0000      -0.897418       -24.4200
  34   2.0000      -0.857982       -23.3469
  35   2.0000      -0.807987       -21.9864
  36   2.0000      -0.765376       -20.8269
  37   2.0000      -0.738447       -20.0942
  38   2.0000      -0.695745       -18.9322
  39   2.0000      -0.668642       -18.1947
  40   2.0000      -0.655527       -17.8378
  41   2.0000      -0.646266       -17.5858
  42   2.0000      -0.639114       -17.3912
  43   2.0000      -0.612057       -16.6549
  44   2.0000      -0.602180       -16.3861
  45   2.0000      -0.600247       -16.3336
  46   2.0000      -0.597317       -16.2538
  47   2.0000      -0.585484       -15.9318
  48   2.0000      -0.572192       -15.5701
  49   2.0000      -0.571092       -15.5402
  50   2.0000      -0.565509       -15.3883
  51   2.0000      -0.563948       -15.3458
  52   2.0000      -0.561918       -15.2906
  53   2.0000      -0.549631       -14.9562
  54   2.0000      -0.540174       -14.6989
  55   2.0000      -0.536533       -14.5998
  56   2.0000      -0.534312       -14.5394
  57   2.0000      -0.530334       -14.4311
  58   2.0000      -0.523506       -14.2453
  59   2.0000      -0.512830       -13.9548
  60   2.0000      -0.503335       -13.6964
  61   2.0000      -0.490704       -13.3527
  62   2.0000      -0.483852       -13.1663
  63   2.0000      -0.481161       -13.0931
  64   2.0000      -0.454475       -12.3669
  65   2.0000      -0.432292       -11.7633
  66   2.0000      -0.429726       -11.6934
  67   2.0000      -0.427548       -11.6342
  68   2.0000      -0.400825       -10.9070
  69   2.0000      -0.385328       -10.4853
  70   2.0000      -0.380446       -10.3525
  71   2.0000      -0.298867        -8.1326
  72   0.0000       0.019078         0.5191
  73   0.0000       0.022090         0.6011
  74   0.0000       0.027844         0.7577
  75   0.0000       0.028317         0.7705
  76   0.0000       0.034123         0.9285

MULLIKEN ATOMIC CHARGES
-----------------------
   0 C :   -0.722907
   1 C :   -0.671187
   2 C :   -0.223712
   3 C :    0.936187
   4 C :    0.315361
   5 C :   -0.317070
   6 C :   -1.064474
   7 C :    1.307385
   8 C :    0.163399
   9 H :    0.259979
  10 C :   -1.250067
  11 H :    0.270064
  12 H :    0.235011
  13 H :    0.275097
  14 N :   -0.771482
  15 Si:    1.611285
  16 C :   -1.221394
  17 C :   -1.287718
  18 C :   -1.249014
  19 H :    0.234324
  20 H :    0.297980
  21 H :    0.312902
  22 H :    0.248214
  23 H :    0.278075
  24 H :    0.328240
  25 H :    0.434344
  26 H :    0.275602
  27 H :    0.289096
  28 H :    0.276531
  29 H :    0.259071
  30 H :    0.329911
  31 C :   -0.606016
  32 C :   -0.620825
  33 O :   -1.043111
  34 H :    0.212882
  35 H :    0.282663
  36 H :    0.182863
  37 H :    0.248657
  38 H :    0.262431
  39 H :    0.218783
  40 H :    0.361930
  41 H :    0.165808
  42 H :    0.174904
Sum of atomic charges:    0.0000000

LOEWDIN ATOMIC CHARGES
----------------------
   0 C :    0.391276
   1 C :   -0.067271
   2 C :    0.349413
   3 C :   -0.295013
   4 C :    0.343937
   5 C :    0.495376
   6 C :    0.677186
   7 C :   -0.668424
   8 C :    0.183557
   9 H :   -0.323949
  10 C :    0.873024
  11 H :   -0.262381
  12 H :   -0.297402
  13 H :   -0.281475
  14 N :    0.628763
  15 Si:    0.156723
  16 C :    0.999844
  17 C :    1.004321
  18 C :    0.999304
  19 H :   -0.333530
  20 H :   -0.329092
  21 H :   -0.332170
  22 H :   -0.340205
  23 H :   -0.331061
  24 H :   -0.333819
  25 H :   -0.316733
  26 H :   -0.310562
  27 H :   -0.308609
  28 H :   -0.329134
  29 H :   -0.337341
  30 H :   -0.332774
  31 C :    0.487853
  32 C :    0.525843
  33 O :    0.752467
  34 H :   -0.272881
  35 H :   -0.286408
  36 H :   -0.256429
  37 H :   -0.254606
  38 H :   -0.291745
  39 H :   -0.264835
  40 H :   -0.411665
  41 H :   -0.311516
  42 H :   -0.387855

  Mayer bond orders larger than 0.100000
B(  0-C ,  1-C ) :  -0.4883 B(  0-C ,  2-C ) :   1.0027 B(  0-C ,  4-C ) :   0.6062
B(  0-C ,  8-C ) :  -0.5527 B(  0-C , 40-H ) :   0.9202 B(  0-C , 41-H ) :  -0.1339
B(  0-C , 42-H ) :  -0.1279 B(  1-C ,  3-C ) :   0.8177 B(  1-C ,  4-C ) :   0.5538
B(  1-C ,  5-C ) :  -0.1904 B(  1-C ,  7-C ) :   0.8101 B(  1-C , 14-N ) :   0.1262
B(  1-C , 31-C ) :  -0.1409 B(  1-C , 33-O ) :   1.0403 B(  2-C ,  4-C ) :  -0.8186
B(  2-C ,  8-C ) :   0.9910 B(  2-C ,  9-H ) :  -0.2279 B(  2-C , 10-C ) :   0.1574
B(  2-C , 41-H ) :   1.1756 B(  3-C ,  5-C ) :   0.8273 B(  3-C ,  7-C ) :  -0.1610
B(  3-C , 14-N ) :   1.0998 B(  4-C ,  7-C ) :  -0.3759 B(  4-C , 33-O ) :  -0.4176
B(  4-C , 42-H ) :   0.9703 B(  5-C , 32-C ) :   0.8066 B(  5-C , 34-H ) :   0.9831
B(  5-C , 35-H ) :   0.9051 B(  6-C , 14-N ) :   1.1297 B(  6-C , 25-H ) :   0.8347
B(  6-C , 26-H ) :   0.9293 B(  6-C , 27-H ) :   0.9474 B(  7-C , 31-C ) :   1.0348
B(  8-C ,  9-H ) :   1.1078 B(  8-C , 10-C ) :   0.5888 B(  8-C , 12-H ) :  -0.1092
B(  8-C , 15-Si) :   0.2544 B( 10-C , 11-H ) :   1.0296 B( 10-C , 12-H ) :   1.0187
B( 10-C , 13-H ) :   1.0373 B( 14-N , 25-H ) :  -0.1126 B( 15-Si, 16-C ) :   0.8601
B( 15-Si, 17-C ) :   0.6468 B( 15-Si, 18-C ) :   0.7377 B( 16-C , 22-H ) :   0.9833
B( 16-C , 23-H ) :   0.9752 B( 16-C , 24-H ) :   0.9383 B( 17-C , 19-H ) :   0.9652
B( 17-C , 20-H ) :   1.0110 B( 17-C , 21-H ) :   0.8925 B( 18-C , 28-H ) :   0.9426
B( 18-C , 29-H ) :   0.9975 B( 18-C , 30-H ) :   0.9600 B( 31-C , 32-C ) :   1.0074
B( 31-C , 33-O ) :   0.2312 B( 31-C , 38-H ) :   0.9874 B( 31-C , 39-H ) :   0.9691
B( 32-C , 36-H ) :   0.9749 B( 32-C , 37-H ) :   1.0093

MP2 TOTAL ENERGY:    -1004.416357343 Eh
FINAL SINGLE POINT ENERGY     -1004.416357343293

DIPOLE MOMENT
-------------
                                X             Y             Z
Electronic contribution:     13.46458      -9.40043       1.08650
Nuclear contribution   :    -13.60112      10.61529      -0.75447
                        -----------------------------------------
Total Dipole Moment    :     -0.13654       1.21486       0.33203
                        -----------------------------------------
Magnitude (a.u.)       :      1.26679
Magnitude (Debye)      :      3.21993

Rotational constants in cm-1:     0.023016     0.005534     0.004916
Rotational constants in MHz :   690.000903   165.892977   147.368738

                             ****ORCA TERMINATED NORMALLY****
TOTAL RUN TIME: 0 days 7 hours 34 minutes 52 seconds 346 msec
