                         Program Version 4.2.1 -  RELEASE  -
|  1> %pal
|  2>  nprocs 32
|  3> end
|  4> !RI-MP2 aug-cc-pVQZ aug-cc-pVQZ/C TightSCF
|  5> %maxcore 4500
|  6> *xyzfile 0 1  05_12R1.xyz
|  7>
|  8>
|  9>                          ****END OF INPUT****

CARTESIAN COORDINATES (ANGSTROEM)
---------------------------------
  C      1.420622    0.676059    0.188302
  C      1.420622   -0.676059    0.188302
  C      0.342474   -1.522044   -0.276792
  C      0.342474    1.522044   -0.276792
  C     -0.959821   -1.218292   -0.199743
  C     -0.959821    1.218292   -0.199743
  C     -1.444043    0.000000    0.533612
  H      2.350277    1.174729    0.445232
  H      2.350277   -1.174729    0.445232
  H      0.632038   -2.462317   -0.736341
  H      0.632038    2.462317   -0.736340
  H     -1.690640   -1.872693   -0.663282
  H     -1.690639    1.872694   -0.663282
  H     -2.530324    0.000000    0.617652
  H     -1.028070    0.000000    1.548267

 Total Charge           Charge          ....    0
 Multiplicity           Mult            ....    1
 Number of Electrons    NEL             ....   50
 Basis Dimension        Dim             ....  928

ORBITAL ENERGIES
----------------

  NO   OCC          E(Eh)            E(eV)
   0   2.0000     -11.234754      -305.7132
   1   2.0000     -11.234707      -305.7119
   2   2.0000     -11.233932      -305.6908
   3   2.0000     -11.232393      -305.6490
   4   2.0000     -11.229162      -305.5610
   5   2.0000     -11.224456      -305.4330
   6   2.0000     -11.224454      -305.4329
   7   2.0000      -1.135458       -30.8974
   8   2.0000      -1.041524       -28.3413
   9   2.0000      -1.037719       -28.2378
  10   2.0000      -0.904110       -24.6021
  11   2.0000      -0.855629       -23.2828
  12   2.0000      -0.734652       -19.9909
  13   2.0000      -0.695150       -18.9160
  14   2.0000      -0.689474       -18.7615
  15   2.0000      -0.618215       -16.8225
  16   2.0000      -0.615527       -16.7493
  17   2.0000      -0.588555       -16.0154
  18   2.0000      -0.530423       -14.4335
  19   2.0000      -0.527335       -14.3495
  20   2.0000      -0.504857       -13.7379
  21   2.0000      -0.483818       -13.1653
  22   2.0000      -0.435507       -11.8507
  23   2.0000      -0.352637        -9.5957
  24   2.0000      -0.306337        -8.3359
  25   0.0000       0.026066         0.7093
  26   0.0000       0.029439         0.8011
  27   0.0000       0.031274         0.8510
  28   0.0000       0.037704         1.0260
  29   0.0000       0.042263         1.1500

MULLIKEN ATOMIC CHARGES
-----------------------
   0 C :   -0.414177
   1 C :   -0.414184
   2 C :   -0.372847
   3 C :   -0.372890
   4 C :   -0.466128
   5 C :   -0.466098
   6 C :   -0.213250
   7 H :    0.368650
   8 H :    0.368631
   9 H :    0.346521
  10 H :    0.346517
  11 H :    0.402051
  12 H :    0.402062
  13 H :    0.287520
  14 H :    0.197620
Sum of atomic charges:   -0.0000000

LOEWDIN ATOMIC CHARGES
----------------------
   0 C :    0.338857
   1 C :    0.338857
   2 C :    0.339554
   3 C :    0.339554
   4 C :    0.371794
   5 C :    0.371795
   6 C :    0.454179
   7 H :   -0.336481
   8 H :   -0.336482
   9 H :   -0.335981
  10 H :   -0.335982
  11 H :   -0.308533
  12 H :   -0.308533
  13 H :   -0.295872
  14 H :   -0.296725

  Mayer bond orders larger than 0.100000
B(  0-C ,  1-C ) :   1.6599 B(  0-C ,  3-C ) :   0.9544 B(  0-C ,  7-H ) :   0.9153
B(  1-C ,  2-C ) :   0.9543 B(  1-C ,  8-H ) :   0.9153 B(  2-C ,  4-C ) :   1.6267
B(  2-C ,  9-H ) :   0.9204 B(  3-C ,  5-C ) :   1.6267 B(  3-C , 10-H ) :   0.9204
B(  4-C ,  6-C ) :   0.9114 B(  4-C , 11-H ) :   0.8827 B(  5-C ,  6-C ) :   0.9114
B(  5-C , 12-H ) :   0.8827 B(  6-C , 13-H ) :   0.9633 B(  6-C , 14-H ) :   0.9236

MP2 TOTAL ENERGY:     -270.992718986 Eh
FINAL SINGLE POINT ENERGY      -270.992718985848

DIPOLE MOMENT
-------------
                                X             Y             Z
Electronic contribution:      0.84836      -0.00000      -0.29043
Nuclear contribution   :     -0.99370       0.00000       0.26205
                        -----------------------------------------
Total Dipole Moment    :     -0.14533       0.00000      -0.02838
                        -----------------------------------------
Magnitude (a.u.)       :      0.14808
Magnitude (Debye)      :      0.37639

Rotational constants in cm-1:     0.124010     0.123401     0.067962
Rotational constants in MHz :  3717.739111  3699.473209  2037.441752

                             ****ORCA TERMINATED NORMALLY****
TOTAL RUN TIME: 0 days 0 hours 20 minutes 8 seconds 698 msec
