                         Program Version 4.2.1 -  RELEASE  -
|  1> %pal
|  2>  nprocs 32
|  3> end
|  4> !RI-MP2 aug-cc-pVQZ aug-cc-pVQZ/C TightSCF
|  5> %maxcore 4500
|  6> *xyzfile 1 1  05_14P1.xyz
|  7>
|  8>
|  9>                          ****END OF INPUT****

CARTESIAN COORDINATES (ANGSTROEM)
---------------------------------
  C     -2.829718   -0.669194   -0.000011
  C     -1.622558   -0.000005    0.000006
  C     -2.829711    0.669197    0.000005
  C     -0.212886   -0.000003    0.000004
  C      0.483426   -1.220956   -0.000003
  C      0.483421    1.220953    0.000008
  C      1.861877   -1.214142   -0.000007
  H     -0.062520   -2.156461   -0.000005
  C      1.861871    1.214145    0.000003
  H     -0.062529    2.156456    0.000013
  C      2.545113    0.000003   -0.000004
  H      2.411137   -2.146261   -0.000013
  H      2.411127    2.146267    0.000006
  H      3.628431    0.000005   -0.000007
  H     -3.385319    1.594353    0.000004
  H     -3.385333   -1.594346   -0.000002

 Total Charge           Charge          ....    1
 Multiplicity           Mult            ....    1
 Number of Electrons    NEL             ....   60
 Basis Dimension        Dim             .... 1042

ORBITAL ENERGIES
----------------

  NO   OCC          E(Eh)            E(eV)
   0   2.0000     -11.514443      -313.3239
   1   2.0000     -11.503458      -313.0250
   2   2.0000     -11.501852      -312.9813
   3   2.0000     -11.416422      -310.6566
   4   2.0000     -11.409997      -310.4818
   5   2.0000     -11.409877      -310.4785
   6   2.0000     -11.400506      -310.2235
   7   2.0000     -11.381848      -309.7158
   8   2.0000     -11.381798      -309.7145
   9   2.0000      -1.458695       -39.6931
  10   2.0000      -1.323471       -36.0135
  11   2.0000      -1.205983       -32.8165
  12   2.0000      -1.182051       -32.1652
  13   2.0000      -1.047025       -28.4910
  14   2.0000      -1.020698       -27.7746
  15   2.0000      -0.984141       -26.7798
  16   2.0000      -0.965653       -26.2768
  17   2.0000      -0.905578       -24.6420
  18   2.0000      -0.837434       -22.7877
  19   2.0000      -0.802459       -21.8360
  20   2.0000      -0.777800       -21.1650
  21   2.0000      -0.751624       -20.4527
  22   2.0000      -0.739220       -20.1152
  23   2.0000      -0.733234       -19.9523
  24   2.0000      -0.711460       -19.3598
  25   2.0000      -0.666121       -18.1261
  26   2.0000      -0.655050       -17.8248
  27   2.0000      -0.649750       -17.6806
  28   2.0000      -0.505065       -13.7435
  29   2.0000      -0.496658       -13.5148
  30   0.0000      -0.115386        -3.1398
  31   0.0000      -0.085730        -2.3328
  32   0.0000      -0.081492        -2.2175
  33   0.0000      -0.069121        -1.8809
  34   0.0000      -0.061256        -1.6669

MULLIKEN ATOMIC CHARGES
-----------------------
   0 C :   -0.483504
   1 C :   -0.029707
   2 C :   -0.483521
   3 C :    0.595258
   4 C :   -0.183406
   5 C :   -0.183406
   6 C :   -0.377054
   7 H :    0.419547
   8 C :   -0.377118
   9 H :    0.419554
  10 C :   -0.355929
  11 H :    0.277005
  12 H :    0.276985
  13 H :    0.308621
  14 H :    0.588344
  15 H :    0.588330
Sum of atomic charges:    1.0000000

LOEWDIN ATOMIC CHARGES
----------------------
   0 C :    0.569449
   1 C :    0.011034
   2 C :    0.569448
   3 C :   -0.088553
   4 C :    0.358813
   5 C :    0.358812
   6 C :    0.395741
   7 H :   -0.293558
   8 C :    0.395741
   9 H :   -0.293558
  10 C :    0.394117
  11 H :   -0.303465
  12 H :   -0.303465
  13 H :   -0.289446
  14 H :   -0.240554
  15 H :   -0.240554

  Mayer bond orders larger than 0.100000
B(  0-C ,  1-C ) :   1.2587 B(  0-C ,  2-C ) :   1.5893 B(  0-C ,  3-C ) :  -0.3591
B(  0-C , 15-H ) :   0.6539 B(  1-C ,  2-C ) :   1.2586 B(  1-C ,  3-C ) :   0.8344
B(  1-C ,  4-C ) :  -0.3749 B(  1-C ,  5-C ) :  -0.3749 B(  2-C ,  3-C ) :  -0.3590
B(  2-C , 14-H ) :   0.6539 B(  3-C ,  4-C ) :   0.8696 B(  3-C ,  5-C ) :   0.8697
B(  3-C ,  6-C ) :  -0.3973 B(  3-C ,  7-H ) :  -0.1058 B(  3-C ,  8-C ) :  -0.3973
B(  3-C ,  9-H ) :  -0.1059 B(  4-C ,  6-C ) :   1.3347 B(  4-C ,  7-H ) :   0.8460
B(  4-C ,  8-C ) :   0.1055 B(  4-C , 11-H ) :  -0.1079 B(  5-C ,  6-C ) :   0.1055
B(  5-C ,  8-C ) :   1.3349 B(  5-C ,  9-H ) :   0.8460 B(  5-C , 12-H ) :  -0.1079
B(  6-C , 10-C ) :   1.2102 B(  6-C , 11-H ) :   1.1095 B(  8-C , 10-C ) :   1.2103
B(  8-C , 12-H ) :   1.1095 B( 10-C , 13-H ) :   1.0345

MP2 TOTAL ENERGY:     -346.174883591 Eh
FINAL SINGLE POINT ENERGY      -346.174883591338

DIPOLE MOMENT
-------------
                                X             Y             Z
Electronic contribution:     -3.77292      -0.00001       0.00000
Nuclear contribution   :      1.54699       0.00001      -0.00000
                        -----------------------------------------
Total Dipole Moment    :     -2.22593       0.00000       0.00000
                        -----------------------------------------
Magnitude (a.u.)       :      2.22593
Magnitude (Debye)      :      5.65786

Rotational constants in cm-1:     0.159386     0.038375     0.030928
Rotational constants in MHz :  4778.278722  1150.447770   927.207573

                             ****ORCA TERMINATED NORMALLY****
TOTAL RUN TIME: 0 days 0 hours 27 minutes 52 seconds 187 msec
