                         Program Version 4.2.1 -  RELEASE  -
|  1> %pal
|  2>  nprocs 32
|  3> end
|  4> !RI-MP2 aug-cc-pVQZ aug-cc-pVQZ/C TightSCF
|  5> %maxcore 4500
|  6> *xyzfile 0 1  10_9TS.xyz
|  7>
|  8>
|  9>                          ****END OF INPUT****

CARTESIAN COORDINATES (ANGSTROEM)
---------------------------------
  C      1.323707    0.161025    0.138253
  C      0.423527    1.104460    0.400241
  N      0.016316   -1.458064   -0.640124
  N     -0.991308   -0.919779   -0.494933
  N     -1.487491    0.194069   -0.212268
  C     -2.706635    0.219679    0.583919
  H     -2.604953   -0.344340    1.516270
  H     -2.900998    1.264160    0.819716
  H     -3.558412   -0.165367    0.019201
  H      0.020850    1.717338    1.187593
  C      1.180839    1.254350   -0.878850
  H      1.949939    2.026195   -0.952328
  H      0.676615    1.052491   -1.823050
  C      2.386766   -0.674211    0.746827
  H      2.041762   -1.127250    1.678079
  H      2.700917   -1.471721    0.072702
  H      3.262440   -0.056898    0.970751

 Total Charge           Charge          ....    0
 Multiplicity           Mult            ....    1
 Number of Electrons    NEL             ....   60
 Basis Dimension        Dim             .... 1054

ORBITAL ENERGIES
----------------

  NO   OCC          E(Eh)            E(eV)
   0   2.0000     -15.726060      -427.9278
   1   2.0000     -15.654721      -425.9866
   2   2.0000     -15.608647      -424.7329
   3   2.0000     -11.271060      -306.7011
   4   2.0000     -11.240496      -305.8694
   5   2.0000     -11.231028      -305.6118
   6   2.0000     -11.224022      -305.4212
   7   2.0000     -11.222051      -305.3675
   8   2.0000      -1.475626       -40.1538
   9   2.0000      -1.249215       -33.9929
  10   2.0000      -1.153882       -31.3987
  11   2.0000      -0.986551       -26.8454
  12   2.0000      -0.972037       -26.4505
  13   2.0000      -0.811469       -22.0812
  14   2.0000      -0.750320       -20.4172
  15   2.0000      -0.731952       -19.9174
  16   2.0000      -0.698249       -19.0003
  17   2.0000      -0.677799       -18.4439
  18   2.0000      -0.655093       -17.8260
  19   2.0000      -0.622708       -16.9448
  20   2.0000      -0.588294       -16.0083
  21   2.0000      -0.576778       -15.6949
  22   2.0000      -0.571093       -15.5402
  23   2.0000      -0.568742       -15.4763
  24   2.0000      -0.545972       -14.8566
  25   2.0000      -0.458765       -12.4836
  26   2.0000      -0.439963       -11.9720
  27   2.0000      -0.400476       -10.8975
  28   2.0000      -0.367730       -10.0065
  29   2.0000      -0.311240        -8.4693
  30   0.0000       0.023063         0.6276
  31   0.0000       0.030489         0.8296
  32   0.0000       0.033503         0.9117
  33   0.0000       0.035329         0.9613
  34   0.0000       0.046343         1.2611

MULLIKEN ATOMIC CHARGES
-----------------------
   0 C :    0.112404
   1 C :   -0.420387
   2 N :   -0.195803
   3 N :    0.075957
   4 N :   -0.169387
   5 C :   -0.807135
   6 H :    0.323745
   7 H :    0.362409
   8 H :    0.348105
   9 H :    0.382916
  10 C :   -0.689580
  11 H :    0.399865
  12 H :    0.311568
  13 C :   -0.739267
  14 H :    0.190778
  15 H :    0.257245
  16 H :    0.256568
Sum of atomic charges:    0.0000000

LOEWDIN ATOMIC CHARGES
----------------------
   0 C :   -0.206233
   1 C :    0.267192
   2 N :    0.413789
   3 N :   -0.120923
   4 N :    0.293313
   5 C :    0.680641
   6 H :   -0.306826
   7 H :   -0.331456
   8 H :   -0.315185
   9 H :   -0.283348
  10 C :    0.531765
  11 H :   -0.295233
  12 H :   -0.319095
  13 C :    0.898351
  14 H :   -0.298694
  15 H :   -0.312715
  16 H :   -0.295342

  Mayer bond orders larger than 0.100000
B(  0-C ,  1-C ) :   1.3026 B(  0-C ,  2-N ) :   0.1526 B(  0-C , 10-C ) :   0.8106
B(  0-C , 13-C ) :   0.5100 B(  0-C , 14-H ) :  -0.1005 B(  0-C , 15-H ) :  -0.1071
B(  1-C ,  4-N ) :   0.2322 B(  1-C ,  9-H ) :   0.8678 B(  1-C , 10-C ) :   0.9999
B(  2-N ,  3-N ) :   1.9850 B(  2-N ,  4-N ) :   0.1901 B(  3-N ,  4-N ) :   1.1623
B(  4-N ,  5-C ) :   0.8488 B(  5-C ,  6-H ) :   0.8984 B(  5-C ,  7-H ) :   0.8818
B(  5-C ,  8-H ) :   0.8999 B( 10-C , 11-H ) :   0.7931 B( 10-C , 12-H ) :   0.9085
B( 13-C , 14-H ) :   1.0559 B( 13-C , 15-H ) :   1.0217 B( 13-C , 16-H ) :   0.9943

MP2 TOTAL ENERGY:     -359.428595972 Eh
FINAL SINGLE POINT ENERGY      -359.428595971551

DIPOLE MOMENT
-------------
                                X             Y             Z
Electronic contribution:     -2.12601      -2.72283      -2.80538
Nuclear contribution   :      1.59546       2.92162       3.52914
                        -----------------------------------------
Total Dipole Moment    :     -0.53055       0.19879       0.72377
                        -----------------------------------------
Magnitude (a.u.)       :      0.91915
Magnitude (Debye)      :      2.33631

Rotational constants in cm-1:     0.120648     0.049576     0.043067
Rotational constants in MHz :  3616.936049  1486.249585  1291.120853

                             ****ORCA TERMINATED NORMALLY****
TOTAL RUN TIME: 0 days 0 hours 34 minutes 6 seconds 286 msec
