                         Program Version 4.2.1 -  RELEASE  -
|  1> %pal
|  2>  nprocs 32
|  3> end
|  4> !RI-MP2 aug-cc-pVQZ aug-cc-pVQZ/C TightSCF
|  5> %maxcore 4500
|  6> *xyzfile 1 1  05_16TS.xyz
|  7>
|  8>
|  9>                          ****END OF INPUT****

CARTESIAN COORDINATES (ANGSTROEM)
---------------------------------
  C      1.139774   -0.792441   -0.472852
  C      1.904830    1.756018   -0.407639
  C      3.324359    1.243069   -0.676962
  C      3.573442   -0.139284   -0.103467
  C      2.605992   -1.121431   -0.753190
  H      3.492929    1.218800   -1.758828
  H      4.023220    1.968042   -0.255136
  H      3.412293   -0.139124    0.975911
  H      2.778189   -1.122164   -1.833794
  H      2.803814   -2.127669   -0.384116
  N      0.925723    0.667100   -0.699891
  O     -0.286548    1.034033   -0.841557
  C      0.238383   -1.557996   -1.440012
  H      0.466338   -2.621184   -1.358298
  H     -0.817487   -1.417410   -1.212033
  H      0.418460   -1.246634   -2.469578
  C      0.756309   -1.149478    0.973371
  H     -0.288827   -0.910065    1.171142
  H      0.872076   -2.226249    1.099841
  H      1.386525   -0.664188    1.715674
  C      1.598136    2.927896   -1.339073
  H      0.637325    3.385642   -1.109858
  H      2.372604    3.685637   -1.215031
  H      1.594513    2.606968   -2.381397
  C      1.742060    2.207541    1.053286
  H      2.409609    3.052315    1.227908
  H      0.727177    2.555836    1.247579
  H      1.998216    1.427832    1.768275
  C     -1.838274    1.474497    1.103890
  H     -1.276747    1.154790    1.982306
  H     -0.904739    1.149315    0.159459
  C     -2.900724    0.561029    0.679487
  C     -3.573811    0.654091   -0.547245
  C     -3.164623   -0.534042    1.513687
  C     -4.507954   -0.295500   -0.906897
  H     -3.351265    1.449818   -1.243396
  C     -4.107210   -1.480190    1.164828
  H     -2.643348   -0.630768    2.458719
  C     -4.775976   -1.355762   -0.047030
  H     -5.025970   -0.227504   -1.853884
  H     -4.327017   -2.311123    1.821347
  O     -1.886639    2.806548    1.088590
  C     -2.801902    3.539616    0.266381
  H     -3.818022    3.169071    0.399210
  H     -2.729728    4.567524    0.608870
  H     -2.502100    3.480222   -0.780837
  Cl    -5.945765   -2.541418   -0.499782
  N      4.951043   -0.540212   -0.295773
  C      5.486091   -1.529608    0.480972
  C      6.920900   -1.894290    0.209885
  H      7.494015   -1.751339    1.126296
  H      6.970574   -2.953315   -0.044581
  H      7.374138   -1.309949   -0.591096
  O      4.820767   -2.070733    1.344123
  H      5.494429   -0.138427   -1.042516

 Total Charge           Charge          ....    1
 Multiplicity           Mult            ....    1
 Number of Electrons    NEL             ....  198
 Basis Dimension        Dim             .... 3384

ORBITAL ENERGIES
----------------

  NO   OCC          E(Eh)            E(eV)
   0   2.0000    -104.948760     -2855.8010
   1   2.0000     -20.809590      -566.2577
   2   2.0000     -20.751654      -564.6812
   3   2.0000     -20.596530      -560.4601
   4   2.0000     -15.798584      -429.9013
   5   2.0000     -15.672803      -426.4786
   6   2.0000     -11.502494      -312.9988
   7   2.0000     -11.433628      -311.1248
   8   2.0000     -11.431547      -311.0682
   9   2.0000     -11.417842      -310.6953
  10   2.0000     -11.409418      -310.4660
  11   2.0000     -11.403923      -310.3165
  12   2.0000     -11.393611      -310.0359
  13   2.0000     -11.387368      -309.8660
  14   2.0000     -11.387019      -309.8565
  15   2.0000     -11.371829      -309.4432
  16   2.0000     -11.370496      -309.4069
  17   2.0000     -11.369631      -309.3834
  18   2.0000     -11.345015      -308.7136
  19   2.0000     -11.338595      -308.5389
  20   2.0000     -11.336926      -308.4934
  21   2.0000     -11.332852      -308.3826
  22   2.0000     -11.331343      -308.3415
  23   2.0000     -11.328066      -308.2524
  24   2.0000     -11.309939      -307.7591
  25   2.0000     -10.674030      -290.4551
  26   2.0000      -8.141151      -221.5320
  27   2.0000      -8.139239      -221.4800
  28   2.0000      -8.139205      -221.4790
  29   2.0000      -1.644640       -44.7529
  30   2.0000      -1.578946       -42.9653
  31   2.0000      -1.468403       -39.9573
  32   2.0000      -1.335387       -36.3377
  33   2.0000      -1.323257       -36.0077
  34   2.0000      -1.302341       -35.4385
  35   2.0000      -1.258116       -34.2351
  36   2.0000      -1.230207       -33.4756
  37   2.0000      -1.181879       -32.1606
  38   2.0000      -1.166705       -31.7477
  39   2.0000      -1.159054       -31.5395
  40   2.0000      -1.120342       -30.4861
  41   2.0000      -1.115323       -30.3495
  42   2.0000      -1.076500       -29.2931
  43   2.0000      -1.067714       -29.0540
  44   2.0000      -1.057131       -28.7660
  45   2.0000      -1.051244       -28.6058
  46   2.0000      -1.020049       -27.7569
  47   2.0000      -0.983812       -26.7709
  48   2.0000      -0.957454       -26.0536
  49   2.0000      -0.948023       -25.7970
  50   2.0000      -0.937317       -25.5057
  51   2.0000      -0.907896       -24.7051
  52   2.0000      -0.883816       -24.0499
  53   2.0000      -0.855469       -23.2785
  54   2.0000      -0.848988       -23.1021
  55   2.0000      -0.826092       -22.4791
  56   2.0000      -0.811326       -22.0773
  57   2.0000      -0.810196       -22.0466
  58   2.0000      -0.795033       -21.6340
  59   2.0000      -0.785946       -21.3867
  60   2.0000      -0.776768       -21.1369
  61   2.0000      -0.774279       -21.0692
  62   2.0000      -0.760232       -20.6870
  63   2.0000      -0.753494       -20.5036
  64   2.0000      -0.735897       -20.0248
  65   2.0000      -0.734036       -19.9741
  66   2.0000      -0.725191       -19.7335
  67   2.0000      -0.711895       -19.3716
  68   2.0000      -0.707235       -19.2448
  69   2.0000      -0.705655       -19.2018
  70   2.0000      -0.699997       -19.0479
  71   2.0000      -0.692269       -18.8376
  72   2.0000      -0.686890       -18.6912
  73   2.0000      -0.683758       -18.6060
  74   2.0000      -0.673532       -18.3277
  75   2.0000      -0.667634       -18.1672
  76   2.0000      -0.664850       -18.0915
  77   2.0000      -0.656331       -17.8597
  78   2.0000      -0.655174       -17.8282
  79   2.0000      -0.650060       -17.6890
  80   2.0000      -0.642199       -17.4751
  81   2.0000      -0.640841       -17.4382
  82   2.0000      -0.639084       -17.3904
  83   2.0000      -0.632803       -17.2194
  84   2.0000      -0.629988       -17.1428
  85   2.0000      -0.621581       -16.9141
  86   2.0000      -0.613900       -16.7051
  87   2.0000      -0.602935       -16.4067
  88   2.0000      -0.598557       -16.2876
  89   2.0000      -0.594861       -16.1870
  90   2.0000      -0.588655       -16.0181
  91   2.0000      -0.575884       -15.6706
  92   2.0000      -0.570491       -15.5238
  93   2.0000      -0.562800       -15.3146
  94   2.0000      -0.507689       -13.8149
  95   2.0000      -0.495049       -13.4710
  96   2.0000      -0.483190       -13.1483
  97   2.0000      -0.482652       -13.1336
  98   2.0000      -0.437885       -11.9155
  99   0.0000      -0.151677        -4.1273
 100   0.0000      -0.059076        -1.6075
 101   0.0000      -0.051975        -1.4143
 102   0.0000      -0.048440        -1.3181
 103   0.0000      -0.046606        -1.2682

MULLIKEN ATOMIC CHARGES
-----------------------
   0 C :    1.493708
   1 C :    1.144250
   2 C :   -0.783524
   3 C :    1.789884
   4 C :   -1.122328
   5 H :    0.177908
   6 H :    0.158724
   7 H :    0.162345
   8 H :    0.247623
   9 H :    0.230780
  10 N :    1.468199
  11 O :   -1.474515
  12 C :   -1.337288
  13 H :    0.199965
  14 H :    0.360737
  15 H :    0.236920
  16 C :   -1.619569
  17 H :    0.522761
  18 H :    0.103933
  19 H :    0.268537
  20 C :   -1.314555
  21 H :    0.296732
  22 H :    0.231777
  23 H :    0.246829
  24 C :   -1.352491
  25 H :    0.092648
  26 H :    0.290346
  27 H :    0.295107
  28 C :    1.825297
  29 H :    0.143577
  30 H :    0.618063
  31 C :    0.438115
  32 C :   -0.591452
  33 C :   -0.453907
  34 C :    0.041187
  35 H :    0.126843
  36 C :   -0.163765
  37 H :    0.285423
  38 C :   -0.549479
  39 H :    0.356066
  40 H :    0.353848
  41 O :   -1.132217
  42 C :   -0.880423
  43 H :    0.352034
  44 H :    0.395488
  45 H :    0.307958
  46 Cl:   -0.369936
  47 N :   -1.094170
  48 C :    1.002417
  49 C :   -0.908121
  50 H :    0.288626
  51 H :    0.286050
  52 H :    0.212169
  53 O :   -0.933400
  54 H :    0.028268
Sum of atomic charges:    1.0000000

LOEWDIN ATOMIC CHARGES
----------------------
   0 C :   -0.362592
   1 C :   -0.365596
   2 C :    0.534876
   3 C :   -0.021246
   4 C :    0.532971
   5 H :   -0.253879
   6 H :   -0.244293
   7 H :   -0.337419
   8 H :   -0.250171
   9 H :   -0.270395
  10 N :    0.202090
  11 O :    1.105608
  12 C :    0.928344
  13 H :   -0.256105
  14 H :   -0.281610
  15 H :   -0.255143
  16 C :    0.955124
  17 H :   -0.310013
  18 H :   -0.244677
  19 H :   -0.278970
  20 C :    0.925375
  21 H :   -0.279991
  22 H :   -0.258004
  23 H :   -0.256351
  24 C :    0.952993
  25 H :   -0.249880
  26 H :   -0.303766
  27 H :   -0.281893
  28 C :    0.034583
  29 H :   -0.298437
  30 H :   -0.934817
  31 C :   -0.052206
  32 C :    0.346425
  33 C :    0.358559
  34 C :    0.250078
  35 H :   -0.331694
  36 C :    0.248294
  37 H :   -0.296114
  38 C :   -0.832549
  39 H :   -0.338368
  40 H :   -0.338258
  41 O :    0.984911
  42 C :    0.673151
  43 H :   -0.303426
  44 H :   -0.293503
  45 H :   -0.291611
  46 Cl:    1.274049
  47 N :    0.878914
  48 C :   -0.806616
  49 C :    0.914117
  50 H :   -0.290340
  51 H :   -0.289833
  52 H :   -0.304329
  53 O :    0.742325
  54 H :   -0.478695

  Mayer bond orders larger than 0.100000
B(  0-C ,  1-C ) :   0.2642 B(  0-C ,  8-H ) :  -0.1046 B(  0-C , 10-N ) :   0.9174
B(  0-C , 11-O ) :   0.1165 B(  0-C , 13-H ) :  -0.2435 B(  0-C , 14-H ) :  -0.2467
B(  0-C , 15-H ) :  -0.2773 B(  0-C , 16-C ) :   0.2515 B(  0-C , 17-H ) :  -0.1310
B(  0-C , 19-H ) :  -0.2155 B(  1-C ,  2-C ) :   0.5048 B(  1-C , 10-N ) :   0.8038
B(  1-C , 21-H ) :  -0.2236 B(  1-C , 22-H ) :  -0.2057 B(  1-C , 23-H ) :  -0.2663
B(  1-C , 24-C ) :   0.2925 B(  1-C , 26-H ) :  -0.1453 B(  1-C , 27-H ) :  -0.2150
B(  2-C ,  3-C ) :   0.3728 B(  2-C ,  4-C ) :  -0.1155 B(  2-C ,  5-H ) :   1.1704
B(  2-C ,  6-H ) :   1.1413 B(  3-C ,  4-C ) :   0.8198 B(  3-C ,  5-H ) :  -0.1368
B(  3-C ,  6-H ) :  -0.1314 B(  3-C ,  7-H ) :   1.0515 B(  3-C , 10-N ) :  -0.1027
B(  3-C , 47-N ) :  -1.0691 B(  3-C , 54-H ) :  -0.4004 B(  4-C ,  8-H ) :   1.0957
B(  4-C ,  9-H ) :   1.0962 B(  4-C , 47-N ) :   0.5642 B(  9-H , 53-O ) :  -0.1203
B( 10-N , 28-C ) :   0.2465 B( 11-O , 12-C ) :  -0.1111 B( 11-O , 41-O ) :   0.1414
B( 12-C , 13-H ) :   1.1713 B( 12-C , 14-H ) :   0.9860 B( 12-C , 15-H ) :   1.2165
B( 12-C , 16-C ) :   0.1436 B( 16-C , 17-H ) :   0.6620 B( 16-C , 18-H ) :   1.2426
B( 16-C , 19-H ) :   1.1811 B( 16-C , 53-O ) :   0.1050 B( 20-C , 21-H ) :   1.0268
B( 20-C , 22-H ) :   1.1325 B( 20-C , 23-H ) :   1.1934 B( 20-C , 24-C ) :   0.1500
B( 24-C , 25-H ) :   1.1888 B( 24-C , 26-H ) :   1.0023 B( 24-C , 27-H ) :   1.1038
B( 28-C , 29-H ) :   1.2198 B( 28-C , 30-H ) :   0.4872 B( 28-C , 32-C ) :  -0.2049
B( 28-C , 33-C ) :  -0.3062 B( 28-C , 41-O ) :  -0.2366 B( 28-C , 42-C ) :  -0.3388
B( 29-H , 31-C ) :  -0.1758 B( 30-H , 33-C ) :   0.1051 B( 30-H , 41-O ) :   0.3304
B( 31-C , 32-C ) :   0.9554 B( 31-C , 33-C ) :   1.0992 B( 31-C , 34-C ) :  -0.1249
B( 31-C , 35-H ) :  -0.1707 B( 31-C , 36-C ) :  -0.2387 B( 31-C , 38-C ) :  -0.1544
B( 32-C , 33-C ) :  -0.1392 B( 32-C , 34-C ) :   1.3871 B( 32-C , 35-H ) :   1.1438
B( 32-C , 38-C ) :   0.1838 B( 32-C , 39-H ) :  -0.1322 B( 33-C , 36-C ) :   1.4505
B( 33-C , 37-H ) :   0.9810 B( 33-C , 38-C ) :   0.1851 B( 33-C , 40-H ) :  -0.1097
B( 34-C , 38-C ) :   0.8032 B( 34-C , 39-H ) :   0.9309 B( 34-C , 46-Cl) :  -0.3383
B( 36-C , 37-H ) :  -0.1082 B( 36-C , 38-C ) :   0.9357 B( 36-C , 40-H ) :   0.9368
B( 36-C , 46-Cl) :  -0.2574 B( 38-C , 46-Cl) :   1.2784 B( 41-O , 42-C ) :   1.1217
B( 42-C , 43-H ) :   0.8317 B( 42-C , 44-H ) :   0.8913 B( 42-C , 45-H ) :   0.9082
B( 47-N , 48-C ) :   1.1205 B( 47-N , 53-O ) :   0.1570 B( 47-N , 54-H ) :   1.4012
B( 48-C , 49-C ) :   0.7268 B( 48-C , 52-H ) :  -0.1610 B( 48-C , 53-O ) :   0.9563
B( 49-C , 50-H ) :   0.9760 B( 49-C , 51-H ) :   0.9514 B( 49-C , 52-H ) :   1.0484

MP2 TOTAL ENERGY:    -1534.910789189 Eh
FINAL SINGLE POINT ENERGY     -1534.910789188799

DIPOLE MOMENT
-------------
                                X             Y             Z
Electronic contribution:    -38.37757     -14.66250       0.35026
Nuclear contribution   :     38.01265      16.91226      -1.04831
                        -----------------------------------------
Total Dipole Moment    :     -0.36492       2.24976      -0.69805
                        -----------------------------------------
Magnitude (a.u.)       :      2.38366
Magnitude (Debye)      :      6.05879

Rotational constants in cm-1:     0.011274     0.003137     0.002694
Rotational constants in MHz :   337.973156    94.041602    80.758168

                             ****ORCA TERMINATED NORMALLY****
TOTAL RUN TIME: 1 days 2 hours 20 minutes 24 seconds 558 msec
