                         Program Version 4.2.1 -  RELEASE  -
|  1> %pal
|  2>  nprocs 32
|  3> end
|  4> !RI-MP2 aug-cc-pVQZ aug-cc-pVQZ/C TightSCF
|  5> %maxcore 4500
|  6> *xyzfile 0 2  03_26P1.xyz
|  7>
|  8>
|  9>                          ****END OF INPUT****

CARTESIAN COORDINATES (ANGSTROEM)
---------------------------------
  N     -0.267027    0.651264   -0.143902
  S      0.921461   -0.497541    0.051396
  O      2.131789    0.244328   -0.673659
  C      2.657335    1.438297   -0.062215
  C     -1.668592    0.257404   -0.011218
  O      1.188901   -0.572328    1.471580
  O      0.685250   -1.682971   -0.729684
  H      3.502708    1.721115   -0.682831
  H      2.982854    1.224047    0.954838
  H      1.897380    2.219424   -0.069616
  C     -1.930053   -0.825171    1.041905
  C     -2.106480   -0.233875   -1.407844
  C     -2.417038    1.542268    0.346488
  H     -1.464017   -1.773393    0.774822
  H     -3.006589   -0.986485    1.117028
  H     -1.557488   -0.518048    2.019395
  H     -1.581188   -1.147023   -1.682960
  H     -1.912649    0.528753   -2.162999
  H     -3.179800   -0.431529   -1.380030
  H     -2.103378    1.909137    1.325020
  H     -3.491338    1.351383    0.376992
  H     -2.219239    2.318670   -0.393274

 Total Charge           Charge          ....    0
 Multiplicity           Mult            ....    2
 Number of Electrons    NEL             ....   89
 Basis Dimension        Dim             .... 1356

ORBITAL ENERGIES
----------------
                 SPIN UP ORBITALS
  NO   OCC          E(Eh)            E(eV)
   0   1.0000     -92.231467     -2509.7458
   1   1.0000     -20.623800      -561.2021
   2   1.0000     -20.565310      -559.6105
   3   1.0000     -20.564237      -559.5813
   4   1.0000     -15.642628      -425.6575
   5   1.0000     -11.302898      -307.5675
   6   1.0000     -11.295500      -307.3662
   7   1.0000     -11.230552      -305.5988
   8   1.0000     -11.229546      -305.5715
   9   1.0000     -11.226073      -305.4770
  10   1.0000      -9.192292      -250.1350
  11   1.0000      -6.878913      -187.1847
  12   1.0000      -6.877671      -187.1510
  13   1.0000      -6.877111      -187.1357
  14   1.0000      -1.517284       -41.2874
  15   1.0000      -1.396654       -38.0049
  16   1.0000      -1.364152       -37.1205
  17   1.0000      -1.272826       -34.6353
  18   1.0000      -1.082691       -29.4615
  19   1.0000      -0.987975       -26.8842
  20   1.0000      -0.957049       -26.0426
  21   1.0000      -0.956417       -26.0254
  22   1.0000      -0.863296       -23.4915
  23   1.0000      -0.776937       -21.1415
  24   1.0000      -0.733599       -19.9623
  25   1.0000      -0.704413       -19.1681
  26   1.0000      -0.696266       -18.9464
  27   1.0000      -0.660200       -17.9649
  28   1.0000      -0.656067       -17.8525
  29   1.0000      -0.637874       -17.3574
  30   1.0000      -0.625217       -17.0130
  31   1.0000      -0.602062       -16.3829
  32   1.0000      -0.590033       -16.0556
  33   1.0000      -0.568693       -15.4749
  34   1.0000      -0.555249       -15.1091
  35   1.0000      -0.545677       -14.8486
  36   1.0000      -0.534174       -14.5356
  37   1.0000      -0.529541       -14.4095
  38   1.0000      -0.521377       -14.1874
  39   1.0000      -0.516773       -14.0621
  40   1.0000      -0.509019       -13.8511
  41   1.0000      -0.504565       -13.7299
  42   1.0000      -0.490507       -13.3474
  43   1.0000      -0.457786       -12.4570
  44   1.0000      -0.451599       -12.2886
  45   0.0000       0.021638         0.5888
  46   0.0000       0.027970         0.7611
  47   0.0000       0.031665         0.8616
  48   0.0000       0.034173         0.9299
  49   0.0000       0.043701         1.1892

                 SPIN DOWN ORBITALS
  NO   OCC          E(Eh)            E(eV)
   0   1.0000     -92.232104     -2509.7631
   1   1.0000     -20.623903      -561.2049
   2   1.0000     -20.563288      -559.5555
   3   1.0000     -20.562627      -559.5375
   4   1.0000     -15.610961      -424.7959
   5   1.0000     -11.302919      -307.5681
   6   1.0000     -11.297839      -307.4298
   7   1.0000     -11.229131      -305.5602
   8   1.0000     -11.228359      -305.5392
   9   1.0000     -11.225346      -305.4572
  10   1.0000      -9.193167      -250.1588
  11   1.0000      -6.879746      -187.2074
  12   1.0000      -6.879105      -187.1900
  13   1.0000      -6.877908      -187.1574
  14   1.0000      -1.513251       -41.1777
  15   1.0000      -1.395105       -37.9627
  16   1.0000      -1.359024       -36.9809
  17   1.0000      -1.200212       -32.6594
  18   1.0000      -1.057958       -28.7885
  19   1.0000      -0.983854       -26.7720
  20   1.0000      -0.954768       -25.9806
  21   1.0000      -0.949753       -25.8441
  22   1.0000      -0.855248       -23.2725
  23   1.0000      -0.772258       -21.0142
  24   1.0000      -0.728335       -19.8190
  25   1.0000      -0.691343       -18.8124
  26   1.0000      -0.687603       -18.7106
  27   1.0000      -0.655466       -17.8361
  28   1.0000      -0.633816       -17.2470
  29   1.0000      -0.625869       -17.0308
  30   1.0000      -0.617590       -16.8055
  31   1.0000      -0.591296       -16.0900
  32   1.0000      -0.572129       -15.5684
  33   1.0000      -0.560353       -15.2480
  34   1.0000      -0.553226       -15.0541
  35   1.0000      -0.535565       -14.5735
  36   1.0000      -0.528745       -14.3879
  37   1.0000      -0.517021       -14.0689
  38   1.0000      -0.510081       -13.8800
  39   1.0000      -0.502767       -13.6810
  40   1.0000      -0.499298       -13.5866
  41   1.0000      -0.489171       -13.3110
  42   1.0000      -0.485402       -13.2085
  43   1.0000      -0.433992       -11.8095
  44   0.0000       0.021687         0.5901
  45   0.0000       0.027985         0.7615
  46   0.0000       0.029915         0.8140
  47   0.0000       0.034189         0.9303
  48   0.0000       0.043673         1.1884

MULLIKEN ATOMIC CHARGES AND SPIN POPULATIONS
--------------------------------------------
   0 N :   -0.837843    1.088425
   1 S :    3.299467   -0.100366
   2 O :   -0.992372   -0.004587
   3 C :   -0.777961    0.000026
   4 C :    1.730724   -0.183465
   5 O :   -1.225632    0.046883
   6 O :   -1.312725    0.018120
   7 H :    0.464453   -0.000193
   8 H :    0.309934   -0.000542
   9 H :    0.325370    0.000846
  10 C :   -1.081233    0.035241
  11 C :   -1.135606    0.097588
  12 C :   -1.117273    0.007895
  13 H :    0.237368   -0.002976
  14 H :    0.290192   -0.002047
  15 H :    0.212567    0.004229
  16 H :    0.279934    0.006402
  17 H :    0.281527   -0.005274
  18 H :    0.285187    0.007932
  19 H :    0.226142   -0.005151
  20 H :    0.281752   -0.004521
  21 H :    0.256030   -0.004464
Sum of atomic charges         :    0.0000000

LOEWDIN ATOMIC CHARGES AND SPIN POPULATIONS
-------------------------------------------
   0 N :    0.476336    0.638430
   1 S :   -0.769800    0.117738
   2 O :    0.600053   -0.002884
   3 C :    0.540627   -0.001495
   4 C :   -0.601097    0.123969
   5 O :    0.335679    0.041394
   6 O :    0.334708    0.014080
   7 H :   -0.325767   -0.000162
   8 H :   -0.336533   -0.000432
   9 H :   -0.333173   -0.001269
  10 C :    0.872743    0.006674
  11 C :    0.885873    0.031002
  12 C :    0.875913    0.004783
  13 H :   -0.315443    0.000548
  14 H :   -0.271155    0.001379
  15 H :   -0.282189    0.002352
  16 H :   -0.315942    0.005353
  17 H :   -0.270974    0.008504
  18 H :   -0.271597    0.008683
  19 H :   -0.272436    0.002481
  20 H :   -0.274266    0.000110
  21 H :   -0.281562   -0.001238

  Mayer bond orders larger than 0.100000
B(  0-N ,  1-S ) :   0.9069 B(  0-N ,  2-O ) :  -0.1699 B(  0-N , 11-C ) :   0.1393
B(  0-N , 12-C ) :   0.1497 B(  1-S ,  2-O ) :   0.4441 B(  1-S ,  5-O ) :   0.9466
B(  1-S ,  6-O ) :   0.8110 B(  2-O ,  3-C ) :   0.8900 B(  3-C ,  7-H ) :   0.7964
B(  3-C ,  8-H ) :   0.8968 B(  3-C ,  9-H ) :   0.8542 B(  4-C , 10-C ) :   0.4798
B(  4-C , 11-C ) :   0.4827 B(  4-C , 12-C ) :   0.2380 B(  4-C , 19-H ) :  -0.1578
B(  4-C , 21-H ) :  -0.1540 B( 10-C , 11-C ) :   0.1295 B( 10-C , 13-H ) :   1.0464
B( 10-C , 14-H ) :   0.9474 B( 10-C , 15-H ) :   1.0279 B( 11-C , 12-C ) :   0.1157
B( 11-C , 16-H ) :   0.9917 B( 11-C , 17-H ) :   0.9912 B( 11-C , 18-H ) :   0.9357
B( 12-C , 19-H ) :   1.0610 B( 12-C , 20-H ) :   0.9853 B( 12-C , 21-H ) :   1.0521

MP2 TOTAL ENERGY:     -875.153865348 Eh
FINAL SINGLE POINT ENERGY      -875.153865347612

DIPOLE MOMENT
-------------
                                X             Y             Z
Electronic contribution:     11.50887      -5.06921      -0.30319
Nuclear contribution   :    -12.16755       6.43949       0.19613
                        -----------------------------------------
Total Dipole Moment    :     -0.65868       1.37028      -0.10706
                        -----------------------------------------
Magnitude (a.u.)       :      1.52413
Magnitude (Debye)      :      3.87404

Rotational constants in cm-1:     0.064177     0.028017     0.026005
Rotational constants in MHz :  1923.968252   839.928664   779.608335

                             ****ORCA TERMINATED NORMALLY****
TOTAL RUN TIME: 0 days 1 hours 57 minutes 53 seconds 796 msec
