                         Program Version 4.2.1 -  RELEASE  -
|  1> %pal
|  2>  nprocs 32
|  3> end
|  4> !RI-MP2 aug-cc-pVQZ aug-cc-pVQZ/C TightSCF
|  5> %maxcore 4500
|  6> *xyzfile 1 1  05_20TS.xyz
|  7>
|  8>
|  9>                          ****END OF INPUT****

CARTESIAN COORDINATES (ANGSTROEM)
---------------------------------
  C     -3.259882    3.421510   -0.623206
  C     -3.454349    2.900640    0.652973
  C     -3.390794    1.535517    0.856677
  C     -3.142513    0.682763   -0.225663
  C     -2.946539    1.208405   -1.506891
  C     -3.008676    2.577063   -1.698998
  H     -3.310480    4.491762   -0.779937
  H     -3.658589    3.563260    1.484104
  H     -3.540607    1.124571    1.848573
  H     -2.770947    0.540121   -2.340015
  H     -2.869066    2.989548   -2.689982
  C     -3.049963   -0.747370    0.001857
  C     -3.802112   -1.659147    0.952571
  H     -1.800662   -0.844314    0.516859
  C     -3.736481   -2.644442   -0.224308
  H     -4.798581   -1.299792    1.205975
  H     -3.269182   -1.954390    1.855372
  H     -3.092330   -3.512453   -0.100432
  O     -3.078216   -1.620755   -1.043337
  C      0.837702    0.352105    1.195433
  C      0.842489   -1.718679   -0.462764
  C      2.375635   -1.665343   -0.397408
  C      2.914741   -0.269782   -0.145528
  C      2.365741    0.245852    1.179524
  H      2.715646   -2.332052    0.402447
  H      2.761136   -2.061890   -1.338732
  H      2.609383    0.405962   -0.945612
  H      2.692210   -0.422518    1.982260
  H      2.774520    1.235957    1.381556
  N      0.285040   -0.935484    0.677750
  O     -0.862519   -1.288495    1.102908
  C      0.347299    0.539321    2.628425
  H      0.865064    1.396919    3.058521
  H     -0.723183    0.736136    2.670966
  H      0.566867   -0.336864    3.239458
  C      0.362564    1.534410    0.334851
  H     -0.723997    1.572277    0.286494
  H      0.713460    2.454974    0.802551
  H      0.760914    1.513237   -0.676373
  C      0.381846   -3.168144   -0.324939
  H     -0.684824   -3.272867   -0.514372
  H      0.913026   -3.770821   -1.062236
  H      0.605279   -3.561283    0.667317
  C      0.317401   -1.145025   -1.790230
  H      0.662754   -1.787175   -2.602013
  H     -0.772227   -1.149952   -1.808224
  H      0.673559   -0.136443   -1.986179
  N      4.362633   -0.266507   -0.161313
  C      5.039729    0.898992   -0.388505
  C      6.542644    0.815586   -0.371661
  H      6.920394   -0.188761   -0.179066
  H      6.919765    1.161749   -1.334279
  H      6.922154    1.495504    0.391522
  O      4.440761    1.937260   -0.596610
  H      4.871100   -1.104612    0.069813
  H     -4.685375   -2.921326   -0.678334

 Total Charge           Charge          ....    1
 Multiplicity           Mult            ....    1
 Number of Electrons    NEL             ....  188
 Basis Dimension        Dim             .... 3426

ORBITAL ENERGIES
----------------

  NO   OCC          E(Eh)            E(eV)
   0   2.0000     -20.805667      -566.1510
   1   2.0000     -20.735697      -564.2470
   2   2.0000     -20.594199      -560.3966
   3   2.0000     -15.797448      -429.8704
   4   2.0000     -15.670350      -426.4119
   5   2.0000     -11.493910      -312.7652
   6   2.0000     -11.431744      -311.0736
   7   2.0000     -11.429289      -311.0068
   8   2.0000     -11.406806      -310.3950
   9   2.0000     -11.399882      -310.2066
  10   2.0000     -11.386873      -309.8526
  11   2.0000     -11.381474      -309.7056
  12   2.0000     -11.374532      -309.5167
  13   2.0000     -11.371502      -309.4343
  14   2.0000     -11.368525      -309.3533
  15   2.0000     -11.366319      -309.2933
  16   2.0000     -11.357966      -309.0660
  17   2.0000     -11.356526      -309.0268
  18   2.0000     -11.342459      -308.6440
  19   2.0000     -11.332636      -308.3767
  20   2.0000     -11.332578      -308.3751
  21   2.0000     -11.328470      -308.2634
  22   2.0000     -11.326974      -308.2226
  23   2.0000     -11.324905      -308.1663
  24   2.0000     -11.308243      -307.7129
  25   2.0000      -1.640554       -44.6417
  26   2.0000      -1.582386       -43.0589
  27   2.0000      -1.466021       -39.8925
  28   2.0000      -1.332749       -36.2659
  29   2.0000      -1.301100       -35.4047
  30   2.0000      -1.295497       -35.2523
  31   2.0000      -1.226179       -33.3660
  32   2.0000      -1.198257       -32.6062
  33   2.0000      -1.172457       -31.9042
  34   2.0000      -1.158291       -31.5187
  35   2.0000      -1.149162       -31.2703
  36   2.0000      -1.114385       -30.3240
  37   2.0000      -1.075656       -29.2701
  38   2.0000      -1.073574       -29.2134
  39   2.0000      -1.063202       -28.9312
  40   2.0000      -1.051530       -28.6136
  41   2.0000      -1.047522       -28.5045
  42   2.0000      -0.972962       -26.4756
  43   2.0000      -0.960868       -26.1466
  44   2.0000      -0.955753       -26.0074
  45   2.0000      -0.944580       -25.7033
  46   2.0000      -0.919233       -25.0136
  47   2.0000      -0.887236       -24.1429
  48   2.0000      -0.881292       -23.9812
  49   2.0000      -0.859418       -23.3860
  50   2.0000      -0.837387       -22.7865
  51   2.0000      -0.810183       -22.0462
  52   2.0000      -0.807299       -21.9677
  53   2.0000      -0.805344       -21.9145
  54   2.0000      -0.800286       -21.7769
  55   2.0000      -0.789687       -21.4885
  56   2.0000      -0.772475       -21.0201
  57   2.0000      -0.757500       -20.6126
  58   2.0000      -0.749496       -20.3948
  59   2.0000      -0.734507       -19.9870
  60   2.0000      -0.731956       -19.9175
  61   2.0000      -0.722143       -19.6505
  62   2.0000      -0.720405       -19.6032
  63   2.0000      -0.708684       -19.2843
  64   2.0000      -0.705857       -19.2073
  65   2.0000      -0.696520       -18.9533
  66   2.0000      -0.693847       -18.8805
  67   2.0000      -0.691496       -18.8166
  68   2.0000      -0.684531       -18.6270
  69   2.0000      -0.681389       -18.5415
  70   2.0000      -0.668049       -18.1785
  71   2.0000      -0.664833       -18.0910
  72   2.0000      -0.655087       -17.8258
  73   2.0000      -0.652274       -17.7493
  74   2.0000      -0.648495       -17.6465
  75   2.0000      -0.643281       -17.5046
  76   2.0000      -0.639377       -17.3983
  77   2.0000      -0.636612       -17.3231
  78   2.0000      -0.631927       -17.1956
  79   2.0000      -0.630908       -17.1679
  80   2.0000      -0.622103       -16.9283
  81   2.0000      -0.618530       -16.8311
  82   2.0000      -0.615689       -16.7537
  83   2.0000      -0.604520       -16.4498
  84   2.0000      -0.597778       -16.2664
  85   2.0000      -0.594839       -16.1864
  86   2.0000      -0.586540       -15.9606
  87   2.0000      -0.573622       -15.6090
  88   2.0000      -0.567181       -15.4338
  89   2.0000      -0.506094       -13.7715
  90   2.0000      -0.502431       -13.6719
  91   2.0000      -0.480270       -13.0688
  92   2.0000      -0.469225       -12.7683
  93   2.0000      -0.431375       -11.7383
  94   0.0000      -0.147830        -4.0227
  95   0.0000      -0.058904        -1.6028
  96   0.0000      -0.049717        -1.3529
  97   0.0000      -0.048258        -1.3132
  98   0.0000      -0.046748        -1.2721

MULLIKEN ATOMIC CHARGES
-----------------------
   0 C :   -0.310644
   1 C :   -0.419915
   2 C :   -0.738110
   3 C :    0.033619
   4 C :   -0.501373
   5 C :   -0.452725
   6 H :    0.293941
   7 H :    0.243685
   8 H :    0.208205
   9 H :    0.222213
  10 H :    0.243877
  11 C :    3.744314
  12 C :   -0.933961
  13 H :   -0.110984
  14 C :   -0.724473
  15 H :    0.329218
  16 H :    0.306041
  17 H :    0.407366
  18 O :   -1.128746
  19 C :    1.820535
  20 C :    1.065151
  21 C :   -0.865173
  22 C :    1.869547
  23 C :   -1.208728
  24 H :    0.209509
  25 H :    0.132749
  26 H :    0.203206
  27 H :    0.254729
  28 H :    0.208367
  29 N :    1.533118
  30 O :   -1.447305
  31 C :   -1.328892
  32 H :    0.185493
  33 H :    0.274866
  34 H :    0.209871
  35 C :   -1.676298
  36 H :    0.510618
  37 H :    0.132577
  38 H :    0.165277
  39 C :   -1.296365
  40 H :    0.307685
  41 H :    0.187738
  42 H :    0.209589
  43 C :   -1.287190
  44 H :    0.056854
  45 H :    0.316424
  46 H :    0.254230
  47 N :   -1.140225
  48 C :    1.017293
  49 C :   -0.917741
  50 H :    0.211687
  51 H :    0.290088
  52 H :    0.289963
  53 O :   -0.945231
  54 H :    0.014773
  55 H :    0.469663
Sum of atomic charges:    1.0000000

LOEWDIN ATOMIC CHARGES
----------------------
   0 C :    0.383603
   1 C :    0.387341
   2 C :    0.354278
   3 C :   -0.066953
   4 C :    0.364836
   5 C :    0.390043
   6 H :   -0.296324
   7 H :   -0.301745
   8 H :   -0.290206
   9 H :   -0.305405
  10 H :   -0.301926
  11 C :   -0.405747
  12 C :    0.593882
  13 H :   -0.904648
  14 C :    0.333013
  15 H :   -0.237436
  16 H :   -0.247065
  17 H :   -0.265944
  18 O :    0.970505
  19 C :   -0.354987
  20 C :   -0.359281
  21 C :    0.536861
  22 C :   -0.019270
  23 C :    0.534367
  24 H :   -0.253292
  25 H :   -0.244225
  26 H :   -0.340383
  27 H :   -0.248550
  28 H :   -0.268429
  29 N :    0.209224
  30 O :    1.098502
  31 C :    0.921749
  32 H :   -0.257981
  33 H :   -0.279964
  34 H :   -0.257691
  35 C :    0.956720
  36 H :   -0.327616
  37 H :   -0.241315
  38 H :   -0.286554
  39 C :    0.921027
  40 H :   -0.296464
  41 H :   -0.256760
  42 H :   -0.254700
  43 C :    0.957369
  44 H :   -0.247373
  45 H :   -0.314254
  46 H :   -0.288951
  47 N :    0.878356
  48 C :   -0.806891
  49 C :    0.913351
  50 H :   -0.304601
  51 H :   -0.290648
  52 H :   -0.290074
  53 O :    0.741870
  54 H :   -0.479499
  55 H :   -0.253745

  Mayer bond orders larger than 0.100000
B(  0-C ,  1-C ) :   1.2006 B(  0-C ,  5-C ) :   1.1895 B(  0-C ,  6-H ) :   1.1087
B(  1-C ,  2-C ) :   1.5087 B(  1-C ,  3-C ) :  -0.3683 B(  1-C ,  5-C ) :   0.1124
B(  1-C ,  7-H ) :   1.1458 B(  2-C ,  3-C ) :   1.3715 B(  2-C ,  5-C ) :   0.1255
B(  2-C ,  7-H ) :  -0.1044 B(  2-C ,  8-H ) :   1.0885 B(  2-C , 11-C ) :  -1.0263
B(  2-C , 13-H ) :   0.1606 B(  3-C ,  4-C ) :   1.2788 B(  3-C ,  5-C ) :  -0.5308
B(  3-C , 11-C ) :  -1.0249 B(  3-C , 13-H ) :   0.1478 B(  3-C , 18-O ) :   0.1833
B(  4-C ,  5-C ) :   1.3322 B(  4-C ,  9-H ) :   1.0970 B(  4-C , 10-H ) :  -0.1130
B(  4-C , 11-C ) :  -0.7503 B(  5-C ,  6-H ) :  -0.1117 B(  5-C , 10-H ) :   1.1417
B( 11-C , 12-C ) :   0.2437 B( 11-C , 13-H ) :   0.4038 B( 11-C , 14-C ) :  -0.9259
B( 11-C , 16-H ) :  -0.2761 B( 11-C , 17-H ) :  -0.1580 B( 11-C , 18-O ) :  -0.7575
B( 11-C , 29-N ) :   0.2559 B( 11-C , 30-O ) :  -0.1142 B( 12-C , 14-C ) :   1.5737
B( 12-C , 15-H ) :   0.9267 B( 12-C , 16-H ) :   0.9544 B( 12-C , 18-O ) :   0.1892
B( 13-H , 18-O ) :   0.5365 B( 13-H , 29-N ) :  -0.1081 B( 13-H , 30-O ) :   0.3076
B( 14-C , 17-H ) :   0.8522 B( 14-C , 18-O ) :   1.1250 B( 14-C , 55-H ) :   0.7783
B( 18-O , 20-C ) :   0.1634 B( 19-C , 20-C ) :   0.3939 B( 19-C , 27-H ) :  -0.1449
B( 19-C , 29-N ) :   1.0239 B( 19-C , 30-O ) :   0.1054 B( 19-C , 31-C ) :  -0.2703
B( 19-C , 32-H ) :  -0.2751 B( 19-C , 33-H ) :  -0.2197 B( 19-C , 34-H ) :  -0.3277
B( 19-C , 35-C ) :   0.1439 B( 19-C , 36-H ) :  -0.2230 B( 19-C , 38-H ) :  -0.2759
B( 20-C , 21-C ) :   0.4762 B( 20-C , 25-H ) :  -0.1070 B( 20-C , 26-H ) :   0.1016
B( 20-C , 29-N ) :   1.0409 B( 20-C , 30-O ) :   0.1009 B( 20-C , 39-C ) :  -0.2988
B( 20-C , 40-H ) :  -0.2668 B( 20-C , 41-H ) :  -0.2375 B( 20-C , 42-H ) :  -0.3466
B( 20-C , 43-C ) :   0.3236 B( 20-C , 46-H ) :  -0.2049 B( 21-C , 22-C ) :   0.3494
B( 21-C , 24-H ) :   1.1432 B( 21-C , 25-H ) :   1.1413 B( 21-C , 47-N ) :   0.1246
B( 22-C , 23-C ) :   0.7539 B( 22-C , 25-H ) :  -0.1332 B( 22-C , 26-H ) :   0.9826
B( 22-C , 47-N ) :  -1.1893 B( 22-C , 54-H ) :  -0.4483 B( 23-C , 27-H ) :   1.0974
B( 23-C , 28-H ) :   1.0909 B( 23-C , 47-N ) :   0.5514 B( 28-H , 53-O ) :  -0.1148
B( 29-N , 36-H ) :   0.1074 B( 29-N , 43-C ) :  -0.1339 B( 31-C , 32-H ) :   1.1968
B( 31-C , 33-H ) :   1.0553 B( 31-C , 34-H ) :   1.3056 B( 31-C , 35-C ) :   0.1516
B( 35-C , 36-H ) :   0.6980 B( 35-C , 37-H ) :   1.1138 B( 35-C , 38-H ) :   1.2298
B( 35-C , 53-O ) :   0.1242 B( 39-C , 40-H ) :   1.0327 B( 39-C , 41-H ) :   1.1784
B( 39-C , 42-H ) :   1.2865 B( 39-C , 43-C ) :   0.1489 B( 43-C , 44-H ) :   1.2062
B( 43-C , 45-H ) :   0.9272 B( 43-C , 46-H ) :   1.1321 B( 47-N , 48-C ) :   1.0927
B( 47-N , 53-O ) :   0.1638 B( 47-N , 54-H ) :   1.4238 B( 48-C , 49-C ) :   0.7173
B( 48-C , 50-H ) :  -0.1682 B( 48-C , 53-O ) :   0.9399 B( 49-C , 50-H ) :   1.0522
B( 49-C , 51-H ) :   0.9728 B( 49-C , 52-H ) :   0.9491

MP2 TOTAL ENERGY:    -1113.804680869 Eh
FINAL SINGLE POINT ENERGY     -1113.804680868514

DIPOLE MOMENT
-------------
                                X             Y             Z
Electronic contribution:    -10.48397       4.49110      -2.19965
Nuclear contribution   :      8.46056      -6.12697       2.88330
                        -----------------------------------------
Total Dipole Moment    :     -2.02341      -1.63587       0.68365
                        -----------------------------------------
Magnitude (a.u.)       :      2.69029
Magnitude (Debye)      :      6.83817

Rotational constants in cm-1:     0.011808     0.004505     0.003837
Rotational constants in MHz :   353.995914   135.062885   115.023437

                             ****ORCA TERMINATED NORMALLY****
TOTAL RUN TIME: 1 days 7 hours 55 minutes 43 seconds 612 msec
