                         Program Version 4.2.1 -  RELEASE  -
|  1> %pal
|  2>  nprocs 32
|  3> end
|  4> !RI-MP2 aug-cc-pVQZ aug-cc-pVQZ/C TightSCF
|  5> %maxcore 4500
|  6> *xyzfile 0 1  02_45TS.xyz
|  7>
|  8>
|  9>                          ****END OF INPUT****

CARTESIAN COORDINATES (ANGSTROEM)
---------------------------------
  C     -0.132916    0.495284    1.254942
  C     -0.623141    1.649136    0.707817
  C     -0.132954    0.495326   -1.254922
  C     -0.623163    1.649160   -0.707744
  H      0.075912    0.308241   -2.298220
  H     -1.066972    2.440227   -1.296375
  H     -1.066933    2.440184    1.296488
  H      0.075981    0.308165    2.298228
  S      0.924336   -0.266683   -0.000018
  C     -1.772543   -0.992009    0.687050
  C     -1.772563   -0.991986   -0.687029
  H     -1.256074   -1.777834    1.220977
  H     -1.256111   -1.777794   -1.220997
  H     -2.524502   -0.442746    1.236284
  H     -2.524539   -0.442705   -1.236222
  O      2.223203    0.394285   -0.000027
  O      0.913990   -1.721569   -0.000042

 Total Charge           Charge          ....    0
 Multiplicity           Mult            ....    1
 Number of Electrons    NEL             ....   76
 Basis Dimension        Dim             .... 1092

ORBITAL ENERGIES
----------------

  NO   OCC          E(Eh)            E(eV)
   0   2.0000     -92.175660     -2508.2272
   1   2.0000     -20.544212      -559.0364
   2   2.0000     -20.539762      -558.9153
   3   2.0000     -11.292592      -307.2871
   4   2.0000     -11.292556      -307.2861
   5   2.0000     -11.268209      -306.6236
   6   2.0000     -11.267126      -306.5941
   7   2.0000     -11.252867      -306.2061
   8   2.0000     -11.251500      -306.1689
   9   2.0000      -9.145146      -248.8521
  10   2.0000      -6.830648      -185.8714
  11   2.0000      -6.829429      -185.8382
  12   2.0000      -6.829241      -185.8331
  13   2.0000      -1.443532       -39.2805
  14   2.0000      -1.329409       -36.1751
  15   2.0000      -1.181231       -32.1429
  16   2.0000      -1.047692       -28.5091
  17   2.0000      -1.021293       -27.7908
  18   2.0000      -0.955700       -26.0059
  19   2.0000      -0.820878       -22.3372
  20   2.0000      -0.795547       -21.6479
  21   2.0000      -0.780064       -21.2266
  22   2.0000      -0.727618       -19.7995
  23   2.0000      -0.676994       -18.4220
  24   2.0000      -0.638326       -17.3697
  25   2.0000      -0.636231       -17.3127
  26   2.0000      -0.631646       -17.1880
  27   2.0000      -0.604810       -16.4577
  28   2.0000      -0.599301       -16.3078
  29   2.0000      -0.579720       -15.7750
  30   2.0000      -0.537115       -14.6156
  31   2.0000      -0.529370       -14.4049
  32   2.0000      -0.496985       -13.5236
  33   2.0000      -0.496157       -13.5011
  34   2.0000      -0.457739       -12.4557
  35   2.0000      -0.439821       -11.9681
  36   2.0000      -0.355419        -9.6714
  37   2.0000      -0.342737        -9.3263
  38   0.0000       0.017258         0.4696
  39   0.0000       0.023578         0.6416
  40   0.0000       0.031022         0.8442
  41   0.0000       0.034345         0.9346
  42   0.0000       0.040354         1.0981

MULLIKEN ATOMIC CHARGES
-----------------------
   0 C :   -0.384500
   1 C :   -0.427984
   2 C :   -0.384343
   3 C :   -0.428060
   4 H :    0.434253
   5 H :    0.363976
   6 H :    0.364007
   7 H :    0.434238
   8 S :    2.701012
   9 C :   -0.597932
  10 C :   -0.597972
  11 H :    0.333856
  12 H :    0.333916
  13 H :    0.312390
  14 H :    0.312326
  15 O :   -1.440851
  16 O :   -1.328333
Sum of atomic charges:   -0.0000000

LOEWDIN ATOMIC CHARGES
----------------------
   0 C :    0.167014
   1 C :    0.262774
   2 C :    0.167016
   3 C :    0.262774
   4 H :   -0.311434
   5 H :   -0.296919
   6 H :   -0.296918
   7 H :   -0.311433
   8 S :   -0.230768
   9 C :    0.653916
  10 C :    0.653916
  11 H :   -0.352639
  12 H :   -0.352640
  13 H :   -0.311625
  14 H :   -0.311625
  15 O :    0.291984
  16 O :    0.316607

  Mayer bond orders larger than 0.100000
B(  0-C ,  1-C ) :   1.4302 B(  0-C ,  7-H ) :   0.9285 B(  0-C ,  8-S ) :   0.9138
B(  0-C ,  9-C ) :   0.2531 B(  1-C ,  3-C ) :   0.9008 B(  1-C ,  5-H ) :  -0.1004
B(  1-C ,  6-H ) :   0.9855 B(  2-C ,  3-C ) :   1.4303 B(  2-C ,  4-H ) :   0.9285
B(  2-C ,  8-S ) :   0.9137 B(  2-C , 10-C ) :   0.2531 B(  3-C ,  5-H ) :   0.9855
B(  3-C ,  6-H ) :  -0.1004 B(  8-S , 15-O ) :   0.5692 B(  8-S , 16-O ) :   1.0113
B(  9-C , 10-C ) :   1.7025 B(  9-C , 11-H ) :   0.8677 B(  9-C , 13-H ) :   0.9049
B( 10-C , 12-H ) :   0.8676 B( 10-C , 14-H ) :   0.9049 B( 15-O , 16-O ) :   0.1061

MP2 TOTAL ENERGY:     -780.923317902 Eh
FINAL SINGLE POINT ENERGY      -780.923317902007

DIPOLE MOMENT
-------------
                                X             Y             Z
Electronic contribution:      7.40296      -0.03009      -0.00011
Nuclear contribution   :     -9.42625       1.03252       0.00016
                        -----------------------------------------
Total Dipole Moment    :     -2.02329       1.00244       0.00005
                        -----------------------------------------
Magnitude (a.u.)       :      2.25800
Magnitude (Debye)      :      5.73938

Rotational constants in cm-1:     0.068168     0.055427     0.043360
Rotational constants in MHz :  2043.630958  1661.655794  1299.901891

                             ****ORCA TERMINATED NORMALLY****
TOTAL RUN TIME: 0 days 0 hours 45 minutes 5 seconds 727 msec
