                         Program Version 4.2.1 -  RELEASE  -
|  1> %pal
|  2>  nprocs 32
|  3> end
|  4> !RI-MP2 aug-cc-pVQZ aug-cc-pVQZ/C TightSCF
|  5> %maxcore 4500
|  6> *xyzfile 0 1  03_18R1.xyz
|  7>
|  8>
|  9>                          ****END OF INPUT****

CARTESIAN COORDINATES (ANGSTROEM)
---------------------------------
  C      1.986004   -0.000023    0.831122
  C      0.529809   -0.000016    0.503811
  C     -0.161902   -1.196027    0.344499
  C     -0.161895    1.196007    0.344525
  H      0.364054   -2.137799    0.456257
  C     -1.512562   -1.194526    0.035057
  C     -1.512552    1.194522    0.035083
  C     -2.211047    0.000001   -0.122331
  H      0.364069    2.137772    0.456303
  H     -2.033968   -2.137419   -0.087567
  H     -2.033951    2.137421   -0.087521
  C     -3.683851    0.000017   -0.426930
  H     -3.970444    0.883509   -0.999195
  H     -3.970537   -0.883672   -0.998843
  H     -4.271361    0.000234    0.495610
  H      2.276480   -0.887292    1.387319
  H      2.276479    0.887216    1.387366
  Cl     3.021598    0.000018   -0.663456

 Total Charge           Charge          ....    0
 Multiplicity           Mult            ....    1
 Number of Electrons    NEL             ....   74
 Basis Dimension        Dim             .... 1138

ORBITAL ENERGIES
----------------

  NO   OCC          E(Eh)            E(eV)
   0   2.0000    -104.816223     -2852.1944
   1   2.0000     -11.296750      -307.4002
   2   2.0000     -11.246625      -306.0362
   3   2.0000     -11.244771      -305.9858
   4   2.0000     -11.239760      -305.8494
   5   2.0000     -11.239591      -305.8448
   6   2.0000     -11.233882      -305.6895
   7   2.0000     -11.233817      -305.6877
   8   2.0000     -11.227780      -305.5234
   9   2.0000     -10.541732      -286.8551
  10   2.0000      -8.008722      -217.9284
  11   2.0000      -8.007088      -217.8840
  12   2.0000      -8.007058      -217.8831
  13   2.0000      -1.174402       -31.9571
  14   2.0000      -1.123759       -30.5790
  15   2.0000      -1.054549       -28.6957
  16   2.0000      -1.022531       -27.8245
  17   2.0000      -0.963376       -26.2148
  18   2.0000      -0.888149       -24.1678
  19   2.0000      -0.840055       -22.8591
  20   2.0000      -0.792776       -21.5725
  21   2.0000      -0.685804       -18.6617
  22   2.0000      -0.667494       -18.1634
  23   2.0000      -0.639759       -17.4087
  24   2.0000      -0.596553       -16.2330
  25   2.0000      -0.591042       -16.0831
  26   2.0000      -0.584805       -15.9134
  27   2.0000      -0.581272       -15.8172
  28   2.0000      -0.553214       -15.0537
  29   2.0000      -0.542136       -14.7523
  30   2.0000      -0.502234       -13.6665
  31   2.0000      -0.492949       -13.4138
  32   2.0000      -0.488068       -13.2810
  33   2.0000      -0.431805       -11.7500
  34   2.0000      -0.430436       -11.7128
  35   2.0000      -0.344452        -9.3730
  36   2.0000      -0.328378        -8.9356
  37   0.0000       0.024342         0.6624
  38   0.0000       0.027235         0.7411
  39   0.0000       0.028313         0.7704
  40   0.0000       0.038436         1.0459
  41   0.0000       0.040608         1.1050

MULLIKEN ATOMIC CHARGES
-----------------------
   0 C :   -0.205488
   1 C :    0.232592
   2 C :   -0.359718
   3 C :   -0.359666
   4 H :    0.232464
   5 C :   -0.292381
   6 C :   -0.292156
   7 C :    0.340205
   8 H :    0.232447
   9 H :    0.221779
  10 H :    0.221845
  11 C :   -0.801244
  12 H :    0.213484
  13 H :    0.213483
  14 H :    0.282155
  15 H :    0.241126
  16 H :    0.241119
  17 Cl:   -0.362045
Sum of atomic charges:   -0.0000000

LOEWDIN ATOMIC CHARGES
----------------------
   0 C :   -0.145309
   1 C :   -0.214796
   2 C :    0.331070
   3 C :    0.331070
   4 H :   -0.313336
   5 C :    0.355049
   6 C :    0.355047
   7 C :   -0.074726
   8 H :   -0.313336
   9 H :   -0.315343
  10 H :   -0.315338
  11 C :    0.907563
  12 H :   -0.297789
  13 H :   -0.297803
  14 H :   -0.276491
  15 H :   -0.410238
  16 H :   -0.410238
  17 Cl:    1.104945

  Mayer bond orders larger than 0.100000
B(  0-C ,  1-C ) :   0.8171 B(  0-C ,  2-C ) :  -0.1227 B(  0-C ,  3-C ) :  -0.1229
B(  0-C , 15-H ) :   0.9757 B(  0-C , 16-H ) :   0.9757 B(  0-C , 17-Cl) :   0.7870
B(  1-C ,  2-C ) :   1.0286 B(  1-C ,  3-C ) :   1.0285 B(  1-C ,  4-H ) :  -0.1081
B(  1-C ,  5-C ) :  -0.1857 B(  1-C ,  6-C ) :  -0.1858 B(  1-C ,  8-H ) :  -0.1081
B(  2-C ,  4-H ) :   1.0426 B(  2-C ,  5-C ) :   1.3688 B(  2-C ,  6-C ) :   0.1723
B(  2-C ,  9-H ) :  -0.1407 B(  3-C ,  5-C ) :   0.1723 B(  3-C ,  6-C ) :   1.3687
B(  3-C ,  8-H ) :   1.0426 B(  3-C , 10-H ) :  -0.1407 B(  4-H ,  5-C ) :  -0.1292
B(  5-C ,  6-C ) :  -0.1336 B(  5-C ,  7-C ) :   0.9667 B(  5-C ,  9-H ) :   1.0808
B(  6-C ,  7-C ) :   0.9666 B(  6-C ,  8-H ) :  -0.1291 B(  6-C , 10-H ) :   1.0808
B(  7-C ,  9-H ) :  -0.1101 B(  7-C , 10-H ) :  -0.1101 B(  7-C , 11-C ) :   0.7458
B(  7-C , 12-H ) :  -0.1065 B(  7-C , 13-H ) :  -0.1066 B( 11-C , 12-H ) :   1.0465
B( 11-C , 13-H ) :   1.0465 B( 11-C , 14-H ) :   0.9420

MP2 TOTAL ENERGY:     -769.431972339 Eh
FINAL SINGLE POINT ENERGY      -769.431972338550

DIPOLE MOMENT
-------------
                                X             Y             Z
Electronic contribution:     14.29454       0.00005      -2.32331
Nuclear contribution   :    -15.14382      -0.00006       2.92449
                        -----------------------------------------
Total Dipole Moment    :     -0.84928      -0.00001       0.60118
                        -----------------------------------------
Magnitude (a.u.)       :      1.04053
Magnitude (Debye)      :      2.64481

Rotational constants in cm-1:     0.131091     0.022239     0.020815
Rotational constants in MHz :  3930.000929   666.700828   624.015765

                             ****ORCA TERMINATED NORMALLY****
TOTAL RUN TIME: 0 days 0 hours 36 minutes 51 seconds 796 msec
