                         Program Version 4.2.1 -  RELEASE  -
|  1> %pal
|  2>  nprocs 32
|  3> end
|  4> !RI-MP2 aug-cc-pVQZ aug-cc-pVQZ/C TightSCF
|  5> %maxcore 4500
|  6> *xyzfile 0 2  01_6R.xyz
|  7>
|  8>
|  9>                          ****END OF INPUT****

CARTESIAN COORDINATES (ANGSTROEM)
---------------------------------
  C     -1.402274    0.310807   -0.128283
  C     -0.574842   -0.304577    0.944988
  C      0.368383   -1.387686    0.424012
  H     -1.256503   -0.724444    1.697931
  H     -0.015237    0.499932    1.425395
  C      1.432997   -0.861085   -0.546357
  H     -0.214595   -2.169544   -0.068064
  H      0.857003   -1.857499    1.282189
  C      2.375549    0.111713    0.094854
  H      0.950944   -0.392951   -1.409048
  H      2.002153   -1.715323   -0.926907
  C      2.522427    1.379452   -0.261826
  H      1.950072    1.806029   -1.079243
  H      3.220876    2.035098    0.244043
  H      2.966935   -0.275418    0.923331
  F     -2.159774   -0.539952   -0.833750
  F     -2.150790    1.351327    0.249977

 Total Charge           Charge          ....    0
 Multiplicity           Mult            ....    2
 Number of Electrons    NEL             ....   63
 Basis Dimension        Dim             .... 1054

ORBITAL ENERGIES
----------------
                 SPIN UP ORBITALS
  NO   OCC          E(Eh)            E(eV)
   0   1.0000     -26.319671      -716.1947
   1   1.0000     -26.319401      -716.1873
   2   1.0000     -11.404328      -310.3276
   3   1.0000     -11.247522      -306.0606
   4   1.0000     -11.239711      -305.8481
   5   1.0000     -11.237745      -305.7946
   6   1.0000     -11.234208      -305.6983
   7   1.0000     -11.224984      -305.4473
   8   1.0000      -1.678373       -45.6708
   9   1.0000      -1.614830       -43.9418
  10   1.0000      -1.117282       -30.4028
  11   1.0000      -1.061578       -28.8870
  12   1.0000      -0.984563       -26.7913
  13   1.0000      -0.905052       -24.6277
  14   1.0000      -0.836964       -22.7750
  15   1.0000      -0.774939       -21.0872
  16   1.0000      -0.772243       -21.0138
  17   1.0000      -0.766491       -20.8573
  18   1.0000      -0.732687       -19.9374
  19   1.0000      -0.686208       -18.6727
  20   1.0000      -0.650414       -17.6987
  21   1.0000      -0.643908       -17.5216
  22   1.0000      -0.633808       -17.2468
  23   1.0000      -0.628115       -17.0919
  24   1.0000      -0.583633       -15.8815
  25   1.0000      -0.567369       -15.4389
  26   1.0000      -0.526687       -14.3319
  27   1.0000      -0.516616       -14.0578
  28   1.0000      -0.498342       -13.5606
  29   1.0000      -0.481705       -13.1079
  30   1.0000      -0.398591       -10.8462
  31   1.0000      -0.369899       -10.0655
  32   0.0000       0.023820         0.6482
  33   0.0000       0.029993         0.8161
  34   0.0000       0.031663         0.8616
  35   0.0000       0.035897         0.9768
  36   0.0000       0.047291         1.2868

                 SPIN DOWN ORBITALS
  NO   OCC          E(Eh)            E(eV)
   0   1.0000     -26.315454      -716.0799
   1   1.0000     -26.315213      -716.0733
   2   1.0000     -11.376015      -309.5571
   3   1.0000     -11.247767      -306.0673
   4   1.0000     -11.239569      -305.8442
   5   1.0000     -11.237733      -305.7943
   6   1.0000     -11.234099      -305.6954
   7   1.0000     -11.224995      -305.4476
   8   1.0000      -1.663192       -45.2578
   9   1.0000      -1.603871       -43.6435
  10   1.0000      -1.112238       -30.2655
  11   1.0000      -1.052915       -28.6513
  12   1.0000      -0.971952       -26.4482
  13   1.0000      -0.883727       -24.0474
  14   1.0000      -0.828614       -22.5477
  15   1.0000      -0.767454       -20.8835
  16   1.0000      -0.765074       -20.8187
  17   1.0000      -0.726760       -19.7762
  18   1.0000      -0.707339       -19.2477
  19   1.0000      -0.653823       -17.7914
  20   1.0000      -0.645871       -17.5751
  21   1.0000      -0.640506       -17.4290
  22   1.0000      -0.626690       -17.0531
  23   1.0000      -0.624383       -16.9903
  24   1.0000      -0.577849       -15.7241
  25   1.0000      -0.561907       -15.2903
  26   1.0000      -0.522878       -14.2282
  27   1.0000      -0.509725       -13.8703
  28   1.0000      -0.493862       -13.4387
  29   1.0000      -0.481219       -13.0946
  30   1.0000      -0.370392       -10.0789
  31   0.0000       0.023469         0.6386
  32   0.0000       0.030011         0.8166
  33   0.0000       0.031658         0.8615
  34   0.0000       0.035047         0.9537
  35   0.0000       0.047196         1.2843

MULLIKEN ATOMIC CHARGES AND SPIN POPULATIONS
--------------------------------------------
   0 C :    1.246598    0.987528
   1 C :   -0.596724   -0.121322
   2 C :   -0.356867    0.010119
   3 H :    0.287455    0.090784
   4 H :    0.291439   -0.000022
   5 C :   -0.346585   -0.008411
   6 H :    0.255954   -0.000522
   7 H :    0.258619   -0.007257
   8 C :   -0.438197    0.005004
   9 H :    0.252964   -0.001422
  10 H :    0.320422   -0.001074
  11 C :   -0.826579   -0.004129
  12 H :    0.306629   -0.000134
  13 H :    0.352949   -0.000123
  14 H :    0.362785    0.000755
  15 F :   -0.667123    0.026480
  16 F :   -0.703741    0.023746
Sum of atomic charges         :   -0.0000000

LOEWDIN ATOMIC CHARGES AND SPIN POPULATIONS
-------------------------------------------
   0 C :   -1.170056    0.532372
   1 C :    0.399290    0.121474
   2 C :    0.489366    0.012249
   3 H :   -0.286125    0.025694
   4 H :   -0.323645    0.012132
   5 C :    0.472159    0.011364
   6 H :   -0.278523    0.000955
   7 H :   -0.269618    0.000681
   8 C :    0.345043    0.002497
   9 H :   -0.309433    0.012252
  10 H :   -0.271915    0.000789
  11 C :    0.801592    0.001542
  12 H :   -0.345637    0.000728
  13 H :   -0.349925   -0.000007
  14 H :   -0.314376    0.000240
  15 F :    0.708848    0.132622
  16 F :    0.702956    0.132416

  Mayer bond orders larger than 0.100000
B(  0-C ,  1-C ) :   1.0153 B(  0-C , 15-F ) :   0.4721 B(  0-C , 16-F ) :   0.4184
B(  1-C ,  2-C ) :   0.8678 B(  1-C ,  3-H ) :   0.8707 B(  1-C ,  4-H ) :   0.8954
B(  2-C ,  5-C ) :   0.9159 B(  2-C ,  6-H ) :   0.8967 B(  2-C ,  7-H ) :   0.8785
B(  5-C ,  8-C ) :   0.8630 B(  5-C ,  9-H ) :   0.9203 B(  5-C , 10-H ) :   0.8793
B(  5-C , 11-C ) :  -0.1171 B(  8-C , 11-C ) :   1.7997 B(  8-C , 14-H ) :   0.8860
B( 11-C , 12-H ) :   0.9204 B( 11-C , 13-H ) :   0.9621

MP2 TOTAL ENERGY:     -433.048474217 Eh
FINAL SINGLE POINT ENERGY      -433.048474217341

DIPOLE MOMENT
-------------
                                X             Y             Z
Electronic contribution:    -13.88148       3.14559      -2.21693
Nuclear contribution   :     14.61797      -3.57082       2.64791
                        -----------------------------------------
Total Dipole Moment    :      0.73650      -0.42523       0.43097
                        -----------------------------------------
Magnitude (a.u.)       :      0.95341
Magnitude (Debye)      :      2.42337

Rotational constants in cm-1:     0.105077     0.037730     0.032383
Rotational constants in MHz :  3150.142276  1131.114716   970.829154

                             ****ORCA TERMINATED NORMALLY****
TOTAL RUN TIME: 0 days 0 hours 35 minutes 10 seconds 683 msec
