                         Program Version 4.2.1 -  RELEASE  -
|  1> %pal
|  2>  nprocs 32
|  3> end
|  4> !RI-MP2 aug-cc-pVQZ aug-cc-pVQZ/C TightSCF
|  5> %maxcore 4500
|  6> *xyzfile 0 1  08_6P1.xyz
|  7>
|  8>
|  9>                          ****END OF INPUT****

CARTESIAN COORDINATES (ANGSTROEM)
---------------------------------
  N     -0.234602    2.128604    0.130893
  C      1.001041    1.764514   -0.034537
  N      1.169535    0.409726   -0.226652
  C     -0.086187   -0.129527   -0.150889
  C     -0.953492    0.947770    0.065323
  C     -2.295081    0.620773    0.176812
  N     -2.674922   -0.651309    0.082835
  N     -0.429190   -1.404808   -0.234285
  C     -1.742238   -1.587927   -0.111694
  H     -2.094874   -2.611234   -0.172604
  H     -3.063782    1.367946    0.343874
  H      1.850205    2.433381   -0.036647
  C      2.385818   -0.363764   -0.403328
  O      2.642988   -1.196639    0.684678
  H      1.984314   -1.901231    0.689147
  H      2.288148   -0.935679   -1.329511
  H      3.217173    0.333405   -0.491351

 Total Charge           Charge          ....    0
 Multiplicity           Mult            ....    1
 Number of Electrons    NEL             ....   78
 Basis Dimension        Dim             .... 1156

ORBITAL ENERGIES
----------------

  NO   OCC          E(Eh)            E(eV)
   0   2.0000     -20.584001      -560.1191
   1   2.0000     -15.634838      -425.4456
   2   2.0000     -15.582531      -424.0222
   3   2.0000     -15.571660      -423.7264
   4   2.0000     -15.568602      -423.6432
   5   2.0000     -11.350761      -308.8699
   6   2.0000     -11.334019      -308.4143
   7   2.0000     -11.326453      -308.2085
   8   2.0000     -11.318253      -307.9853
   9   2.0000     -11.300698      -307.5076
  10   2.0000     -11.269291      -306.6530
  11   2.0000      -1.414533       -38.4914
  12   2.0000      -1.373924       -37.3864
  13   2.0000      -1.307744       -35.5855
  14   2.0000      -1.227702       -33.4075
  15   2.0000      -1.186363       -32.2826
  16   2.0000      -1.060282       -28.8517
  17   2.0000      -0.978285       -26.6205
  18   2.0000      -0.916035       -24.9266
  19   2.0000      -0.886055       -24.1108
  20   2.0000      -0.831530       -22.6271
  21   2.0000      -0.766925       -20.8691
  22   2.0000      -0.735432       -20.0121
  23   2.0000      -0.727029       -19.7835
  24   2.0000      -0.697860       -18.9897
  25   2.0000      -0.652215       -17.7477
  26   2.0000      -0.648802       -17.6548
  27   2.0000      -0.634881       -17.2760
  28   2.0000      -0.614103       -16.7106
  29   2.0000      -0.597657       -16.2631
  30   2.0000      -0.557502       -15.1704
  31   2.0000      -0.540074       -14.6962
  32   2.0000      -0.520233       -14.1563
  33   2.0000      -0.492391       -13.3987
  34   2.0000      -0.467662       -12.7257
  35   2.0000      -0.459629       -12.5071
  36   2.0000      -0.417606       -11.3636
  37   2.0000      -0.389112       -10.5883
  38   2.0000      -0.340915        -9.2768
  39   0.0000       0.020338         0.5534
  40   0.0000       0.027111         0.7377
  41   0.0000       0.032185         0.8758
  42   0.0000       0.037630         1.0240
  43   0.0000       0.041925         1.1408

MULLIKEN ATOMIC CHARGES
-----------------------
   0 N :   -0.780017
   1 C :   -0.069484
   2 N :   -0.520288
   3 C :    1.130695
   4 C :    0.021717
   5 C :   -0.028380
   6 N :   -0.707453
   7 N :   -0.685533
   8 C :   -0.190563
   9 H :    0.587677
  10 H :    0.519418
  11 H :    0.515078
  12 C :    0.036618
  13 O :   -0.869326
  14 H :    0.372515
  15 H :    0.296177
  16 H :    0.371151
Sum of atomic charges:    0.0000000

LOEWDIN ATOMIC CHARGES
----------------------
   0 N :    0.613178
   1 C :   -0.035844
   2 N :    0.415169
   3 C :   -0.630484
   4 C :   -0.415017
   5 C :    0.102794
   6 N :    0.579399
   7 N :    0.627243
   8 C :   -0.172785
   9 H :   -0.382056
  10 H :   -0.330631
  11 H :   -0.304273
  12 C :    0.060906
  13 O :    1.294629
  14 H :   -0.806013
  15 H :   -0.293312
  16 H :   -0.322903

  Mayer bond orders larger than 0.100000
B(  0-N ,  1-C ) :   1.6198 B(  0-N ,  4-C ) :   0.5165 B(  1-C ,  2-N ) :   1.3736
B(  1-C ,  4-C ) :   0.1027 B(  1-C , 11-H ) :   0.7048 B(  2-N ,  3-C ) :   0.9841
B(  2-N ,  4-C ) :  -0.1045 B(  2-N ,  7-N ) :   0.1415 B(  2-N , 12-C ) :   0.8023
B(  2-N , 13-O ) :   0.1168 B(  3-C ,  4-C ) :   1.0240 B(  3-C ,  5-C ) :  -0.3263
B(  3-C ,  7-N ) :   0.9995 B(  4-C ,  5-C ) :   1.3465 B(  5-C ,  6-N ) :   1.1302
B(  5-C , 10-H ) :   0.7905 B(  6-N ,  8-C ) :   1.4353 B(  6-N , 10-H ) :  -0.1135
B(  7-N ,  8-C ) :   1.4384 B(  8-C ,  9-H ) :   0.7100 B( 12-C , 13-O ) :   0.6087
B( 12-C , 15-H ) :   0.9523 B( 12-C , 16-H ) :   0.8324 B( 13-O , 14-H ) :   0.8287

MP2 TOTAL ENERGY:     -525.691106531 Eh
FINAL SINGLE POINT ENERGY      -525.691106531239

DIPOLE MOMENT
-------------
                                X             Y             Z
Electronic contribution:     -3.15977       1.26457       0.42105
Nuclear contribution   :      4.10773      -1.29711      -0.96373
                        -----------------------------------------
Total Dipole Moment    :      0.94796      -0.03254      -0.54268
                        -----------------------------------------
Magnitude (a.u.)       :      1.09279
Magnitude (Debye)      :      2.77764

Rotational constants in cm-1:     0.069859     0.035317     0.024462
Rotational constants in MHz :  2094.333993  1058.782152   733.366856

                             ****ORCA TERMINATED NORMALLY****
TOTAL RUN TIME: 0 days 0 hours 43 minutes 5 seconds 749 msec
