                         Program Version 4.2.1 -  RELEASE  -
|  1> %pal
|  2>  nprocs 32
|  3> end
|  4> !RI-MP2 aug-cc-pVQZ aug-cc-pVQZ/C TightSCF
|  5> %maxcore 4500
|  6> *xyzfile 0 1  10_22TS.xyz
|  7>
|  8>
|  9>                          ****END OF INPUT****

CARTESIAN COORDINATES (ANGSTROEM)
---------------------------------
  C      0.595159    0.568215    0.150225
  C      1.641787    0.570503   -0.765573
  C     -0.276730   -1.299478    0.126053
  H      1.447938    1.125758   -1.675460
  N      0.575008   -1.866556   -0.767097
  N      1.447750   -1.513528   -1.442488
  C     -1.717886   -1.440567   -0.081168
  C     -2.605405   -1.072164    0.929674
  C     -2.222782   -1.814005   -1.329342
  C     -3.969599   -1.054752    0.687769
  H     -2.232035   -0.795476    1.906978
  C     -3.586171   -1.804886   -1.561315
  H     -1.544274   -2.119411   -2.116786
  C     -4.464465   -1.418642   -0.555689
  H     -4.648081   -0.759356    1.478293
  H     -3.966915   -2.101124   -2.531056
  H     -5.531536   -1.409335   -0.740498
  C      3.059327    0.380611   -0.466408
  C      3.631871   -0.365399    0.723122
  C      4.039540    0.878811   -1.225268
  C      5.115107   -0.538384    0.349601
  H      3.142764   -1.324427    0.906322
  H      3.501449    0.224962    1.634118
  C      5.405315    0.568277   -0.682304
  H      3.876868    1.480328   -2.112146
  H      5.254819   -1.513129   -0.122948
  H      5.841549    1.458289   -0.212072
  C      0.317183   -1.118700    1.523519
  C     -0.555539    1.491101    0.082692
  C     -1.055759    2.083483    1.239216
  C     -1.184529    1.750201   -1.136146
  C     -2.155478    2.928725    1.175139
  H     -0.577885    1.884195    2.189466
  C     -2.282478    2.590064   -1.194672
  H     -0.828869    1.270265   -2.039941
  C     -2.774026    3.184716   -0.038356
  H     -2.529310    3.387057    2.082894
  H     -2.766265    2.772546   -2.146608
  H     -3.636207    3.838365   -0.085674
  O      0.898575    0.091393    1.476367
  O      0.279768   -1.831039    2.471879
  H      6.108568    0.248718   -1.455399
  H      5.774716   -0.496844    1.217035

 Total Charge           Charge          ....    0
 Multiplicity           Mult            ....    1
 Number of Electrons    NEL             ....  174
 Basis Dimension        Dim             .... 2828

ORBITAL ENERGIES
----------------

  NO   OCC          E(Eh)            E(eV)
   0   2.0000     -20.620807      -561.1207
   1   2.0000     -20.568882      -559.7077
   2   2.0000     -15.685099      -426.8133
   3   2.0000     -15.672247      -426.4635
   4   2.0000     -11.406966      -310.3993
   5   2.0000     -11.328901      -308.2751
   6   2.0000     -11.318985      -308.0052
   7   2.0000     -11.267724      -306.6104
   8   2.0000     -11.260977      -306.4268
   9   2.0000     -11.256467      -306.3040
  10   2.0000     -11.252201      -306.1880
  11   2.0000     -11.251091      -306.1578
  12   2.0000     -11.248756      -306.0942
  13   2.0000     -11.247172      -306.0511
  14   2.0000     -11.245918      -306.0170
  15   2.0000     -11.241192      -305.8884
  16   2.0000     -11.239950      -305.8546
  17   2.0000     -11.238998      -305.8287
  18   2.0000     -11.236204      -305.7526
  19   2.0000     -11.235624      -305.7369
  20   2.0000     -11.234927      -305.7179
  21   2.0000     -11.220291      -305.3196
  22   2.0000     -11.219556      -305.2996
  23   2.0000     -11.219503      -305.2982
  24   2.0000     -11.215308      -305.1840
  25   2.0000      -1.492139       -40.6032
  26   2.0000      -1.441871       -39.2353
  27   2.0000      -1.399148       -38.0728
  28   2.0000      -1.186864       -32.2962
  29   2.0000      -1.169492       -31.8235
  30   2.0000      -1.144947       -31.1556
  31   2.0000      -1.121522       -30.5182
  32   2.0000      -1.081649       -29.4332
  33   2.0000      -1.035682       -28.1823
  34   2.0000      -1.026249       -27.9257
  35   2.0000      -1.021978       -27.8094
  36   2.0000      -1.021212       -27.7886
  37   2.0000      -0.963921       -26.2296
  38   2.0000      -0.951869       -25.9017
  39   2.0000      -0.896358       -24.3911
  40   2.0000      -0.870014       -23.6743
  41   2.0000      -0.853003       -23.2114
  42   2.0000      -0.840750       -22.8780
  43   2.0000      -0.831804       -22.6345
  44   2.0000      -0.809423       -22.0255
  45   2.0000      -0.787969       -21.4417
  46   2.0000      -0.752030       -20.4638
  47   2.0000      -0.746180       -20.3046
  48   2.0000      -0.717592       -19.5267
  49   2.0000      -0.712548       -19.3894
  50   2.0000      -0.700534       -19.0625
  51   2.0000      -0.684194       -18.6179
  52   2.0000      -0.678398       -18.4602
  53   2.0000      -0.666826       -18.1453
  54   2.0000      -0.654177       -17.8011
  55   2.0000      -0.652089       -17.7442
  56   2.0000      -0.644001       -17.5242
  57   2.0000      -0.635793       -17.3008
  58   2.0000      -0.630029       -17.1440
  59   2.0000      -0.625675       -17.0255
  60   2.0000      -0.616963       -16.7884
  61   2.0000      -0.609090       -16.5742
  62   2.0000      -0.598160       -16.2768
  63   2.0000      -0.594582       -16.1794
  64   2.0000      -0.588301       -16.0085
  65   2.0000      -0.564358       -15.3569
  66   2.0000      -0.548665       -14.9299
  67   2.0000      -0.540354       -14.7038
  68   2.0000      -0.537902       -14.6371
  69   2.0000      -0.526305       -14.3215
  70   2.0000      -0.515049       -14.0152
  71   2.0000      -0.511939       -13.9306
  72   2.0000      -0.509647       -13.8682
  73   2.0000      -0.501019       -13.6334
  74   2.0000      -0.493514       -13.4292
  75   2.0000      -0.489051       -13.3077
  76   2.0000      -0.486570       -13.2402
  77   2.0000      -0.480926       -13.0867
  78   2.0000      -0.470722       -12.8090
  79   2.0000      -0.466693       -12.6994
  80   2.0000      -0.430404       -11.7119
  81   2.0000      -0.395927       -10.7737
  82   2.0000      -0.358254        -9.7486
  83   2.0000      -0.350558        -9.5392
  84   2.0000      -0.343320        -9.3422
  85   2.0000      -0.310967        -8.4618
  86   2.0000      -0.279728        -7.6118
  87   0.0000       0.016940         0.4609
  88   0.0000       0.023522         0.6401
  89   0.0000       0.024783         0.6744
  90   0.0000       0.028372         0.7721
  91   0.0000       0.032695         0.8897

MULLIKEN ATOMIC CHARGES
-----------------------
   0 C :    1.602977
   1 C :   -0.155246
   2 C :    0.948779
   3 H :    0.283419
   4 N :   -0.643185
   5 N :   -0.314740
   6 C :    0.179645
   7 C :   -0.490634
   8 C :   -0.524759
   9 C :   -0.362835
  10 H :    0.254232
  11 C :   -0.264788
  12 H :    0.155099
  13 C :   -0.311244
  14 H :    0.228032
  15 H :    0.258316
  16 H :    0.336920
  17 C :    0.280082
  18 C :   -0.277765
  19 C :   -0.781152
  20 C :   -0.646608
  21 H :    0.264435
  22 H :    0.269918
  23 C :   -0.492433
  24 H :    0.228115
  25 H :    0.197204
  26 H :    0.252986
  27 C :    2.343989
  28 C :    0.291331
  29 C :   -0.558278
  30 C :   -0.564267
  31 C :   -0.286869
  32 H :    0.212568
  33 C :   -0.215434
  34 H :    0.093061
  35 C :   -0.332792
  36 H :    0.200662
  37 H :    0.208505
  38 H :    0.334090
  39 O :   -1.544081
  40 O :   -1.245218
  41 H :    0.275972
  42 H :    0.311992
Sum of atomic charges:    0.0000000

LOEWDIN ATOMIC CHARGES
----------------------
   0 C :   -0.540922
   1 C :    0.194369
   2 C :   -0.447071
   3 H :   -0.342440
   4 N :    0.181410
   5 N :    0.474954
   6 C :   -0.127583
   7 C :    0.332531
   8 C :    0.336629
   9 C :    0.368455
  10 H :   -0.324893
  11 C :    0.359994
  12 H :   -0.323721
  13 C :    0.353700
  14 H :   -0.309375
  15 H :   -0.314839
  16 H :   -0.315006
  17 C :   -0.076941
  18 C :    0.492746
  19 C :    0.411749
  20 C :    0.527728
  21 H :   -0.287450
  22 H :   -0.268481
  23 C :    0.511830
  24 H :   -0.285398
  25 H :   -0.267014
  26 H :   -0.267909
  27 C :   -1.119271
  28 C :   -0.126944
  29 C :    0.337346
  30 C :    0.331671
  31 C :    0.352894
  32 H :   -0.326617
  33 C :    0.358720
  34 H :   -0.310369
  35 C :    0.345071
  36 H :   -0.314460
  37 H :   -0.312039
  38 H :   -0.320030
  39 O :    0.864069
  40 O :    0.720081
  41 H :   -0.271876
  42 H :   -0.255297

  Mayer bond orders larger than 0.100000
B(  0-C ,  1-C ) :   1.7759 B(  0-C ,  2-C ) :   0.2350 B(  0-C ,  4-N ) :   0.2669
B(  0-C ,  5-N ) :  -0.2115 B(  0-C ,  8-C ) :  -0.1531 B(  0-C , 17-C ) :  -0.2831
B(  0-C , 27-C ) :  -0.1201 B(  0-C , 28-C ) :   0.1912 B(  0-C , 29-C ) :  -0.2654
B(  0-C , 30-C ) :  -0.3675 B(  0-C , 39-O ) :  -1.0724 B(  0-C , 40-O ) :   0.1159
B(  1-C ,  2-C ) :   0.3458 B(  1-C ,  3-H ) :   0.9903 B(  1-C ,  5-N ) :   0.2937
B(  1-C , 17-C ) :   0.6288 B(  1-C , 19-C ) :  -0.3691 B(  1-C , 28-C ) :  -0.3197
B(  1-C , 39-O ) :   0.2493 B(  2-C ,  4-N ) :   0.2548 B(  2-C ,  5-N ) :  -0.1722
B(  2-C ,  6-C ) :  -0.1146 B(  2-C ,  7-C ) :  -0.2553 B(  2-C ,  8-C ) :  -0.5902
B(  2-C , 10-H ) :   0.1046 B(  2-C , 27-C ) :   1.0703 B(  2-C , 40-O ) :   0.3221
B(  4-N ,  5-N ) :   1.8054 B(  4-N ,  6-C ) :  -0.2612 B(  6-C ,  7-C ) :   1.0080
B(  6-C ,  8-C ) :   1.3992 B(  6-C ,  9-C ) :  -0.3693 B(  6-C , 10-H ) :  -0.1084
B(  6-C , 11-C ) :  -0.2669 B(  6-C , 13-C ) :   0.1264 B(  6-C , 28-C ) :   0.1043
B(  6-C , 40-O ) :   0.1882 B(  7-C ,  9-C ) :   1.2669 B(  7-C , 10-H ) :   1.0071
B(  8-C ,  9-C ) :   0.1024 B(  8-C , 11-C ) :   1.2382 B(  8-C , 12-H ) :   1.0733
B(  8-C , 15-H ) :  -0.1396 B(  9-C , 13-C ) :   1.1714 B(  9-C , 14-H ) :   1.1395
B(  9-C , 16-H ) :  -0.1081 B( 11-C , 13-C ) :   1.1475 B( 11-C , 15-H ) :   1.1286
B( 13-C , 16-H ) :   1.0410 B( 17-C , 18-C ) :   0.6085 B( 17-C , 19-C ) :   1.2595
B( 17-C , 23-C ) :  -0.4109 B( 17-C , 24-H ) :  -0.1009 B( 18-C , 19-C ) :  -0.2467
B( 18-C , 20-C ) :   0.8242 B( 18-C , 21-H ) :   0.9349 B( 18-C , 22-H ) :   0.8397
B( 18-C , 39-O ) :   0.1270 B( 19-C , 23-C ) :   0.9994 B( 19-C , 24-H ) :   1.1556
B( 20-C , 23-C ) :   1.0901 B( 20-C , 25-H ) :   0.9915 B( 20-C , 42-H ) :   0.9565
B( 23-C , 26-H ) :   0.9254 B( 23-C , 41-H ) :   0.9846 B( 27-C , 39-O ) :   1.0983
B( 27-C , 40-O ) :  -0.1089 B( 28-C , 29-C ) :   1.0558 B( 28-C , 30-C ) :   0.9882
B( 28-C , 31-C ) :  -0.2138 B( 28-C , 33-C ) :  -0.2254 B( 28-C , 34-H ) :  -0.1557
B( 28-C , 35-C ) :   0.1286 B( 29-C , 31-C ) :   1.3862 B( 29-C , 32-H ) :   1.0617
B( 29-C , 33-C ) :   0.1479 B( 29-C , 36-H ) :  -0.1209 B( 29-C , 38-H ) :  -0.1227
B( 30-C , 31-C ) :   0.1924 B( 30-C , 33-C ) :   1.4613 B( 30-C , 34-H ) :   1.1789
B( 31-C , 35-C ) :   1.1217 B( 31-C , 36-H ) :   1.1741 B( 33-C , 35-C ) :   1.0518
B( 33-C , 37-H ) :   1.1411 B( 35-C , 36-H ) :  -0.1023 B( 35-C , 38-H ) :   1.0485
B( 39-O , 40-O ) :   0.2560

MP2 TOTAL ENERGY:    -1069.136081624 Eh
FINAL SINGLE POINT ENERGY     -1069.136081623695

DIPOLE MOMENT
-------------
                                X             Y             Z
Electronic contribution:     -7.66206      -6.24915       2.73446
Nuclear contribution   :      6.64450       7.04644      -3.73306
                        -----------------------------------------
Total Dipole Moment    :     -1.01756       0.79729      -0.99860
                        -----------------------------------------
Magnitude (a.u.)       :      1.63350
Magnitude (Debye)      :      4.15202

Rotational constants in cm-1:     0.013351     0.005758     0.005054
Rotational constants in MHz :   400.255567   172.606948   151.505649

                             ****ORCA TERMINATED NORMALLY****
TOTAL RUN TIME: 0 days 17 hours 14 minutes 44 seconds 260 msec
