                         Program Version 4.2.1 -  RELEASE  -
|  1> %pal
|  2>  nprocs 32
|  3> end
|  4> !RI-MP2 aug-cc-pVQZ aug-cc-pVQZ/C TightSCF
|  5> %maxcore 4500
|  6> *xyzfile 0 1  02_38P.xyz
|  7>
|  8>
|  9>                          ****END OF INPUT****

CARTESIAN COORDINATES (ANGSTROEM)
---------------------------------
  C     -5.243889    0.520821   -1.001684
  C     -4.137300    1.179697   -1.511168
  C     -2.867057    0.925457   -1.012455
  C     -2.683192   -0.008116    0.018077
  C     -3.813101   -0.672340    0.525965
  C     -5.071414   -0.406285    0.019870
  H     -6.232861    0.725320   -1.393874
  H     -4.256110    1.905365   -2.307122
  H     -2.015299    1.450230   -1.412321
  H     -3.691249   -1.396448    1.317563
  H     -5.927707   -0.929596    0.428273
  C     -1.368606   -0.321019    0.558749
  C     -1.077786   -1.278283    1.617596
  O     -1.795864   -2.001365    2.242595
  O      0.276785   -1.230435    1.888276
  N     -0.216124    0.273956    0.229720
  N     -0.014009    1.250478   -0.570084
  C      0.925039   -0.427657    0.938097
  C      1.771460    0.633388    1.571554
  C      1.660234   -1.310759   -0.064563
  C      2.955791   -1.718563    0.234189
  C      1.048388   -1.770126   -1.225432
  C      3.631895   -2.580138   -0.614836
  H      3.438221   -1.361348    1.135093
  C      1.730415   -2.626366   -2.079025
  H      0.042389   -1.460327   -1.477646
  C      3.020744   -3.033952   -1.776068
  H      4.638436   -2.896241   -0.369883
  H      1.247884   -2.973852   -2.984152
  H      3.550094   -3.703287   -2.443166
  C      1.996765    1.694732    0.815736
  C      2.731883    2.979614    1.083056
  C      1.358567    1.744969   -0.553859
  C      2.743721    3.686738   -0.284401
  H      3.727327    2.816449    1.498402
  C      1.447635    3.218478   -0.955166
  H      2.809206    4.771412   -0.199002
  H      3.606545    3.351632   -0.867100
  H      0.585861    3.743765   -0.535039
  H      1.436595    3.364292   -2.035058
  H      2.169810    3.572243    1.811506
  H      2.110541    0.484823    2.588169
  H      1.962730    1.137181   -1.244444

 Total Charge           Charge          ....    0
 Multiplicity           Mult            ....    1
 Number of Electrons    NEL             ....  174
 Basis Dimension        Dim             .... 2828

ORBITAL ENERGIES
----------------

  NO   OCC          E(Eh)            E(eV)
   0   2.0000     -20.611094      -560.8564
   1   2.0000     -20.536574      -558.8286
   2   2.0000     -15.731075      -428.0643
   3   2.0000     -15.594686      -424.3530
   4   2.0000     -11.384701      -309.7935
   5   2.0000     -11.378203      -309.6166
   6   2.0000     -11.280711      -306.9637
   7   2.0000     -11.275918      -306.8333
   8   2.0000     -11.262315      -306.4632
   9   2.0000     -11.260339      -306.4094
  10   2.0000     -11.251103      -306.1581
  11   2.0000     -11.250152      -306.1322
  12   2.0000     -11.249183      -306.1058
  13   2.0000     -11.248631      -306.0908
  14   2.0000     -11.247125      -306.0498
  15   2.0000     -11.246248      -306.0260
  16   2.0000     -11.245951      -306.0179
  17   2.0000     -11.245648      -306.0096
  18   2.0000     -11.238445      -305.8136
  19   2.0000     -11.234215      -305.6985
  20   2.0000     -11.226601      -305.4913
  21   2.0000     -11.224601      -305.4369
  22   2.0000     -11.223747      -305.4137
  23   2.0000     -11.222555      -305.3812
  24   2.0000     -11.221752      -305.3594
  25   2.0000      -1.491437       -40.5841
  26   2.0000      -1.410328       -38.3770
  27   2.0000      -1.371486       -37.3200
  28   2.0000      -1.192069       -32.4379
  29   2.0000      -1.178490       -32.0684
  30   2.0000      -1.152711       -31.3669
  31   2.0000      -1.126009       -30.6403
  32   2.0000      -1.102273       -29.9944
  33   2.0000      -1.042404       -28.3653
  34   2.0000      -1.034240       -28.1431
  35   2.0000      -1.029177       -28.0053
  36   2.0000      -1.009465       -27.4689
  37   2.0000      -0.989352       -26.9216
  38   2.0000      -0.974770       -26.5248
  39   2.0000      -0.898631       -24.4530
  40   2.0000      -0.871793       -23.7227
  41   2.0000      -0.857411       -23.3313
  42   2.0000      -0.843272       -22.9466
  43   2.0000      -0.833900       -22.6916
  44   2.0000      -0.816024       -22.2051
  45   2.0000      -0.807964       -21.9858
  46   2.0000      -0.792882       -21.5754
  47   2.0000      -0.749449       -20.3935
  48   2.0000      -0.739583       -20.1251
  49   2.0000      -0.715748       -19.4765
  50   2.0000      -0.700821       -19.0703
  51   2.0000      -0.694000       -18.8847
  52   2.0000      -0.680910       -18.5285
  53   2.0000      -0.666117       -18.1260
  54   2.0000      -0.656857       -17.8740
  55   2.0000      -0.643771       -17.5179
  56   2.0000      -0.641501       -17.4561
  57   2.0000      -0.634551       -17.2670
  58   2.0000      -0.625869       -17.0308
  59   2.0000      -0.617248       -16.7962
  60   2.0000      -0.611466       -16.6388
  61   2.0000      -0.601864       -16.3775
  62   2.0000      -0.599001       -16.2996
  63   2.0000      -0.584426       -15.9030
  64   2.0000      -0.580183       -15.7876
  65   2.0000      -0.571590       -15.5537
  66   2.0000      -0.569382       -15.4937
  67   2.0000      -0.543229       -14.7820
  68   2.0000      -0.537151       -14.6166
  69   2.0000      -0.526396       -14.3240
  70   2.0000      -0.518338       -14.1047
  71   2.0000      -0.514001       -13.9867
  72   2.0000      -0.510888       -13.9020
  73   2.0000      -0.502884       -13.6842
  74   2.0000      -0.499202       -13.5840
  75   2.0000      -0.497927       -13.5493
  76   2.0000      -0.490908       -13.3583
  77   2.0000      -0.488303       -13.2874
  78   2.0000      -0.463209       -12.6046
  79   2.0000      -0.446990       -12.1632
  80   2.0000      -0.424425       -11.5492
  81   2.0000      -0.383722       -10.4416
  82   2.0000      -0.372549       -10.1376
  83   2.0000      -0.354135        -9.6365
  84   2.0000      -0.350524        -9.5383
  85   2.0000      -0.330734        -8.9997
  86   2.0000      -0.273677        -7.4471
  87   0.0000       0.015462         0.4208
  88   0.0000       0.021487         0.5847
  89   0.0000       0.022649         0.6163
  90   0.0000       0.027991         0.7617
  91   0.0000       0.030975         0.8429

MULLIKEN ATOMIC CHARGES
-----------------------
   0 C :   -0.481114
   1 C :   -0.461017
   2 C :   -0.583264
   3 C :    0.809825
   4 C :   -0.754080
   5 C :   -0.384073
   6 H :    0.324766
   7 H :    0.213347
   8 H :    0.330001
   9 H :    0.354624
  10 H :    0.195861
  11 C :   -0.351245
  12 C :    1.979537
  13 O :   -1.101453
  14 O :   -1.413749
  15 N :   -0.241208
  16 N :   -0.837291
  17 C :    2.892279
  18 C :   -0.638334
  19 C :    0.561395
  20 C :   -0.795277
  21 C :   -0.510503
  22 C :   -0.427963
  23 H :    0.260863
  24 C :   -0.617160
  25 H :    0.368209
  26 C :   -0.390642
  27 H :    0.198632
  28 H :    0.193714
  29 H :    0.350530
  30 C :    0.116760
  31 C :   -0.664804
  32 C :    1.219799
  33 C :   -0.615752
  34 H :    0.229977
  35 C :   -0.922921
  36 H :    0.321818
  37 H :    0.138601
  38 H :    0.175288
  39 H :    0.301001
  40 H :    0.131008
  41 H :    0.222053
  42 H :    0.301961
Sum of atomic charges:   -0.0000000

LOEWDIN ATOMIC CHARGES
----------------------
   0 C :    0.337420
   1 C :    0.348404
   2 C :    0.341357
   3 C :   -0.072869
   4 C :    0.334451
   5 C :    0.350836
   6 H :   -0.321785
   7 H :   -0.321749
   8 H :   -0.423576
   9 H :   -0.422759
  10 H :   -0.319834
  11 C :   -0.244467
  12 C :   -1.035511
  13 O :    0.723284
  14 O :    0.885708
  15 N :    0.149884
  16 N :    0.586905
  17 C :   -0.817205
  18 C :    0.393978
  19 C :   -0.097417
  20 C :    0.356694
  21 C :    0.356811
  22 C :    0.365902
  23 H :   -0.313359
  24 C :    0.372565
  25 H :   -0.332114
  26 C :    0.351947
  27 H :   -0.314928
  28 H :   -0.312487
  29 H :   -0.316403
  30 C :   -0.018557
  31 C :    0.559575
  32 C :   -0.124239
  33 C :    0.546823
  34 H :   -0.255443
  35 C :    0.534460
  36 H :   -0.251077
  37 H :   -0.257372
  38 H :   -0.263528
  39 H :   -0.243210
  40 H :   -0.257358
  41 H :   -0.279388
  42 H :   -0.280365

  Mayer bond orders larger than 0.100000
B(  0-C ,  1-C ) :   1.3078 B(  0-C ,  5-C ) :   1.1512 B(  0-C ,  6-H ) :   1.0449
B(  1-C ,  2-C ) :   1.1844 B(  1-C ,  3-C ) :  -0.5821 B(  1-C ,  4-C ) :   0.1918
B(  1-C ,  6-H ) :  -0.1272 B(  1-C ,  7-H ) :   1.1275 B(  2-C ,  3-C ) :   0.7952
B(  2-C ,  4-C ) :   0.1058 B(  2-C ,  7-H ) :  -0.1221 B(  2-C ,  8-H ) :   0.6757
B(  2-C , 11-C ) :  -0.2895 B(  2-C , 15-N ) :   0.2205 B(  2-C , 16-N ) :  -0.2312
B(  3-C ,  4-C ) :   1.0874 B(  3-C ,  5-C ) :  -0.5041 B(  3-C ,  8-H ) :  -0.1517
B(  3-C ,  9-H ) :  -0.1711 B(  3-C , 11-C ) :   0.1838 B(  3-C , 12-C ) :  -0.2431
B(  3-C , 15-N ) :   0.4413 B(  3-C , 16-N ) :  -0.1620 B(  3-C , 17-C ) :  -0.1151
B(  4-C ,  5-C ) :   1.3184 B(  4-C ,  6-H ) :  -0.1200 B(  4-C ,  9-H ) :   0.8689
B(  4-C , 10-H ) :  -0.1804 B(  4-C , 11-C ) :  -0.3363 B(  4-C , 17-C ) :  -0.1037
B(  5-C ,  6-H ) :  -0.1036 B(  5-C , 10-H ) :   1.2173 B(  8-H , 16-N ) :   0.3108
B(  9-H , 11-C ) :   0.2008 B( 11-C , 12-C ) :   1.7226 B( 11-C , 13-O ) :   0.5405
B( 11-C , 14-O ) :   0.4906 B( 11-C , 15-N ) :   1.0340 B( 11-C , 17-C ) :  -0.2833
B( 11-C , 21-C ) :  -0.1411 B( 11-C , 32-C ) :   0.1439 B( 12-C , 13-O ) :   0.1953
B( 12-C , 14-O ) :   0.7392 B( 12-C , 17-C ) :   0.1048 B( 13-O , 14-O ) :   0.2068
B( 13-O , 17-C ) :   0.1983 B( 14-O , 15-N ) :   0.1780 B( 14-O , 17-C ) :  -1.3840
B( 14-O , 18-C ) :   0.2343 B( 14-O , 19-C ) :   0.3210 B( 15-N , 17-C ) :   0.3012
B( 15-N , 18-C ) :   0.4789 B( 15-N , 21-C ) :   0.1947 B( 15-N , 24-C ) :   0.1270
B( 15-N , 25-H ) :   0.1441 B( 15-N , 32-C ) :  -0.2013 B( 16-N , 18-C ) :  -0.1215
B( 16-N , 32-C ) :   1.0235 B( 16-N , 35-C ) :   0.1378 B( 17-C , 18-C ) :   0.9677
B( 17-C , 19-C ) :   0.2390 B( 17-C , 21-C ) :  -0.4789 B( 17-C , 25-H ) :  -0.1174
B( 18-C , 30-C ) :   0.3990 B( 18-C , 31-C ) :  -0.2205 B( 18-C , 32-C ) :  -0.2700
B( 18-C , 41-H ) :   1.0880 B( 19-C , 20-C ) :   0.6451 B( 19-C , 21-C ) :   0.9611
B( 19-C , 22-C ) :  -0.4739 B( 19-C , 24-C ) :  -0.4713 B( 20-C , 22-C ) :   1.4687
B( 20-C , 23-H ) :   1.0398 B( 20-C , 24-C ) :   0.1743 B( 20-C , 27-H ) :  -0.1341
B( 21-C , 22-C ) :   0.1068 B( 21-C , 24-C ) :   1.3183 B( 21-C , 25-H ) :   0.8736
B( 21-C , 26-C ) :  -0.1606 B( 21-C , 28-H ) :  -0.1104 B( 22-C , 26-C ) :   1.1492
B( 22-C , 27-H ) :   1.2057 B( 24-C , 25-H ) :  -0.1150 B( 24-C , 26-C ) :   1.2796
B( 24-C , 28-H ) :   1.1545 B( 24-C , 29-H ) :  -0.1332 B( 26-C , 27-H ) :  -0.1017
B( 26-C , 29-H ) :   1.0253 B( 30-C , 31-C ) :   0.2162 B( 30-C , 32-C ) :   0.5813
B( 30-C , 33-C ) :  -0.2236 B( 30-C , 34-H ) :  -0.2149 B( 30-C , 40-H ) :  -0.2457
B( 30-C , 41-H ) :  -0.2384 B( 31-C , 32-C ) :  -0.1328 B( 31-C , 33-C ) :   1.1019
B( 31-C , 34-H ) :   1.1340 B( 31-C , 40-H ) :   1.1650 B( 32-C , 35-C ) :   0.1329
B( 32-C , 38-H ) :  -0.2008 B( 32-C , 39-H ) :  -0.1637 B( 32-C , 42-H ) :   0.7405
B( 33-C , 35-C ) :   1.0562 B( 33-C , 36-H ) :   0.9014 B( 33-C , 37-H ) :   1.0652
B( 35-C , 38-H ) :   1.1396 B( 35-C , 39-H ) :   1.0138

MP2 TOTAL ENERGY:    -1069.201854134 Eh
FINAL SINGLE POINT ENERGY     -1069.201854134464

DIPOLE MOMENT
-------------
                                X             Y             Z
Electronic contribution:     -7.11039     -11.24071       7.30980
Nuclear contribution   :      9.07705      12.42267      -8.33480
                        -----------------------------------------
Total Dipole Moment    :      1.96666       1.18196      -1.02500
                        -----------------------------------------
Magnitude (a.u.)       :      2.51305
Magnitude (Debye)      :      6.38767

Rotational constants in cm-1:     0.010483     0.006119     0.004933
Rotational constants in MHz :   314.266558   183.439269   147.880294

                             ****ORCA TERMINATED NORMALLY****
TOTAL RUN TIME: 0 days 14 hours 50 minutes 29 seconds 614 msec
