                         Program Version 4.2.1 -  RELEASE  -
|  1> %pal
|  2>  nprocs 32
|  3> end
|  4> !RI-MP2 aug-cc-pVQZ aug-cc-pVQZ/C TightSCF
|  5> %maxcore 4500
|  6> *xyzfile 0 1  10_23TS.xyz
|  7>
|  8>
|  9>                          ****END OF INPUT****

CARTESIAN COORDINATES (ANGSTROEM)
---------------------------------
  C     -0.739782   -1.413294   -0.705898
  C     -1.368171   -2.586070   -0.306037
  C     -1.315728   -0.045964    1.073107
  N     -2.321904   -0.879175    1.489311
  N     -2.646400   -1.963287    1.289714
  C     -1.700277    1.262049    0.519619
  C     -0.750121    2.210745    0.132768
  C     -3.052702    1.546631    0.305190
  C     -1.148142    3.396207   -0.465892
  H      0.300664    2.026103    0.295920
  C     -3.441811    2.733365   -0.291814
  H     -3.808751    0.840886    0.626423
  C     -2.491016    3.664645   -0.686430
  H     -0.395097    4.117322   -0.759758
  H     -4.495680    2.932958   -0.443178
  H     -2.794953    4.593541   -1.152621
  C     -0.107378   -0.334473    1.859636
  C      1.481922   -0.422610    0.106860
  C      0.716014   -1.147551   -0.705696
  H      1.232765   -1.552762   -1.570214
  C     -1.510025   -0.830599   -1.887912
  H     -1.610607    0.254630   -1.846953
  H     -0.947924   -1.060615   -2.801905
  C     -2.506685   -2.932690   -1.236356
  H     -2.152566   -3.636900   -1.999133
  H     -3.354255   -3.400303   -0.731791
  C     -2.848529   -1.577485   -1.872046
  H     -3.564587   -1.042395   -1.243931
  H     -3.293437   -1.669726   -2.863119
  O      1.052166    0.135553    1.297066
  O     -0.070387   -0.959166    2.876980
  C      2.910316   -0.126834   -0.119780
  C      3.418429    0.007543   -1.411551
  C      3.771405    0.026017    0.966254
  C      4.765703    0.260534   -1.613728
  H      2.751346   -0.064671   -2.261333
  C      5.118565    0.281257    0.760763
  H      3.376913   -0.063251    1.969490
  C      5.620946    0.395440   -0.528011
  H      5.146720    0.366620   -2.622198
  H      5.778903    0.390114    1.612517
  H      6.673267    0.597660   -0.686521
  H     -0.856417   -3.344230    0.274488

 Total Charge           Charge          ....    0
 Multiplicity           Mult            ....    1
 Number of Electrons    NEL             ....  174
 Basis Dimension        Dim             .... 2828

ORBITAL ENERGIES
----------------

  NO   OCC          E(Eh)            E(eV)
   0   2.0000     -20.611398      -560.8647
   1   2.0000     -20.557479      -559.3974
   2   2.0000     -15.687265      -426.8722
   3   2.0000     -15.680132      -426.6781
   4   2.0000     -11.399464      -310.1952
   5   2.0000     -11.319278      -308.0132
   6   2.0000     -11.311752      -307.8084
   7   2.0000     -11.269971      -306.6715
   8   2.0000     -11.259470      -306.3858
   9   2.0000     -11.253030      -306.2105
  10   2.0000     -11.245844      -306.0150
  11   2.0000     -11.244578      -305.9805
  12   2.0000     -11.244091      -305.9673
  13   2.0000     -11.243590      -305.9536
  14   2.0000     -11.241774      -305.9042
  15   2.0000     -11.241454      -305.8955
  16   2.0000     -11.240786      -305.8773
  17   2.0000     -11.240588      -305.8719
  18   2.0000     -11.239967      -305.8550
  19   2.0000     -11.239908      -305.8534
  20   2.0000     -11.239466      -305.8414
  21   2.0000     -11.238106      -305.8044
  22   2.0000     -11.227519      -305.5163
  23   2.0000     -11.226259      -305.4820
  24   2.0000     -11.223457      -305.4058
  25   2.0000      -1.482057       -40.3288
  26   2.0000      -1.449702       -39.4484
  27   2.0000      -1.386808       -37.7370
  28   2.0000      -1.182356       -32.1735
  29   2.0000      -1.170464       -31.8499
  30   2.0000      -1.151043       -31.3215
  31   2.0000      -1.119479       -30.4626
  32   2.0000      -1.085400       -29.5352
  33   2.0000      -1.030825       -28.0502
  34   2.0000      -1.028316       -27.9819
  35   2.0000      -1.023208       -27.8429
  36   2.0000      -1.015932       -27.6449
  37   2.0000      -0.971741       -26.4424
  38   2.0000      -0.961462       -26.1627
  39   2.0000      -0.913153       -24.8482
  40   2.0000      -0.860587       -23.4178
  41   2.0000      -0.847186       -23.0531
  42   2.0000      -0.836908       -22.7734
  43   2.0000      -0.829647       -22.5759
  44   2.0000      -0.804349       -21.8875
  45   2.0000      -0.794672       -21.6241
  46   2.0000      -0.755268       -20.5519
  47   2.0000      -0.744491       -20.2586
  48   2.0000      -0.728266       -19.8171
  49   2.0000      -0.710557       -19.3352
  50   2.0000      -0.705775       -19.2051
  51   2.0000      -0.686029       -18.6678
  52   2.0000      -0.677982       -18.4488
  53   2.0000      -0.673934       -18.3387
  54   2.0000      -0.655132       -17.8271
  55   2.0000      -0.646031       -17.5794
  56   2.0000      -0.639446       -17.4002
  57   2.0000      -0.634317       -17.2606
  58   2.0000      -0.628926       -17.1139
  59   2.0000      -0.622667       -16.9436
  60   2.0000      -0.611796       -16.6478
  61   2.0000      -0.605079       -16.4650
  62   2.0000      -0.597231       -16.2515
  63   2.0000      -0.594756       -16.1841
  64   2.0000      -0.579577       -15.7711
  65   2.0000      -0.558487       -15.1972
  66   2.0000      -0.556847       -15.1526
  67   2.0000      -0.543116       -14.7789
  68   2.0000      -0.527840       -14.3633
  69   2.0000      -0.523902       -14.2561
  70   2.0000      -0.518688       -14.1142
  71   2.0000      -0.516827       -14.0636
  72   2.0000      -0.511907       -13.9297
  73   2.0000      -0.504141       -13.7184
  74   2.0000      -0.501281       -13.6405
  75   2.0000      -0.499261       -13.5856
  76   2.0000      -0.496535       -13.5114
  77   2.0000      -0.485685       -13.2162
  78   2.0000      -0.482082       -13.1181
  79   2.0000      -0.467120       -12.7110
  80   2.0000      -0.400661       -10.9025
  81   2.0000      -0.392567       -10.6823
  82   2.0000      -0.351740        -9.5713
  83   2.0000      -0.346322        -9.4239
  84   2.0000      -0.335426        -9.1274
  85   2.0000      -0.311673        -8.4811
  86   2.0000      -0.295184        -8.0324
  87   0.0000       0.017807         0.4846
  88   0.0000       0.021907         0.5961
  89   0.0000       0.024949         0.6789
  90   0.0000       0.027970         0.7611
  91   0.0000       0.032066         0.8726

MULLIKEN ATOMIC CHARGES
-----------------------
   0 C :    1.343092
   1 C :   -0.435914
   2 C :    1.512263
   3 N :   -0.602731
   4 N :   -0.558374
   5 C :    0.969734
   6 C :   -0.880449
   7 C :   -0.558625
   8 C :   -0.364082
   9 H :    0.438867
  10 C :   -0.446101
  11 H :    0.229785
  12 C :   -0.418728
  13 H :    0.210059
  14 H :    0.189782
  15 H :    0.353607
  16 C :    1.814702
  17 C :    0.567021
  18 C :   -0.408498
  19 H :    0.090113
  20 C :   -0.876952
  21 H :    0.490317
  22 H :    0.107800
  23 C :   -0.730767
  24 H :    0.242593
  25 H :    0.263384
  26 C :   -0.665575
  27 H :    0.228228
  28 H :    0.266756
  29 O :   -1.130819
  30 O :   -1.201004
  31 C :    0.658380
  32 C :   -0.603004
  33 C :   -0.721680
  34 C :   -0.330255
  35 H :    0.220628
  36 C :   -0.288427
  37 H :    0.307335
  38 C :   -0.356113
  39 H :    0.234163
  40 H :    0.215946
  41 H :    0.356578
  42 H :    0.266965
Sum of atomic charges:   -0.0000000

LOEWDIN ATOMIC CHARGES
----------------------
   0 C :   -0.130153
   1 C :    0.210630
   2 C :   -0.427344
   3 N :    0.163007
   4 N :    0.501109
   5 C :   -0.130582
   6 C :    0.347781
   7 C :    0.322820
   8 C :    0.363429
   9 H :   -0.372369
  10 C :    0.359772
  11 H :   -0.336088
  12 C :    0.349683
  13 H :   -0.312591
  14 H :   -0.312914
  15 H :   -0.319067
  16 C :   -1.106790
  17 C :   -0.405936
  18 C :    0.367370
  19 H :   -0.346069
  20 C :    0.512016
  21 H :   -0.294226
  22 H :   -0.252584
  23 C :    0.493704
  24 H :   -0.258254
  25 H :   -0.281563
  26 C :    0.528061
  27 H :   -0.284387
  28 H :   -0.245588
  29 O :    0.842401
  30 O :    0.729787
  31 C :   -0.118882
  32 C :    0.336692
  33 C :    0.342425
  34 C :    0.354009
  35 H :   -0.326035
  36 C :    0.354376
  37 H :   -0.328998
  38 C :    0.341905
  39 H :   -0.318832
  40 H :   -0.318173
  41 H :   -0.319397
  42 H :   -0.274155

  Mayer bond orders larger than 0.100000
B(  0-C ,  1-C ) :   1.2737 B(  0-C ,  2-C ) :   0.3310 B(  0-C ,  3-N ) :   0.2378
B(  0-C , 17-C ) :  -0.4932 B(  0-C , 18-C ) :   0.1142 B(  0-C , 19-H ) :  -0.1799
B(  0-C , 20-C ) :   0.4505 B(  0-C , 23-C ) :  -0.3454 B(  0-C , 26-C ) :  -0.2077
B(  0-C , 30-O ) :   0.1188 B(  1-C ,  2-C ) :   0.1725 B(  1-C ,  4-N ) :   0.2292
B(  1-C , 18-C ) :  -0.2983 B(  1-C , 20-C ) :   0.1037 B(  1-C , 23-C ) :   0.9150
B(  1-C , 42-H ) :   1.0237 B(  2-C ,  3-N ) :  -0.7147 B(  2-C ,  4-N ) :  -0.7143
B(  2-C ,  5-C ) :   0.3834 B(  2-C ,  6-C ) :  -0.5547 B(  2-C ,  7-C ) :  -0.2469
B(  2-C , 16-C ) :   1.4267 B(  2-C , 18-C ) :   0.1213 B(  2-C , 30-O ) :   0.4154
B(  3-N ,  4-N ) :   2.0650 B(  3-N , 16-C ) :   0.1271 B(  3-N , 30-O ) :   0.1090
B(  4-N ,  5-C ) :   0.1331 B(  4-N , 16-C ) :   0.1746 B(  5-C ,  6-C ) :   0.8997
B(  5-C ,  7-C ) :   0.7835 B(  5-C ,  8-C ) :  -0.5049 B(  5-C ,  9-H ) :  -0.1783
B(  5-C , 10-C ) :  -0.4971 B(  5-C , 16-C ) :  -0.2194 B(  5-C , 29-O ) :   0.2156
B(  6-C ,  8-C ) :   1.2872 B(  6-C ,  9-H ) :   0.6713 B(  6-C , 10-C ) :   0.1480
B(  6-C , 13-H ) :  -0.1270 B(  6-C , 29-O ) :  -0.2380 B(  7-C , 10-C ) :   1.3469
B(  7-C , 11-H ) :   0.9797 B(  7-C , 14-H ) :  -0.1454 B(  8-C , 12-C ) :   1.2395
B(  8-C , 13-H ) :   1.1446 B(  8-C , 15-H ) :  -0.1193 B( 10-C , 12-C ) :   1.2188
B( 10-C , 14-H ) :   1.1910 B( 12-C , 15-H ) :   1.0160 B( 16-C , 29-O ) :   0.9015
B( 17-C , 18-C ) :   1.8424 B( 17-C , 29-O ) :  -0.1801 B( 17-C , 30-O ) :   0.1180
B( 17-C , 31-C ) :   0.8723 B( 17-C , 33-C ) :  -0.3689 B( 17-C , 35-H ) :   0.1039
B( 18-C , 19-H ) :   1.1826 B( 18-C , 29-O ) :   0.2691 B( 18-C , 31-C ) :  -0.6235
B( 18-C , 32-C ) :  -0.2258 B( 20-C , 21-H ) :   0.6036 B( 20-C , 22-H ) :   1.1544
B( 20-C , 26-C ) :   0.9371 B( 21-H , 22-H ) :  -0.1040 B( 23-C , 24-H ) :   0.9908
B( 23-C , 25-H ) :   0.9919 B( 23-C , 26-C ) :   1.0566 B( 26-C , 27-H ) :   0.9929
B( 26-C , 28-H ) :   0.9545 B( 29-O , 30-O ) :   0.1706 B( 31-C , 32-C ) :   0.9176
B( 31-C , 33-C ) :   0.9921 B( 31-C , 34-C ) :  -0.3971 B( 31-C , 36-C ) :  -0.4769
B( 32-C , 33-C ) :   0.1616 B( 32-C , 34-C ) :   1.3207 B( 32-C , 35-H ) :   0.9925
B( 32-C , 36-C ) :   0.1320 B( 32-C , 39-H ) :  -0.1400 B( 32-C , 41-H ) :  -0.1037
B( 33-C , 34-C ) :   0.1650 B( 33-C , 36-C ) :   1.4088 B( 33-C , 37-H ) :   0.9558
B( 33-C , 38-C ) :   0.1101 B( 33-C , 40-H ) :  -0.1292 B( 33-C , 41-H ) :  -0.1231
B( 34-C , 38-C ) :   1.1499 B( 34-C , 39-H ) :   1.1442 B( 36-C , 38-C ) :   1.1381
B( 36-C , 40-H ) :   1.1644 B( 38-C , 41-H ) :   0.9985

MP2 TOTAL ENERGY:    -1069.140307033 Eh
FINAL SINGLE POINT ENERGY     -1069.140307032914

DIPOLE MOMENT
-------------
                                X             Y             Z
Electronic contribution:      2.05671       0.33088      14.22905
Nuclear contribution   :     -2.00528       0.25253     -15.94593
                        -----------------------------------------
Total Dipole Moment    :      0.05143       0.58341      -1.71688
                        -----------------------------------------
Magnitude (a.u.)       :      1.81402
Magnitude (Debye)      :      4.61088

Rotational constants in cm-1:     0.011494     0.005660     0.004966
Rotational constants in MHz :   344.592092   169.673446   148.862213

                             ****ORCA TERMINATED NORMALLY****
TOTAL RUN TIME: 0 days 15 hours 1 minutes 4 seconds 894 msec
