                         Program Version 4.2.1 -  RELEASE  -
|  1> %pal
|  2>  nprocs 32
|  3> end
|  4> !RI-MP2 aug-cc-pVQZ aug-cc-pVQZ/C TightSCF
|  5> %maxcore 4500
|  6> *xyzfile 0 1  08_13P2.xyz
|  7>
|  8>
|  9>                          ****END OF INPUT****

CARTESIAN COORDINATES (ANGSTROEM)
---------------------------------
  C      1.724889   -1.255180   -0.000010
  C      1.397623    0.106163    0.000000
  C      2.422339    1.055301    0.000000
  C      3.748632    0.662845   -0.000008
  C      4.047088   -0.708937   -0.000023
  C      3.054236   -1.667878   -0.000023
  H      2.176561    2.111535    0.000002
  H      5.085361   -1.022510   -0.000037
  H      3.307299   -2.721006   -0.000038
  C     -0.038729    0.319260    0.000004
  C     -0.735205    1.537033    0.000012
  C     -0.728670   -0.887971   -0.000003
  C     -2.114649    1.501936    0.000014
  H     -0.190869    2.469381    0.000016
  C     -2.128515   -0.911377   -0.000001
  C     -2.815977    0.283582    0.000008
  H     -3.894956    0.326608    0.000013
  S      0.312618   -2.296874   -0.000015
  O     -2.699691   -2.138058   -0.000005
  O     -2.910043    2.605571    0.000022
  C      4.862358    1.674900    0.000033
  H      5.499638    1.560293   -0.880299
  H      4.471428    2.693015   -0.000336
  H      5.499148    1.560751    0.880783
  C     -4.111741   -2.219052   -0.000049
  H     -4.351011   -3.279647   -0.000081
  H     -4.533219   -1.749567    0.893334
  H     -4.533166   -1.749523   -0.893433
  C     -2.287918    3.872861    0.000048
  H     -1.670951    4.012712   -0.893005
  H     -3.092899    4.604263    0.000065
  H     -1.670949    4.012673    0.893106

 Total Charge           Charge          ....    0
 Multiplicity           Mult            ....    1
 Number of Electrons    NEL             ....  136
 Basis Dimension        Dim             .... 2088

ORBITAL ENERGIES
----------------

  NO   OCC          E(Eh)            E(eV)
   0   2.0000     -91.965344     -2502.5042
   1   2.0000     -20.589611      -560.2718
   2   2.0000     -20.584461      -560.1317
   3   2.0000     -11.309699      -307.7525
   4   2.0000     -11.303668      -307.5884
   5   2.0000     -11.285692      -307.0993
   6   2.0000     -11.284313      -307.0618
   7   2.0000     -11.261829      -306.4499
   8   2.0000     -11.250861      -306.1515
   9   2.0000     -11.248909      -306.0984
  10   2.0000     -11.241018      -305.8837
  11   2.0000     -11.240232      -305.8623
  12   2.0000     -11.238332      -305.8106
  13   2.0000     -11.233609      -305.6820
  14   2.0000     -11.232637      -305.6556
  15   2.0000     -11.224341      -305.4298
  16   2.0000     -11.223940      -305.4189
  17   2.0000     -11.223196      -305.3987
  18   2.0000      -8.966851      -244.0004
  19   2.0000      -6.648273      -180.9087
  20   2.0000      -6.647691      -180.8929
  21   2.0000      -6.646717      -180.8664
  22   2.0000      -1.421436       -38.6792
  23   2.0000      -1.414479       -38.4899
  24   2.0000      -1.198082       -32.6015
  25   2.0000      -1.147624       -31.2284
  26   2.0000      -1.093038       -29.7431
  27   2.0000      -1.049988       -28.5716
  28   2.0000      -1.035551       -28.1788
  29   2.0000      -0.996640       -27.1199
  30   2.0000      -0.985789       -26.8247
  31   2.0000      -0.951571       -25.8936
  32   2.0000      -0.933185       -25.3932
  33   2.0000      -0.910677       -24.7808
  34   2.0000      -0.855069       -23.2676
  35   2.0000      -0.803022       -21.8513
  36   2.0000      -0.797282       -21.6951
  37   2.0000      -0.782223       -21.2854
  38   2.0000      -0.723072       -19.6758
  39   2.0000      -0.703355       -19.1393
  40   2.0000      -0.672915       -18.3109
  41   2.0000      -0.670972       -18.2581
  42   2.0000      -0.665030       -18.0964
  43   2.0000      -0.657039       -17.8789
  44   2.0000      -0.648452       -17.6453
  45   2.0000      -0.633683       -17.2434
  46   2.0000      -0.621562       -16.9136
  47   2.0000      -0.611979       -16.6528
  48   2.0000      -0.589686       -16.0462
  49   2.0000      -0.581322       -15.8186
  50   2.0000      -0.574060       -15.6210
  51   2.0000      -0.558922       -15.2090
  52   2.0000      -0.551004       -14.9936
  53   2.0000      -0.540242       -14.7007
  54   2.0000      -0.530982       -14.4488
  55   2.0000      -0.518995       -14.1226
  56   2.0000      -0.513328       -13.9684
  57   2.0000      -0.507360       -13.8060
  58   2.0000      -0.505158       -13.7460
  59   2.0000      -0.491349       -13.3703
  60   2.0000      -0.488683       -13.2977
  61   2.0000      -0.457807       -12.4575
  62   2.0000      -0.457252       -12.4425
  63   2.0000      -0.415735       -11.3127
  64   2.0000      -0.370847       -10.0913
  65   2.0000      -0.329354        -8.9622
  66   2.0000      -0.294904        -8.0247
  67   2.0000      -0.276730        -7.5302
  68   0.0000       0.020596         0.5605
  69   0.0000       0.023970         0.6523
  70   0.0000       0.027251         0.7415
  71   0.0000       0.032298         0.8789
  72   0.0000       0.036392         0.9903

MULLIKEN ATOMIC CHARGES
-----------------------
   0 C :   -0.767828
   1 C :    1.730973
   2 C :   -0.686773
   3 C :    0.387872
   4 C :   -0.470142
   5 C :   -0.449550
   6 H :    0.073918
   7 H :    0.244035
   8 H :    0.284714
   9 C :    0.455204
  10 C :   -1.106934
  11 C :   -0.694888
  12 C :    1.882137
  13 H :    0.261718
  14 C :    1.703853
  15 C :   -1.368776
  16 H :    0.190723
  17 S :   -0.171569
  18 O :   -0.923879
  19 O :   -0.980834
  20 C :   -0.926605
  21 H :    0.231192
  22 H :    0.238103
  23 H :    0.231248
  24 C :   -0.731369
  25 H :    0.457385
  26 H :    0.289890
  27 H :    0.289887
  28 C :   -0.704305
  29 H :    0.275506
  30 H :    0.479580
  31 H :    0.275512
Sum of atomic charges:   -0.0000000

LOEWDIN ATOMIC CHARGES
----------------------
   0 C :   -0.508363
   1 C :   -0.185017
   2 C :    0.368445
   3 C :   -0.066665
   4 C :    0.341880
   5 C :    0.285645
   6 H :   -0.319662
   7 H :   -0.314292
   8 H :   -0.329308
   9 C :   -0.197233
  10 C :    0.348014
  11 C :   -0.536362
  12 C :   -0.443643
  13 H :   -0.366461
  14 C :   -0.534736
  15 C :    0.309683
  16 H :   -0.362379
  17 S :    1.422927
  18 O :    0.864128
  19 O :    0.884146
  20 C :    0.904865
  21 H :   -0.282677
  22 H :   -0.308197
  23 H :   -0.282658
  24 C :    0.582535
  25 H :   -0.314582
  26 H :   -0.303649
  27 H :   -0.303651
  28 C :    0.573214
  29 H :   -0.304766
  30 H :   -0.316410
  31 H :   -0.304767

  Mayer bond orders larger than 0.100000
B(  0-C ,  1-C ) :   0.3174 B(  0-C ,  4-C ) :   0.1736 B(  0-C ,  5-C ) :   1.1975
B(  0-C ,  8-H ) :  -0.1304 B(  0-C ,  9-C ) :  -0.2417 B(  0-C , 11-C ) :  -0.7869
B(  0-C , 14-C ) :   0.3223 B(  0-C , 17-S ) :   0.9155 B(  1-C ,  2-C ) :   0.8415
B(  1-C ,  3-C ) :  -0.9507 B(  1-C ,  4-C ) :  -0.2340 B(  1-C ,  5-C ) :  -0.1909
B(  1-C ,  6-H ) :  -0.2986 B(  1-C ,  9-C ) :   0.8728 B(  1-C , 10-C ) :  -0.4792
B(  1-C , 11-C ) :  -0.5408 B(  1-C , 13-H ) :   0.1936 B(  1-C , 14-C ) :   0.1155
B(  1-C , 17-S ) :  -0.6170 B(  2-C ,  3-C ) :   1.0726 B(  2-C ,  5-C ) :   0.1478
B(  2-C ,  6-H ) :   1.2816 B(  2-C ,  9-C ) :  -0.3066 B(  2-C , 10-C ) :  -0.4471
B(  2-C , 11-C ) :   0.2286 B(  2-C , 20-C ) :  -0.2019 B(  3-C ,  4-C ) :   0.9678
B(  3-C ,  7-H ) :  -0.1113 B(  3-C ,  9-C ) :   0.2136 B(  3-C , 20-C ) :   0.7720
B(  3-C , 21-H ) :  -0.1339 B(  3-C , 23-H ) :  -0.1339 B(  4-C ,  5-C ) :   1.2467
B(  4-C ,  7-H ) :   1.0847 B(  4-C ,  8-H ) :  -0.1884 B(  5-C ,  7-H ) :  -0.1501
B(  5-C ,  8-H ) :   1.0103 B(  5-C , 11-C ) :   0.1975 B(  6-H ,  9-C ) :   0.1169
B(  6-H , 10-C ) :  -0.1094 B(  9-C , 10-C ) :   0.5269 B(  9-C , 12-C ) :  -0.5928
B(  9-C , 13-H ) :  -0.2432 B(  9-C , 14-C ) :  -0.2295 B(  9-C , 17-S ) :   0.2768
B( 10-C , 11-C ) :   0.1622 B( 10-C , 12-C ) :   1.5764 B( 10-C , 13-H ) :   0.9451
B( 10-C , 19-O ) :   0.5474 B( 10-C , 28-C ) :   0.2546 B( 11-C , 14-C ) :   0.8358
B( 11-C , 15-C ) :   0.3128 B( 11-C , 17-S ) :   0.7619 B( 11-C , 18-O ) :   0.7521
B( 11-C , 24-C ) :   0.1247 B( 12-C , 13-H ) :  -0.2026 B( 12-C , 14-C ) :  -0.5588
B( 12-C , 15-C ) :   1.0838 B( 12-C , 16-H ) :  -0.1176 B( 12-C , 19-O ) :  -0.6164
B( 12-C , 28-C ) :  -0.2538 B( 14-C , 15-C ) :   1.5783 B( 14-C , 17-S ) :  -0.2530
B( 14-C , 18-O ) :  -0.6347 B( 14-C , 24-C ) :  -0.2841 B( 15-C , 16-H ) :   1.0156
B( 15-C , 18-O ) :   0.3487 B( 15-C , 19-O ) :   0.3733 B( 18-O , 24-C ) :   0.9279
B( 19-O , 28-C ) :   0.9318 B( 20-C , 21-H ) :   1.0490 B( 20-C , 22-H ) :   1.0444
B( 20-C , 23-H ) :   1.0489 B( 24-C , 25-H ) :   0.8079 B( 24-C , 26-H ) :   0.9024
B( 24-C , 27-H ) :   0.9024 B( 28-C , 29-H ) :   0.9032 B( 28-C , 30-H ) :   0.7648
B( 28-C , 31-H ) :   0.9032

MP2 TOTAL ENERGY:    -1127.002325187 Eh
FINAL SINGLE POINT ENERGY     -1127.002325186513

DIPOLE MOMENT
-------------
                                X             Y             Z
Electronic contribution:     -2.05126     -11.88707      -0.00008
Nuclear contribution   :      1.98072      12.76147       0.00009
                        -----------------------------------------
Total Dipole Moment    :     -0.07054       0.87440       0.00001
                        -----------------------------------------
Magnitude (a.u.)       :      0.87724
Magnitude (Debye)      :      2.22977

Rotational constants in cm-1:     0.019066     0.009123     0.006192
Rotational constants in MHz :   571.571113   273.486799   185.627574

                             ****ORCA TERMINATED NORMALLY****
TOTAL RUN TIME: 0 days 4 hours 41 minutes 12 seconds 871 msec
