                         Program Version 4.2.1 -  RELEASE  -
|  1> %pal
|  2>  nprocs 32
|  3> end
|  4> !RI-MP2 aug-cc-pVQZ aug-cc-pVQZ/C TightSCF
|  5> %maxcore 4500
|  6> *xyzfile 0 1  10_19P.xyz
|  7>
|  8>
|  9>                          ****END OF INPUT****

CARTESIAN COORDINATES (ANGSTROEM)
---------------------------------
  C     -4.400293   -2.615428   -0.047319
  C     -3.350074   -1.870261    0.466791
  C     -3.399088   -0.479336    0.445129
  C     -4.516132    0.150996   -0.091417
  C     -5.567582   -0.593944   -0.607373
  C     -5.510778   -1.979886   -0.587422
  H     -4.353449   -3.697356   -0.022093
  H     -2.492793   -2.374123    0.896919
  H     -4.565580    1.234406   -0.103893
  H     -6.433566   -0.090451   -1.019784
  H     -6.331133   -2.563954   -0.986283
  C     -2.236956    0.345591    0.935569
  C     -1.038469    0.347964   -0.047809
  C     -1.025559    2.338496   -1.431270
  C     -0.056972    2.438301    0.791214
  C     -0.104474    3.445859   -1.926374
  H     -1.983490    2.780908   -1.102693
  H     -1.253599    1.642968   -2.242001
  C      0.906606    3.538459    0.367066
  H     -0.961391    2.900465    1.223294
  H      0.393077    1.824233    1.571074
  C      0.318193    4.358543   -0.777801
  H     -0.610606    4.017255   -2.708563
  H      0.780490    2.986381   -2.376710
  H      1.129383    4.175670    1.226173
  H      1.846911    3.078057    0.048747
  H      1.036706    5.103994   -1.126261
  H     -0.556369    4.910253   -0.413136
  N     -0.390123    1.594487   -0.351624
  N     -0.149614   -0.542403    0.704740
  N     -0.561372   -0.687193    2.007479
  N     -1.685763   -0.213173    2.193479
  C      1.183622   -0.773412    0.368152
  C      1.486349   -1.331659   -0.869619
  C      2.252501   -0.439688    1.194905
  C      2.787874   -1.552792   -1.273557
  C      3.560151   -0.685165    0.815342
  C      3.832070   -1.237412   -0.422590
  F      0.494844   -1.661929   -1.699747
  F      3.039291   -2.084540   -2.466425
  F      5.087764   -1.460055   -0.794688
  F      4.561168   -0.359256    1.628025
  F      2.043142    0.158702    2.365359
  H     -2.579138    1.358970    1.145516
  H     -1.319175   -0.117357   -0.991246

 Total Charge           Charge          ....    0
 Multiplicity           Mult            ....    1
 Number of Electrons    NEL             ....  204
 Basis Dimension        Dim             .... 3022

ORBITAL ENERGIES
----------------

  NO   OCC          E(Eh)            E(eV)
   0   2.0000     -26.347203      -716.9438
   1   2.0000     -26.345584      -716.8998
   2   2.0000     -26.344930      -716.8820
   3   2.0000     -26.344051      -716.8581
   4   2.0000     -26.341081      -716.7772
   5   2.0000     -15.679041      -426.6484
   6   2.0000     -15.629775      -425.3078
   7   2.0000     -15.615407      -424.9168
   8   2.0000     -15.563802      -423.5126
   9   2.0000     -11.371520      -309.4348
  10   2.0000     -11.368765      -309.3598
  11   2.0000     -11.368572      -309.3546
  12   2.0000     -11.367337      -309.3210
  13   2.0000     -11.367199      -309.3172
  14   2.0000     -11.327831      -308.2460
  15   2.0000     -11.317500      -307.9648
  16   2.0000     -11.282490      -307.0122
  17   2.0000     -11.263498      -306.4954
  18   2.0000     -11.258688      -306.3645
  19   2.0000     -11.253026      -306.2104
  20   2.0000     -11.243734      -305.9576
  21   2.0000     -11.242431      -305.9221
  22   2.0000     -11.241871      -305.9069
  23   2.0000     -11.240060      -305.8576
  24   2.0000     -11.239620      -305.8456
  25   2.0000     -11.228203      -305.5349
  26   2.0000     -11.227301      -305.5104
  27   2.0000     -11.226501      -305.4886
  28   2.0000      -1.680355       -45.7248
  29   2.0000      -1.673603       -45.5411
  30   2.0000      -1.667388       -45.3719
  31   2.0000      -1.659033       -45.1446
  32   2.0000      -1.655030       -45.0357
  33   2.0000      -1.450270       -39.4639
  34   2.0000      -1.278503       -34.7898
  35   2.0000      -1.246967       -33.9317
  36   2.0000      -1.196841       -32.5677
  37   2.0000      -1.171947       -31.8903
  38   2.0000      -1.107174       -30.1277
  39   2.0000      -1.074421       -29.2365
  40   2.0000      -1.070829       -29.1387
  41   2.0000      -1.061516       -28.8853
  42   2.0000      -1.033359       -28.1191
  43   2.0000      -1.026952       -27.9448
  44   2.0000      -1.005805       -27.3694
  45   2.0000      -0.938938       -25.5498
  46   2.0000      -0.922801       -25.1107
  47   2.0000      -0.910917       -24.7873
  48   2.0000      -0.868341       -23.6288
  49   2.0000      -0.864427       -23.5223
  50   2.0000      -0.843448       -22.9514
  51   2.0000      -0.840683       -22.8762
  52   2.0000      -0.833688       -22.6858
  53   2.0000      -0.819654       -22.3039
  54   2.0000      -0.815520       -22.1914
  55   2.0000      -0.790587       -21.5130
  56   2.0000      -0.769750       -20.9460
  57   2.0000      -0.764169       -20.7941
  58   2.0000      -0.762919       -20.7601
  59   2.0000      -0.761089       -20.7103
  60   2.0000      -0.749258       -20.3883
  61   2.0000      -0.744271       -20.2526
  62   2.0000      -0.740567       -20.1518
  63   2.0000      -0.730629       -19.8814
  64   2.0000      -0.719181       -19.5699
  65   2.0000      -0.716112       -19.4864
  66   2.0000      -0.711565       -19.3627
  67   2.0000      -0.696333       -18.9482
  68   2.0000      -0.694081       -18.8869
  69   2.0000      -0.688358       -18.7312
  70   2.0000      -0.680043       -18.5049
  71   2.0000      -0.651657       -17.7325
  72   2.0000      -0.647564       -17.6211
  73   2.0000      -0.641201       -17.4480
  74   2.0000      -0.635185       -17.2843
  75   2.0000      -0.628545       -17.1036
  76   2.0000      -0.622198       -16.9309
  77   2.0000      -0.612779       -16.6746
  78   2.0000      -0.606780       -16.5113
  79   2.0000      -0.598604       -16.2888
  80   2.0000      -0.596316       -16.2266
  81   2.0000      -0.584569       -15.9069
  82   2.0000      -0.571489       -15.5510
  83   2.0000      -0.568327       -15.4650
  84   2.0000      -0.556034       -15.1305
  85   2.0000      -0.549263       -14.9462
  86   2.0000      -0.535788       -14.5795
  87   2.0000      -0.521554       -14.1922
  88   2.0000      -0.512749       -13.9526
  89   2.0000      -0.507842       -13.8191
  90   2.0000      -0.503873       -13.7111
  91   2.0000      -0.500765       -13.6265
  92   2.0000      -0.481194       -13.0940
  93   2.0000      -0.467901       -12.7322
  94   2.0000      -0.461113       -12.5475
  95   2.0000      -0.439235       -11.9522
  96   2.0000      -0.421170       -11.4606
  97   2.0000      -0.378398       -10.2967
  98   2.0000      -0.373856       -10.1731
  99   2.0000      -0.351213        -9.5570
 100   2.0000      -0.346403        -9.4261
 101   2.0000      -0.334456        -9.1010
 102   0.0000       0.017396         0.4734
 103   0.0000       0.022483         0.6118
 104   0.0000       0.026160         0.7119
 105   0.0000       0.027988         0.7616
 106   0.0000       0.033110         0.9010

MULLIKEN ATOMIC CHARGES
-----------------------
   0 C :   -0.499247
   1 C :   -0.445743
   2 C :    0.519473
   3 C :   -0.549746
   4 C :   -0.481787
   5 C :   -0.350613
   6 H :    0.201180
   7 H :    0.286231
   8 H :    0.236489
   9 H :    0.229319
  10 H :    0.356543
  11 C :    1.177738
  12 C :    0.734412
  13 C :   -0.602332
  14 C :   -0.615149
  15 C :   -0.590192
  16 H :    0.233413
  17 H :    0.302437
  18 C :   -0.592398
  19 H :    0.106939
  20 H :    0.549208
  21 C :   -0.550591
  22 H :    0.213066
  23 H :    0.140926
  24 H :    0.227087
  25 H :    0.173832
  26 H :    0.246561
  27 H :    0.070774
  28 N :   -0.094484
  29 N :    0.309214
  30 N :   -0.177609
  31 N :   -0.750163
  32 C :   -0.269421
  33 C :    0.457291
  34 C :    0.432587
  35 C :    1.073057
  36 C :    1.020604
  37 C :    0.928298
  38 F :   -0.868906
  39 F :   -0.846218
  40 F :   -0.814432
  41 F :   -0.834051
  42 F :   -0.812832
  43 H :    0.460414
  44 H :    0.058824
Sum of atomic charges:   -0.0000000

LOEWDIN ATOMIC CHARGES
----------------------
   0 C :    0.359491
   1 C :    0.348006
   2 C :   -0.088880
   3 C :    0.356476
   4 C :    0.351665
   5 C :    0.342624
   6 H :   -0.315812
   7 H :   -0.324090
   8 H :   -0.310764
   9 H :   -0.318165
  10 H :   -0.320386
  11 C :   -0.135048
  12 C :   -0.223616
  13 C :    0.372276
  14 C :    0.356679
  15 C :    0.546648
  16 H :   -0.245142
  17 H :   -0.274778
  18 C :    0.549931
  19 H :   -0.256299
  20 H :   -0.327948
  21 C :    0.541115
  22 H :   -0.255834
  23 H :   -0.260433
  24 H :   -0.252233
  25 H :   -0.259186
  26 H :   -0.256020
  27 H :   -0.262578
  28 N :    0.547551
  29 N :    0.189159
  30 N :    0.244576
  31 N :    0.402413
  32 C :   -0.375257
  33 C :   -0.743513
  34 C :   -0.749558
  35 C :   -0.783615
  36 C :   -0.787000
  37 C :   -0.796048
  38 F :    0.842842
  39 F :    0.800336
  40 F :    0.802106
  41 F :    0.801495
  42 F :    0.844317
  43 H :   -0.340524
  44 H :   -0.336976

  Mayer bond orders larger than 0.100000
B(  0-C ,  1-C ) :   1.2770 B(  0-C ,  2-C ) :  -0.3820 B(  0-C ,  3-C ) :   0.1191
B(  0-C ,  5-C ) :   1.2091 B(  0-C ,  6-H ) :   1.2012 B(  0-C , 10-H ) :  -0.1167
B(  1-C ,  2-C ) :   0.9151 B(  1-C ,  4-C ) :   0.1002 B(  1-C ,  6-H ) :  -0.1551
B(  1-C ,  7-H ) :   0.9913 B(  1-C , 11-C ) :  -0.2198 B(  1-C , 12-C ) :  -0.1062
B(  1-C , 29-N ) :  -0.1402 B(  2-C ,  3-C ) :   0.7679 B(  2-C ,  4-C ) :  -0.3631
B(  2-C ,  8-H ) :  -0.1254 B(  2-C , 11-C ) :   0.3776 B(  2-C , 44-H ) :   0.1353
B(  3-C ,  4-C ) :   1.2590 B(  3-C ,  8-H ) :   1.0578 B(  3-C ,  9-H ) :  -0.1568
B(  4-C ,  5-C ) :   1.2106 B(  4-C ,  9-H ) :   1.1809 B(  5-C , 10-H ) :   0.9934
B( 11-C , 12-C ) :   0.6991 B( 11-C , 28-N ) :  -0.1013 B( 11-C , 29-N ) :  -0.1248
B( 11-C , 30-N ) :  -0.3626 B( 11-C , 43-H ) :   0.9336 B( 11-C , 44-H ) :  -0.1386
B( 12-C , 13-C ) :  -0.1376 B( 12-C , 14-C ) :  -0.2767 B( 12-C , 28-N ) :   1.2340
B( 12-C , 29-N ) :   0.7721 B( 12-C , 30-N ) :   0.4223 B( 12-C , 31-N ) :   0.1342
B( 12-C , 32-C ) :  -0.1220 B( 12-C , 34-C ) :  -0.1103 B( 12-C , 38-F ) :  -0.6623
B( 12-C , 44-H ) :   0.8834 B( 13-C , 14-C ) :   0.1635 B( 13-C , 15-C ) :   0.5235
B( 13-C , 16-H ) :   1.0127 B( 13-C , 17-H ) :   1.0243 B( 13-C , 21-C ) :  -0.1166
B( 13-C , 22-H ) :  -0.1144 B( 13-C , 23-H ) :  -0.1086 B( 13-C , 28-N ) :   0.6608
B( 14-C , 18-C ) :   0.4501 B( 14-C , 19-H ) :   1.1274 B( 14-C , 20-H ) :   0.6106
B( 14-C , 21-C ) :  -0.1137 B( 14-C , 24-H ) :  -0.1116 B( 14-C , 25-H ) :  -0.1004
B( 14-C , 28-N ) :   0.7448 B( 14-C , 42-F ) :  -0.1354 B( 15-C , 21-C ) :   0.9604
B( 15-C , 22-H ) :   1.0613 B( 15-C , 23-H ) :   1.1210 B( 16-H , 28-N ) :  -0.1363
B( 17-H , 28-N ) :  -0.1616 B( 18-C , 21-C ) :   0.9450 B( 18-C , 24-H ) :   1.0513
B( 18-C , 25-H ) :   1.0877 B( 21-C , 26-H ) :   0.9714 B( 21-C , 27-H ) :   1.1451
B( 21-C , 28-N ) :  -0.1902 B( 28-N , 29-N ) :   0.2057 B( 28-N , 38-F ) :   0.1950
B( 29-N , 30-N ) :   0.4936 B( 29-N , 31-N ) :   0.1754 B( 29-N , 32-C ) :   0.7689
B( 29-N , 34-C ) :  -0.1805 B( 29-N , 42-F ) :  -0.2495 B( 29-N , 44-H ) :   0.1141
B( 30-N , 31-N ) :   1.2497 B( 30-N , 32-C ) :  -0.3049 B( 31-N , 43-H ) :  -0.1900
B( 32-C , 33-C ) :   0.9803 B( 32-C , 34-C ) :   1.1877 B( 32-C , 35-C ) :  -0.3813
B( 32-C , 36-C ) :  -0.4878 B( 32-C , 37-C ) :   0.1349 B( 32-C , 38-F ) :   0.4320
B( 32-C , 42-F ) :   0.6050 B( 33-C , 34-C ) :   0.2242 B( 33-C , 35-C ) :   1.4886
B( 33-C , 36-C ) :   0.1240 B( 33-C , 37-C ) :  -0.1640 B( 33-C , 39-F ) :   0.2637
B( 34-C , 35-C ) :   0.1519 B( 34-C , 36-C ) :   1.6258 B( 34-C , 41-F ) :   0.2011
B( 34-C , 42-F ) :  -0.1895 B( 35-C , 37-C ) :   1.6539 B( 35-C , 38-F ) :  -0.1586
B( 35-C , 39-F ) :  -0.2524 B( 36-C , 37-C ) :   1.6349 B( 36-C , 41-F ) :  -0.1760
B( 37-C , 40-F ) :  -0.1301 B( 38-F , 44-H ) :   0.1403

MP2 TOTAL ENERGY:    -1450.343921631 Eh
FINAL SINGLE POINT ENERGY     -1450.343921630822

DIPOLE MOMENT
-------------
                                X             Y             Z
Electronic contribution:     40.83923     -30.48312       4.81403
Nuclear contribution   :    -41.86113      31.42551      -5.79842
                        -----------------------------------------
Total Dipole Moment    :     -1.02190       0.94239      -0.98439
                        -----------------------------------------
Magnitude (a.u.)       :      1.70335
Magnitude (Debye)      :      4.32957

Rotational constants in cm-1:     0.008555     0.004091     0.003547
Rotational constants in MHz :   256.485040   122.645965   106.330103

                             ****ORCA TERMINATED NORMALLY****
TOTAL RUN TIME: 0 days 14 hours 9 minutes 38 seconds 38 msec
