                         Program Version 4.2.1 -  RELEASE  -
|  1> %pal
|  2>  nprocs 32
|  3> end
|  4> !RI-MP2 aug-cc-pVQZ aug-cc-pVQZ/C TightSCF
|  5> %maxcore 4500
|  6> *xyzfile 0 1  10_88R.xyz
|  7>
|  8>
|  9>                          ****END OF INPUT****

CARTESIAN COORDINATES (ANGSTROEM)
---------------------------------
  O     -1.355376   -0.794393   -0.522865
  C     -2.553465   -0.266110   -0.191103
  C     -2.820687    0.706578    0.674325
  C      1.517189    1.405280   -0.321375
  C      0.239692    1.037513   -0.407673
  C     -0.190506   -0.300196    0.135330
  C      2.523462    0.488998    0.224020
  C      2.243658   -0.807478    0.357348
  C      0.896762   -1.344875   -0.044719
  H      3.505556    0.874251    0.471289
  H      2.998677   -1.506576    0.697404
  H      0.925540   -1.635436   -1.103794
  H      0.637952   -2.240621    0.521050
  H     -3.338945   -0.762433   -0.748889
  H     -2.066493    1.238240    1.236317
  H     -3.851800    0.991702    0.826279
  H     -0.416916   -0.197883    1.206302
  H      1.833284    2.383552   -0.664814
  H     -0.520474    1.692088   -0.815148

 Total Charge           Charge          ....    0
 Multiplicity           Mult            ....    1
 Number of Electrons    NEL             ....   66
 Basis Dimension        Dim             .... 1180

ORBITAL ENERGIES
----------------

  NO   OCC          E(Eh)            E(eV)
   0   2.0000     -20.582477      -560.0777
   1   2.0000     -11.293680      -307.3167
   2   2.0000     -11.293132      -307.3017
   3   2.0000     -11.236263      -305.7543
   4   2.0000     -11.234087      -305.6950
   5   2.0000     -11.231014      -305.6114
   6   2.0000     -11.230889      -305.6080
   7   2.0000     -11.230581      -305.5996
   8   2.0000     -11.210006      -305.0398
   9   2.0000      -1.413403       -38.4607
  10   2.0000      -1.141387       -31.0587
  11   2.0000      -1.039745       -28.2929
  12   2.0000      -1.020143       -27.7595
  13   2.0000      -0.996430       -27.1143
  14   2.0000      -0.869123       -23.6500
  15   2.0000      -0.824569       -22.4377
  16   2.0000      -0.773297       -21.0425
  17   2.0000      -0.713282       -19.4094
  18   2.0000      -0.690915       -18.8007
  19   2.0000      -0.679685       -18.4952
  20   2.0000      -0.655693       -17.8423
  21   2.0000      -0.626889       -17.0585
  22   2.0000      -0.589109       -16.0305
  23   2.0000      -0.574358       -15.6291
  24   2.0000      -0.561575       -15.2812
  25   2.0000      -0.542849       -14.7717
  26   2.0000      -0.536163       -14.5897
  27   2.0000      -0.499677       -13.5969
  28   2.0000      -0.494090       -13.4449
  29   2.0000      -0.464032       -12.6270
  30   2.0000      -0.432428       -11.7670
  31   2.0000      -0.348025        -9.4703
  32   2.0000      -0.312484        -8.5031
  33   0.0000       0.024693         0.6719
  34   0.0000       0.029001         0.7891
  35   0.0000       0.029606         0.8056
  36   0.0000       0.034821         0.9475
  37   0.0000       0.040907         1.1131

MULLIKEN ATOMIC CHARGES
-----------------------
   0 O :   -0.992094
   1 C :   -0.162460
   2 C :   -0.985044
   3 C :   -0.461100
   4 C :   -0.723751
   5 C :    1.192316
   6 C :   -0.489871
   7 C :   -0.420899
   8 C :   -0.334910
   9 H :    0.336988
  10 H :    0.308530
  11 H :    0.295085
  12 H :    0.242366
  13 H :    0.524248
  14 H :    0.344657
  15 H :    0.379747
  16 H :    0.257326
  17 H :    0.302994
  18 H :    0.385872
Sum of atomic charges:    0.0000000

LOEWDIN ATOMIC CHARGES
----------------------
   0 O :    0.887520
   1 C :   -0.018276
   2 C :    0.763124
   3 C :    0.361513
   4 C :    0.368188
   5 C :   -0.303982
   6 C :    0.356136
   7 C :    0.390187
   8 C :    0.470498
   9 H :   -0.330521
  10 H :   -0.307114
  11 H :   -0.272119
  12 H :   -0.274147
  13 H :   -0.370025
  14 H :   -0.382283
  15 H :   -0.371631
  16 H :   -0.320558
  17 H :   -0.326174
  18 H :   -0.320336

  Mayer bond orders larger than 0.100000
B(  0-O ,  1-C ) :   0.9445 B(  0-O ,  2-C ) :   0.1356 B(  0-O ,  4-C ) :   0.1951
B(  0-O ,  5-C ) :   0.2935 B(  1-C ,  2-C ) :   1.6763 B(  1-C ,  5-C ) :  -0.1689
B(  1-C , 13-H ) :   0.7620 B(  2-C ,  5-C ) :  -0.1419 B(  2-C , 14-H ) :   0.9254
B(  2-C , 15-H ) :   0.9318 B(  3-C ,  4-C ) :   1.6234 B(  3-C ,  5-C ) :  -0.1957
B(  3-C ,  6-C ) :   0.9912 B(  3-C , 17-H ) :   1.0096 B(  4-C ,  5-C ) :   0.5945
B(  4-C , 17-H ) :  -0.1237 B(  4-C , 18-H ) :   0.9539 B(  5-C ,  7-C ) :  -0.1493
B(  5-C ,  8-C ) :   0.8123 B(  5-C , 16-H ) :   0.8472 B(  6-C ,  7-C ) :   1.6858
B(  6-C ,  8-C ) :  -0.1186 B(  6-C ,  9-H ) :   0.9594 B(  7-C ,  8-C ) :   0.8540
B(  7-C , 10-H ) :   1.0025 B(  8-C , 11-H ) :   0.8414 B(  8-C , 12-H ) :   0.9889

MP2 TOTAL ENERGY:     -385.354970078 Eh
FINAL SINGLE POINT ENERGY      -385.354970078470

DIPOLE MOMENT
-------------
                                X             Y             Z
Electronic contribution:      0.56860      -0.76203      -1.46319
Nuclear contribution   :     -0.31959       0.83641       1.64140
                        -----------------------------------------
Total Dipole Moment    :      0.24901       0.07439       0.17821
                        -----------------------------------------
Magnitude (a.u.)       :      0.31512
Magnitude (Debye)      :      0.80097

Rotational constants in cm-1:     0.126674     0.036708     0.030909
Rotational constants in MHz :  3797.603999  1100.486615   926.625001

                             ****ORCA TERMINATED NORMALLY****
TOTAL RUN TIME: 0 days 0 hours 43 minutes 4 seconds 539 msec
