                         Program Version 4.2.1 -  RELEASE  -
|  1> %pal
|  2>  nprocs 32
|  3> end
|  4> !RI-MP2 aug-cc-pVQZ aug-cc-pVQZ/C TightSCF
|  5> %maxcore 4500
|  6> *xyzfile 0 1  09_12TS.xyz
|  7>
|  8>
|  9>                          ****END OF INPUT****

CARTESIAN COORDINATES (ANGSTROEM)
---------------------------------
  C     -0.053862   -1.860226   -0.340594
  C      1.015339   -1.083373   -0.842176
  H      0.042934   -2.156729    0.699898
  H      1.115722   -0.847203   -1.892980
  H     -0.378413   -2.674573   -0.983090
  S      1.715767    0.058522    0.204015
  O      1.439640    1.446226   -0.238750
  O      1.346793   -0.284622    1.589136
  C      3.479400   -0.145122    0.077029
  C      4.255215    0.808984   -0.401513
  H      3.819636   -1.110539    0.429781
  H      5.328149    0.674990   -0.470540
  H      3.824300    1.747644   -0.729148
  C     -2.785416   -1.442789    0.079547
  C     -1.557760    0.317937   -0.291642
  C     -3.598092   -0.358567    0.185645
  H     -3.008639   -2.489838    0.196849
  H     -0.700209    0.954224   -0.480028
  H     -4.648989   -0.272341    0.403722
  N     -1.524876   -0.996257   -0.222678
  N     -2.805815    0.744900   -0.050625
  C     -3.228928    2.136416   -0.017075
  H     -3.648496    2.374256    0.959787
  H     -2.359537    2.766595   -0.190793
  H     -3.970727    2.324276   -0.792972

 Total Charge           Charge          ....    0
 Multiplicity           Mult            ....    1
 Number of Electrons    NEL             ....  106
 Basis Dimension        Dim             .... 1596

ORBITAL ENERGIES
----------------

  NO   OCC          E(Eh)            E(eV)
   0   2.0000     -92.122356     -2506.7768
   1   2.0000     -20.491661      -557.6064
   2   2.0000     -20.491251      -557.5953
   3   2.0000     -15.661971      -426.1839
   4   2.0000     -15.622285      -425.1040
   5   2.0000     -11.336351      -308.4778
   6   2.0000     -11.305307      -307.6330
   7   2.0000     -11.297025      -307.4077
   8   2.0000     -11.291900      -307.2682
   9   2.0000     -11.284333      -307.0623
  10   2.0000     -11.235668      -305.7381
  11   2.0000     -11.228077      -305.5315
  12   2.0000     -11.165220      -303.8211
  13   2.0000      -9.091187      -247.3838
  14   2.0000      -6.776519      -184.3985
  15   2.0000      -6.776064      -184.3861
  16   2.0000      -6.775769      -184.3780
  17   2.0000      -1.402612       -38.1670
  18   2.0000      -1.386077       -37.7171
  19   2.0000      -1.275020       -34.6951
  20   2.0000      -1.246336       -33.9145
  21   2.0000      -1.074652       -29.2428
  22   2.0000      -1.055021       -28.7086
  23   2.0000      -1.031748       -28.0753
  24   2.0000      -1.003076       -27.2951
  25   2.0000      -0.910023       -24.7630
  26   2.0000      -0.856390       -23.3036
  27   2.0000      -0.838847       -22.8262
  28   2.0000      -0.800517       -21.7832
  29   2.0000      -0.760142       -20.6845
  30   2.0000      -0.719741       -19.5851
  31   2.0000      -0.690864       -18.7994
  32   2.0000      -0.667674       -18.1683
  33   2.0000      -0.655357       -17.8332
  34   2.0000      -0.641806       -17.4644
  35   2.0000      -0.635794       -17.3008
  36   2.0000      -0.629477       -17.1289
  37   2.0000      -0.619581       -16.8596
  38   2.0000      -0.602061       -16.3829
  39   2.0000      -0.596485       -16.2312
  40   2.0000      -0.595208       -16.1964
  41   2.0000      -0.562107       -15.2957
  42   2.0000      -0.559964       -15.2374
  43   2.0000      -0.531898       -14.4737
  44   2.0000      -0.524249       -14.2655
  45   2.0000      -0.456230       -12.4146
  46   2.0000      -0.449721       -12.2375
  47   2.0000      -0.437511       -11.9053
  48   2.0000      -0.423574       -11.5260
  49   2.0000      -0.403561       -10.9815
  50   2.0000      -0.382309       -10.4032
  51   2.0000      -0.366030        -9.9602
  52   2.0000      -0.283873        -7.7246
  53   0.0000       0.012148         0.3306
  54   0.0000       0.022798         0.6204
  55   0.0000       0.028349         0.7714
  56   0.0000       0.032975         0.8973
  57   0.0000       0.036118         0.9828

MULLIKEN ATOMIC CHARGES
-----------------------
   0 C :   -0.604705
   1 C :   -0.873031
   2 H :    0.288248
   3 H :    0.252676
   4 H :    0.340898
   5 S :    3.174743
   6 O :   -1.382625
   7 O :   -1.359439
   8 C :   -1.033805
   9 C :   -0.813075
  10 H :    0.481082
  11 H :    0.366038
  12 H :    0.412361
  13 C :   -0.241184
  14 C :    0.577243
  15 C :   -0.227975
  16 H :    0.384813
  17 H :    0.914876
  18 H :    0.381599
  19 N :   -0.368549
  20 N :   -0.569347
  21 C :   -1.007011
  22 H :    0.319032
  23 H :    0.286361
  24 H :    0.300775
Sum of atomic charges:   -0.0000000

LOEWDIN ATOMIC CHARGES
----------------------
   0 C :    0.389789
   1 C :    0.141508
   2 H :   -0.362117
   3 H :   -0.405976
   4 H :   -0.311825
   5 S :   -0.322309
   6 O :    0.326833
   7 O :    0.305634
   8 C :    0.200768
   9 C :    0.724157
  10 H :   -0.384185
  11 H :   -0.350959
  12 H :   -0.400658
  13 C :    0.215395
  14 C :    0.047092
  15 C :    0.240261
  16 H :   -0.296615
  17 H :   -0.397404
  18 H :   -0.290613
  19 N :    0.488977
  20 N :    0.417018
  21 C :    0.853108
  22 H :   -0.270151
  23 H :   -0.287805
  24 H :   -0.269923

  Mayer bond orders larger than 0.100000
B(  0-C ,  1-C ) :   1.0493 B(  0-C ,  2-H ) :   0.9462 B(  0-C ,  4-H ) :   0.9246
B(  0-C , 19-N ) :   0.5991 B(  1-C ,  3-H ) :   0.9600 B(  1-C ,  4-H ) :  -0.1341
B(  1-C ,  5-S ) :   1.1625 B(  1-C ,  7-O ) :  -0.1123 B(  1-C ,  8-C ) :  -0.1507
B(  1-C , 19-N ) :  -0.1162 B(  5-S ,  6-O ) :   0.6533 B(  5-S ,  7-O ) :   0.6312
B(  5-S ,  8-C ) :   0.5865 B(  5-S ,  9-C ) :  -0.1146 B(  6-O , 14-C ) :   0.1009
B(  6-O , 17-H ) :  -0.1077 B(  8-C ,  9-C ) :   1.7150 B(  8-C , 10-H ) :   0.8195
B(  8-C , 11-H ) :  -0.1138 B(  9-C , 11-H ) :   0.9901 B(  9-C , 12-H ) :   0.8053
B( 13-C , 14-C ) :  -0.1169 B( 13-C , 15-C ) :   1.4146 B( 13-C , 16-H ) :   0.9538
B( 13-C , 18-H ) :  -0.1014 B( 13-C , 19-N ) :   1.1533 B( 14-C , 17-H ) :   0.3311
B( 14-C , 19-N ) :   1.3996 B( 14-C , 20-N ) :   1.2886 B( 15-C , 18-H ) :   0.9613
B( 15-C , 20-N ) :   1.1576 B( 17-H , 20-N ) :  -0.1071 B( 20-N , 21-C ) :   0.7200
B( 21-C , 22-H ) :   0.9688 B( 21-C , 23-H ) :   0.9454 B( 21-C , 24-H ) :   1.0080

MP2 TOTAL ENERGY:     -968.768144186 Eh
FINAL SINGLE POINT ENERGY      -968.768144185798

DIPOLE MOMENT
-------------
                                X             Y             Z
Electronic contribution:      1.67862      -1.35265       2.01750
Nuclear contribution   :     -4.59149       1.29810      -2.81941
                        -----------------------------------------
Total Dipole Moment    :     -2.91287      -0.05455      -0.80191
                        -----------------------------------------
Magnitude (a.u.)       :      3.02173
Magnitude (Debye)      :      7.68062

Rotational constants in cm-1:     0.054194     0.013291     0.011627
Rotational constants in MHz :  1624.708312   398.439667   348.566448

                             ****ORCA TERMINATED NORMALLY****
TOTAL RUN TIME: 0 days 1 hours 43 minutes 16 seconds 933 msec
