                         Program Version 4.2.1 -  RELEASE  -
|  1> %pal
|  2>  nprocs 32
|  3> end
|  4> !RI-MP2 aug-cc-pVQZ aug-cc-pVQZ/C TightSCF
|  5> %maxcore 4500
|  6> *xyzfile 0 2  04_54R2.xyz
|  7>
|  8>
|  9>                          ****END OF INPUT****

CARTESIAN COORDINATES (ANGSTROEM)
---------------------------------
  H      1.754428   -1.525484    0.231671
  N      1.702114   -0.559609   -0.045878
  C      0.494796    0.103766   -0.008643
  C     -0.696661   -0.701510   -0.017434
  O      0.433931    1.332431   -0.005224
  N     -1.882236   -0.045639    0.060461
  H     -0.695838   -1.780851   -0.059026
  H     -1.829735    0.961753   -0.019248
  H     -2.743487   -0.500897   -0.185473
  H      2.515224    0.009229    0.128252

 Total Charge           Charge          ....    0
 Multiplicity           Mult            ....    2
 Number of Electrons    NEL             ....   39
 Basis Dimension        Dim             ....  630

ORBITAL ENERGIES
----------------
                 SPIN UP ORBITALS
  NO   OCC          E(Eh)            E(eV)
   0   1.0000     -20.513201      -558.1926
   1   1.0000     -15.580900      -423.9778
   2   1.0000     -15.573805      -423.7848
   3   1.0000     -11.340268      -308.5844
   4   1.0000     -11.272741      -306.7469
   5   1.0000      -1.378559       -37.5125
   6   1.0000      -1.234421       -33.5903
   7   1.0000      -1.202804       -32.7300
   8   1.0000      -0.969734       -26.3878
   9   1.0000      -0.786462       -21.4007
  10   1.0000      -0.747987       -20.3538
  11   1.0000      -0.714381       -19.4393
  12   1.0000      -0.640509       -17.4291
  13   1.0000      -0.633066       -17.2266
  14   1.0000      -0.606772       -16.5111
  15   1.0000      -0.575611       -15.6632
  16   1.0000      -0.519637       -14.1400
  17   1.0000      -0.441866       -12.0238
  18   1.0000      -0.429708       -11.6930
  19   1.0000      -0.300832        -8.1861
  20   0.0000       0.020126         0.5477
  21   0.0000       0.027723         0.7544
  22   0.0000       0.037986         1.0337
  23   0.0000       0.053793         1.4638
  24   0.0000       0.056618         1.5407

                 SPIN DOWN ORBITALS
  NO   OCC          E(Eh)            E(eV)
   0   1.0000     -20.505542      -557.9842
   1   1.0000     -15.572385      -423.7462
   2   1.0000     -15.572232      -423.7420
   3   1.0000     -11.343252      -308.6656
   4   1.0000     -11.255842      -306.2870
   5   1.0000      -1.364379       -37.1266
   6   1.0000      -1.206462       -32.8295
   7   1.0000      -1.196383       -32.5552
   8   1.0000      -0.922084       -25.0912
   9   1.0000      -0.775661       -21.1068
  10   1.0000      -0.742313       -20.1994
  11   1.0000      -0.710240       -19.3266
  12   1.0000      -0.634532       -17.2665
  13   1.0000      -0.622089       -16.9279
  14   1.0000      -0.569471       -15.4961
  15   1.0000      -0.554768       -15.0960
  16   1.0000      -0.436326       -11.8730
  17   1.0000      -0.425410       -11.5760
  18   1.0000      -0.390207       -10.6181
  19   0.0000       0.020373         0.5544
  20   0.0000       0.027874         0.7585
  21   0.0000       0.038124         1.0374
  22   0.0000       0.053807         1.4642
  23   0.0000       0.056645         1.5414

MULLIKEN ATOMIC CHARGES AND SPIN POPULATIONS
--------------------------------------------
   0 H :    0.305394   -0.005490
   1 N :   -0.695269    0.036121
   2 C :    0.864180   -0.092563
   3 C :   -0.253655    0.776896
   4 O :   -0.767305    0.170363
   5 N :   -0.695068    0.194605
   6 H :    0.343763   -0.060266
   7 H :    0.391757   -0.008971
   8 H :    0.219763   -0.007604
   9 H :    0.286442   -0.003091
Sum of atomic charges         :    0.0000000

LOEWDIN ATOMIC CHARGES AND SPIN POPULATIONS
-------------------------------------------
   0 H :   -0.512232    0.004988
   1 N :    1.213337    0.028382
   2 C :   -0.899507    0.120000
   3 C :    0.185339    0.349990
   4 O :    0.684290    0.120037
   5 N :    1.220665    0.215728
   6 H :   -0.334665    0.103722
   7 H :   -0.557640    0.026392
   8 H :   -0.482362    0.028285
   9 H :   -0.517225    0.002476

  Mayer bond orders larger than 0.100000
B(  0-H ,  1-N ) :   0.8920 B(  1-N ,  2-C ) :   1.1475 B(  1-N ,  4-O ) :   0.1106
B(  1-N ,  9-H ) :   0.9165 B(  2-C ,  3-C ) :   1.1610 B(  2-C ,  4-O ) :   1.2683
B(  3-C ,  4-O ) :   0.1734 B(  3-C ,  5-N ) :   1.1475 B(  3-C ,  6-H ) :   0.8990
B(  5-N ,  7-H ) :   0.8068 B(  5-N ,  8-H ) :   1.0184

MP2 TOTAL ENERGY:     -263.549288541 Eh
FINAL SINGLE POINT ENERGY      -263.549288541105

DIPOLE MOMENT
-------------
                                X             Y             Z
Electronic contribution:      0.68830       1.39140      -0.02800
Nuclear contribution   :     -0.99593      -2.82535       0.09640
                        -----------------------------------------
Total Dipole Moment    :     -0.30763      -1.43395       0.06840
                        -----------------------------------------
Magnitude (a.u.)       :      1.46818
Magnitude (Debye)      :      3.73181

Rotational constants in cm-1:     0.369506     0.136902     0.100106
Rotational constants in MHz : 11077.515688  4104.209838  3001.088434

                             ****ORCA TERMINATED NORMALLY****
TOTAL RUN TIME: 0 days 0 hours 8 minutes 44 seconds 941 msec
