                         Program Version 4.2.1 -  RELEASE  -
|  1> %pal
|  2>  nprocs 32
|  3> end
|  4> !RI-MP2 aug-cc-pVQZ aug-cc-pVQZ/C TightSCF
|  5> %maxcore 4500
|  6> *xyzfile 0 1  02_47P.xyz
|  7>
|  8>
|  9>                          ****END OF INPUT****

CARTESIAN COORDINATES (ANGSTROEM)
---------------------------------
  C      0.000000    1.238605   -0.863995
  C      0.000000   -1.238605   -0.863995
  N      1.189660    0.610245   -1.546219
  N      1.189660   -0.610245   -1.546219
  C      0.000000   -2.726612   -1.060807
  H     -0.890185   -3.168264   -0.612386
  H      0.000000   -2.952981   -2.126646
  H      0.890185   -3.168264   -0.612386
  C      0.000000    2.726612   -1.060807
  H      0.000000    2.952981   -2.126646
  H     -0.890185    3.168264   -0.612386
  H      0.890185    3.168264   -0.612386
  C      0.000000    0.695711    2.913540
  C      0.000000    1.403642    1.718513
  C      0.000000    0.693294    0.530016
  C      0.000000   -0.693294    0.530016
  C      0.000000   -1.403642    1.718513
  C      0.000000   -0.695711    2.913540
  H      0.000000    1.232540    3.854069
  H      0.000000    2.486146    1.720811
  H      0.000000   -2.486146    1.720811
  H      0.000000   -1.232540    3.854069
  N     -1.189660    0.610245   -1.546219
  N     -1.189660   -0.610245   -1.546219

 Total Charge           Charge          ....    0
 Multiplicity           Mult            ....    1
 Number of Electrons    NEL             ....   98
 Basis Dimension        Dim             .... 1580

ORBITAL ENERGIES
----------------

  NO   OCC          E(Eh)            E(eV)
   0   2.0000     -15.640252      -425.5929
   1   2.0000     -15.640234      -425.5924
   2   2.0000     -15.638699      -425.5506
   3   2.0000     -15.638696      -425.5506
   4   2.0000     -11.318282      -307.9861
   5   2.0000     -11.318255      -307.9854
   6   2.0000     -11.258942      -306.3714
   7   2.0000     -11.257687      -306.3372
   8   2.0000     -11.254661      -306.2549
   9   2.0000     -11.254610      -306.2535
  10   2.0000     -11.250877      -306.1519
  11   2.0000     -11.249659      -306.1188
  12   2.0000     -11.233917      -305.6904
  13   2.0000     -11.233917      -305.6904
  14   2.0000      -1.440145       -39.1883
  15   2.0000      -1.357594       -36.9420
  16   2.0000      -1.187603       -32.3163
  17   2.0000      -1.149057       -31.2674
  18   2.0000      -1.088874       -29.6298
  19   2.0000      -1.033671       -28.1276
  20   2.0000      -1.015049       -27.6209
  21   2.0000      -0.936036       -25.4708
  22   2.0000      -0.909813       -24.7573
  23   2.0000      -0.901051       -24.5188
  24   2.0000      -0.850637       -23.1470
  25   2.0000      -0.824529       -22.4366
  26   2.0000      -0.741046       -20.1649
  27   2.0000      -0.740735       -20.1564
  28   2.0000      -0.703978       -19.1562
  29   2.0000      -0.686967       -18.6933
  30   2.0000      -0.643383       -17.5073
  31   2.0000      -0.632172       -17.2023
  32   2.0000      -0.629413       -17.1272
  33   2.0000      -0.594881       -16.1875
  34   2.0000      -0.586272       -15.9533
  35   2.0000      -0.573110       -15.5951
  36   2.0000      -0.559668       -15.2293
  37   2.0000      -0.558579       -15.1997
  38   2.0000      -0.550576       -14.9819
  39   2.0000      -0.536353       -14.5949
  40   2.0000      -0.532677       -14.4949
  41   2.0000      -0.528598       -14.3839
  42   2.0000      -0.524638       -14.2761
  43   2.0000      -0.492656       -13.4059
  44   2.0000      -0.478178       -13.0119
  45   2.0000      -0.423335       -11.5195
  46   2.0000      -0.389710       -10.6045
  47   2.0000      -0.350029        -9.5248
  48   2.0000      -0.337439        -9.1822
  49   0.0000       0.019964         0.5432
  50   0.0000       0.023552         0.6409
  51   0.0000       0.029934         0.8146
  52   0.0000       0.035737         0.9724
  53   0.0000       0.039809         1.0832

MULLIKEN ATOMIC CHARGES
-----------------------
   0 C :    1.769093
   1 C :    1.769925
   2 N :   -0.465585
   3 N :   -0.465570
   4 C :   -1.245562
   5 H :    0.211471
   6 H :    0.239730
   7 H :    0.211477
   8 C :   -1.245432
   9 H :    0.239614
  10 H :    0.211434
  11 H :    0.211486
  12 C :   -0.398944
  13 C :   -0.697077
  14 C :    0.342257
  15 C :    0.342803
  16 C :   -0.697337
  17 C :   -0.398848
  18 H :    0.293309
  19 H :    0.204954
  20 H :    0.204768
  21 H :    0.293193
  22 N :   -0.465547
  23 N :   -0.465615
Sum of atomic charges:    0.0000000

LOEWDIN ATOMIC CHARGES
----------------------
   0 C :   -0.753907
   1 C :   -0.753907
   2 N :    0.381724
   3 N :    0.381724
   4 C :    0.874086
   5 H :   -0.277566
   6 H :   -0.279722
   7 H :   -0.277566
   8 C :    0.874086
   9 H :   -0.279722
  10 H :   -0.277566
  11 H :   -0.277566
  12 C :    0.365488
  13 C :    0.385394
  14 C :   -0.166762
  15 C :   -0.166761
  16 C :    0.385394
  17 C :    0.365488
  18 H :   -0.317440
  19 H :   -0.315453
  20 H :   -0.315453
  21 H :   -0.317440
  22 N :    0.381724
  23 N :    0.381724

  Mayer bond orders larger than 0.100000
B(  0-C ,  1-C ) :   0.5036 B(  0-C ,  2-N ) :   0.3834 B(  0-C ,  8-C ) :  -0.3459
B(  0-C ,  9-H ) :  -0.2278 B(  0-C , 10-H ) :  -0.2785 B(  0-C , 11-H ) :  -0.2786
B(  0-C , 14-C ) :   0.2812 B(  0-C , 15-C ) :  -0.4460 B(  0-C , 22-N ) :   0.3828
B(  1-C ,  3-N ) :   0.3830 B(  1-C ,  4-C ) :  -0.3458 B(  1-C ,  5-H ) :  -0.2784
B(  1-C ,  6-H ) :  -0.2277 B(  1-C ,  7-H ) :  -0.2785 B(  1-C , 14-C ) :  -0.4461
B(  1-C , 15-C ) :   0.2813 B(  1-C , 23-N ) :   0.3819 B(  2-N ,  3-N ) :   1.0728
B(  2-N , 22-N ) :   0.1262 B(  3-N , 23-N ) :   0.1265 B(  4-C ,  5-H ) :   1.1782
B(  4-C ,  6-H ) :   1.1126 B(  4-C ,  7-H ) :   1.1782 B(  8-C ,  9-H ) :   1.1128
B(  8-C , 10-H ) :   1.1783 B(  8-C , 11-H ) :   1.1782 B( 12-C , 13-C ) :   1.2480
B( 12-C , 14-C ) :  -0.3647 B( 12-C , 16-C ) :   0.1140 B( 12-C , 17-C ) :   1.2317
B( 12-C , 18-H ) :   1.1258 B( 13-C , 14-C ) :   0.5999 B( 13-C , 15-C ) :  -0.2082
B( 13-C , 16-C ) :   0.1837 B( 13-C , 17-C ) :   0.1140 B( 13-C , 18-H ) :  -0.1882
B( 13-C , 19-H ) :   1.1214 B( 14-C , 15-C ) :   0.1339 B( 14-C , 16-C ) :  -0.2080
B( 14-C , 19-H ) :  -0.1340 B( 15-C , 16-C ) :   0.5992 B( 15-C , 17-C ) :  -0.3642
B( 15-C , 20-H ) :  -0.1342 B( 16-C , 17-C ) :   1.2480 B( 16-C , 20-H ) :   1.1217
B( 16-C , 21-H ) :  -0.1882 B( 17-C , 21-H ) :   1.1259 B( 22-N , 23-N ) :   1.0728

MP2 TOTAL ENERGY:     -605.016369858 Eh
FINAL SINGLE POINT ENERGY      -605.016369858233

DIPOLE MOMENT
-------------
                                X             Y             Z
Electronic contribution:     -0.00000      -0.00000      -3.05485
Nuclear contribution   :      0.00000       0.00000       4.35930
                        -----------------------------------------
Total Dipole Moment    :     -0.00000      -0.00000       1.30445
                        -----------------------------------------
Magnitude (a.u.)       :      1.30445
Magnitude (Debye)      :      3.31564

Rotational constants in cm-1:     0.036419     0.028599     0.018998
Rotational constants in MHz :  1091.824796   857.365498   569.537747

                             ****ORCA TERMINATED NORMALLY****
TOTAL RUN TIME: 0 days 2 hours 42 minutes 0 seconds 302 msec
