                         Program Version 4.2.1 -  RELEASE  -
|  1> %pal
|  2>  nprocs 32
|  3> end
|  4> !RI-MP2 aug-cc-pVQZ aug-cc-pVQZ/C TightSCF
|  5> %maxcore 4500
|  6> *xyzfile 0 1  04_79P2.xyz
|  7>
|  8>
|  9>                          ****END OF INPUT****

CARTESIAN COORDINATES (ANGSTROEM)
---------------------------------
  C      0.000000    0.586123   -0.000034
  C      1.269130   -0.259249    0.000112
  H      1.310444   -0.904520    0.881944
  H      2.167126    0.362404    0.000170
  H      1.310603   -0.904588   -0.881663
  C     -1.269130   -0.259249   -0.000082
  H     -1.310439   -0.904630   -0.881834
  H     -2.167126    0.362404   -0.000222
  H     -1.310608   -0.904478    0.881773
  H     -0.000067    1.243880    0.874709
  H      0.000067    1.243779   -0.874854

 Total Charge           Charge          ....    0
 Multiplicity           Mult            ....    1
 Number of Electrons    NEL             ....   26
 Basis Dimension        Dim             ....  608

ORBITAL ENERGIES
----------------

  NO   OCC          E(Eh)            E(eV)
   0   2.0000     -11.215733      -305.1956
   1   2.0000     -11.208135      -304.9889
   2   2.0000     -11.208098      -304.9879
   3   2.0000      -1.052551       -28.6414
   4   2.0000      -0.924499       -25.1569
   5   2.0000      -0.799138       -21.7457
   6   2.0000      -0.623317       -16.9613
   7   2.0000      -0.597244       -16.2518
   8   2.0000      -0.549654       -14.9569
   9   2.0000      -0.529947       -14.4206
  10   2.0000      -0.475671       -12.9437
  11   2.0000      -0.475192       -12.9306
  12   2.0000      -0.467153       -12.7119
  13   0.0000       0.028606         0.7784
  14   0.0000       0.035114         0.9555
  15   0.0000       0.036652         0.9974
  16   0.0000       0.037468         1.0196
  17   0.0000       0.057383         1.5615

MULLIKEN ATOMIC CHARGES
-----------------------
   0 C :   -0.358646
   1 C :   -0.815937
   2 H :    0.231800
   3 H :    0.285932
   4 H :    0.231798
   5 C :   -0.815937
   6 H :    0.231800
   7 H :    0.285932
   8 H :    0.231798
   9 H :    0.245730
  10 H :    0.245729
Sum of atomic charges:    0.0000000

LOEWDIN ATOMIC CHARGES
----------------------
   0 C :    0.481098
   1 C :    0.904656
   2 H :   -0.288532
   3 H :   -0.286127
   4 H :   -0.288532
   5 C :    0.904656
   6 H :   -0.288532
   7 H :   -0.286127
   8 H :   -0.288532
   9 H :   -0.282015
  10 H :   -0.282014

  Mayer bond orders larger than 0.100000
B(  0-C ,  1-C ) :   0.9483 B(  0-C ,  5-C ) :   0.9483 B(  0-C ,  9-H ) :   0.8803
B(  0-C , 10-H ) :   0.8803 B(  1-C ,  2-H ) :   0.9472 B(  1-C ,  3-H ) :   0.9415
B(  1-C ,  4-H ) :   0.9472 B(  5-C ,  6-H ) :   0.9472 B(  5-C ,  7-H ) :   0.9415
B(  5-C ,  8-H ) :   0.9472

MP2 TOTAL ENERGY:     -118.895786627 Eh
FINAL SINGLE POINT ENERGY      -118.895786626866

DIPOLE MOMENT
-------------
                                X             Y             Z
Electronic contribution:      0.00000       0.48250      -0.00003
Nuclear contribution   :      0.00000      -0.44930       0.00003
                        -----------------------------------------
Total Dipole Moment    :      0.00000       0.03321      -0.00000
                        -----------------------------------------
Magnitude (a.u.)       :      0.03321
Magnitude (Debye)      :      0.08440

Rotational constants in cm-1:     0.985953     0.282076     0.249725
Rotational constants in MHz : 29558.121245  8456.422449  7486.573444

                             ****ORCA TERMINATED NORMALLY****
TOTAL RUN TIME: 0 days 0 hours 3 minutes 37 seconds 747 msec
