                         Program Version 4.2.1 -  RELEASE  -
|  1> %pal
|  2>  nprocs 32
|  3> end
|  4> !RI-MP2 aug-cc-pVQZ aug-cc-pVQZ/C TightSCF
|  5> %maxcore 4500
|  6> *xyzfile 0 1  05_42R1.xyz
|  7>
|  8>
|  9>                          ****END OF INPUT****

CARTESIAN COORDINATES (ANGSTROEM)
---------------------------------
  C     -2.187423    3.527549    0.419735
  C     -2.334889    2.352503    1.140712
  C     -1.650991    1.204488    0.758765
  C     -0.806652    1.217526   -0.345575
  C     -0.667750    2.402874   -1.064849
  C     -1.350541    3.548748   -0.689243
  H     -2.723933    4.421007    0.715451
  H     -2.988929    2.323845    2.004176
  H     -1.782193    0.289689    1.323003
  H     -0.008713    2.426349   -1.926230
  H     -1.231380    4.460039   -1.263199
  C      0.000054   -0.000024   -0.772178
  C     -0.651096   -1.307443   -0.345648
  C     -1.747888   -1.779015   -1.064236
  C     -0.216939   -2.032910    0.757906
  C     -2.398975   -2.943210   -0.688698
  H     -2.098290   -1.219360   -1.924968
  C     -0.869351   -3.199130    1.139806
  H      0.641537   -1.689774    1.321565
  C     -1.961511   -3.658121    0.419539
  H     -3.248398   -3.295020   -1.262100
  H     -0.516989   -3.751816    2.002673
  H     -2.467125   -4.569433    0.715209
  C      1.457851    0.089845   -0.345614
  C      2.414823   -0.623493   -1.064664
  C      1.868860    0.828009    0.758383
  C      3.748595   -0.605123   -0.689146
  H      2.105506   -1.206308   -1.925771
  C      3.205047    0.846277    1.140245
  H      1.142306    1.399358    1.322405
  C      4.148817    0.130626    0.419527
  H      4.478116   -1.164280   -1.262923
  H      3.507350    1.427335    2.003463
  H      5.190842    0.148519    0.715195
  H      0.000046   -0.000005   -1.866541

 Total Charge           Charge          ....    0
 Multiplicity           Mult            ....    1
 Number of Electrons    NEL             ....  130
 Basis Dimension        Dim             .... 2256

ORBITAL ENERGIES
----------------

  NO   OCC          E(Eh)            E(eV)
   0   2.0000     -11.248118      -306.0769
   1   2.0000     -11.238912      -305.8264
   2   2.0000     -11.238911      -305.8263
   3   2.0000     -11.238867      -305.8251
   4   2.0000     -11.232074      -305.6403
   5   2.0000     -11.232074      -305.6403
   6   2.0000     -11.232071      -305.6402
   7   2.0000     -11.231335      -305.6202
   8   2.0000     -11.231334      -305.6201
   9   2.0000     -11.231331      -305.6200
  10   2.0000     -11.229131      -305.5602
  11   2.0000     -11.229131      -305.5602
  12   2.0000     -11.229127      -305.5601
  13   2.0000     -11.228616      -305.5462
  14   2.0000     -11.228613      -305.5461
  15   2.0000     -11.228610      -305.5460
  16   2.0000     -11.226257      -305.4820
  17   2.0000     -11.226255      -305.4819
  18   2.0000     -11.226253      -305.4819
  19   2.0000      -1.177158       -32.0321
  20   2.0000      -1.150633       -31.3103
  21   2.0000      -1.150631       -31.3103
  22   2.0000      -1.082564       -29.4581
  23   2.0000      -1.017219       -27.6799
  24   2.0000      -1.017214       -27.6798
  25   2.0000      -1.015094       -27.6221
  26   2.0000      -1.008842       -27.4520
  27   2.0000      -1.008839       -27.4519
  28   2.0000      -0.925056       -25.1721
  29   2.0000      -0.832336       -22.6490
  30   2.0000      -0.831378       -22.6229
  31   2.0000      -0.831366       -22.6226
  32   2.0000      -0.812459       -22.1081
  33   2.0000      -0.812455       -22.1080
  34   2.0000      -0.773414       -21.0457
  35   2.0000      -0.704117       -19.1600
  36   2.0000      -0.704115       -19.1599
  37   2.0000      -0.685885       -18.6639
  38   2.0000      -0.650104       -17.6902
  39   2.0000      -0.640380       -17.4256
  40   2.0000      -0.640374       -17.4255
  41   2.0000      -0.620166       -16.8756
  42   2.0000      -0.620165       -16.8755
  43   2.0000      -0.614645       -16.7254
  44   2.0000      -0.586499       -15.9594
  45   2.0000      -0.585460       -15.9312
  46   2.0000      -0.585457       -15.9311
  47   2.0000      -0.575553       -15.6616
  48   2.0000      -0.575539       -15.6612
  49   2.0000      -0.552684       -15.0393
  50   2.0000      -0.512272       -13.9396
  51   2.0000      -0.506371       -13.7791
  52   2.0000      -0.506366       -13.7789
  53   2.0000      -0.496847       -13.5199
  54   2.0000      -0.494843       -13.4654
  55   2.0000      -0.494838       -13.4652
  56   2.0000      -0.476607       -12.9691
  57   2.0000      -0.473488       -12.8843
  58   2.0000      -0.473480       -12.8841
  59   2.0000      -0.343635        -9.3508
  60   2.0000      -0.342796        -9.3280
  61   2.0000      -0.342786        -9.3277
  62   2.0000      -0.329523        -8.9668
  63   2.0000      -0.329520        -8.9667
  64   2.0000      -0.313746        -8.5375
  65   0.0000       0.020745         0.5645
  66   0.0000       0.025945         0.7060
  67   0.0000       0.025950         0.7061
  68   0.0000       0.027204         0.7403
  69   0.0000       0.034769         0.9461

MULLIKEN ATOMIC CHARGES
-----------------------
   0 C :   -0.345578
   1 C :   -0.375342
   2 C :   -0.669512
   3 C :    0.964517
   4 C :   -0.804694
   5 C :   -0.378144
   6 H :    0.350978
   7 H :    0.209809
   8 H :    0.300519
   9 H :    0.186244
  10 H :    0.229693
  11 C :    0.864967
  12 C :    0.964596
  13 C :   -0.804392
  14 C :   -0.670856
  15 C :   -0.377023
  16 H :    0.186070
  17 C :   -0.375309
  18 H :    0.300530
  19 C :   -0.345704
  20 H :    0.229857
  21 H :    0.210182
  22 H :    0.350652
  23 C :    0.962905
  24 C :   -0.803862
  25 C :   -0.671558
  26 C :   -0.377793
  27 H :    0.186405
  28 C :   -0.374670
  29 H :    0.300842
  30 C :   -0.346492
  31 H :    0.230099
  32 H :    0.209519
  33 H :    0.350981
  34 H :    0.131564
Sum of atomic charges:   -0.0000000

LOEWDIN ATOMIC CHARGES
----------------------
   0 C :    0.340681
   1 C :    0.359746
   2 C :    0.353578
   3 C :   -0.097060
   4 C :    0.357791
   5 C :    0.353654
   6 H :   -0.322186
   7 H :   -0.316286
   8 H :   -0.322291
   9 H :   -0.300094
  10 H :   -0.317983
  11 C :    0.064448
  12 C :   -0.097001
  13 C :    0.357753
  14 C :    0.353619
  15 C :    0.353657
  16 H :   -0.300085
  17 C :    0.359738
  18 H :   -0.322344
  19 C :    0.340675
  20 H :   -0.317978
  21 H :   -0.316290
  22 H :   -0.322188
  23 C :   -0.097042
  24 C :    0.357754
  25 C :    0.353620
  26 C :    0.353657
  27 H :   -0.300089
  28 C :    0.359745
  29 H :   -0.322340
  30 C :    0.340683
  31 H :   -0.317979
  32 H :   -0.316289
  33 H :   -0.322187
  34 H :   -0.333088

  Mayer bond orders larger than 0.100000
B(  0-C ,  1-C ) :   1.1269 B(  0-C ,  5-C ) :   1.1237 B(  0-C ,  6-H ) :   1.0264
B(  1-C ,  2-C ) :   1.3856 B(  1-C ,  3-C ) :  -0.3873 B(  1-C ,  4-C ) :   0.1488
B(  1-C ,  6-H ) :  -0.1255 B(  1-C ,  7-H ) :   1.1457 B(  2-C ,  3-C ) :   0.9884
B(  2-C ,  5-C ) :   0.1679 B(  2-C ,  7-H ) :  -0.1097 B(  2-C ,  8-H ) :   0.8947
B(  2-C , 11-C ) :  -0.2407 B(  2-C , 12-C ) :   0.1252 B(  2-C , 23-C ) :  -0.1174
B(  3-C ,  4-C ) :   0.7281 B(  3-C ,  5-C ) :  -0.4038 B(  3-C , 11-C ) :   0.4435
B(  3-C , 14-C ) :  -0.1186 B(  3-C , 25-C ) :   0.1253 B(  4-C ,  5-C ) :   1.4836
B(  4-C ,  9-H ) :   1.1297 B(  4-C , 10-H ) :  -0.1208 B(  4-C , 11-C ) :  -0.3819
B(  5-C , 10-H ) :   1.1501 B( 11-C , 12-C ) :   0.4438 B( 11-C , 13-C ) :  -0.3793
B( 11-C , 14-C ) :  -0.2420 B( 11-C , 23-C ) :   0.4422 B( 11-C , 24-C ) :  -0.3812
B( 11-C , 25-C ) :  -0.2416 B( 11-C , 34-H ) :   0.9381 B( 12-C , 13-C ) :   0.7317
B( 12-C , 14-C ) :   0.9894 B( 12-C , 15-C ) :  -0.4032 B( 12-C , 17-C ) :  -0.3897
B( 12-C , 25-C ) :  -0.1178 B( 13-C , 15-C ) :   1.4843 B( 13-C , 16-H ) :   1.1300
B( 13-C , 17-C ) :   0.1497 B( 13-C , 20-H ) :  -0.1204 B( 14-C , 15-C ) :   0.1680
B( 14-C , 17-C ) :   1.3858 B( 14-C , 18-H ) :   0.8940 B( 14-C , 21-H ) :  -0.1101
B( 14-C , 23-C ) :   0.1242 B( 15-C , 19-C ) :   1.1219 B( 15-C , 20-H ) :   1.1497
B( 17-C , 19-C ) :   1.1280 B( 17-C , 21-H ) :   1.1456 B( 17-C , 22-H ) :  -0.1253
B( 19-C , 22-H ) :   1.0266 B( 23-C , 24-C ) :   0.7304 B( 23-C , 25-C ) :   0.9919
B( 23-C , 26-C ) :  -0.4037 B( 23-C , 28-C ) :  -0.3888 B( 24-C , 26-C ) :   1.4830
B( 24-C , 27-H ) :   1.1288 B( 24-C , 28-C ) :   0.1484 B( 24-C , 31-H ) :  -0.1207
B( 25-C , 26-C ) :   0.1690 B( 25-C , 28-C ) :   1.3849 B( 25-C , 29-H ) :   0.8933
B( 25-C , 32-H ) :  -0.1103 B( 26-C , 30-C ) :   1.1238 B( 26-C , 31-H ) :   1.1495
B( 28-C , 30-C ) :   1.1276 B( 28-C , 32-H ) :   1.1463 B( 28-C , 33-H ) :  -0.1252
B( 30-C , 33-H ) :   1.0259

MP2 TOTAL ENERGY:     -732.314616620 Eh
FINAL SINGLE POINT ENERGY      -732.314616620042

DIPOLE MOMENT
-------------
                                X             Y             Z
Electronic contribution:      0.00021      -0.00006      -0.70681
Nuclear contribution   :     -0.00025       0.00014       0.69088
                        -----------------------------------------
Total Dipole Moment    :     -0.00003       0.00009      -0.01594
                        -----------------------------------------
Magnitude (a.u.)       :      0.01594
Magnitude (Debye)      :      0.04051

Rotational constants in cm-1:     0.013125     0.013124     0.007645
Rotational constants in MHz :   393.487043   393.455311   229.182681

                             ****ORCA TERMINATED NORMALLY****
TOTAL RUN TIME: 0 days 6 hours 2 minutes 2 seconds 294 msec
