                         Program Version 4.2.1 -  RELEASE  -
|  1> %pal
|  2>  nprocs 32
|  3> end
|  4> !RI-MP2 aug-cc-pVQZ aug-cc-pVQZ/C TightSCF
|  5> %maxcore 4500
|  6> *xyzfile 0 2  04_29TS.xyz
|  7>
|  8>
|  9>                          ****END OF INPUT****

CARTESIAN COORDINATES (ANGSTROEM)
---------------------------------
  C     -3.002690    0.170699   -0.938358
  S     -2.476460   -1.179728    0.152689
  C     -0.658318   -1.109488   -0.039375
  C     -0.022428    0.090817    0.601391
  C     -0.203347    0.254072    2.087262
  C      0.038983    1.303312   -0.274605
  O      0.044415    1.207826   -1.491659
  S      2.827270   -0.622963    0.435593
  C      2.812408   -0.799568   -1.374204
  H     -2.779138    1.148886   -0.515535
  H     -2.531554    0.082480   -1.915536
  H     -4.082305    0.072391   -1.046559
  H      0.572515    0.885441    2.526836
  H     -0.151214   -0.716818    2.581170
  H     -1.181664    0.683494    2.320587
  H     -0.299403   -2.021959    0.438643
  H     -0.414375   -1.147854   -1.099168
  H      3.850174   -0.777107   -1.706560
  H      2.364612   -1.744561   -1.676630
  H      2.276799    0.029355   -1.834057
  H      1.351817   -0.261947    0.541189
  N      0.113107    2.509987    0.346167
  H      0.274096    3.319060   -0.231675
  H      0.201959    2.600610    1.342213

 Total Charge           Charge          ....    0
 Multiplicity           Mult            ....    2
 Number of Electrons    NEL             ....   97
 Basis Dimension        Dim             .... 1452

ORBITAL ENERGIES
----------------
                 SPIN UP ORBITALS
  NO   OCC          E(Eh)            E(eV)
   0   1.0000     -91.946846     -2502.0009
   1   1.0000     -91.946449     -2501.9901
   2   1.0000     -20.530265      -558.6569
   3   1.0000     -15.594040      -424.3354
   4   1.0000     -11.362652      -309.1935
   5   1.0000     -11.284905      -307.0779
   6   1.0000     -11.263389      -306.4924
   7   1.0000     -11.247264      -306.0536
   8   1.0000     -11.245050      -305.9934
   9   1.0000     -11.243348      -305.9471
  10   1.0000      -8.948611      -243.5041
  11   1.0000      -8.948581      -243.5033
  12   1.0000      -6.638398      -180.6400
  13   1.0000      -6.630972      -180.4379
  14   1.0000      -6.629295      -180.3923
  15   1.0000      -6.628218      -180.3630
  16   1.0000      -6.627490      -180.3432
  17   1.0000      -6.626488      -180.3159
  18   1.0000      -1.399852       -38.0919
  19   1.0000      -1.226562       -33.3765
  20   1.0000      -1.129555       -30.7368
  21   1.0000      -1.042924       -28.3794
  22   1.0000      -1.028186       -27.9784
  23   1.0000      -0.959312       -26.1042
  24   1.0000      -0.909258       -24.7422
  25   1.0000      -0.857113       -23.3232
  26   1.0000      -0.825282       -22.4571
  27   1.0000      -0.772834       -21.0299
  28   1.0000      -0.730817       -19.8865
  29   1.0000      -0.684427       -18.6242
  30   1.0000      -0.673418       -18.3246
  31   1.0000      -0.633252       -17.2317
  32   1.0000      -0.595557       -16.2059
  33   1.0000      -0.592391       -16.1198
  34   1.0000      -0.586955       -15.9718
  35   1.0000      -0.584430       -15.9031
  36   1.0000      -0.580096       -15.7852
  37   1.0000      -0.568882       -15.4801
  38   1.0000      -0.561480       -15.2787
  39   1.0000      -0.533618       -14.5205
  40   1.0000      -0.530010       -14.4223
  41   1.0000      -0.495678       -13.4881
  42   1.0000      -0.470372       -12.7995
  43   1.0000      -0.444534       -12.0964
  44   1.0000      -0.438304       -11.9269
  45   1.0000      -0.437955       -11.9174
  46   1.0000      -0.354262        -9.6400
  47   1.0000      -0.350626        -9.5410
  48   1.0000      -0.333709        -9.0807
  49   0.0000       0.018327         0.4987
  50   0.0000       0.029464         0.8018
  51   0.0000       0.030523         0.8306
  52   0.0000       0.031415         0.8548
  53   0.0000       0.043141         1.1739

                 SPIN DOWN ORBITALS
  NO   OCC          E(Eh)            E(eV)
   0   1.0000     -91.946167     -2501.9824
   1   1.0000     -91.941180     -2501.8467
   2   1.0000     -20.525541      -558.5284
   3   1.0000     -15.594075      -424.3363
   4   1.0000     -11.365335      -309.2665
   5   1.0000     -11.266732      -306.5834
   6   1.0000     -11.265614      -306.5529
   7   1.0000     -11.247319      -306.0551
   8   1.0000     -11.245479      -306.0050
   9   1.0000     -11.245093      -305.9945
  10   1.0000      -8.947844      -243.4832
  11   1.0000      -8.942768      -243.3451
  12   1.0000      -6.629297      -180.3923
  13   1.0000      -6.628057      -180.3586
  14   1.0000      -6.627403      -180.3408
  15   1.0000      -6.624881      -180.2722
  16   1.0000      -6.623309      -180.2294
  17   1.0000      -6.614785      -179.9975
  18   1.0000      -1.391734       -37.8710
  19   1.0000      -1.223561       -33.2948
  20   1.0000      -1.104993       -30.0684
  21   1.0000      -1.032953       -28.1081
  22   1.0000      -1.010003       -27.4836
  23   1.0000      -0.959269       -26.1030
  24   1.0000      -0.897315       -24.4172
  25   1.0000      -0.832278       -22.6474
  26   1.0000      -0.818354       -22.2685
  27   1.0000      -0.769083       -20.9278
  28   1.0000      -0.720543       -19.6070
  29   1.0000      -0.673377       -18.3235
  30   1.0000      -0.637395       -17.3444
  31   1.0000      -0.629832       -17.1386
  32   1.0000      -0.588492       -16.0137
  33   1.0000      -0.586575       -15.9615
  34   1.0000      -0.583563       -15.8795
  35   1.0000      -0.582512       -15.8510
  36   1.0000      -0.574733       -15.6393
  37   1.0000      -0.562246       -15.2995
  38   1.0000      -0.556909       -15.1543
  39   1.0000      -0.526788       -14.3346
  40   1.0000      -0.512659       -13.9502
  41   1.0000      -0.488904       -13.3037
  42   1.0000      -0.454924       -12.3791
  43   1.0000      -0.437799       -11.9131
  44   1.0000      -0.424041       -11.5387
  45   1.0000      -0.415368       -11.3027
  46   1.0000      -0.344952        -9.3866
  47   1.0000      -0.341810        -9.3011
  48   0.0000       0.018382         0.5002
  49   0.0000       0.026805         0.7294
  50   0.0000       0.029558         0.8043
  51   0.0000       0.030612         0.8330
  52   0.0000       0.031459         0.8560

MULLIKEN ATOMIC CHARGES AND SPIN POPULATIONS
--------------------------------------------
   0 C :   -1.017883   -0.005304
   1 S :   -0.100020    0.068745
   2 C :   -0.496983   -0.080989
   3 C :    0.801763    0.746518
   4 C :   -1.015876   -0.047679
   5 C :    1.698293   -0.112665
   6 O :   -1.041238    0.109960
   7 S :    0.034070    0.580666
   8 C :   -1.037788   -0.048608
   9 H :    0.247506    0.001618
  10 H :    0.286081   -0.000533
  11 H :    0.400405    0.000124
  12 H :    0.219701    0.017736
  13 H :    0.268526    0.004168
  14 H :    0.201950    0.043827
  15 H :    0.245744    0.014311
  16 H :    0.224068    0.010788
  17 H :    0.408628    0.008662
  18 H :    0.236084    0.000410
  19 H :    0.346953    0.007530
  20 H :   -0.261404   -0.320376
  21 N :   -1.098237    0.001607
  22 H :    0.170628   -0.000412
  23 H :    0.279032   -0.000105
Sum of atomic charges         :   -0.0000000

LOEWDIN ATOMIC CHARGES AND SPIN POPULATIONS
-------------------------------------------
   0 C :    0.557401    0.006524
   1 S :    1.353523    0.035022
   2 C :    0.119751    0.048646
   3 C :   -0.210128    0.263133
   4 C :    0.876232    0.058937
   5 C :   -0.877252    0.050354
   6 O :    0.749957    0.070167
   7 S :    1.525287    0.283540
   8 C :    0.511830    0.064905
   9 H :   -0.374010   -0.000328
  10 H :   -0.370872   -0.000232
  11 H :   -0.387143    0.001521
  12 H :   -0.284100    0.003201
  13 H :   -0.271666    0.002110
  14 H :   -0.271913    0.014668
  15 H :   -0.370536    0.000942
  16 H :   -0.393798   -0.001286
  17 H :   -0.395969    0.014846
  18 H :   -0.372720    0.001922
  19 H :   -0.412544    0.001975
  20 H :   -0.961631    0.085229
  21 N :    1.266639   -0.004823
  22 H :   -0.479757   -0.000592
  23 H :   -0.526582   -0.000381

  Mayer bond orders larger than 0.100000
B(  0-C ,  1-S ) :   1.0287 B(  0-C ,  2-C ) :  -0.1337 B(  0-C ,  9-H ) :   0.9433
B(  0-C , 10-H ) :   0.9048 B(  0-C , 11-H ) :   0.8573 B(  1-S ,  2-C ) :   0.7683
B(  2-C ,  3-C ) :   0.5644 B(  2-C , 15-H ) :   0.9652 B(  2-C , 16-H ) :   1.0558
B(  3-C ,  4-C ) :   0.2523 B(  3-C ,  5-C ) :   1.0699 B(  3-C ,  6-O ) :   0.1697
B(  3-C ,  7-S ) :  -0.2235 B(  3-C , 12-H ) :  -0.2123 B(  3-C , 13-H ) :  -0.1292
B(  3-C , 14-H ) :  -0.1603 B(  3-C , 16-H ) :  -0.1437 B(  4-C , 12-H ) :   1.1338
B(  4-C , 13-H ) :   1.0539 B(  4-C , 14-H ) :   1.0878 B(  5-C ,  6-O ) :   0.8798
B(  5-C , 21-N ) :   0.4841 B(  5-C , 22-H ) :  -0.1088 B(  6-O , 21-N ) :   0.2625
B(  7-S ,  8-C ) :   1.0580 B(  7-S , 20-H ) :   0.8155 B(  8-C , 17-H ) :   0.8526
B(  8-C , 18-H ) :   0.9260 B(  8-C , 19-H ) :   0.8597 B( 21-N , 22-H ) :   1.1072
B( 21-N , 23-H ) :   0.9693

MP2 TOTAL ENERGY:    -1161.859324086 Eh
FINAL SINGLE POINT ENERGY     -1161.859324085734

DIPOLE MOMENT
-------------
                                X             Y             Z
Electronic contribution:      0.39215      -1.36884       0.87545
Nuclear contribution   :     -0.56292       2.26410      -0.31798
                        -----------------------------------------
Total Dipole Moment    :     -0.17077       0.89526       0.55747
                        -----------------------------------------
Magnitude (a.u.)       :      1.06838
Magnitude (Debye)      :      2.71560

Rotational constants in cm-1:     0.040709     0.018867     0.017435
Rotational constants in MHz :  1220.424443   565.614504   522.685474

                             ****ORCA TERMINATED NORMALLY****
TOTAL RUN TIME: 0 days 2 hours 59 minutes 44 seconds 647 msec
