                         Program Version 4.2.1 -  RELEASE  -
|  1> %pal
|  2>  nprocs 32
|  3> end
|  4> !RI-MP2 aug-cc-pVQZ aug-cc-pVQZ/C TightSCF
|  5> %maxcore 4500
|  6> *xyzfile 0 1  10_8TS.xyz
|  7>
|  8>
|  9>                          ****END OF INPUT****

CARTESIAN COORDINATES (ANGSTROEM)
---------------------------------
  C      2.001752    0.216064   -0.159216
  C      2.124479   -1.190325   -0.162450
  C      3.390875   -1.749989   -0.049788
  C      4.524755   -0.955477    0.050909
  C      4.400777    0.425690    0.038799
  C      3.147106    1.006448   -0.063782
  H      3.489808   -2.829885   -0.050103
  H      5.502007   -1.415943    0.133280
  H      5.280207    1.053801    0.112254
  H      3.042605    2.081367   -0.066934
  C      0.669193    0.761427   -0.216152
  C     -0.553049    0.584384   -0.209117
  C     -1.699921   -0.280762   -0.166907
  C     -2.949558    0.066778   -0.678663
  C     -1.499089   -1.566319    0.375915
  C     -4.003597   -0.831367   -0.635487
  H     -3.074379    1.042087   -1.130034
  C     -2.571098   -2.448597    0.414928
  C     -3.818093   -2.088856   -0.078628
  H     -4.968051   -0.551306   -1.041478
  H     -2.423361   -3.437329    0.835124
  H     -4.639893   -2.793472   -0.037082
  C     -0.129037   -1.967826    0.848191
  H     -3.129735    2.248620    0.922821
  C     -2.339685    2.995521    0.927030
  N     -1.392372    2.608863   -0.117556
  H     -1.872557    3.012021    1.914952
  H     -2.781431    3.970656    0.712544
  N     -0.275640    3.166222   -0.100929
  N      0.849266    2.971255   -0.225924
  H      0.226659   -1.243872    1.584519
  H     -0.193463   -2.929444    1.359323
  C      0.909046   -2.064832   -0.313791
  H      0.409479   -1.802620   -1.249435
  H      1.234190   -3.100834   -0.419630

 Total Charge           Charge          ....    0
 Multiplicity           Mult            ....    1
 Number of Electrons    NEL             ....  138
 Basis Dimension        Dim             .... 2290

ORBITAL ENERGIES
----------------

  NO   OCC          E(Eh)            E(eV)
   0   2.0000     -15.730783      -428.0564
   1   2.0000     -15.662975      -426.2112
   2   2.0000     -15.616761      -424.9537
   3   2.0000     -11.271164      -306.7040
   4   2.0000     -11.252899      -306.2069
   5   2.0000     -11.248932      -306.0990
   6   2.0000     -11.243123      -305.9409
   7   2.0000     -11.240860      -305.8794
   8   2.0000     -11.240214      -305.8618
   9   2.0000     -11.235410      -305.7311
  10   2.0000     -11.234544      -305.7075
  11   2.0000     -11.232101      -305.6410
  12   2.0000     -11.231684      -305.6297
  13   2.0000     -11.231064      -305.6128
  14   2.0000     -11.229116      -305.5598
  15   2.0000     -11.228509      -305.5433
  16   2.0000     -11.227330      -305.5112
  17   2.0000     -11.226409      -305.4861
  18   2.0000     -11.225925      -305.4730
  19   2.0000     -11.224906      -305.4452
  20   2.0000      -1.483495       -40.3679
  21   2.0000      -1.257440       -34.2167
  22   2.0000      -1.174359       -31.9559
  23   2.0000      -1.159774       -31.5590
  24   2.0000      -1.086165       -29.5561
  25   2.0000      -1.061876       -28.8951
  26   2.0000      -1.038108       -28.2483
  27   2.0000      -1.027330       -27.9551
  28   2.0000      -0.991564       -26.9818
  29   2.0000      -0.986007       -26.8306
  30   2.0000      -0.957580       -26.0571
  31   2.0000      -0.889700       -24.2100
  32   2.0000      -0.846893       -23.0451
  33   2.0000      -0.828089       -22.5334
  34   2.0000      -0.808231       -21.9931
  35   2.0000      -0.794526       -21.6201
  36   2.0000      -0.750904       -20.4331
  37   2.0000      -0.727476       -19.7956
  38   2.0000      -0.706445       -19.2233
  39   2.0000      -0.694391       -18.8953
  40   2.0000      -0.684381       -18.6229
  41   2.0000      -0.665468       -18.1083
  42   2.0000      -0.660963       -17.9857
  43   2.0000      -0.659033       -17.9332
  44   2.0000      -0.637428       -17.3453
  45   2.0000      -0.633480       -17.2379
  46   2.0000      -0.606902       -16.5146
  47   2.0000      -0.596360       -16.2278
  48   2.0000      -0.588112       -16.0033
  49   2.0000      -0.586612       -15.9625
  50   2.0000      -0.577357       -15.7107
  51   2.0000      -0.568624       -15.4731
  52   2.0000      -0.556670       -15.1478
  53   2.0000      -0.541330       -14.7303
  54   2.0000      -0.534401       -14.5418
  55   2.0000      -0.515810       -14.0359
  56   2.0000      -0.502594       -13.6763
  57   2.0000      -0.497125       -13.5275
  58   2.0000      -0.486949       -13.2506
  59   2.0000      -0.477319       -12.9885
  60   2.0000      -0.473402       -12.8819
  61   2.0000      -0.443805       -12.0765
  62   2.0000      -0.429711       -11.6930
  63   2.0000      -0.379730       -10.3330
  64   2.0000      -0.359976        -9.7954
  65   2.0000      -0.338231        -9.2037
  66   2.0000      -0.334629        -9.1057
  67   2.0000      -0.325251        -8.8505
  68   2.0000      -0.286220        -7.7884
  69   0.0000       0.021865         0.5950
  70   0.0000       0.024686         0.6717
  71   0.0000       0.026837         0.7303
  72   0.0000       0.031766         0.8644
  73   0.0000       0.033404         0.9090

MULLIKEN ATOMIC CHARGES
-----------------------
   0 C :    0.432070
   1 C :    0.623138
   2 C :   -0.839726
   3 C :   -0.338901
   4 C :   -0.580141
   5 C :   -0.414635
   6 H :    0.168370
   7 H :    0.269691
   8 H :    0.211786
   9 H :    0.365401
  10 C :   -0.100523
  11 C :    0.364470
  12 C :    0.807684
  13 C :   -0.463613
  14 C :    0.465514
  15 C :   -0.516701
  16 H :    0.285131
  17 C :   -0.811323
  18 C :   -0.380589
  19 H :    0.223076
  20 H :    0.211335
  21 H :    0.254446
  22 C :   -0.563380
  23 H :    0.402124
  24 C :   -1.010093
  25 N :   -0.052383
  26 H :    0.338668
  27 H :    0.441262
  28 N :    0.120515
  29 N :   -0.353180
  30 H :    0.263072
  31 H :    0.210397
  32 C :   -0.554457
  33 H :    0.271243
  34 H :    0.250252
Sum of atomic charges:    0.0000000

LOEWDIN ATOMIC CHARGES
----------------------
   0 C :   -0.128329
   1 C :   -0.061934
   2 C :    0.363367
   3 C :    0.351711
   4 C :    0.351571
   5 C :    0.321734
   6 H :   -0.318066
   7 H :   -0.318423
   8 H :   -0.321660
   9 H :   -0.396593
  10 C :   -0.003033
  11 C :    0.002423
  12 C :   -0.125309
  13 C :    0.318060
  14 C :   -0.066453
  15 C :    0.356577
  16 H :   -0.351707
  17 C :    0.367735
  18 C :    0.353443
  19 H :   -0.319127
  20 H :   -0.315273
  21 H :   -0.318965
  22 C :    0.534134
  23 H :   -0.352110
  24 C :    0.695449
  25 N :    0.290136
  26 H :   -0.296065
  27 H :   -0.301608
  28 N :   -0.114084
  29 N :    0.422425
  30 H :   -0.291661
  31 H :   -0.283965
  32 C :    0.533125
  33 H :   -0.288974
  34 H :   -0.288551

  Mayer bond orders larger than 0.100000
B(  0-C ,  1-C ) :   0.8275 B(  0-C ,  2-C ) :  -0.3729 B(  0-C ,  3-C ) :   0.1660
B(  0-C ,  4-C ) :  -0.2668 B(  0-C ,  5-C ) :   1.1404 B(  0-C ,  9-H ) :  -0.1059
B(  0-C , 10-C ) :   0.3561 B(  0-C , 11-C ) :  -0.5532 B(  1-C ,  2-C ) :   0.8242
B(  1-C ,  3-C ) :  -0.3444 B(  1-C ,  5-C ) :  -0.2039 B(  1-C ,  6-H ) :  -0.1385
B(  1-C , 10-C ) :  -0.3371 B(  1-C , 22-C ) :  -0.1953 B(  1-C , 32-C ) :   0.7092
B(  1-C , 34-H ) :  -0.1513 B(  2-C ,  3-C ) :   1.3179 B(  2-C ,  4-C ) :   0.2474
B(  2-C ,  5-C ) :   0.1611 B(  2-C ,  6-H ) :   1.1703 B(  2-C ,  7-H ) :  -0.2039
B(  2-C , 32-C ) :  -0.1922 B(  3-C ,  4-C ) :   1.2224 B(  3-C ,  7-H ) :   1.1314
B(  4-C ,  5-C ) :   1.1338 B(  4-C ,  7-H ) :  -0.1505 B(  4-C ,  8-H ) :   1.2068
B(  5-C ,  8-H ) :  -0.1838 B(  5-C ,  9-H ) :   0.8925 B(  5-C , 10-C ) :  -0.3585
B( 10-C , 11-C ) :   2.5352 B( 10-C , 12-C ) :  -0.6309 B( 10-C , 29-N ) :   0.1151
B( 11-C , 12-C ) :   0.6763 B( 11-C , 13-C ) :  -0.4917 B( 11-C , 14-C ) :  -0.3882
B( 11-C , 28-N ) :   0.1427 B( 12-C , 13-C ) :   1.1291 B( 12-C , 14-C ) :   0.8118
B( 12-C , 15-C ) :  -0.3567 B( 12-C , 16-H ) :  -0.1238 B( 12-C , 17-C ) :  -0.3283
B( 12-C , 18-C ) :   0.1597 B( 12-C , 22-C ) :  -0.1716 B( 12-C , 24-C ) :  -0.1123
B( 12-C , 25-N ) :   0.1216 B( 13-C , 14-C ) :  -0.1921 B( 13-C , 15-C ) :   1.2154
B( 13-C , 16-H ) :   0.9933 B( 13-C , 17-C ) :   0.1253 B( 13-C , 19-H ) :  -0.1564
B( 14-C , 17-C ) :   0.8665 B( 14-C , 18-C ) :  -0.2875 B( 14-C , 20-H ) :  -0.1309
B( 14-C , 22-C ) :   0.7430 B( 14-C , 31-H ) :  -0.1441 B( 14-C , 32-C ) :  -0.2134
B( 15-C , 17-C ) :   0.2314 B( 15-C , 18-C ) :   1.2436 B( 15-C , 19-H ) :   1.1771
B( 15-C , 21-H ) :  -0.1164 B( 17-C , 18-C ) :   1.3019 B( 17-C , 20-H ) :   1.1159
B( 17-C , 21-H ) :  -0.2091 B( 17-C , 22-C ) :  -0.1543 B( 18-C , 21-H ) :   1.1523
B( 22-C , 30-H ) :   0.9160 B( 22-C , 31-H ) :   1.0714 B( 22-C , 32-C ) :   1.2440
B( 23-H , 24-C ) :   0.8318 B( 24-C , 25-N ) :   0.9090 B( 24-C , 26-H ) :   0.8894
B( 24-C , 27-H ) :   0.8274 B( 25-N , 28-N ) :   0.8606 B( 25-N , 29-N ) :   0.1200
B( 28-N , 29-N ) :   1.9831 B( 32-C , 33-H ) :   0.8921 B( 32-C , 34-H ) :   1.0317

MP2 TOTAL ENERGY:     -819.543077421 Eh
FINAL SINGLE POINT ENERGY      -819.543077420503

DIPOLE MOMENT
-------------
                                X             Y             Z
Electronic contribution:      3.28444       6.39648      -3.00284
Nuclear contribution   :     -3.87055      -6.59005       3.54803
                        -----------------------------------------
Total Dipole Moment    :     -0.58611      -0.19357       0.54519
                        -----------------------------------------
Magnitude (a.u.)       :      0.82354
Magnitude (Debye)      :      2.09328

Rotational constants in cm-1:     0.017553     0.009409     0.006365
Rotational constants in MHz :   526.211163   282.079081   190.828659

                             ****ORCA TERMINATED NORMALLY****
TOTAL RUN TIME: 0 days 6 hours 14 minutes 38 seconds 481 msec
