                         Program Version 4.2.1 -  RELEASE  -
|  1> %pal
|  2>  nprocs 32
|  3> end
|  4> !RI-MP2 aug-cc-pVQZ aug-cc-pVQZ/C TightSCF
|  5> %maxcore 4500
|  6> *xyzfile 0 2  04_54TS.xyz
|  7>
|  8>
|  9>                          ****END OF INPUT****

CARTESIAN COORDINATES (ANGSTROEM)
---------------------------------
  N     -0.625244   -2.035519   -0.052498
  C      0.555752   -2.488530   -0.759236
  H     -3.456238    2.573165   -0.847216
  C      1.542693   -1.359990   -1.062917
  H      1.053755   -3.255705   -0.162903
  H      0.254429   -2.915378   -1.712634
  O      1.792259   -1.001841   -2.198588
  N      2.114262   -0.805315    0.038460
  H      1.796816   -1.135249    0.948311
  C      3.022073    0.293910   -0.071486
  C      2.396406    1.642204    0.207277
  H      3.869121    0.175371    0.608349
  H      3.421107    0.321098   -1.087489
  O      1.245952    1.856481    0.485081
  O      3.312475    2.617189    0.113820
  H      2.871914    3.460526    0.287904
  C     -0.604721   -1.758179    1.273768
  C     -1.836669   -1.149687    1.805093
  O      0.401964   -1.926239    1.966822
  N     -3.685495    1.616777   -1.070911
  H     -1.794338   -0.921256    2.863466
  H     -2.779706   -1.539919    1.435719
  C     -2.804765    0.647326   -0.740017
  C     -1.728297    1.040448    0.223230
  O     -2.883013   -0.501725   -1.159245
  N     -1.771922    2.354588    0.750151
  H     -0.747456    0.814903   -0.187017
  H     -1.816921    0.095871    1.115957
  H     -1.425602   -1.708499   -0.592299
  H     -2.452539    2.490050    1.486901
  H     -0.854941    2.661473    1.048401
  H     -4.372520    1.413892   -1.779271

 Total Charge           Charge          ....    0
 Multiplicity           Mult            ....    2
 Number of Electrons    NEL             ....  131
 Basis Dimension        Dim             .... 2050

ORBITAL ENERGIES
----------------
                 SPIN UP ORBITALS
  NO   OCC          E(Eh)            E(eV)
   0   1.0000     -20.626242      -561.2686
   1   1.0000     -20.564725      -559.5946
   2   1.0000     -20.527585      -558.5840
   3   1.0000     -20.520866      -558.4011
   4   1.0000     -20.517101      -558.2987
   5   1.0000     -15.590467      -424.2382
   6   1.0000     -15.577802      -423.8935
   7   1.0000     -15.575308      -423.8257
   8   1.0000     -15.565856      -423.5685
   9   1.0000     -11.400495      -310.2232
  10   1.0000     -11.359450      -309.1064
  11   1.0000     -11.350392      -308.8599
  12   1.0000     -11.344080      -308.6881
  13   1.0000     -11.287593      -307.1510
  14   1.0000     -11.280992      -306.9714
  15   1.0000     -11.271747      -306.7198
  16   1.0000     -11.251434      -306.1671
  17   1.0000      -1.486404       -40.4471
  18   1.0000      -1.394607       -37.9492
  19   1.0000      -1.389885       -37.8207
  20   1.0000      -1.382739       -37.6262
  21   1.0000      -1.379796       -37.5462
  22   1.0000      -1.240304       -33.7504
  23   1.0000      -1.237138       -33.6642
  24   1.0000      -1.229304       -33.4511
  25   1.0000      -1.201587       -32.6968
  26   1.0000      -1.049550       -28.5597
  27   1.0000      -1.018192       -27.7064
  28   1.0000      -0.971686       -26.4409
  29   1.0000      -0.950275       -25.8583
  30   1.0000      -0.849254       -23.1094
  31   1.0000      -0.809543       -22.0288
  32   1.0000      -0.794613       -21.6225
  33   1.0000      -0.777827       -21.1658
  34   1.0000      -0.749673       -20.3996
  35   1.0000      -0.732372       -19.9288
  36   1.0000      -0.725308       -19.7366
  37   1.0000      -0.713037       -19.4027
  38   1.0000      -0.704796       -19.1785
  39   1.0000      -0.687918       -18.7192
  40   1.0000      -0.677407       -18.4332
  41   1.0000      -0.666849       -18.1459
  42   1.0000      -0.660418       -17.9709
  43   1.0000      -0.650512       -17.7013
  44   1.0000      -0.642752       -17.4902
  45   1.0000      -0.612147       -16.6574
  46   1.0000      -0.611106       -16.6290
  47   1.0000      -0.604150       -16.4397
  48   1.0000      -0.596947       -16.2437
  49   1.0000      -0.584275       -15.8989
  50   1.0000      -0.579789       -15.7768
  51   1.0000      -0.571872       -15.5614
  52   1.0000      -0.555995       -15.1294
  53   1.0000      -0.546004       -14.8575
  54   1.0000      -0.533955       -14.5296
  55   1.0000      -0.530818       -14.4443
  56   1.0000      -0.504285       -13.7223
  57   1.0000      -0.477275       -12.9873
  58   1.0000      -0.469593       -12.7783
  59   1.0000      -0.451597       -12.2886
  60   1.0000      -0.443298       -12.0627
  61   1.0000      -0.432786       -11.7767
  62   1.0000      -0.431103       -11.7309
  63   1.0000      -0.398011       -10.8304
  64   1.0000      -0.390044       -10.6136
  65   1.0000      -0.325252        -8.8506
  66   0.0000       0.015915         0.4331
  67   0.0000       0.024062         0.6548
  68   0.0000       0.029697         0.8081
  69   0.0000       0.032202         0.8763
  70   0.0000       0.038373         1.0442

                 SPIN DOWN ORBITALS
  NO   OCC          E(Eh)            E(eV)
   0   1.0000     -20.626244      -561.2686
   1   1.0000     -20.564759      -559.5956
   2   1.0000     -20.526419      -558.5522
   3   1.0000     -20.517264      -558.3031
   4   1.0000     -20.517123      -558.2993
   5   1.0000     -15.589927      -424.2235
   6   1.0000     -15.577383      -423.8822
   7   1.0000     -15.575256      -423.8243
   8   1.0000     -15.564340      -423.5272
   9   1.0000     -11.400494      -310.2232
  10   1.0000     -11.360287      -309.1291
  11   1.0000     -11.352627      -308.9207
  12   1.0000     -11.344027      -308.6867
  13   1.0000     -11.287601      -307.1513
  14   1.0000     -11.271839      -306.7223
  15   1.0000     -11.266070      -306.5653
  16   1.0000     -11.232613      -305.6550
  17   1.0000      -1.486424       -40.4477
  18   1.0000      -1.391998       -37.8782
  19   1.0000      -1.387581       -37.7580
  20   1.0000      -1.381456       -37.5913
  21   1.0000      -1.377156       -37.4743
  22   1.0000      -1.239105       -33.7178
  23   1.0000      -1.231559       -33.5124
  24   1.0000      -1.227208       -33.3940
  25   1.0000      -1.193867       -32.4868
  26   1.0000      -1.037662       -28.2362
  27   1.0000      -0.998198       -27.1624
  28   1.0000      -0.950508       -25.8646
  29   1.0000      -0.925289       -25.1784
  30   1.0000      -0.848442       -23.0873
  31   1.0000      -0.803127       -21.8542
  32   1.0000      -0.790996       -21.5241
  33   1.0000      -0.776020       -21.1166
  34   1.0000      -0.747858       -20.3502
  35   1.0000      -0.730176       -19.8691
  36   1.0000      -0.724300       -19.7092
  37   1.0000      -0.708793       -19.2872
  38   1.0000      -0.694722       -18.9044
  39   1.0000      -0.682812       -18.5802
  40   1.0000      -0.672364       -18.2959
  41   1.0000      -0.665155       -18.0998
  42   1.0000      -0.658053       -17.9065
  43   1.0000      -0.648041       -17.6341
  44   1.0000      -0.619614       -16.8605
  45   1.0000      -0.609775       -16.5928
  46   1.0000      -0.601923       -16.3792
  47   1.0000      -0.597806       -16.2671
  48   1.0000      -0.591464       -16.0945
  49   1.0000      -0.578153       -15.7323
  50   1.0000      -0.573713       -15.6115
  51   1.0000      -0.566283       -15.4093
  52   1.0000      -0.546658       -14.8753
  53   1.0000      -0.542143       -14.7525
  54   1.0000      -0.530241       -14.4286
  55   1.0000      -0.513859       -13.9828
  56   1.0000      -0.502446       -13.6722
  57   1.0000      -0.476425       -12.9642
  58   1.0000      -0.450607       -12.2616
  59   1.0000      -0.442178       -12.0323
  60   1.0000      -0.433807       -11.8045
  61   1.0000      -0.424471       -11.5505
  62   1.0000      -0.402471       -10.9518
  63   1.0000      -0.397603       -10.8193
  64   1.0000      -0.379970       -10.3395
  65   0.0000       0.016019         0.4359
  66   0.0000       0.024071         0.6550
  67   0.0000       0.029806         0.8111
  68   0.0000       0.032129         0.8743
  69   0.0000       0.038033         1.0349

MULLIKEN ATOMIC CHARGES AND SPIN POPULATIONS
--------------------------------------------
   0 N :   -0.611332    0.013863
   1 C :   -0.573495   -0.004624
   2 H :    0.339722   -0.001447
   3 C :    1.186451   -0.000758
   4 H :    0.372355    0.000106
   5 H :    0.374098    0.000839
   6 O :   -1.008989   -0.000462
   7 N :   -0.604744    0.001392
   8 H :    0.336829   -0.001795
   9 C :   -0.671829   -0.000269
  10 C :    1.252911    0.000083
  11 H :    0.372932    0.000033
  12 H :    0.334603    0.000340
  13 O :   -0.979097    0.000564
  14 O :   -0.810887   -0.000011
  15 H :    0.391041    0.000003
  16 C :    1.225819   -0.075170
  17 C :   -0.568031    0.809933
  18 O :   -1.074753    0.077975
  19 N :   -0.945889    0.016731
  20 H :    0.314847   -0.049542
  21 H :    0.284802   -0.070347
  22 C :    1.352695   -0.026654
  23 C :    0.109663    0.583546
  24 O :   -1.040997    0.025549
  25 N :   -0.954468    0.041507
  26 H :    0.473871   -0.025594
  27 H :   -0.009413   -0.320098
  28 H :    0.368856    0.001964
  29 H :    0.266930    0.007592
  30 H :    0.286469   -0.003629
  31 H :    0.209029   -0.001622
Sum of atomic charges         :   -0.0000000

LOEWDIN ATOMIC CHARGES AND SPIN POPULATIONS
-------------------------------------------
   0 N :    0.844447    0.002788
   1 C :    0.367774   -0.000168
   2 H :   -0.535876    0.002668
   3 C :   -0.808798    0.000217
   4 H :   -0.295922   -0.000199
   5 H :   -0.309020   -0.000086
   6 O :    0.727160   -0.000213
   7 N :    0.811407    0.000692
   8 H :   -0.708964    0.000855
   9 C :    0.319645    0.000060
  10 C :   -0.962578   -0.000193
  11 H :   -0.283225   -0.000008
  12 H :   -0.345793    0.000034
  13 O :    0.780943   -0.001193
  14 O :    1.267161   -0.000023
  15 H :   -0.799999   -0.000005
  16 C :   -0.794301    0.062669
  17 C :    0.815373    0.265913
  18 O :    0.797823    0.053041
  19 N :    1.258228    0.008326
  20 H :   -0.283462    0.074336
  21 H :   -0.281682    0.070388
  22 C :   -0.766594    0.037698
  23 C :    0.234273    0.189866
  24 O :    0.793839    0.017096
  25 N :    1.293640    0.069476
  26 H :   -0.366026    0.040259
  27 H :   -0.568925    0.085012
  28 H :   -0.682737    0.000030
  29 H :   -0.469271    0.010814
  30 H :   -0.564672    0.008453
  31 H :   -0.483865    0.001398

  Mayer bond orders larger than 0.100000
B(  0-N ,  1-C ) :   1.0133 B(  0-N , 16-C ) :   1.1823 B(  0-N , 17-C ) :  -0.1116
B(  0-N , 18-O ) :   0.2375 B(  0-N , 28-H ) :   0.8588 B(  1-C ,  3-C ) :   1.0149
B(  1-C ,  4-H ) :   0.9089 B(  1-C ,  5-H ) :   0.8519 B(  1-C ,  6-O ) :   0.1847
B(  2-H , 19-N ) :   0.8677 B(  3-C ,  6-O ) :   0.6707 B(  3-C ,  7-N ) :   1.1287
B(  6-O ,  7-N ) :   0.2937 B(  7-N ,  8-H ) :   0.8775 B(  7-N ,  9-C ) :   1.0706
B(  7-N , 10-C ) :  -0.1022 B(  9-C , 10-C ) :   1.1888 B(  9-C , 11-H ) :   0.8358
B(  9-C , 12-H ) :   0.8414 B(  9-C , 13-O ) :   0.1374 B(  9-C , 14-O ) :   0.2243
B( 10-C , 13-O ) :   1.4474 B( 10-C , 14-O ) :   0.5531 B( 14-O , 15-H ) :   0.8834
B( 16-C , 17-C ) :   1.0009 B( 16-C , 18-O ) :   0.6309 B( 16-C , 27-H ) :  -0.1559
B( 17-C , 20-H ) :   0.9929 B( 17-C , 21-H ) :   1.0249 B( 17-C , 27-H ) :   0.1935
B( 19-N , 22-C ) :   0.8107 B( 19-N , 24-O ) :   0.1393 B( 19-N , 31-H ) :   1.0872
B( 22-C , 23-C ) :   1.1362 B( 22-C , 24-O ) :   0.9907 B( 23-C , 24-O ) :   0.1508
B( 23-C , 25-N ) :   0.6124 B( 23-C , 26-H ) :   0.6912 B( 23-C , 27-H ) :   0.4866
B( 25-N , 29-H ) :   0.9368 B( 25-N , 30-H ) :   0.9340 B( 26-H , 27-H ) :   0.1169

MP2 TOTAL ENERGY:     -907.753086666 Eh
FINAL SINGLE POINT ENERGY      -907.753086666312

DIPOLE MOMENT
-------------
                                X             Y             Z
Electronic contribution:      5.70736      -0.79565      -2.53240
Nuclear contribution   :     -6.36428       2.54101       3.39512
                        -----------------------------------------
Total Dipole Moment    :     -0.65692       1.74535       0.86272
                        -----------------------------------------
Magnitude (a.u.)       :      2.05477
Magnitude (Debye)      :      5.22282

Rotational constants in cm-1:     0.017056     0.011460     0.009069
Rotational constants in MHz :   511.320441   343.570126   271.882435

                             ****ORCA TERMINATED NORMALLY****
TOTAL RUN TIME: 0 days 6 hours 41 minutes 33 seconds 622 msec
