                         Program Version 4.2.1 -  RELEASE  -
|  1> %pal
|  2>  nprocs 32
|  3> end
|  4> !RI-MP2 aug-cc-pVQZ aug-cc-pVQZ/C TightSCF
|  5> %maxcore 4500
|  6> *xyzfile 0 1  04_45P2.xyz
|  7>
|  8>
|  9>                          ****END OF INPUT****

CARTESIAN COORDINATES (ANGSTROEM)
---------------------------------
  C      0.143416    1.261667    0.293171
  C     -0.872724    0.130881    0.483157
  C      1.443435    0.598645   -0.226140
  C      1.097975   -0.886395   -0.425789
  C     -0.018749   -1.131959    0.589853
  H      0.316214    1.778833    1.238680
  H     -0.267008    1.989473   -0.406755
  H     -1.505669    0.286077    1.363180
  H      2.239182    0.699998    0.515953
  H      1.805001    1.062014   -1.144547
  H      1.957317   -1.543984   -0.285662
  H      0.712680   -1.051071   -1.433973
  H      0.394985   -1.200202    1.601885
  H     -0.593617   -2.043676    0.407070
  O     -1.690295    0.103113   -0.689408
  H     -2.296840   -0.639408   -0.626076

 Total Charge           Charge          ....    0
 Multiplicity           Mult            ....    1
 Number of Electrons    NEL             ....   48
 Basis Dimension        Dim             ....  940

ORBITAL ENERGIES
----------------

  NO   OCC          E(Eh)            E(eV)
   0   2.0000     -20.548460      -559.1520
   1   2.0000     -11.271412      -306.7107
   2   2.0000     -11.215900      -305.2001
   3   2.0000     -11.212194      -305.0993
   4   2.0000     -11.211145      -305.0708
   5   2.0000     -11.210025      -305.0403
   6   2.0000      -1.355003       -36.8715
   7   2.0000      -1.109511       -30.1913
   8   2.0000      -0.964258       -26.2388
   9   2.0000      -0.950077       -25.8529
  10   2.0000      -0.786265       -21.3953
  11   2.0000      -0.768398       -20.9092
  12   2.0000      -0.688916       -18.7463
  13   2.0000      -0.655716       -17.8429
  14   2.0000      -0.639349       -17.3976
  15   2.0000      -0.586062       -15.9475
  16   2.0000      -0.546519       -14.8715
  17   2.0000      -0.530883       -14.4461
  18   2.0000      -0.498251       -13.5581
  19   2.0000      -0.476312       -12.9611
  20   2.0000      -0.469114       -12.7652
  21   2.0000      -0.462191       -12.5768
  22   2.0000      -0.449774       -12.2390
  23   2.0000      -0.430494       -11.7143
  24   0.0000       0.025324         0.6891
  25   0.0000       0.032554         0.8858
  26   0.0000       0.033468         0.9107
  27   0.0000       0.036756         1.0002
  28   0.0000       0.049373         1.3435

MULLIKEN ATOMIC CHARGES
-----------------------
   0 C :   -0.613655
   1 C :    0.483019
   2 C :   -0.527986
   3 C :   -0.553870
   4 C :   -0.693632
   5 H :    0.213391
   6 H :    0.305762
   7 H :    0.342376
   8 H :    0.202006
   9 H :    0.303294
  10 H :    0.338123
  11 H :    0.223509
  12 H :    0.229910
  13 H :    0.356577
  14 O :   -0.915525
  15 H :    0.306701
Sum of atomic charges:   -0.0000000

LOEWDIN ATOMIC CHARGES
----------------------
   0 C :    0.524951
   1 C :   -0.207971
   2 C :    0.544971
   3 C :    0.524570
   4 C :    0.509386
   5 H :   -0.266701
   6 H :   -0.283711
   7 H :   -0.275156
   8 H :   -0.269787
   9 H :   -0.261287
  10 H :   -0.257512
  11 H :   -0.270798
  12 H :   -0.260504
  13 H :   -0.261000
  14 O :    1.294228
  15 H :   -0.783678

  Mayer bond orders larger than 0.100000
B(  0-C ,  1-C ) :   0.8456 B(  0-C ,  2-C ) :   0.9336 B(  0-C ,  5-H ) :   0.9972
B(  0-C ,  6-H ) :   0.8978 B(  0-C , 14-O ) :   0.1410 B(  1-C ,  4-C ) :   0.8632
B(  1-C ,  7-H ) :   0.8846 B(  1-C , 14-O ) :   0.3464 B(  2-C ,  3-C ) :   1.0024
B(  2-C ,  8-H ) :   0.9627 B(  2-C ,  9-H ) :   0.8859 B(  3-C ,  4-C ) :   0.9279
B(  3-C , 10-H ) :   0.8357 B(  3-C , 11-H ) :   0.9525 B(  4-C , 12-H ) :   0.9578
B(  4-C , 13-H ) :   0.8120 B(  4-C , 14-O ) :   0.1180 B( 14-O , 15-H ) :   0.9182

MP2 TOTAL ENERGY:     -271.317873988 Eh
FINAL SINGLE POINT ENERGY      -271.317873987883

DIPOLE MOMENT
-------------
                                X             Y             Z
Electronic contribution:     -2.83287       0.27390      -0.79827
Nuclear contribution   :      2.86307      -0.69109       1.27568
                        -----------------------------------------
Total Dipole Moment    :      0.03020      -0.41719       0.47742
                        -----------------------------------------
Magnitude (a.u.)       :      0.63473
Magnitude (Debye)      :      1.61336

Rotational constants in cm-1:     0.175824     0.116708     0.092273
Rotational constants in MHz :  5271.056046  3498.829374  2766.283303

                             ****ORCA TERMINATED NORMALLY****
TOTAL RUN TIME: 0 days 0 hours 20 minutes 1 seconds 705 msec
