                         Program Version 4.2.1 -  RELEASE  -
|  1> %pal
|  2>  nprocs 32
|  3> end
|  4> !RI-MP2 aug-cc-pVQZ aug-cc-pVQZ/C TightSCF
|  5> %maxcore 4500
|  6> *xyzfile 0 2  04_1R.xyz
|  7>
|  8>
|  9>                          ****END OF INPUT****

CARTESIAN COORDINATES (ANGSTROEM)
---------------------------------
  C     -2.417605   -0.148814   -0.148850
  H     -2.618044    0.354747   -1.087009
  H     -3.247574   -0.628295    0.353799
  C     -1.023712   -0.341854    0.324302
  H     -1.001952   -0.374818    1.420825
  C      1.372138    0.497293    0.264731
  H      2.003966    1.330273   -0.065386
  O      1.823397   -0.725090   -0.307671
  H     -0.645670   -1.322117   -0.000744
  H      1.421083    0.446897    1.360562
  C     -0.057188    0.730118   -0.176847
  H     -0.376530    1.713668    0.181624
  H     -0.082567    0.764306   -1.270541
  H      2.718314   -0.904400   -0.011776

 Total Charge           Charge          ....    0
 Multiplicity           Mult            ....    2
 Number of Electrons    NEL             ....   41
 Basis Dimension        Dim             ....  814

ORBITAL ENERGIES
----------------
                 SPIN UP ORBITALS
  NO   OCC          E(Eh)            E(eV)
   0   1.0000     -20.553608      -559.2921
   1   1.0000     -11.273034      -306.7548
   2   1.0000     -11.222186      -305.3712
   3   1.0000     -11.217011      -305.2304
   4   1.0000     -11.214264      -305.1556
   5   1.0000      -1.358160       -36.9574
   6   1.0000      -1.073560       -29.2130
   7   1.0000      -0.979333       -26.6490
   8   1.0000      -0.853357       -23.2210
   9   1.0000      -0.787739       -21.4355
  10   1.0000      -0.705001       -19.1840
  11   1.0000      -0.639496       -17.4016
  12   1.0000      -0.615157       -16.7393
  13   1.0000      -0.594051       -16.1650
  14   1.0000      -0.558127       -15.1874
  15   1.0000      -0.536513       -14.5993
  16   1.0000      -0.499657       -13.5964
  17   1.0000      -0.483588       -13.1591
  18   1.0000      -0.474575       -12.9138
  19   1.0000      -0.441958       -12.0263
  20   1.0000      -0.342464        -9.3189
  21   0.0000       0.025053         0.6817
  22   0.0000       0.032069         0.8726
  23   0.0000       0.034374         0.9354
  24   0.0000       0.037368         1.0168
  25   0.0000       0.048872         1.3299

                 SPIN DOWN ORBITALS
  NO   OCC          E(Eh)            E(eV)
   0   1.0000     -20.553528      -559.2899
   1   1.0000     -11.273095      -306.7565
   2   1.0000     -11.217437      -305.2420
   3   1.0000     -11.216301      -305.2111
   4   1.0000     -11.198682      -304.7316
   5   1.0000      -1.358014       -36.9534
   6   1.0000      -1.062134       -28.9021
   7   1.0000      -0.951983       -25.9048
   8   1.0000      -0.823032       -22.3958
   9   1.0000      -0.767142       -20.8750
  10   1.0000      -0.704152       -19.1610
  11   1.0000      -0.637125       -17.3370
  12   1.0000      -0.606816       -16.5123
  13   1.0000      -0.579634       -15.7727
  14   1.0000      -0.552353       -15.0303
  15   1.0000      -0.529849       -14.4179
  16   1.0000      -0.487680       -13.2704
  17   1.0000      -0.476751       -12.9731
  18   1.0000      -0.470435       -12.8012
  19   1.0000      -0.440240       -11.9796
  20   0.0000       0.025075         0.6823
  21   0.0000       0.032560         0.8860
  22   0.0000       0.034374         0.9354
  23   0.0000       0.037188         1.0119
  24   0.0000       0.048913         1.3310

MULLIKEN ATOMIC CHARGES AND SPIN POPULATIONS
--------------------------------------------
   0 C :   -0.917125    1.226493
   1 H :    0.334728   -0.075796
   2 H :    0.347964   -0.070069
   3 C :   -0.272732   -0.205891
   4 H :    0.217190    0.026289
   5 C :   -0.007543   -0.002957
   6 H :    0.265834    0.000730
   7 O :   -0.782275   -0.000076
   8 H :    0.260976    0.074574
   9 H :    0.205298    0.000506
  10 C :   -0.441829    0.034136
  11 H :    0.284046   -0.006293
  12 H :    0.209154   -0.001972
  13 H :    0.296315    0.000326
Sum of atomic charges         :    0.0000000

LOEWDIN ATOMIC CHARGES AND SPIN POPULATIONS
-------------------------------------------
   0 C :    0.860711    0.467897
   1 H :   -0.341118    0.155276
   2 H :   -0.339109    0.152878
   3 C :    0.439537    0.150319
   4 H :   -0.295238    0.016384
   5 C :    0.176079    0.001555
   6 H :   -0.291009   -0.000028
   7 O :    1.270755    0.001488
   8 H :   -0.302694    0.032029
   9 H :   -0.292124    0.000157
  10 C :    0.456271    0.015404
  11 H :   -0.275279    0.006281
  12 H :   -0.282432    0.000198
  13 H :   -0.784348    0.000162

  Mayer bond orders larger than 0.100000
B(  0-C ,  1-H ) :   0.9217 B(  0-C ,  2-H ) :   0.9295 B(  0-C ,  3-C ) :   0.9322
B(  0-C , 10-C ) :  -0.1123 B(  3-C ,  4-H ) :   0.9107 B(  3-C ,  8-H ) :   0.8565
B(  3-C , 10-C ) :   0.8523 B(  5-C ,  6-H ) :   0.9429 B(  5-C ,  7-O ) :   0.6873
B(  5-C ,  9-H ) :   0.9455 B(  5-C , 10-C ) :   0.9953 B(  7-O , 13-H ) :   0.9359
B( 10-C , 11-H ) :   0.8717 B( 10-C , 12-H ) :   0.8959

MP2 TOTAL ENERGY:     -232.602667780 Eh
FINAL SINGLE POINT ENERGY      -232.602667780398

DIPOLE MOMENT
-------------
                                X             Y             Z
Electronic contribution:      2.33388      -1.12965      -0.53007
Nuclear contribution   :     -1.89591       1.44158       0.92309
                        -----------------------------------------
Total Dipole Moment    :      0.43797       0.31193       0.39301
                        -----------------------------------------
Magnitude (a.u.)       :      0.66602
Magnitude (Debye)      :      1.69288

Rotational constants in cm-1:     0.429049     0.083318     0.076776
Rotational constants in MHz : 12862.568066  2497.799526  2301.672231

                             ****ORCA TERMINATED NORMALLY****
TOTAL RUN TIME: 0 days 0 hours 14 minutes 27 seconds 622 msec
