                         Program Version 4.2.1 -  RELEASE  -
|  1> %pal
|  2>  nprocs 32
|  3> end
|  4> !RI-MP2 aug-cc-pVQZ aug-cc-pVQZ/C TightSCF
|  5> %maxcore 4500
|  6> *xyzfile 1 1  05_40P1.xyz
|  7>
|  8>
|  9>                          ****END OF INPUT****

CARTESIAN COORDINATES (ANGSTROEM)
---------------------------------
  O      3.588744    0.018354    0.000139
  C      2.512988   -0.515072    0.000035
  O      2.309189   -1.822136   -0.000064
  C      3.491335   -2.652923   -0.000041
  C      1.216951    0.240228    0.000008
  C     -0.000000   -0.431264   -0.000001
  C     -1.216952    0.240229   -0.000004
  C     -1.212506    1.629482   -0.000009
  N      0.000000    2.229772   -0.000009
  C      1.212506    1.629482    0.000001
  C     -2.399044    2.529317   -0.000014
  C     -2.512988   -0.515072   -0.000001
  O     -2.309189   -1.822136   -0.000028
  C     -3.491335   -2.652923   -0.000027
  C      2.399044    2.529317    0.000007
  O     -3.588744    0.018354    0.000023
  H     -4.082878   -2.450273   -0.890794
  H     -4.082835   -2.450331    0.890781
  H     -3.123599   -3.673747   -0.000069
  H     -3.025207    2.332396    0.870135
  H     -3.025242    2.332344   -0.870125
  H     -2.096415    3.577081   -0.000051
  H      3.025301    2.332284   -0.870047
  H      3.025148    2.332456    0.870213
  H      2.096415    3.577080   -0.000120
  H      4.082786   -2.450376    0.890810
  H      4.082926   -2.450228   -0.890765
  H      3.123599   -3.673747   -0.000155
  H     -0.000000   -1.512462   -0.000003
  H      0.000000    3.244802   -0.000019

 Total Charge           Charge          ....    1
 Multiplicity           Mult            ....    1
 Number of Electrons    NEL             ....  118
 Basis Dimension        Dim             .... 1924

ORBITAL ENERGIES
----------------

  NO   OCC          E(Eh)            E(eV)
   0   2.0000     -20.732366      -564.1564
   1   2.0000     -20.732366      -564.1564
   2   2.0000     -20.676360      -562.6323
   3   2.0000     -20.676359      -562.6323
   4   2.0000     -15.833395      -430.8486
   5   2.0000     -11.522803      -313.5514
   6   2.0000     -11.522803      -313.5514
   7   2.0000     -11.506659      -313.1121
   8   2.0000     -11.506632      -313.1114
   9   2.0000     -11.449368      -311.5531
  10   2.0000     -11.422367      -310.8184
  11   2.0000     -11.422325      -310.8173
  12   2.0000     -11.396217      -310.1068
  13   2.0000     -11.396217      -310.1068
  14   2.0000     -11.387650      -309.8737
  15   2.0000     -11.387650      -309.8737
  16   2.0000      -1.601856       -43.5887
  17   2.0000      -1.601360       -43.5752
  18   2.0000      -1.519277       -41.3416
  19   2.0000      -1.499407       -40.8009
  20   2.0000      -1.499047       -40.7911
  21   2.0000      -1.303178       -35.4613
  22   2.0000      -1.288855       -35.0715
  23   2.0000      -1.164291       -31.6820
  24   2.0000      -1.164267       -31.6813
  25   2.0000      -1.108071       -30.1521
  26   2.0000      -1.087075       -29.5808
  27   2.0000      -1.060715       -28.8635
  28   2.0000      -1.031744       -28.0752
  29   2.0000      -0.980874       -26.6909
  30   2.0000      -0.917904       -24.9774
  31   2.0000      -0.895159       -24.3585
  32   2.0000      -0.876818       -23.8594
  33   2.0000      -0.859303       -23.3828
  34   2.0000      -0.841473       -22.8976
  35   2.0000      -0.818056       -22.2604
  36   2.0000      -0.816820       -22.2268
  37   2.0000      -0.804402       -21.8889
  38   2.0000      -0.802860       -21.8469
  39   2.0000      -0.797594       -21.7036
  40   2.0000      -0.790521       -21.5112
  41   2.0000      -0.736620       -20.0445
  42   2.0000      -0.736024       -20.0282
  43   2.0000      -0.729205       -19.8427
  44   2.0000      -0.713064       -19.4034
  45   2.0000      -0.711358       -19.3570
  46   2.0000      -0.708299       -19.2738
  47   2.0000      -0.703020       -19.1301
  48   2.0000      -0.694154       -18.8889
  49   2.0000      -0.683390       -18.5960
  50   2.0000      -0.679300       -18.4847
  51   2.0000      -0.652967       -17.7681
  52   2.0000      -0.651706       -17.7338
  53   2.0000      -0.597500       -16.2588
  54   2.0000      -0.592473       -16.1220
  55   2.0000      -0.592168       -16.1137
  56   2.0000      -0.589408       -16.0386
  57   2.0000      -0.585052       -15.9201
  58   2.0000      -0.524882       -14.2828
  59   0.0000      -0.099812        -2.7160
  60   0.0000      -0.086336        -2.3493
  61   0.0000      -0.078834        -2.1452
  62   0.0000      -0.059953        -1.6314
  63   0.0000      -0.055103        -1.4994

MULLIKEN ATOMIC CHARGES
-----------------------
   0 O :   -0.893393
   1 C :    1.853750
   2 O :   -0.760550
   3 C :   -0.818646
   4 C :   -0.949888
   5 C :    0.338654
   6 C :   -0.949147
   7 C :    0.873253
   8 N :   -0.139224
   9 C :    0.874609
  10 C :   -1.087994
  11 C :    1.854131
  12 O :   -0.760691
  13 C :   -0.818846
  14 C :   -1.087610
  15 O :   -0.893470
  16 H :    0.339029
  17 H :    0.339040
  18 H :    0.435970
  19 H :    0.290678
  20 H :    0.290682
  21 H :    0.269133
  22 H :    0.290641
  23 H :    0.290649
  24 H :    0.269157
  25 H :    0.339001
  26 H :    0.338971
  27 H :    0.435902
  28 H :    0.347247
  29 H :    0.088959
Sum of atomic charges:    1.0000000

LOEWDIN ATOMIC CHARGES
----------------------
   0 O :    0.767898
   1 C :   -1.069872
   2 O :    0.854134
   3 C :    0.639739
   4 C :   -0.049693
   5 C :    0.365187
   6 C :   -0.049693
   7 C :   -0.106085
   8 N :    0.926303
   9 C :   -0.106084
  10 C :    0.970145
  11 C :   -1.069873
  12 O :    0.854134
  13 C :    0.639738
  14 C :    0.970146
  15 O :    0.767898
  16 H :   -0.302419
  17 H :   -0.302418
  18 H :   -0.308496
  19 H :   -0.276814
  20 H :   -0.276821
  21 H :   -0.277675
  22 H :   -0.276831
  23 H :   -0.276804
  24 H :   -0.277677
  25 H :   -0.302417
  26 H :   -0.302420
  27 H :   -0.308496
  28 H :   -0.347043
  29 H :   -0.467691

  Mayer bond orders larger than 0.100000
B(  0-O ,  1-C ) :   0.7293 B(  0-O ,  2-O ) :   0.1994 B(  0-O ,  4-C ) :   0.6636
B(  0-O ,  9-C ) :  -0.1716 B(  1-C ,  2-O ) :   0.7553 B(  1-C ,  3-C ) :  -0.2400
B(  1-C ,  4-C ) :   1.4938 B(  1-C ,  5-C ) :  -0.5217 B(  1-C ,  6-C ) :   0.1093
B(  1-C ,  9-C ) :  -0.2200 B(  1-C , 28-H ) :   0.1096 B(  2-O ,  3-C ) :   0.8622
B(  2-O ,  4-C ) :   0.5522 B(  2-O ,  5-C ) :  -0.4495 B(  3-C , 25-H ) :   0.9116
B(  3-C , 26-H ) :   0.9116 B(  3-C , 27-H ) :   0.8333 B(  4-C ,  5-C ) :   0.8577
B(  4-C ,  6-C ) :  -0.7629 B(  4-C ,  7-C ) :   0.1914 B(  4-C ,  9-C ) :   1.0254
B(  4-C , 11-C ) :   0.1097 B(  5-C ,  6-C ) :   0.8571 B(  5-C ,  7-C ) :  -0.1902
B(  5-C ,  9-C ) :  -0.1919 B(  5-C , 11-C ) :  -0.5218 B(  5-C , 12-O ) :  -0.4493
B(  5-C , 28-H ) :   0.4659 B(  6-C ,  7-C ) :   1.0256 B(  6-C ,  9-C ) :   0.1915
B(  6-C , 11-C ) :   1.4939 B(  6-C , 12-O ) :   0.5524 B(  6-C , 15-O ) :   0.6636
B(  7-C ,  8-N ) :   0.7839 B(  7-C , 10-C ) :   0.5766 B(  7-C , 11-C ) :  -0.2199
B(  7-C , 15-O ) :  -0.1715 B(  7-C , 19-H ) :  -0.1447 B(  7-C , 20-H ) :  -0.1447
B(  7-C , 21-H ) :  -0.1524 B(  7-C , 29-H ) :  -0.1371 B(  8-N ,  9-C ) :   0.7833
B(  8-N , 29-H ) :   1.2274 B(  9-C , 14-C ) :   0.5778 B(  9-C , 22-H ) :  -0.1444
B(  9-C , 23-H ) :  -0.1444 B(  9-C , 24-H ) :  -0.1524 B(  9-C , 29-H ) :  -0.1371
B( 10-C , 19-H ) :   1.0220 B( 10-C , 20-H ) :   1.0220 B( 10-C , 21-H ) :   1.0131
B( 11-C , 12-O ) :   0.7554 B( 11-C , 13-C ) :  -0.2400 B( 11-C , 15-O ) :   0.7286
B( 11-C , 28-H ) :   0.1096 B( 12-O , 13-C ) :   0.8622 B( 12-O , 15-O ) :   0.1993
B( 13-C , 16-H ) :   0.9115 B( 13-C , 17-H ) :   0.9115 B( 13-C , 18-H ) :   0.8333
B( 14-C , 22-H ) :   1.0220 B( 14-C , 23-H ) :   1.0219 B( 14-C , 24-H ) :   1.0131

MP2 TOTAL ENERGY:     -781.871916282 Eh
FINAL SINGLE POINT ENERGY      -781.871916282363

DIPOLE MOMENT
-------------
                                X             Y             Z
Electronic contribution:      0.00000       0.36944       0.00012
Nuclear contribution   :     -0.00000       1.02010      -0.00021
                        -----------------------------------------
Total Dipole Moment    :      0.00000       1.38954      -0.00008
                        -----------------------------------------
Magnitude (a.u.)       :      1.38954
Magnitude (Debye)      :      3.53193

Rotational constants in cm-1:     0.024406     0.012258     0.008209
Rotational constants in MHz :   731.663338   367.471342   246.104951

                             ****ORCA TERMINATED NORMALLY****
TOTAL RUN TIME: 0 days 3 hours 13 minutes 0 seconds 703 msec
