                         Program Version 4.2.1 -  RELEASE  -
|  1> %pal
|  2>  nprocs 32
|  3> end
|  4> !RI-MP2 aug-cc-pVQZ aug-cc-pVQZ/C TightSCF
|  5> %maxcore 4500
|  6> *xyzfile -1 1  08_9TS.xyz
|  7>
|  8>
|  9>                          ****END OF INPUT****

CARTESIAN COORDINATES (ANGSTROEM)
---------------------------------
  N     -3.362127   -1.690786    1.455408
  C     -2.219146   -1.173149    1.886744
  N     -1.649336   -0.201174    1.122562
  C     -2.515961   -0.088520    0.086329
  C     -3.564054   -0.999668    0.290448
  C     -4.565027   -1.049066   -0.668263
  N     -2.466252    0.717948   -0.995735
  C     -3.481847    0.572368   -1.832222
  N     -4.522851   -0.263572   -1.729576
  C      0.763493   -0.334856    0.591134
  C      1.224458    0.535101    1.735791
  O      0.747555    0.254781   -0.526972
  H      0.462831   -1.365051    0.637997
  C      1.248611    1.948932    1.081424
  C      1.314399    1.627731   -0.413814
  C      0.558933    2.509836   -1.380040
  H      2.351468    1.493478   -0.736958
  O      2.769334   -1.426034    0.428693
  P      3.884546   -1.076932   -0.512864
  O      3.966966    0.291910   -1.126765
  O      5.266897   -1.430261    0.277144
  O      3.936865   -2.164259   -1.744958
  O     -0.767263    2.786945   -0.993686
  H      0.598365    2.044199   -2.370824
  H      1.090762    3.462936   -1.441904
  H     -1.354212    1.978383   -1.081018
  O      0.144128    2.712326    1.491977
  H      2.159508    2.473132    1.377623
  H     -0.445837    2.848272    0.726100
  O      0.463673    0.434299    2.888936
  H      2.235126    0.198430    1.961187
  H     -0.427511    0.723706    2.635538
  H     -1.744592   -1.502029    2.802473
  H     -3.475618    1.210488   -2.710231
  H      6.022331   -1.082885   -0.205330
  H      3.777257   -1.693939   -2.567595
  O     -5.606443   -1.894429   -0.549331
  H     -5.470953   -2.386554    0.271809

 Total Charge           Charge          ....   -1
 Multiplicity           Mult            ....    1
 Number of Electrons    NEL             ....  190
 Basis Dimension        Dim             .... 2568

ORBITAL ENERGIES
----------------

  NO   OCC          E(Eh)            E(eV)
   0   2.0000     -79.943001     -2175.3596
   1   2.0000     -20.548530      -559.1539
   2   2.0000     -20.505192      -557.9746
   3   2.0000     -20.465439      -556.8929
   4   2.0000     -20.463588      -556.8425
   5   2.0000     -20.460067      -556.7467
   6   2.0000     -20.453680      -556.5729
   7   2.0000     -20.451744      -556.5202
   8   2.0000     -20.378596      -554.5298
   9   2.0000     -20.375344      -554.4413
  10   2.0000     -15.462533      -420.7569
  11   2.0000     -15.452547      -420.4852
  12   2.0000     -15.435868      -420.0313
  13   2.0000     -15.434680      -419.9990
  14   2.0000     -11.295779      -307.3738
  15   2.0000     -11.247427      -306.0580
  16   2.0000     -11.212006      -305.0942
  17   2.0000     -11.208223      -304.9912
  18   2.0000     -11.205911      -304.9283
  19   2.0000     -11.203416      -304.8604
  20   2.0000     -11.199290      -304.7482
  21   2.0000     -11.186960      -304.4127
  22   2.0000     -11.182301      -304.2859
  23   2.0000     -11.134617      -302.9883
  24   2.0000      -7.459257      -202.9767
  25   2.0000      -5.358567      -145.8140
  26   2.0000      -5.357850      -145.7945
  27   2.0000      -5.356552      -145.7592
  28   2.0000      -1.402749       -38.1707
  29   2.0000      -1.335160       -36.3316
  30   2.0000      -1.296485       -35.2792
  31   2.0000      -1.292727       -35.1769
  32   2.0000      -1.274861       -34.6907
  33   2.0000      -1.251967       -34.0678
  34   2.0000      -1.240676       -33.7605
  35   2.0000      -1.227644       -33.4059
  36   2.0000      -1.178872       -32.0787
  37   2.0000      -1.177318       -32.0364
  38   2.0000      -1.142998       -31.1026
  39   2.0000      -1.089580       -29.6490
  40   2.0000      -1.024294       -27.8725
  41   2.0000      -0.980876       -26.6910
  42   2.0000      -0.946457       -25.7544
  43   2.0000      -0.922504       -25.1026
  44   2.0000      -0.832437       -22.6518
  45   2.0000      -0.790898       -21.5214
  46   2.0000      -0.762234       -20.7414
  47   2.0000      -0.753729       -20.5100
  48   2.0000      -0.726407       -19.7665
  49   2.0000      -0.702695       -19.1213
  50   2.0000      -0.690293       -18.7838
  51   2.0000      -0.667710       -18.1693
  52   2.0000      -0.655823       -17.8459
  53   2.0000      -0.633707       -17.2440
  54   2.0000      -0.620055       -16.8725
  55   2.0000      -0.617823       -16.8118
  56   2.0000      -0.603420       -16.4199
  57   2.0000      -0.599497       -16.3131
  58   2.0000      -0.563348       -15.3295
  59   2.0000      -0.558558       -15.1991
  60   2.0000      -0.554754       -15.0956
  61   2.0000      -0.544165       -14.8075
  62   2.0000      -0.535265       -14.5653
  63   2.0000      -0.529492       -14.4082
  64   2.0000      -0.521328       -14.1861
  65   2.0000      -0.517813       -14.0904
  66   2.0000      -0.510729       -13.8976
  67   2.0000      -0.506820       -13.7913
  68   2.0000      -0.498842       -13.5742
  69   2.0000      -0.494387       -13.4530
  70   2.0000      -0.486768       -13.2456
  71   2.0000      -0.472560       -12.8590
  72   2.0000      -0.468669       -12.7531
  73   2.0000      -0.460095       -12.5198
  74   2.0000      -0.442767       -12.0483
  75   2.0000      -0.435294       -11.8450
  76   2.0000      -0.434199       -11.8151
  77   2.0000      -0.416493       -11.3334
  78   2.0000      -0.414773       -11.2866
  79   2.0000      -0.408579       -11.1180
  80   2.0000      -0.400666       -10.9027
  81   2.0000      -0.393887       -10.7182
  82   2.0000      -0.387030       -10.5316
  83   2.0000      -0.366609        -9.9759
  84   2.0000      -0.351792        -9.5727
  85   2.0000      -0.350809        -9.5460
  86   2.0000      -0.346682        -9.4337
  87   2.0000      -0.333910        -9.0862
  88   2.0000      -0.329741        -8.9727
  89   2.0000      -0.326197        -8.8763
  90   2.0000      -0.325104        -8.8465
  91   2.0000      -0.311803        -8.4846
  92   2.0000      -0.308035        -8.3821
  93   2.0000      -0.246697        -6.7130
  94   2.0000      -0.203870        -5.5476
  95   0.0000       0.089903         2.4464
  96   0.0000       0.095495         2.5986
  97   0.0000       0.097711         2.6588
  98   0.0000       0.099843         2.7169
  99   0.0000       0.104162         2.8344

MULLIKEN ATOMIC CHARGES
-----------------------
   0 N :   -1.103877
   1 C :    0.210790
   2 N :   -0.569700
   3 C :    0.775475
   4 C :   -0.617047
   5 C :    1.665321
   6 N :   -0.680645
   7 C :    0.088644
   8 N :   -0.964820
   9 C :    0.615869
  10 C :    0.808184
  11 O :   -0.984151
  12 H :    0.478681
  13 C :    0.276915
  14 C :   -0.049644
  15 C :   -0.134362
  16 H :    0.597070
  17 O :   -1.452096
  18 P :    2.981842
  19 O :   -1.395705
  20 O :   -0.994900
  21 O :   -0.988202
  22 O :   -0.979493
  23 H :    0.244205
  24 H :    0.301465
  25 H :    0.348870
  26 O :   -1.239650
  27 H :    0.392920
  28 H :    0.449882
  29 O :   -1.371772
  30 H :    0.462936
  31 H :    0.492195
  32 H :    0.552315
  33 H :    0.559394
  34 H :    0.367277
  35 H :    0.353548
  36 O :   -0.888178
  37 H :    0.390445
Sum of atomic charges:   -1.0000000

LOEWDIN ATOMIC CHARGES
----------------------
   0 N :    0.576525
   1 C :   -0.189388
   2 N :    0.539007
   3 C :   -0.658689
   4 C :   -0.511986
   5 C :   -0.723065
   6 N :    0.633349
   7 C :   -0.149881
   8 N :    0.558570
   9 C :   -0.157781
  10 C :   -0.216673
  11 O :    0.992352
  12 H :   -0.319065
  13 C :   -0.176408
  14 C :   -0.124528
  15 C :    0.235495
  16 H :   -0.481229
  17 O :    0.357872
  18 P :   -1.182514
  19 O :    0.344185
  20 O :    1.039068
  21 O :    1.047413
  22 O :    1.322549
  23 H :   -0.281574
  24 H :   -0.293594
  25 H :   -1.006535
  26 O :    1.318018
  27 H :   -0.284605
  28 H :   -1.033478
  29 O :    1.317022
  30 H :   -0.374367
  31 H :   -0.945101
  32 H :   -0.351839
  33 H :   -0.377111
  34 H :   -0.920891
  35 H :   -0.944464
  36 O :    1.260906
  37 H :   -0.837565

  Mayer bond orders larger than 0.100000
B(  0-N ,  1-C ) :   1.0261 B(  0-N ,  3-C ) :   0.3564 B(  0-N ,  4-C ) :   0.4198
B(  0-N , 32-H ) :  -0.1263 B(  1-C ,  2-N ) :   1.5497 B(  1-C ,  3-C ) :   0.1314
B(  1-C , 32-H ) :   0.7132 B(  2-N ,  3-C ) :   1.2929 B(  2-N ,  4-C ) :  -0.1438
B(  2-N ,  6-N ) :   0.1370 B(  2-N ,  9-C ) :   0.1054 B(  3-C ,  4-C ) :   1.1028
B(  3-C ,  5-C ) :  -0.2501 B(  3-C ,  6-N ) :   1.1313 B(  3-C ,  8-N ) :   0.1100
B(  4-C ,  5-C ) :   1.4726 B(  4-C ,  7-C ) :   0.1663 B(  4-C , 36-O ) :   0.6459
B(  5-C ,  8-N ) :   1.0955 B(  6-N ,  7-C ) :   1.6278 B(  6-N , 25-H ) :   0.1876
B(  7-C ,  8-N ) :   1.0651 B(  7-C , 33-H ) :   0.7200 B(  8-N , 36-O ) :   0.1774
B(  9-C , 10-C ) :   1.0423 B(  9-C , 11-O ) :   0.7326 B(  9-C , 12-H ) :   0.6794
B(  9-C , 14-C ) :  -0.1190 B(  9-C , 17-O ) :  -0.2042 B(  9-C , 29-O ) :   0.2103
B( 10-C , 12-H ) :   0.1136 B( 10-C , 13-C ) :   1.1309 B( 10-C , 29-O ) :  -0.1270
B( 10-C , 30-H ) :   0.7424 B( 11-O , 14-C ) :   0.7151 B( 13-C , 14-C ) :   1.0099
B( 13-C , 26-O ) :   0.2587 B( 13-C , 27-H ) :   0.8542 B( 13-C , 29-O ) :   0.2629
B( 14-C , 15-C ) :   0.4754 B( 14-C , 16-H ) :   0.5742 B( 14-C , 19-O ) :  -0.2027
B( 14-C , 23-H ) :  -0.1666 B( 14-C , 24-H ) :  -0.1063 B( 15-C , 22-O ) :   0.5972
B( 15-C , 23-H ) :   1.1150 B( 15-C , 24-H ) :   1.0295 B( 15-C , 25-H ) :   0.1056
B( 17-O , 18-P ) :   1.0610 B( 18-P , 19-O ) :   1.1781 B( 18-P , 20-O ) :   0.3074
B( 18-P , 21-O ) :   0.2911 B( 20-O , 34-H ) :   0.9065 B( 21-O , 35-H ) :   0.9108
B( 22-O , 25-H ) :   0.7133 B( 26-O , 28-H ) :   0.7443 B( 29-O , 31-H ) :   0.6521
B( 36-O , 37-H ) :   0.8240

MP2 TOTAL ENERGY:    -1624.987782818 Eh
FINAL SINGLE POINT ENERGY     -1624.987782818287

DIPOLE MOMENT
-------------
                                X             Y             Z
Electronic contribution:     -1.47093      -8.13430      -0.50171
Nuclear contribution   :      2.11985       9.14850      -0.20534
                        -----------------------------------------
Total Dipole Moment    :      0.64892       1.01420      -0.70705
                        -----------------------------------------
Magnitude (a.u.)       :      1.39629
Magnitude (Debye)      :      3.54908

Rotational constants in cm-1:     0.012226     0.004125     0.003938
Rotational constants in MHz :   366.526828   123.662004   118.053493

                             ****ORCA TERMINATED NORMALLY****
TOTAL RUN TIME: 0 days 8 hours 0 minutes 52 seconds 973 msec
