                         Program Version 4.2.1 -  RELEASE  -
|  1> %pal
|  2>  nprocs 32
|  3> end
|  4> !RI-MP2 aug-cc-pVQZ aug-cc-pVQZ/C TightSCF
|  5> %maxcore 4500
|  6> *xyzfile 0 1  02_31R1.xyz
|  7>
|  8>
|  9>                          ****END OF INPUT****

CARTESIAN COORDINATES (ANGSTROEM)
---------------------------------
  C     -0.207372    1.876458   -0.791156
  C      0.039483    1.864940    0.601155
  C     -0.124108    3.052047    1.301945
  C     -0.504554    4.222575    0.655950
  C     -0.729386    4.223304   -0.713361
  C     -0.583538    3.050194   -1.437013
  H      0.057967    3.064137    2.370849
  H     -0.620987    5.137019    1.224989
  H     -1.022530    5.136157   -1.217000
  H     -0.765385    3.033181   -2.504164
  C     -0.079158    0.596969   -1.402507
  C      0.079158   -0.596969   -1.402507
  C      0.207372   -1.876458   -0.791156
  C      0.583538   -3.050194   -1.437013
  C     -0.039483   -1.864940    0.601155
  C      0.729386   -4.223304   -0.713361
  H      0.765385   -3.033181   -2.504164
  C      0.124108   -3.052047    1.301945
  C      0.504554   -4.222575    0.655950
  H      1.022530   -5.136157   -1.217000
  H     -0.057967   -3.064137    2.370849
  H      0.620987   -5.137019    1.224989
  C     -0.504554   -0.598835    1.284873
  H     -1.432785   -0.273821    0.808646
  H     -0.758528   -0.843371    2.317365
  C      0.504554    0.598835    1.284873
  H      1.432785    0.273821    0.808646
  H      0.758528    0.843371    2.317365

 Total Charge           Charge          ....    0
 Multiplicity           Mult            ....    1
 Number of Electrons    NEL             ....  108
 Basis Dimension        Dim             .... 1832

ORBITAL ENERGIES
----------------

  NO   OCC          E(Eh)            E(eV)
   0   2.0000     -11.258417      -306.3571
   1   2.0000     -11.258416      -306.3571
   2   2.0000     -11.248879      -306.0976
   3   2.0000     -11.248876      -306.0975
   4   2.0000     -11.240940      -305.8815
   5   2.0000     -11.240940      -305.8815
   6   2.0000     -11.238958      -305.8276
   7   2.0000     -11.238958      -305.8276
   8   2.0000     -11.234977      -305.7193
   9   2.0000     -11.234977      -305.7193
  10   2.0000     -11.234393      -305.7034
  11   2.0000     -11.234377      -305.7030
  12   2.0000     -11.234349      -305.7022
  13   2.0000     -11.233846      -305.6885
  14   2.0000     -11.229436      -305.5685
  15   2.0000     -11.225616      -305.4646
  16   2.0000      -1.180027       -32.1102
  17   2.0000      -1.166663       -31.7465
  18   2.0000      -1.091892       -29.7119
  19   2.0000      -1.064172       -28.9576
  20   2.0000      -1.044875       -28.4325
  21   2.0000      -1.033142       -28.1132
  22   2.0000      -0.994432       -27.0599
  23   2.0000      -0.963886       -26.2287
  24   2.0000      -0.894596       -24.3432
  25   2.0000      -0.854884       -23.2626
  26   2.0000      -0.832112       -22.6429
  27   2.0000      -0.813367       -22.1329
  28   2.0000      -0.796037       -21.6613
  29   2.0000      -0.729892       -19.8614
  30   2.0000      -0.707740       -19.2586
  31   2.0000      -0.666256       -18.1298
  32   2.0000      -0.663086       -18.0435
  33   2.0000      -0.645748       -17.5717
  34   2.0000      -0.641909       -17.4672
  35   2.0000      -0.611441       -16.6382
  36   2.0000      -0.599360       -16.3094
  37   2.0000      -0.598893       -16.2967
  38   2.0000      -0.584034       -15.8924
  39   2.0000      -0.561816       -15.2878
  40   2.0000      -0.546944       -14.8831
  41   2.0000      -0.541591       -14.7374
  42   2.0000      -0.518839       -14.1183
  43   2.0000      -0.511005       -13.9052
  44   2.0000      -0.503912       -13.7122
  45   2.0000      -0.490633       -13.3508
  46   2.0000      -0.481129       -13.0922
  47   2.0000      -0.480358       -13.0712
  48   2.0000      -0.439135       -11.9495
  49   2.0000      -0.390666       -10.6306
  50   2.0000      -0.353396        -9.6164
  51   2.0000      -0.341500        -9.2927
  52   2.0000      -0.332594        -9.0503
  53   2.0000      -0.290320        -7.9000
  54   0.0000       0.022427         0.6103
  55   0.0000       0.024170         0.6577
  56   0.0000       0.026908         0.7322
  57   0.0000       0.032806         0.8927
  58   0.0000       0.034524         0.9394

MULLIKEN ATOMIC CHARGES
-----------------------
   0 C :    0.296695
   1 C :    0.697902
   2 C :   -0.751659
   3 C :   -0.311143
   4 C :   -0.439101
   5 C :   -0.450357
   6 H :    0.192633
   7 H :    0.259314
   8 H :    0.257667
   9 H :    0.275011
  10 C :   -0.029855
  11 C :   -0.030479
  12 C :    0.295614
  13 C :   -0.450097
  14 C :    0.697033
  15 C :   -0.439403
  16 H :    0.275247
  17 C :   -0.752257
  18 C :   -0.310479
  19 H :    0.257858
  20 H :    0.192697
  21 H :    0.259419
  22 C :   -0.536530
  23 H :    0.300577
  24 H :    0.240008
  25 C :   -0.536922
  26 H :    0.300654
  27 H :    0.239950
Sum of atomic charges:   -0.0000000

LOEWDIN ATOMIC CHARGES
----------------------
   0 C :   -0.160908
   1 C :   -0.068298
   2 C :    0.365857
   3 C :    0.351424
   4 C :    0.344516
   5 C :    0.336996
   6 H :   -0.316212
   7 H :   -0.318908
   8 H :   -0.321671
   9 H :   -0.315264
  10 C :    0.147054
  11 C :    0.147055
  12 C :   -0.160908
  13 C :    0.336996
  14 C :   -0.068298
  15 C :    0.344516
  16 H :   -0.315264
  17 C :    0.365857
  18 C :    0.351425
  19 H :   -0.321671
  20 H :   -0.316212
  21 H :   -0.318908
  22 C :    0.535909
  23 H :   -0.288364
  24 H :   -0.292132
  25 C :    0.535909
  26 H :   -0.288364
  27 H :   -0.292132

  Mayer bond orders larger than 0.100000
B(  0-C ,  1-C ) :   0.9627 B(  0-C ,  2-C ) :  -0.1858 B(  0-C ,  3-C ) :   0.1879
B(  0-C ,  4-C ) :  -0.2986 B(  0-C ,  5-C ) :   1.2222 B(  0-C ,  9-H ) :  -0.1019
B(  0-C , 10-C ) :   0.6117 B(  0-C , 11-C ) :  -0.7444 B(  0-C , 12-C ) :   0.2063
B(  0-C , 25-C ) :  -0.1127 B(  1-C ,  2-C ) :   0.7970 B(  1-C ,  3-C ) :  -0.4134
B(  1-C ,  5-C ) :  -0.2299 B(  1-C ,  6-H ) :  -0.1185 B(  1-C , 10-C ) :  -0.2946
B(  1-C , 22-C ) :  -0.1862 B(  1-C , 25-C ) :   0.6739 B(  1-C , 27-H ) :  -0.1341
B(  2-C ,  3-C ) :   1.3032 B(  2-C ,  4-C ) :   0.1585 B(  2-C ,  5-C ) :   0.1769
B(  2-C ,  6-H ) :   1.1176 B(  2-C ,  7-H ) :  -0.1826 B(  2-C , 25-C ) :  -0.1676
B(  3-C ,  4-C ) :   1.2101 B(  3-C ,  7-H ) :   1.1267 B(  3-C , 10-C ) :  -0.1095
B(  4-C ,  5-C ) :   1.2931 B(  4-C ,  7-H ) :  -0.1122 B(  4-C ,  8-H ) :   1.1265
B(  5-C ,  8-H ) :  -0.1547 B(  5-C ,  9-H ) :   0.9880 B(  5-C , 10-C ) :  -0.4660
B(  5-C , 11-C ) :   0.1079 B( 10-C , 11-C ) :   3.1941 B( 10-C , 12-C ) :  -0.7453
B( 10-C , 13-C ) :   0.1082 B( 11-C , 12-C ) :   0.6083 B( 11-C , 13-C ) :  -0.4654
B( 11-C , 14-C ) :  -0.2938 B( 11-C , 18-C ) :  -0.1093 B( 12-C , 13-C ) :   1.2230
B( 12-C , 14-C ) :   0.9638 B( 12-C , 15-C ) :  -0.2978 B( 12-C , 16-H ) :  -0.1018
B( 12-C , 17-C ) :  -0.1852 B( 12-C , 18-C ) :   0.1874 B( 12-C , 22-C ) :  -0.1123
B( 13-C , 14-C ) :  -0.2303 B( 13-C , 15-C ) :   1.2935 B( 13-C , 16-H ) :   0.9875
B( 13-C , 17-C ) :   0.1768 B( 13-C , 19-H ) :  -0.1546 B( 14-C , 17-C ) :   0.7983
B( 14-C , 18-C ) :  -0.4135 B( 14-C , 20-H ) :  -0.1184 B( 14-C , 22-C ) :   0.6739
B( 14-C , 24-H ) :  -0.1343 B( 14-C , 25-C ) :  -0.1853 B( 15-C , 17-C ) :   0.1583
B( 15-C , 18-C ) :   1.2101 B( 15-C , 19-H ) :   1.1262 B( 15-C , 21-H ) :  -0.1120
B( 17-C , 18-C ) :   1.3022 B( 17-C , 20-H ) :   1.1175 B( 17-C , 21-H ) :  -0.1827
B( 17-C , 22-C ) :  -0.1680 B( 18-C , 21-H ) :   1.1267 B( 22-C , 23-H ) :   0.8852
B( 22-C , 24-H ) :   1.0177 B( 22-C , 25-C ) :   1.2742 B( 25-C , 26-H ) :   0.8851
B( 25-C , 27-H ) :   1.0176

MP2 TOTAL ENERGY:     -615.738498978 Eh
FINAL SINGLE POINT ENERGY      -615.738498978495

DIPOLE MOMENT
-------------
                                X             Y             Z
Electronic contribution:     -0.00000       0.00000      -5.33416
Nuclear contribution   :      0.00000      -0.00000       5.95906
                        -----------------------------------------
Total Dipole Moment    :     -0.00000       0.00000       0.62490
                        -----------------------------------------
Magnitude (a.u.)       :      0.62490
Magnitude (Debye)      :      1.58837

Rotational constants in cm-1:     0.059066     0.010041     0.008760
Rotational constants in MHz :  1770.748849   301.010933   262.607050

                             ****ORCA TERMINATED NORMALLY****
TOTAL RUN TIME: 0 days 3 hours 28 minutes 41 seconds 633 msec
