                         Program Version 4.2.1 -  RELEASE  -
|  1> %pal
|  2>  nprocs 32
|  3> end
|  4> !RI-MP2 aug-cc-pVQZ aug-cc-pVQZ/C TightSCF
|  5> %maxcore 4500
|  6> *xyzfile 0 1  10_64P.xyz
|  7>
|  8>
|  9>                          ****END OF INPUT****

CARTESIAN COORDINATES (ANGSTROEM)
---------------------------------
  C      0.565476    0.234457    0.054422
  C     -0.396540    1.396929   -0.036986
  C     -0.057892   -1.133176    0.180768
  C     -0.934491    1.524117   -1.435796
  C     -0.509185   -1.626142   -1.166448
  C     -1.158010    0.545237   -2.316264
  C     -0.961399   -0.901907   -2.193518
  H     -1.172868    2.538131   -1.739982
  H     -1.559931    0.852520   -3.276677
  H     -1.243176   -1.458502   -3.081880
  H     -0.459654   -2.702544   -1.294298
  C     -1.240146   -1.082801    1.218600
  C     -1.545292    1.229168    1.024609
  H      0.137936    2.317023    0.198898
  C     -2.249941   -0.073125    0.730306
  C     -0.905929    0.915281    2.363891
  H     -2.172885    2.117668    1.018594
  C     -0.733260   -0.399070    2.474080
  H     -0.566293    1.668374    3.063140
  H     -0.227133   -0.913982    3.280446
  C     -3.438478   -0.276142    0.173757
  C     -4.002099   -1.646254   -0.078039
  C     -4.330050    0.842239   -0.287178
  H     -3.922939    1.828979   -0.077392
  H     -5.313458    0.769864    0.187486
  H     -4.492353    0.772806   -1.367236
  H     -3.358342   -2.446605    0.280249
  H     -4.154889   -1.798293   -1.150993
  H     -4.980284   -1.753178    0.400903
  C      1.896183    0.446678   -0.022993
  C      2.388035    1.787675   -0.158634
  N      2.749545    2.872645   -0.268147
  C      2.933886   -0.622604    0.006662
  O      2.739631   -1.811785    0.033474
  O      4.157774   -0.087563   -0.003723
  C      5.249347   -1.011493    0.008572
  H      5.220845   -1.618885    0.912815
  H      5.202225   -1.663473   -0.863186
  H      6.146241   -0.399290   -0.015937
  H      0.688917   -1.828319    0.550836
  H     -1.619326   -2.090428    1.374368

 Total Charge           Charge          ....    0
 Multiplicity           Mult            ....    1
 Number of Electrons    NEL             ....  156
 Basis Dimension        Dim             .... 2634

ORBITAL ENERGIES
----------------

  NO   OCC          E(Eh)            E(eV)
   0   2.0000     -20.607376      -560.7552
   1   2.0000     -20.547048      -559.1136
   2   2.0000     -15.556036      -423.3013
   3   2.0000     -11.394617      -310.0633
   4   2.0000     -11.303111      -307.5733
   5   2.0000     -11.287685      -307.1535
   6   2.0000     -11.276006      -306.8357
   7   2.0000     -11.265712      -306.5556
   8   2.0000     -11.259204      -306.3785
   9   2.0000     -11.252562      -306.1978
  10   2.0000     -11.251283      -306.1630
  11   2.0000     -11.249882      -306.1249
  12   2.0000     -11.244159      -305.9691
  13   2.0000     -11.243698      -305.9566
  14   2.0000     -11.239895      -305.8531
  15   2.0000     -11.238204      -305.8071
  16   2.0000     -11.238090      -305.8040
  17   2.0000     -11.236319      -305.7558
  18   2.0000     -11.234447      -305.7049
  19   2.0000     -11.225658      -305.4657
  20   2.0000     -11.220920      -305.3368
  21   2.0000     -11.220853      -305.3349
  22   2.0000      -1.474786       -40.1310
  23   2.0000      -1.369654       -37.2702
  24   2.0000      -1.221812       -33.2472
  25   2.0000      -1.206026       -32.8176
  26   2.0000      -1.137639       -30.9567
  27   2.0000      -1.098583       -29.8940
  28   2.0000      -1.084106       -29.5000
  29   2.0000      -1.082614       -29.4594
  30   2.0000      -1.023509       -27.8511
  31   2.0000      -0.986782       -26.8517
  32   2.0000      -0.978840       -26.6356
  33   2.0000      -0.950533       -25.8653
  34   2.0000      -0.943463       -25.6729
  35   2.0000      -0.886186       -24.1143
  36   2.0000      -0.866812       -23.5871
  37   2.0000      -0.847074       -23.0500
  38   2.0000      -0.802315       -21.8321
  39   2.0000      -0.769671       -20.9438
  40   2.0000      -0.760478       -20.6937
  41   2.0000      -0.741126       -20.1671
  42   2.0000      -0.733467       -19.9586
  43   2.0000      -0.696379       -18.9494
  44   2.0000      -0.689958       -18.7747
  45   2.0000      -0.681565       -18.5463
  46   2.0000      -0.677047       -18.4234
  47   2.0000      -0.668907       -18.2019
  48   2.0000      -0.648207       -17.6386
  49   2.0000      -0.626669       -17.0525
  50   2.0000      -0.617352       -16.7990
  51   2.0000      -0.609094       -16.5743
  52   2.0000      -0.599395       -16.3104
  53   2.0000      -0.588191       -16.0055
  54   2.0000      -0.581613       -15.8265
  55   2.0000      -0.574251       -15.6262
  56   2.0000      -0.563755       -15.3406
  57   2.0000      -0.554474       -15.0880
  58   2.0000      -0.553178       -15.0527
  59   2.0000      -0.543860       -14.7992
  60   2.0000      -0.538567       -14.6551
  61   2.0000      -0.536717       -14.6048
  62   2.0000      -0.534296       -14.5389
  63   2.0000      -0.522945       -14.2301
  64   2.0000      -0.516036       -14.0420
  65   2.0000      -0.509702       -13.8697
  66   2.0000      -0.505087       -13.7441
  67   2.0000      -0.490128       -13.3371
  68   2.0000      -0.482976       -13.1425
  69   2.0000      -0.472095       -12.8464
  70   2.0000      -0.469695       -12.7811
  71   2.0000      -0.454297       -12.3620
  72   2.0000      -0.442392       -12.0381
  73   2.0000      -0.429791       -11.6952
  74   2.0000      -0.376663       -10.2495
  75   2.0000      -0.358145        -9.7456
  76   2.0000      -0.334249        -9.0954
  77   2.0000      -0.323166        -8.7938
  78   0.0000       0.018312         0.4983
  79   0.0000       0.023873         0.6496
  80   0.0000       0.025300         0.6885
  81   0.0000       0.026795         0.7291
  82   0.0000       0.032309         0.8792

MULLIKEN ATOMIC CHARGES
-----------------------
   0 C :    0.254993
   1 C :    0.387250
   2 C :    0.396954
   3 C :   -0.380837
   4 C :   -0.387529
   5 C :   -0.175851
   6 C :   -0.125768
   7 H :    0.061911
   8 H :    0.140718
   9 H :    0.173908
  10 H :    0.063496
  11 C :    0.167204
  12 C :    0.037636
  13 H :    0.364389
  14 C :    0.781751
  15 C :   -0.542233
  16 H :    0.220735
  17 C :   -0.609161
  18 H :    0.189491
  19 H :    0.185488
  20 C :    0.312059
  21 C :   -1.161635
  22 C :   -1.171219
  23 H :    0.252833
  24 H :    0.282420
  25 H :    0.148343
  26 H :    0.259632
  27 H :    0.154037
  28 H :    0.282264
  29 C :   -0.954543
  30 C :    0.621214
  31 N :   -1.080928
  32 C :    1.991905
  33 O :   -1.076100
  34 O :   -0.872238
  35 C :   -0.899241
  36 H :    0.346315
  37 H :    0.361575
  38 H :    0.439720
  39 H :    0.355372
  40 H :    0.203671
Sum of atomic charges:    0.0000000

LOEWDIN ATOMIC CHARGES
----------------------
   0 C :   -0.085934
   1 C :    0.119142
   2 C :    0.128502
   3 C :    0.416764
   4 C :    0.416720
   5 C :    0.393819
   6 C :    0.394979
   7 H :   -0.290622
   8 H :   -0.334473
   9 H :   -0.335522
  10 H :   -0.289631
  11 C :    0.125145
  12 C :    0.125844
  13 H :   -0.358173
  14 C :   -0.073108
  15 C :    0.437135
  16 H :   -0.273200
  17 C :    0.436568
  18 H :   -0.267140
  19 H :   -0.267167
  20 C :    0.007346
  21 C :    0.915789
  22 C :    0.915788
  23 H :   -0.317340
  24 H :   -0.271226
  25 H :   -0.272525
  26 H :   -0.317411
  27 H :   -0.272562
  28 H :   -0.271215
  29 C :   -0.131290
  30 C :   -0.372768
  31 N :    0.469688
  32 C :   -1.076065
  33 O :    0.780834
  34 O :    0.840397
  35 C :    0.594198
  36 H :   -0.311832
  37 H :   -0.312774
  38 H :   -0.317759
  39 H :   -0.424908
  40 H :   -0.274013

  Mayer bond orders larger than 0.100000
B(  0-C ,  1-C ) :  -0.1741 B(  0-C ,  2-C ) :  -0.1895 B(  0-C ,  4-C ) :   0.1981
B(  0-C , 13-H ) :  -0.1781 B(  0-C , 14-C ) :   0.1227 B(  0-C , 29-C ) :   1.5847
B(  0-C , 30-C ) :  -0.4487 B(  0-C , 32-C ) :   0.3562 B(  0-C , 33-O ) :  -0.1706
B(  0-C , 34-O ) :   0.1217 B(  0-C , 39-H ) :  -0.2565 B(  1-C ,  2-C ) :   0.1781
B(  1-C ,  3-C ) :   0.9049 B(  1-C ,  5-C ) :  -0.1068 B(  1-C , 12-C ) :   0.8400
B(  1-C , 13-H ) :   0.9008 B(  1-C , 14-C ) :  -0.1533 B(  1-C , 15-C ) :   0.1085
B(  1-C , 29-C ) :  -0.2110 B(  2-C ,  4-C ) :   0.7812 B(  2-C , 11-C ) :   0.8420
B(  2-C , 14-C ) :  -0.1640 B(  2-C , 17-C ) :   0.1698 B(  2-C , 29-C ) :  -0.1165
B(  2-C , 32-C ) :  -0.1221 B(  2-C , 33-O ) :  -0.1845 B(  2-C , 39-H ) :   0.8675
B(  3-C ,  4-C ) :   0.2543 B(  3-C ,  5-C ) :   1.5637 B(  3-C ,  7-H ) :   1.2546
B(  3-C ,  8-H ) :  -0.1510 B(  4-C ,  6-C ) :   1.5965 B(  4-C ,  9-H ) :  -0.1396
B(  4-C , 10-H ) :   1.2472 B(  4-C , 11-C ) :   0.1005 B(  5-C ,  6-C ) :   0.7442
B(  5-C ,  7-H ) :  -0.1241 B(  5-C ,  8-H ) :   1.1721 B(  6-C ,  8-H ) :  -0.1002
B(  6-C ,  9-H ) :   1.1253 B( 11-C , 14-C ) :   0.7803 B( 11-C , 15-C ) :  -0.3814
B( 11-C , 17-C ) :   0.7142 B( 11-C , 19-H ) :  -0.1560 B( 11-C , 20-C ) :  -0.1804
B( 11-C , 26-H ) :  -0.1007 B( 11-C , 40-H ) :   1.0867 B( 12-C , 14-C ) :   0.7822
B( 12-C , 15-C ) :   0.8664 B( 12-C , 16-H ) :   1.0626 B( 12-C , 17-C ) :  -0.2739
B( 12-C , 18-H ) :  -0.1338 B( 12-C , 20-C ) :  -0.1589 B( 14-C , 20-C ) :   0.4579
B( 14-C , 23-H ) :   0.1187 B( 14-C , 26-H ) :   0.1294 B( 15-C , 16-H ) :  -0.1247
B( 15-C , 17-C ) :   1.6976 B( 15-C , 18-H ) :   1.2441 B( 15-C , 19-H ) :  -0.1049
B( 17-C , 18-H ) :  -0.1177 B( 17-C , 19-H ) :   1.2471 B( 17-C , 40-H ) :  -0.1116
B( 20-C , 21-C ) :   0.3989 B( 20-C , 22-C ) :   0.3833 B( 20-C , 23-H ) :  -0.1635
B( 20-C , 24-H ) :  -0.2076 B( 20-C , 25-H ) :  -0.1566 B( 20-C , 26-H ) :  -0.1728
B( 20-C , 27-H ) :  -0.1506 B( 20-C , 28-H ) :  -0.2104 B( 21-C , 26-H ) :   1.0947
B( 21-C , 27-H ) :   1.1563 B( 21-C , 28-H ) :   1.0900 B( 22-C , 23-H ) :   1.0989
B( 22-C , 24-H ) :   1.0877 B( 22-C , 25-H ) :   1.1652 B( 29-C , 30-C ) :   1.5363
B( 29-C , 32-C ) :   1.0430 B( 29-C , 33-O ) :   0.6634 B( 29-C , 34-O ) :   0.1528
B( 30-C , 31-N ) :   1.8984 B( 32-C , 33-O ) :   0.7511 B( 32-C , 34-O ) :   0.4567
B( 32-C , 35-C ) :  -0.2945 B( 33-O , 34-O ) :   0.2253 B( 33-O , 39-H ) :   0.1216
B( 34-O , 35-C ) :   0.9215 B( 35-C , 36-H ) :   0.9112 B( 35-C , 37-H ) :   0.8961
B( 35-C , 38-H ) :   0.8434

MP2 TOTAL ENERGY:     -938.990692269 Eh
FINAL SINGLE POINT ENERGY      -938.990692269067

DIPOLE MOMENT
-------------
                                X             Y             Z
Electronic contribution:     16.59629       4.78033       1.78733
Nuclear contribution   :    -17.69914      -5.81354      -1.59884
                        -----------------------------------------
Total Dipole Moment    :     -1.10285      -1.03322       0.18849
                        -----------------------------------------
Magnitude (a.u.)       :      1.52294
Magnitude (Debye)      :      3.87101

Rotational constants in cm-1:     0.019094     0.007022     0.006775
Rotational constants in MHz :   572.413455   210.510557   203.114823

                             ****ORCA TERMINATED NORMALLY****
TOTAL RUN TIME: 0 days 12 hours 22 minutes 54 seconds 913 msec
