                         Program Version 4.2.1 -  RELEASE  -
|  1> %pal
|  2>  nprocs 32
|  3> end
|  4> !RI-MP2 aug-cc-pVQZ aug-cc-pVQZ/C TightSCF
|  5> %maxcore 4500
|  6> *xyzfile 0 1  04_75R1.xyz
|  7>
|  8>
|  9>                          ****END OF INPUT****

CARTESIAN COORDINATES (ANGSTROEM)
---------------------------------
  C     -0.873220    0.913191    0.000005
  C      0.482043    1.237997   -0.000002
  C      1.416072    0.210744   -0.000010
  C      1.024078   -1.129445   -0.000012
  C     -0.329804   -1.425434   -0.000003
  C     -1.281751   -0.413475    0.000006
  H     -1.594607    1.718617    0.000011
  H     -0.668662   -2.454126   -0.000003
  O     -2.585279   -0.819203    0.000013
  O      2.739271    0.579498   -0.000021
  C      2.057732   -2.222277   -0.000025
  H      1.583507   -3.202786   -0.000017
  H      2.700918   -2.173124   -0.885198
  H      2.700943   -2.173124    0.885129
  C      0.945798    2.665702   -0.000001
  H      1.563445    2.876357   -0.875930
  H      0.097702    3.350823   -0.000003
  H      1.563439    2.876357    0.875933
  C     -3.588290    0.171629    0.000039
  H     -4.538076   -0.358912    0.000050
  H     -3.528124    0.802849   -0.892600
  H     -3.528093    0.802834    0.892685
  H      3.299716   -0.199912    0.000019

 Total Charge           Charge          ....    0
 Multiplicity           Mult            ....    1
 Number of Electrons    NEL             ....   82
 Basis Dimension        Dim             .... 1432

ORBITAL ENERGIES
----------------

  NO   OCC          E(Eh)            E(eV)
   0   2.0000     -20.577138      -559.9324
   1   2.0000     -20.573506      -559.8336
   2   2.0000     -11.284615      -307.0700
   3   2.0000     -11.277673      -306.8811
   4   2.0000     -11.277506      -306.8765
   5   2.0000     -11.239044      -305.8299
   6   2.0000     -11.234145      -305.6966
   7   2.0000     -11.233128      -305.6690
   8   2.0000     -11.221078      -305.3410
   9   2.0000     -11.218703      -305.2764
  10   2.0000     -11.214814      -305.1706
  11   2.0000      -1.402746       -38.1707
  12   2.0000      -1.394447       -37.9448
  13   2.0000      -1.149253       -31.2728
  14   2.0000      -1.064182       -28.9579
  15   2.0000      -1.023396       -27.8480
  16   2.0000      -0.950886       -25.8749
  17   2.0000      -0.943893       -25.6846
  18   2.0000      -0.916717       -24.9451
  19   2.0000      -0.807374       -21.9698
  20   2.0000      -0.795834       -21.6558
  21   2.0000      -0.729073       -19.8391
  22   2.0000      -0.695789       -18.9334
  23   2.0000      -0.679070       -18.4784
  24   2.0000      -0.650998       -17.7146
  25   2.0000      -0.613364       -16.6905
  26   2.0000      -0.608190       -16.5497
  27   2.0000      -0.586040       -15.9470
  28   2.0000      -0.584162       -15.8959
  29   2.0000      -0.572289       -15.5728
  30   2.0000      -0.569766       -15.5041
  31   2.0000      -0.553924       -15.0730
  32   2.0000      -0.543043       -14.7770
  33   2.0000      -0.531473       -14.4621
  34   2.0000      -0.520526       -14.1642
  35   2.0000      -0.511639       -13.9224
  36   2.0000      -0.503185       -13.6924
  37   2.0000      -0.471815       -12.8387
  38   2.0000      -0.440100       -11.9757
  39   2.0000      -0.328139        -8.9291
  40   2.0000      -0.286417        -7.7938
  41   0.0000       0.023624         0.6428
  42   0.0000       0.025389         0.6909
  43   0.0000       0.029927         0.8143
  44   0.0000       0.037128         1.0103
  45   0.0000       0.039828         1.0838

MULLIKEN ATOMIC CHARGES
-----------------------
   0 C :   -0.929097
   1 C :    0.246006
   2 C :    0.979686
   3 C :    0.249528
   4 C :   -0.969201
   5 C :    1.547226
   6 H :    0.252867
   7 H :    0.158755
   8 O :   -0.911242
   9 O :   -0.887877
  10 C :   -0.774128
  11 H :    0.209783
  12 H :    0.180554
  13 H :    0.180532
  14 C :   -0.896513
  15 H :    0.232976
  16 H :    0.236260
  17 H :    0.232975
  18 C :   -0.693829
  19 H :    0.489545
  20 H :    0.256541
  21 H :    0.256547
  22 H :    0.352108
Sum of atomic charges:   -0.0000000

LOEWDIN ATOMIC CHARGES
----------------------
   0 C :    0.329581
   1 C :   -0.088828
   2 C :   -0.418185
   3 C :   -0.072188
   4 C :    0.323004
   5 C :   -0.442229
   6 H :   -0.361782
   7 H :   -0.324473
   8 O :    0.875598
   9 O :    1.300710
  10 C :    0.909630
  11 H :   -0.300504
  12 H :   -0.271448
  13 H :   -0.271450
  14 C :    0.901751
  15 H :   -0.283078
  16 H :   -0.304903
  17 H :   -0.283077
  18 C :    0.563854
  19 H :   -0.318925
  20 H :   -0.305882
  21 H :   -0.305884
  22 H :   -0.851293

  Mayer bond orders larger than 0.100000
B(  0-C ,  1-C ) :   0.5514 B(  0-C ,  4-C ) :   0.2724 B(  0-C ,  5-C ) :   1.5376
B(  0-C ,  6-H ) :   0.9822 B(  0-C ,  8-O ) :   0.3515 B(  0-C , 14-C ) :  -0.2359
B(  0-C , 18-C ) :   0.1903 B(  1-C ,  2-C ) :   1.1630 B(  1-C ,  3-C ) :  -0.1869
B(  1-C ,  4-C ) :  -0.1050 B(  1-C ,  5-C ) :  -0.6702 B(  1-C ,  9-O ) :   0.4548
B(  1-C , 14-C ) :   0.7443 B(  1-C , 15-H ) :  -0.1186 B(  1-C , 17-H ) :  -0.1186
B(  2-C ,  3-C ) :   0.9700 B(  2-C ,  4-C ) :   0.1464 B(  2-C ,  5-C ) :   0.1424
B(  2-C ,  9-O ) :  -0.6056 B(  2-C , 10-C ) :  -0.1299 B(  2-C , 22-H ) :  -0.1793
B(  3-C ,  4-C ) :   1.0082 B(  3-C ,  5-C ) :  -0.6159 B(  3-C ,  9-O ) :   0.4740
B(  3-C , 10-C ) :   0.7660 B(  3-C , 11-H ) :  -0.1304 B(  3-C , 12-H ) :  -0.1269
B(  3-C , 13-H ) :  -0.1269 B(  4-C ,  5-C ) :   1.3109 B(  4-C ,  7-H ) :   1.0603
B(  4-C ,  8-O ) :   0.3015 B(  4-C , 10-C ) :  -0.2018 B(  5-C ,  6-H ) :  -0.1417
B(  5-C ,  7-H ) :  -0.1342 B(  5-C ,  8-O ) :  -0.2448 B(  5-C , 18-C ) :  -0.2063
B(  8-O , 18-C ) :   0.9417 B(  9-O , 22-H ) :   0.9400 B( 10-C , 11-H ) :   1.0767
B( 10-C , 12-H ) :   1.0507 B( 10-C , 13-H ) :   1.0508 B( 14-C , 15-H ) :   1.0067
B( 14-C , 16-H ) :   1.0807 B( 14-C , 17-H ) :   1.0067 B( 18-C , 19-H ) :   0.7620
B( 18-C , 20-H ) :   0.9188 B( 18-C , 21-H ) :   0.9188

MP2 TOTAL ENERGY:     -499.815608489 Eh
FINAL SINGLE POINT ENERGY      -499.815608489456

DIPOLE MOMENT
-------------
                                X             Y             Z
Electronic contribution:      0.34082      -1.98453      -0.00005
Nuclear contribution   :     -0.34957       1.88421       0.00008
                        -----------------------------------------
Total Dipole Moment    :     -0.00875      -0.10032       0.00003
                        -----------------------------------------
Magnitude (a.u.)       :      0.10070
Magnitude (Debye)      :      0.25596

Rotational constants in cm-1:     0.057264     0.028086     0.019045
Rotational constants in MHz :  1716.719483   841.993077   570.960323

                             ****ORCA TERMINATED NORMALLY****
TOTAL RUN TIME: 0 days 1 hours 16 minutes 47 seconds 145 msec
