                         Program Version 4.2.1 -  RELEASE  -
|  1> %pal
|  2>  nprocs 32
|  3> end
|  4> !RI-MP2 aug-cc-pVQZ aug-cc-pVQZ/C TightSCF
|  5> %maxcore 4500
|  6> *xyzfile -1 1  05_6P.xyz
|  7>
|  8>
|  9>                          ****END OF INPUT****

CARTESIAN COORDINATES (ANGSTROEM)
---------------------------------
  C      1.051874   -0.848598   -0.267729
  C      2.598645   -0.805502   -0.564168
  C      3.120016    0.372226    0.281378
  C      2.418841    1.718563    0.046113
  C      0.956912    1.612933   -0.274430
  C      0.312284    0.455326   -0.403339
  H      0.408475    2.545929   -0.392802
  C     -1.163475    0.438406   -0.717988
  C     -2.048393   -0.050235    0.440681
  H     -1.352218   -0.207194   -1.585352
  H     -1.502168    1.441778   -0.979784
  C     -3.516320    0.254910    0.114235
  O     -3.961146    1.368848    0.039359
  O     -4.251921   -0.836174   -0.097995
  N     -1.910568   -1.492712    0.686599
  H     -1.797263    0.538460    1.326851
  O      4.037141    0.320454    1.067845
  O      3.173485   -1.974283   -0.439530
  H     -3.620184   -1.580034    0.065611
  H     -1.074783   -1.863714    0.250474
  H     -1.841358   -1.697033    1.675761
  H      2.584233    2.337228    0.934522
  H      2.945797    2.222498   -0.774052
  H      0.961210   -1.262690    0.744536
  H      0.651768   -1.603074   -0.954904
  H      2.647697   -0.342098   -1.603003

 Total Charge           Charge          ....   -1
 Multiplicity           Mult            ....    1
 Number of Electrons    NEL             ....  106
 Basis Dimension        Dim             .... 1672

ORBITAL ENERGIES
----------------

  NO   OCC          E(Eh)            E(eV)
   0   2.0000     -20.508911      -558.0758
   1   2.0000     -20.448212      -556.4241
   2   2.0000     -20.388738      -554.8058
   3   2.0000     -20.249142      -551.0072
   4   2.0000     -15.485081      -421.3705
   5   2.0000     -11.285466      -307.0931
   6   2.0000     -11.197373      -304.6960
   7   2.0000     -11.163824      -303.7831
   8   2.0000     -11.146135      -303.3018
   9   2.0000     -11.125638      -302.7440
  10   2.0000     -11.117678      -302.5274
  11   2.0000     -11.111745      -302.3659
  12   2.0000     -11.105559      -302.1976
  13   2.0000     -11.088584      -301.7357
  14   2.0000      -1.369312       -37.2609
  15   2.0000      -1.271657       -34.6035
  16   2.0000      -1.231668       -33.5154
  17   2.0000      -1.130515       -30.7629
  18   2.0000      -1.077956       -29.3327
  19   2.0000      -1.007217       -27.4078
  20   2.0000      -0.934809       -25.4375
  21   2.0000      -0.873256       -23.7625
  22   2.0000      -0.832141       -22.6437
  23   2.0000      -0.780347       -21.2343
  24   2.0000      -0.717700       -19.5296
  25   2.0000      -0.705483       -19.1972
  26   2.0000      -0.642278       -17.4773
  27   2.0000      -0.624699       -16.9989
  28   2.0000      -0.610455       -16.6113
  29   2.0000      -0.585461       -15.9312
  30   2.0000      -0.551107       -14.9964
  31   2.0000      -0.542152       -14.7527
  32   2.0000      -0.533589       -14.5197
  33   2.0000      -0.517112       -14.0713
  34   2.0000      -0.503965       -13.7136
  35   2.0000      -0.492267       -13.3953
  36   2.0000      -0.472898       -12.8682
  37   2.0000      -0.465102       -12.6561
  38   2.0000      -0.446150       -12.1404
  39   2.0000      -0.437133       -11.8950
  40   2.0000      -0.422379       -11.4935
  41   2.0000      -0.400035       -10.8855
  42   2.0000      -0.389526       -10.5995
  43   2.0000      -0.387306       -10.5391
  44   2.0000      -0.384866       -10.4727
  45   2.0000      -0.370008       -10.0684
  46   2.0000      -0.339515        -9.2387
  47   2.0000      -0.333996        -9.0885
  48   2.0000      -0.325159        -8.8480
  49   2.0000      -0.267198        -7.2708
  50   2.0000      -0.234465        -6.3801
  51   2.0000      -0.163172        -4.4401
  52   2.0000      -0.160761        -4.3745
  53   0.0000       0.091588         2.4922
  54   0.0000       0.097095         2.6421
  55   0.0000       0.101188         2.7535
  56   0.0000       0.109335         2.9752
  57   0.0000       0.114589         3.1181

MULLIKEN ATOMIC CHARGES
-----------------------
   0 C :   -0.419428
   1 C :    0.729804
   2 C :    0.859537
   3 C :   -0.557850
   4 C :   -0.527128
   5 C :    0.375107
   6 H :    0.188378
   7 C :   -0.481170
   8 C :   -0.003917
   9 H :    0.347636
  10 H :    0.163204
  11 C :    1.247978
  12 O :   -0.872478
  13 O :   -0.990604
  14 N :   -0.612248
  15 H :    0.319913
  16 O :   -0.989514
  17 O :   -1.264076
  18 H :    0.360353
  19 H :    0.166958
  20 H :    0.208168
  21 H :    0.187722
  22 H :    0.205175
  23 H :    0.163580
  24 H :    0.150752
  25 H :    0.044149
Sum of atomic charges:   -1.0000000

LOEWDIN ATOMIC CHARGES
----------------------
   0 C :    0.414703
   1 C :   -0.695383
   2 C :   -0.707747
   3 C :    0.440061
   4 C :    0.396253
   5 C :   -0.001292
   6 H :   -0.313879
   7 C :    0.490890
   8 C :   -0.036472
   9 H :   -0.260095
  10 H :   -0.324205
  11 C :   -1.039809
  12 O :    0.668569
  13 O :    1.245734
  14 N :    1.317541
  15 H :   -0.283618
  16 O :    0.694863
  17 O :    0.531956
  18 H :   -0.979646
  19 H :   -0.561126
  20 H :   -0.434720
  21 H :   -0.323664
  22 H :   -0.292082
  23 H :   -0.293005
  24 H :   -0.299038
  25 H :   -0.354788

  Mayer bond orders larger than 0.100000
B(  0-C ,  1-C ) :   0.8085 B(  0-C ,  4-C ) :  -0.1083 B(  0-C ,  5-C ) :   0.4895
B(  0-C , 16-O ) :   0.1481 B(  0-C , 17-O ) :   0.2522 B(  0-C , 23-H ) :   0.9152
B(  0-C , 24-H ) :   0.9994 B(  0-C , 25-H ) :  -0.1621 B(  1-C ,  2-C ) :   1.0890
B(  1-C ,  5-C ) :  -0.1007 B(  1-C , 16-O ) :   0.1254 B(  1-C , 17-O ) :   0.5234
B(  1-C , 25-H ) :   1.1333 B(  2-C ,  3-C ) :   1.0262 B(  2-C , 16-O ) :   0.6429
B(  2-C , 17-O ) :   0.2125 B(  3-C ,  4-C ) :   0.7775 B(  3-C ,  5-C ) :  -0.2608
B(  3-C , 16-O ) :   0.2398 B(  3-C , 21-H ) :   1.0310 B(  3-C , 22-H ) :   0.9879
B(  4-C ,  5-C ) :   1.2582 B(  4-C ,  6-H ) :   1.0994 B(  4-C ,  7-C ) :  -0.2447
B(  5-C ,  6-H ) :  -0.1057 B(  5-C ,  7-C ) :   0.7663 B(  7-C ,  8-C ) :   0.9616
B(  7-C ,  9-H ) :   0.8890 B(  7-C , 10-H ) :   1.0603 B(  8-C , 11-C ) :   1.1790
B(  8-C , 12-O ) :   0.2510 B(  8-C , 14-N ) :   0.6987 B(  8-C , 15-H ) :   0.8174
B( 11-C , 12-O ) :   1.2173 B( 11-C , 13-O ) :   0.6387 B( 12-O , 13-O ) :   0.1709
B( 13-O , 18-H ) :   0.7403 B( 14-N , 18-H ) :   0.1780 B( 14-N , 19-H ) :   1.0381
B( 14-N , 20-H ) :   1.0116

MP2 TOTAL ENERGY:     -704.822624341 Eh
FINAL SINGLE POINT ENERGY      -704.822624341365

DIPOLE MOMENT
-------------
                                X             Y             Z
Electronic contribution:     -2.84548       0.96229       1.58426
Nuclear contribution   :     -1.01068       0.50108      -1.27268
                        -----------------------------------------
Total Dipole Moment    :     -3.85616       1.46337       0.31158
                        -----------------------------------------
Magnitude (a.u.)       :      4.13624
Magnitude (Debye)      :     10.51349

Rotational constants in cm-1:     0.052943     0.010337     0.009207
Rotational constants in MHz :  1587.202526   309.887442   276.007165

                             ****ORCA TERMINATED NORMALLY****
TOTAL RUN TIME: 0 days 2 hours 13 minutes 51 seconds 771 msec
