                         Program Version 4.2.1 -  RELEASE  -
|  1> %pal
|  2>  nprocs 32
|  3> end
|  4> !RI-MP2 aug-cc-pVQZ aug-cc-pVQZ/C TightSCF
|  5> %maxcore 4500
|  6> *xyzfile 0 1  10_19R1.xyz
|  7>
|  8>
|  9>                          ****END OF INPUT****

CARTESIAN COORDINATES (ANGSTROEM)
---------------------------------
  N      2.097162   -1.028316   -0.000024
  N      3.100539   -0.306477    0.000015
  N      4.106701    0.184734    0.000034
  C      0.821658   -0.462655   -0.000011
  C      0.521198    0.896447   -0.000010
  C     -0.253325   -1.351427   -0.000006
  C     -0.782761    1.355714   -0.000001
  C     -1.559990   -0.903946    0.000003
  C     -1.830472    0.454167    0.000005
  F      1.515773    1.790684   -0.000020
  F     -1.026236    2.661351    0.000000
  F     -3.085615    0.886157    0.000013
  F     -2.560989   -1.776398    0.000009
  F     -0.023895   -2.659503   -0.000008

 Total Charge           Charge          ....    0
 Multiplicity           Mult            ....    1
 Number of Electrons    NEL             ....  102
 Basis Dimension        Dim             .... 1120

ORBITAL ENERGIES
----------------

  NO   OCC          E(Eh)            E(eV)
   0   2.0000     -26.358129      -717.2411
   1   2.0000     -26.353633      -717.1188
   2   2.0000     -26.352453      -717.0867
   3   2.0000     -26.351213      -717.0529
   4   2.0000     -26.345641      -716.9013
   5   2.0000     -15.817195      -430.4077
   6   2.0000     -15.707349      -427.4187
   7   2.0000     -15.649140      -425.8348
   8   2.0000     -11.379096      -309.6409
   9   2.0000     -11.377750      -309.6043
  10   2.0000     -11.377169      -309.5885
  11   2.0000     -11.375951      -309.5554
  12   2.0000     -11.374151      -309.5064
  13   2.0000     -11.347207      -308.7732
  14   2.0000      -1.688607       -45.9493
  15   2.0000      -1.682548       -45.7845
  16   2.0000      -1.675152       -45.5832
  17   2.0000      -1.667267       -45.3686
  18   2.0000      -1.661722       -45.2177
  19   2.0000      -1.549283       -42.1581
  20   2.0000      -1.345787       -36.6207
  21   2.0000      -1.223898       -33.3040
  22   2.0000      -1.097247       -29.8576
  23   2.0000      -1.079321       -29.3698
  24   2.0000      -0.962277       -26.1849
  25   2.0000      -0.928222       -25.2582
  26   2.0000      -0.864368       -23.5207
  27   2.0000      -0.843976       -22.9658
  28   2.0000      -0.826876       -22.5004
  29   2.0000      -0.788330       -21.4516
  30   2.0000      -0.772974       -21.0337
  31   2.0000      -0.772229       -21.0134
  32   2.0000      -0.768949       -20.9242
  33   2.0000      -0.764883       -20.8135
  34   2.0000      -0.751252       -20.4426
  35   2.0000      -0.746398       -20.3105
  36   2.0000      -0.732566       -19.9341
  37   2.0000      -0.726852       -19.7786
  38   2.0000      -0.723882       -19.6978
  39   2.0000      -0.717284       -19.5183
  40   2.0000      -0.706062       -19.2129
  41   2.0000      -0.699813       -19.0429
  42   2.0000      -0.693149       -18.8615
  43   2.0000      -0.651190       -17.7198
  44   2.0000      -0.633041       -17.2259
  45   2.0000      -0.605034       -16.4638
  46   2.0000      -0.562483       -15.3060
  47   2.0000      -0.490551       -13.3486
  48   2.0000      -0.474645       -12.9157
  49   2.0000      -0.383563       -10.4373
  50   2.0000      -0.349470        -9.5096
  51   0.0000       0.033590         0.9140
  52   0.0000       0.045033         1.2254
  53   0.0000       0.046209         1.2574
  54   0.0000       0.061554         1.6750
  55   0.0000       0.062267         1.6944

MULLIKEN ATOMIC CHARGES
-----------------------
   0 N :   -0.289625
   1 N :    0.267334
   2 N :   -0.248971
   3 C :   -0.140201
   4 C :    0.776668
   5 C :    0.908444
   6 C :    0.795999
   7 C :    0.791791
   8 C :    0.868336
   9 F :   -0.736270
  10 F :   -0.763741
  11 F :   -0.730140
  12 F :   -0.760412
  13 F :   -0.739211
Sum of atomic charges:   -0.0000000

LOEWDIN ATOMIC CHARGES
----------------------
   0 N :    0.312539
   1 N :   -0.252330
   2 N :    0.407727
   3 C :   -0.504280
   4 C :   -0.782131
   5 C :   -0.804834
   6 C :   -0.800170
   7 C :   -0.798997
   8 C :   -0.803898
   9 F :    0.801715
  10 F :    0.802953
  11 F :    0.801900
  12 F :    0.804006
  13 F :    0.815800

  Mayer bond orders larger than 0.100000
B(  0-N ,  1-N ) :   1.3016 B(  0-N ,  2-N ) :   0.2110 B(  0-N ,  3-C ) :   0.7469
B(  0-N , 13-F ) :  -0.1100 B(  1-N ,  2-N ) :   2.2207 B(  1-N ,  3-C ) :  -0.2329
B(  3-C ,  4-C ) :   1.4045 B(  3-C ,  5-C ) :   1.2166 B(  3-C ,  7-C ) :  -0.2134
B(  3-C ,  9-F ) :   0.2927 B(  3-C , 13-F ) :   0.2867 B(  4-C ,  6-C ) :   1.4199
B(  4-C ,  7-C ) :   0.1174 B(  5-C ,  6-C ) :   0.1318 B(  5-C ,  7-C ) :   1.5680
B(  6-C ,  7-C ) :  -0.1090 B(  6-C ,  8-C ) :   1.5177 B(  6-C , 10-F ) :   0.1597
B(  7-C ,  8-C ) :   1.5061 B(  7-C , 12-F ) :   0.1654

MP2 TOTAL ENERGY:     -890.972917398 Eh
FINAL SINGLE POINT ENERGY      -890.972917398036

DIPOLE MOMENT
-------------
                                X             Y             Z
Electronic contribution:     -4.26509       0.96341       0.00001
Nuclear contribution   :      4.73810      -0.82263       0.00001
                        -----------------------------------------
Total Dipole Moment    :      0.47301       0.14078       0.00001
                        -----------------------------------------
Magnitude (a.u.)       :      0.49352
Magnitude (Debye)      :      1.25442

Rotational constants in cm-1:     0.034415     0.018931     0.012213
Rotational constants in MHz :  1031.729364   567.527129   366.129140

                             ****ORCA TERMINATED NORMALLY****
TOTAL RUN TIME: 0 days 0 hours 42 minutes 41 seconds 497 msec
