                         Program Version 4.2.1 -  RELEASE  -
|  1> %pal
|  2>  nprocs 32
|  3> end
|  4> !RI-MP2 aug-cc-pVQZ aug-cc-pVQZ/C TightSCF
|  5> %maxcore 4500
|  6> *xyzfile 1 1  10_30P.xyz
|  7>
|  8>
|  9>                          ****END OF INPUT****

CARTESIAN COORDINATES (ANGSTROEM)
---------------------------------
  C     -1.835240    3.288153   -0.032049
  C     -1.555667    1.830317    0.349853
  C      0.450931    2.748729    0.516893
  C     -0.416505    3.920726    0.042715
  H     -2.282072    3.357333   -1.021574
  H     -2.515779    3.749097    0.683640
  H     -0.073026    4.331794   -0.909347
  H     -0.359403    4.727114    0.773183
  C     -0.485277    1.977845    1.435889
  H     -0.084441    1.041589    1.815679
  H     -0.811369    2.594226    2.272497
  H     -2.428634    1.229847    0.576346
  H      1.448582    2.997069    0.858084
  N      0.529964    1.799199   -0.679059
  N     -0.822940    1.234448   -0.795398
  C     -0.646020   -0.241864   -0.883637
  C     -1.832957   -0.997350   -0.341546
  C     -1.887609   -1.482863    0.962221
  C     -2.927073   -1.195651   -1.180081
  C     -3.018114   -2.145247    1.419505
  H     -1.049214   -1.360141    1.636113
  C     -4.060157   -1.851835   -0.723498
  H     -2.889787   -0.832107   -2.201004
  C     -4.107611   -2.327321    0.579552
  H     -3.045131   -2.524987    2.433238
  H     -4.902461   -1.999361   -1.387664
  H     -4.987838   -2.846645    0.937148
  C      0.728006   -0.573897   -0.290301
  C      1.554057    0.642054   -0.689180
  C      1.217776   -1.925862   -0.828976
  H      0.322022   -2.511290   -1.048483
  H      1.720879   -1.782141   -1.791465
  C      2.796569    1.009818    0.100672
  H      2.563010    1.059556    1.168037
  H      3.100108    2.015600   -0.206596
  C      4.003417    0.086784   -0.108793
  H      4.097039   -0.170405   -1.169093
  H      4.882843    0.690823    0.120627
  C      4.070938   -1.185269    0.751645
  H      5.118656   -1.330901    1.021808
  H      3.548441   -1.020518    1.701219
  C      2.090120   -2.769104    0.103161
  H      1.959074   -3.812667   -0.192634
  H      1.696199   -2.703322    1.124068
  C      3.590519   -2.490338    0.114348
  H      4.061538   -3.312684    0.658663
  H      3.979172   -2.555719   -0.908490
  H     -0.587977   -0.460798   -1.954736
  H      0.672479   -0.623066    0.798391
  H      1.819557    0.546363   -1.745662
  H      0.697743    2.363859   -1.511146

 Total Charge           Charge          ....    1
 Multiplicity           Mult            ....    1
 Number of Electrons    NEL             ....  162
 Basis Dimension        Dim             .... 3094

ORBITAL ENERGIES
----------------

  NO   OCC          E(Eh)            E(eV)
   0   2.0000     -15.837705      -430.9659
   1   2.0000     -15.739884      -428.3040
   2   2.0000     -11.428824      -310.9941
   3   2.0000     -11.427152      -310.9486
   4   2.0000     -11.399874      -310.2063
   5   2.0000     -11.396888      -310.1251
   6   2.0000     -11.367231      -309.3181
   7   2.0000     -11.366703      -309.3037
   8   2.0000     -11.366330      -309.2936
   9   2.0000     -11.363240      -309.2095
  10   2.0000     -11.351367      -308.8864
  11   2.0000     -11.349512      -308.8359
  12   2.0000     -11.341426      -308.6159
  13   2.0000     -11.338119      -308.5259
  14   2.0000     -11.337212      -308.5012
  15   2.0000     -11.336875      -308.4920
  16   2.0000     -11.335277      -308.4486
  17   2.0000     -11.333735      -308.4066
  18   2.0000     -11.332351      -308.3689
  19   2.0000     -11.320404      -308.0439
  20   2.0000     -11.320224      -308.0390
  21   2.0000     -11.313664      -307.8605
  22   2.0000      -1.521161       -41.3929
  23   2.0000      -1.304416       -35.4950
  24   2.0000      -1.295841       -35.2616
  25   2.0000      -1.256201       -34.1830
  26   2.0000      -1.234170       -33.5835
  27   2.0000      -1.183679       -32.2096
  28   2.0000      -1.170176       -31.8421
  29   2.0000      -1.141498       -31.0617
  30   2.0000      -1.122846       -30.5542
  31   2.0000      -1.118628       -30.4394
  32   2.0000      -1.091426       -29.6992
  33   2.0000      -1.062543       -28.9133
  34   2.0000      -1.038331       -28.2544
  35   2.0000      -0.992940       -27.0193
  36   2.0000      -0.967762       -26.3342
  37   2.0000      -0.943196       -25.6657
  38   2.0000      -0.933745       -25.4085
  39   2.0000      -0.915326       -24.9073
  40   2.0000      -0.911768       -24.8105
  41   2.0000      -0.903721       -24.5915
  42   2.0000      -0.886776       -24.1304
  43   2.0000      -0.854547       -23.2534
  44   2.0000      -0.848644       -23.0928
  45   2.0000      -0.820562       -22.3286
  46   2.0000      -0.796505       -21.6740
  47   2.0000      -0.773193       -21.0396
  48   2.0000      -0.770205       -20.9583
  49   2.0000      -0.747192       -20.3321
  50   2.0000      -0.743845       -20.2411
  51   2.0000      -0.739408       -20.1203
  52   2.0000      -0.727677       -19.8011
  53   2.0000      -0.720680       -19.6107
  54   2.0000      -0.716680       -19.5019
  55   2.0000      -0.703217       -19.1355
  56   2.0000      -0.698697       -19.0125
  57   2.0000      -0.691062       -18.8048
  58   2.0000      -0.688203       -18.7270
  59   2.0000      -0.681033       -18.5318
  60   2.0000      -0.667918       -18.1750
  61   2.0000      -0.662055       -18.0154
  62   2.0000      -0.657250       -17.8847
  63   2.0000      -0.647235       -17.6122
  64   2.0000      -0.629744       -17.1362
  65   2.0000      -0.627958       -17.0876
  66   2.0000      -0.618329       -16.8256
  67   2.0000      -0.614232       -16.7141
  68   2.0000      -0.609778       -16.5929
  69   2.0000      -0.606222       -16.4961
  70   2.0000      -0.604639       -16.4531
  71   2.0000      -0.601031       -16.3549
  72   2.0000      -0.594750       -16.1840
  73   2.0000      -0.586054       -15.9473
  74   2.0000      -0.585269       -15.9260
  75   2.0000      -0.567157       -15.4331
  76   2.0000      -0.551576       -15.0091
  77   2.0000      -0.542670       -14.7668
  78   2.0000      -0.521867       -14.2007
  79   2.0000      -0.443431       -12.0664
  80   2.0000      -0.441846       -12.0232
  81   0.0000      -0.069108        -1.8805
  82   0.0000      -0.059464        -1.6181
  83   0.0000      -0.050631        -1.3777
  84   0.0000      -0.047390        -1.2895
  85   0.0000      -0.040663        -1.1065

MULLIKEN ATOMIC CHARGES
-----------------------
   0 C :   -0.898025
   1 C :    0.434169
   2 C :    0.242232
   3 C :   -0.852647
   4 H :    0.259329
   5 H :    0.211016
   6 H :    0.201468
   7 H :    0.182027
   8 C :   -0.820273
   9 H :    0.322179
  10 H :    0.096845
  11 H :    0.478980
  12 H :    0.362713
  13 N :    0.985061
  14 N :   -0.768860
  15 C :    1.340138
  16 C :    0.833614
  17 C :   -0.286501
  18 C :   -0.720706
  19 C :   -0.663286
  20 H :    0.207126
  21 C :   -0.620632
  22 H :    0.180097
  23 C :   -0.485555
  24 H :    0.186493
  25 H :    0.207221
  26 H :    0.339733
  27 C :    0.946972
  28 C :    0.343666
  29 C :   -0.691728
  30 H :    0.098130
  31 H :    0.087229
  32 C :   -0.535289
  33 H :    0.208438
  34 H :    0.117305
  35 C :   -0.691479
  36 H :    0.249837
  37 H :    0.167241
  38 C :   -0.584464
  39 H :    0.225458
  40 H :    0.318695
  41 C :   -0.722291
  42 H :    0.149559
  43 H :    0.210351
  44 C :   -0.595736
  45 H :    0.161044
  46 H :    0.271209
  47 H :    0.457828
  48 H :   -0.067539
  49 H :    0.293878
  50 H :   -0.372269
Sum of atomic charges:    1.0000000

LOEWDIN ATOMIC CHARGES
----------------------
   0 C :    0.599999
   1 C :    0.027432
   2 C :    0.132553
   3 C :    0.609901
   4 H :   -0.244809
   5 H :   -0.239143
   6 H :   -0.237365
   7 H :   -0.234920
   8 C :    0.601681
   9 H :   -0.261375
  10 H :   -0.219309
  11 H :   -0.266659
  12 H :   -0.255788
  13 N :    0.725019
  14 N :    0.586986
  15 C :   -0.004057
  16 C :   -0.074077
  17 C :    0.362593
  18 C :    0.375858
  19 C :    0.381747
  20 H :   -0.321824
  21 C :    0.377278
  22 H :   -0.295951
  23 C :    0.366862
  24 H :   -0.306542
  25 H :   -0.307436
  26 H :   -0.308386
  27 C :    0.176253
  28 C :    0.177645
  29 C :    0.598015
  30 H :   -0.274905
  31 H :   -0.244293
  32 C :    0.589401
  33 H :   -0.267366
  34 H :   -0.261272
  35 C :    0.599931
  36 H :   -0.260784
  37 H :   -0.263225
  38 C :    0.579946
  39 H :   -0.268410
  40 H :   -0.266347
  41 C :    0.586019
  42 H :   -0.260573
  43 H :   -0.261245
  44 C :    0.569349
  45 H :   -0.266330
  46 H :   -0.264990
  47 H :   -0.302327
  48 H :   -0.327791
  49 H :   -0.250991
  50 H :   -0.405978

  Mayer bond orders larger than 0.100000
B(  0-C ,  1-C ) :   0.1125 B(  0-C ,  2-C ) :  -0.2948 B(  0-C ,  3-C ) :   1.2736
B(  0-C ,  4-H ) :   1.1062 B(  0-C ,  5-H ) :   1.1084 B(  0-C , 11-H ) :  -0.1056
B(  1-C ,  3-C ) :  -0.3343 B(  1-C ,  4-H ) :  -0.1653 B(  1-C ,  5-H ) :  -0.1181
B(  1-C ,  8-C ) :   0.7712 B(  1-C , 11-H ) :   0.7022 B(  1-C , 14-N ) :   0.5586
B(  1-C , 16-C ) :  -0.1223 B(  1-C , 18-C ) :  -0.1623 B(  2-C ,  3-C ) :   0.2164
B(  2-C ,  6-H ) :  -0.1136 B(  2-C ,  7-H ) :  -0.1314 B(  2-C ,  8-C ) :   0.7495
B(  2-C , 12-H ) :   1.0166 B(  2-C , 13-N ) :   0.6710 B(  2-C , 50-H ) :  -0.1279
B(  3-C ,  6-H ) :   1.0998 B(  3-C ,  7-H ) :   1.1408 B(  8-C ,  9-H ) :   0.9972
B(  8-C , 10-H ) :   1.1345 B(  8-C , 13-N ) :  -0.1387 B(  8-C , 14-N ) :   0.1236
B(  8-C , 27-C ) :  -0.1620 B(  9-H , 27-C ) :  -0.1770 B( 11-H , 16-C ) :   0.1256
B( 11-H , 18-C ) :   0.1172 B( 13-N , 15-C ) :  -0.1426 B( 13-N , 27-C ) :   0.2034
B( 13-N , 28-C ) :   1.1721 B( 13-N , 32-C ) :   0.1778 B( 13-N , 48-H ) :  -0.1283
B( 13-N , 50-H ) :   1.4060 B( 14-N , 15-C ) :   0.2695 B( 14-N , 16-C ) :   0.2436
B( 14-N , 27-C ) :   0.3041 B( 14-N , 47-H ) :  -0.2798 B( 15-C , 16-C ) :  -0.8606
B( 15-C , 17-C ) :  -0.1415 B( 15-C , 18-C ) :  -0.6613 B( 15-C , 19-C ) :   0.1012
B( 15-C , 22-H ) :  -0.1912 B( 15-C , 27-C ) :   0.9454 B( 15-C , 28-C ) :   0.1248
B( 15-C , 29-C ) :   0.3573 B( 15-C , 47-H ) :   0.9349 B( 15-C , 50-H ) :  -0.1173
B( 16-C , 17-C ) :   0.6313 B( 16-C , 18-C ) :   0.9161 B( 16-C , 19-C ) :  -0.4855
B( 16-C , 21-C ) :  -0.3981 B( 16-C , 27-C ) :   0.6288 B( 16-C , 28-C ) :  -0.1406
B( 16-C , 29-C ) :  -0.2302 B( 16-C , 30-H ) :   0.1217 B( 16-C , 47-H ) :  -0.2675
B( 17-C , 18-C ) :  -0.1924 B( 17-C , 19-C ) :   1.2755 B( 17-C , 20-H ) :   1.1731
B( 17-C , 21-C ) :   0.1023 B( 17-C , 23-C ) :  -0.1630 B( 17-C , 27-C ) :   0.2275
B( 17-C , 48-H ) :  -0.2036 B( 18-C , 19-C ) :   0.1999 B( 18-C , 21-C ) :   1.4670
B( 18-C , 22-H ) :   1.1813 B( 18-C , 25-H ) :  -0.1261 B( 19-C , 20-H ) :  -0.1127
B( 19-C , 21-C ) :   0.1029 B( 19-C , 23-C ) :   1.2964 B( 19-C , 24-H ) :   1.1381
B( 19-C , 26-H ) :  -0.1384 B( 21-C , 23-C ) :   1.1901 B( 21-C , 25-H ) :   1.2109
B( 23-C , 24-H ) :  -0.1032 B( 23-C , 26-H ) :   1.0578 B( 27-C , 28-C ) :   0.6964
B( 27-C , 29-C ) :  -0.6176 B( 27-C , 30-H ) :  -0.2743 B( 27-C , 31-H ) :  -0.3448
B( 27-C , 33-H ) :  -0.1136 B( 27-C , 38-C ) :  -0.2309 B( 27-C , 41-C ) :  -0.4001
B( 27-C , 44-C ) :   0.1177 B( 27-C , 48-H ) :   1.0717 B( 27-C , 50-H ) :   0.1375
B( 28-C , 29-C ) :   0.1319 B( 28-C , 34-H ) :  -0.3153 B( 28-C , 35-C ) :  -0.2190
B( 28-C , 49-H ) :   1.0484 B( 28-C , 50-H ) :  -0.2492 B( 29-C , 30-H ) :   1.2632
B( 29-C , 31-H ) :   1.4140 B( 29-C , 41-C ) :   0.7067 B( 29-C , 42-H ) :  -0.1225
B( 29-C , 44-C ) :  -0.1404 B( 29-C , 48-H ) :  -0.1431 B( 32-C , 33-H ) :   1.0812
B( 32-C , 34-H ) :   1.2600 B( 32-C , 35-C ) :   0.5767 B( 32-C , 36-H ) :  -0.1246
B( 32-C , 37-H ) :  -0.1757 B( 32-C , 49-H ) :  -0.1703 B( 33-H , 34-H ) :   0.1090
B( 35-C , 36-H ) :   1.1231 B( 35-C , 37-H ) :   1.2060 B( 35-C , 38-C ) :   0.8431
B( 38-C , 39-H ) :   1.0836 B( 38-C , 40-H ) :   0.9659 B( 38-C , 44-C ) :   0.7966
B( 41-C , 42-H ) :   1.1356 B( 41-C , 43-H ) :   1.0344 B( 41-C , 44-C ) :   0.8680
B( 41-C , 45-H ) :  -0.1038 B( 44-C , 45-H ) :   1.1057 B( 44-C , 46-H ) :   0.9416
B( 48-H , 49-H ) :   0.2258

MP2 TOTAL ENERGY:     -887.237426833 Eh
FINAL SINGLE POINT ENERGY      -887.237426833169

DIPOLE MOMENT
-------------
                                X             Y             Z
Electronic contribution:    -15.41235       1.03966      -2.66529
Nuclear contribution   :     16.12463       0.90081       2.59562
                        -----------------------------------------
Total Dipole Moment    :      0.71229       1.94046      -0.06967
                        -----------------------------------------
Magnitude (a.u.)       :      2.06824
Magnitude (Debye)      :      5.25704

Rotational constants in cm-1:     0.012135     0.008591     0.005684
Rotational constants in MHz :   363.805922   257.560670   170.400173

                             ****ORCA TERMINATED NORMALLY****
TOTAL RUN TIME: 0 days 15 hours 12 minutes 33 seconds 406 msec
