                         Program Version 4.2.1 -  RELEASE  -
|  1> %pal
|  2>  nprocs 32
|  3> end
|  4> !RI-MP2 aug-cc-pVQZ aug-cc-pVQZ/C TightSCF
|  5> %maxcore 4500
|  6> *xyzfile 0 1  06_28R.xyz
|  7>
|  8>
|  9>                          ****END OF INPUT****

CARTESIAN COORDINATES (ANGSTROEM)
---------------------------------
  C      0.119974   -2.817476    0.101194
  C     -0.204308   -1.488519    0.837928
  C      2.561577   -0.686739   -0.340166
  H     -0.820892   -3.250305   -0.247757
  C      0.597200   -1.313426    2.146251
  H      0.445228   -0.301056    2.536511
  H      0.164516   -1.986374    2.894288
  H      3.435075   -0.238635   -0.822912
  H     -1.254359   -1.535584    1.137462
  C      2.091589   -1.608353    2.071440
  H      2.504429   -1.531845    3.082206
  H      2.238263   -2.651701    1.779235
  C      2.919834   -0.710839    1.157300
  H      2.901102    0.310427    1.548466
  H      3.962466   -1.036660    1.238010
  C      2.442975   -2.112615   -0.938079
  H      2.905723   -2.104840   -1.929785
  C      1.037993   -2.700113   -1.122841
  H      0.518111   -2.112554   -1.889101
  H      1.151299   -3.696733   -1.560713
  H      3.049362   -2.799903   -0.338966
  H      0.536277   -3.540344    0.809554
  C      1.353918    0.209126   -0.689513
  H      1.258736    0.249225   -1.785536
  Si     1.562388    2.064576   -0.293402
  C      0.944563    2.505841    1.430124
  H      1.515817    2.017248    2.221565
  H      1.016514    3.585084    1.590212
  H     -0.105072    2.228257    1.556759
  C      0.562471    3.047826   -1.540400
  H      0.638872    4.120839   -1.345440
  H      0.916666    2.869400   -2.559211
  H     -0.491041    2.766189   -1.499289
  C      3.371479    2.554328   -0.447720
  H      3.758411    2.325012   -1.444059
  H      3.483213    3.630794   -0.291803
  H      4.007251    2.047125    0.280633
  B     -0.022074   -0.297885   -0.171814
  C     -3.113602    0.744922    0.503388
  C     -4.510404    0.491985    0.802823
  H     -4.986467   -0.297546    0.230800
  C     -5.213159    1.157555    1.718174
  H     -4.767565    1.948955    2.311462
  H     -6.255377    0.931364    1.902698
  C     -2.410037    0.052894   -0.392429
  O     -1.122489    0.358008   -0.706588
  O     -2.918177   -1.008664   -1.053620
  C     -2.669837   -1.062463   -2.457498
  H     -3.189147   -1.947095   -2.817730
  H     -3.069388   -0.172004   -2.949621
  H     -1.604028   -1.148654   -2.670833
  H     -2.595074    1.528924    1.041395

 Total Charge           Charge          ....    0
 Multiplicity           Mult            ....    1
 Number of Electrons    NEL             ....  168
 Basis Dimension        Dim             .... 3110

ORBITAL ENERGIES
----------------

  NO   OCC          E(Eh)            E(eV)
   0   2.0000     -68.744278     -1870.6269
   1   2.0000     -20.587880      -560.2247
   2   2.0000     -20.578975      -559.9824
   3   2.0000     -11.350710      -308.8685
   4   2.0000     -11.287457      -307.1473
   5   2.0000     -11.228254      -305.5363
   6   2.0000     -11.223362      -305.4032
   7   2.0000     -11.218771      -305.2783
   8   2.0000     -11.217121      -305.2334
   9   2.0000     -11.214591      -305.1645
  10   2.0000     -11.214065      -305.1502
  11   2.0000     -11.213313      -305.1298
  12   2.0000     -11.212265      -305.1012
  13   2.0000     -11.210976      -305.0662
  14   2.0000     -11.209915      -305.0373
  15   2.0000     -11.193075      -304.5791
  16   2.0000     -11.192796      -304.5715
  17   2.0000     -11.191804      -304.5445
  18   2.0000     -11.185606      -304.3758
  19   2.0000     -11.178775      -304.1899
  20   2.0000      -7.608837      -207.0470
  21   2.0000      -6.092901      -165.7963
  22   2.0000      -4.199388      -114.2711
  23   2.0000      -4.199283      -114.2683
  24   2.0000      -4.199220      -114.2666
  25   2.0000      -1.452215       -39.5168
  26   2.0000      -1.371537       -37.3214
  27   2.0000      -1.115969       -30.3671
  28   2.0000      -1.083653       -29.4877
  29   2.0000      -1.048550       -28.5325
  30   2.0000      -1.044610       -28.4253
  31   2.0000      -1.004989       -27.3471
  32   2.0000      -0.976735       -26.5783
  33   2.0000      -0.950148       -25.8549
  34   2.0000      -0.937975       -25.5236
  35   2.0000      -0.921557       -25.0768
  36   2.0000      -0.918222       -24.9861
  37   2.0000      -0.915395       -24.9092
  38   2.0000      -0.883216       -24.0335
  39   2.0000      -0.834831       -22.7169
  40   2.0000      -0.798637       -21.7320
  41   2.0000      -0.785685       -21.3796
  42   2.0000      -0.759269       -20.6608
  43   2.0000      -0.728488       -19.8232
  44   2.0000      -0.717762       -19.5313
  45   2.0000      -0.694680       -18.9032
  46   2.0000      -0.676567       -18.4103
  47   2.0000      -0.660215       -17.9654
  48   2.0000      -0.641407       -17.4536
  49   2.0000      -0.630518       -17.1573
  50   2.0000      -0.618865       -16.8402
  51   2.0000      -0.611271       -16.6335
  52   2.0000      -0.601512       -16.3680
  53   2.0000      -0.593213       -16.1421
  54   2.0000      -0.589606       -16.0440
  55   2.0000      -0.577321       -15.7097
  56   2.0000      -0.572727       -15.5847
  57   2.0000      -0.568573       -15.4717
  58   2.0000      -0.564072       -15.3492
  59   2.0000      -0.560746       -15.2587
  60   2.0000      -0.559601       -15.2275
  61   2.0000      -0.551011       -14.9938
  62   2.0000      -0.544752       -14.8234
  63   2.0000      -0.541260       -14.7284
  64   2.0000      -0.533875       -14.5275
  65   2.0000      -0.527434       -14.3522
  66   2.0000      -0.525113       -14.2891
  67   2.0000      -0.510457       -13.8902
  68   2.0000      -0.495066       -13.4714
  69   2.0000      -0.494751       -13.4628
  70   2.0000      -0.488221       -13.2852
  71   2.0000      -0.482636       -13.1332
  72   2.0000      -0.479430       -13.0459
  73   2.0000      -0.469736       -12.7822
  74   2.0000      -0.459986       -12.5168
  75   2.0000      -0.443794       -12.0763
  76   2.0000      -0.431566       -11.7435
  77   2.0000      -0.431041       -11.7292
  78   2.0000      -0.425995       -11.5919
  79   2.0000      -0.418147       -11.3783
  80   2.0000      -0.415126       -11.2962
  81   2.0000      -0.409022       -11.1300
  82   2.0000      -0.381355       -10.3772
  83   2.0000      -0.297791        -8.1033
  84   0.0000       0.018828         0.5123
  85   0.0000       0.023751         0.6463
  86   0.0000       0.025527         0.6946
  87   0.0000       0.026212         0.7133
  88   0.0000       0.033816         0.9202

MULLIKEN ATOMIC CHARGES
-----------------------
   0 C :   -0.562159
   1 C :    0.653134
   2 C :    0.996682
   3 H :    0.113011
   4 C :   -0.813415
   5 H :    0.219697
   6 H :    0.064913
   7 H :    0.336609
   8 H :    0.398060
   9 C :   -0.188916
  10 H :   -0.041972
  11 H :    0.110270
  12 C :   -0.704769
  13 H :    0.270461
  14 H :   -0.034418
  15 C :   -0.770363
  16 H :    0.009604
  17 C :   -0.729530
  18 H :    0.337994
  19 H :    0.116837
  20 H :    0.113426
  21 H :    0.084935
  22 C :   -1.073675
  23 H :   -0.067850
  24 Si:    1.923841
  25 C :   -1.238235
  26 H :    0.224280
  27 H :    0.093219
  28 H :    0.382907
  29 C :   -1.235689
  30 H :    0.284889
  31 H :    0.223849
  32 H :    0.409927
  33 C :   -1.002169
  34 H :    0.220883
  35 H :    0.227910
  36 H :    0.283072
  37 B :    1.589983
  38 C :   -0.852555
  39 C :   -0.477666
  40 H :    0.414823
  41 C :   -0.812616
  42 H :    0.410508
  43 H :    0.273790
  44 C :    2.057218
  45 O :   -1.628674
  46 O :   -1.038538
  47 C :   -0.862682
  48 H :    0.401734
  49 H :    0.317533
  50 H :    0.368283
  51 H :    0.201610
Sum of atomic charges:   -0.0000000

LOEWDIN ATOMIC CHARGES
----------------------
   0 C :    0.590327
   1 C :    0.342711
   2 C :    0.152259
   3 H :   -0.253839
   4 C :    0.576539
   5 H :   -0.263913
   6 H :   -0.249398
   7 H :   -0.304911
   8 H :   -0.319461
   9 C :    0.574342
  10 H :   -0.249369
  11 H :   -0.297409
  12 C :    0.559284
  13 H :   -0.310574
  14 H :   -0.247408
  15 C :    0.593362
  16 H :   -0.254653
  17 C :    0.575333
  18 H :   -0.290236
  19 H :   -0.249370
  20 H :   -0.271086
  21 H :   -0.270230
  22 C :    0.381612
  23 H :   -0.326113
  24 Si:    0.180921
  25 C :    1.024920
  26 H :   -0.336049
  27 H :   -0.320148
  28 H :   -0.333237
  29 C :    1.010044
  30 H :   -0.328550
  31 H :   -0.326648
  32 H :   -0.349126
  33 C :    1.013964
  34 H :   -0.323670
  35 H :   -0.327861
  36 H :   -0.338624
  37 B :   -1.124827
  38 C :    0.293149
  39 C :    0.302033
  40 H :   -0.357954
  41 C :    0.777377
  42 H :   -0.361407
  43 H :   -0.363631
  44 C :   -0.836897
  45 O :    1.014289
  46 O :    0.878444
  47 C :    0.621366
  48 H :   -0.309538
  49 H :   -0.286132
  50 H :   -0.322822
  51 H :   -0.357188

  Mayer bond orders larger than 0.100000
B(  0-C ,  1-C ) :   0.5497 B(  0-C ,  3-H ) :   1.1800 B(  0-C ,  8-H ) :  -0.1575
B(  0-C , 17-C ) :   0.6937 B(  0-C , 19-H ) :  -0.1154 B(  0-C , 21-H ) :   1.3207
B(  1-C ,  2-C ) :   0.1554 B(  1-C ,  4-C ) :   0.1858 B(  1-C ,  5-H ) :  -0.1367
B(  1-C ,  8-H ) :   0.7979 B(  1-C ,  9-C ) :  -0.2522 B(  1-C , 21-H ) :  -0.2456
B(  1-C , 22-C ) :  -0.1834 B(  1-C , 37-B ) :   1.4020 B(  1-C , 45-O ) :  -0.1666
B(  2-C ,  7-H ) :   1.1742 B(  2-C ,  9-C ) :  -0.1403 B(  2-C , 12-C ) :   0.2456
B(  2-C , 13-H ) :  -0.1630 B(  2-C , 14-H ) :  -0.1127 B(  2-C , 15-C ) :   0.3017
B(  2-C , 16-H ) :  -0.2606 B(  2-C , 17-C ) :   0.1232 B(  2-C , 20-H ) :  -0.2852
B(  2-C , 22-C ) :   0.4850 B(  2-C , 23-H ) :  -0.1849 B(  2-C , 24-Si) :  -0.1845
B(  2-C , 33-C ) :  -0.1067 B(  2-C , 37-B ) :  -0.1512 B(  4-C ,  5-H ) :   1.1495
B(  4-C ,  6-H ) :   1.2299 B(  4-C ,  9-C ) :   0.7057 B(  4-C , 10-H ) :  -0.1204
B(  5-H , 37-B ) :  -0.1501 B(  7-H , 12-C ) :  -0.1240 B(  7-H , 15-C ) :  -0.1188
B(  7-H , 22-C ) :  -0.1781 B(  9-C , 10-H ) :   1.2876 B(  9-C , 11-H ) :   1.2439
B(  9-C , 12-C ) :   0.5226 B(  9-C , 37-B ) :   0.1274 B( 10-H , 12-C ) :  -0.1309
B( 11-H , 12-C ) :  -0.1125 B( 12-C , 13-H ) :   1.0642 B( 12-C , 14-H ) :   1.3284
B( 12-C , 22-C ) :   0.2010 B( 15-C , 16-H ) :   1.3641 B( 15-C , 17-C ) :   0.7147
B( 15-C , 18-H ) :  -0.1264 B( 15-C , 20-H ) :   1.3585 B( 17-C , 18-H ) :   1.0024
B( 17-C , 19-H ) :   1.1806 B( 22-C , 23-H ) :   1.0993 B( 22-C , 24-Si) :   0.9851
B( 22-C , 25-C ) :   0.1558 B( 22-C , 29-C ) :   0.1943 B( 22-C , 37-B ) :   0.5780
B( 22-C , 45-O ) :  -0.2413 B( 23-H , 37-B ) :   0.2457 B( 24-Si, 25-C ) :   0.2542
B( 24-Si, 29-C ) :   0.6625 B( 24-Si, 30-H ) :  -0.1094 B( 24-Si, 31-H ) :  -0.1331
B( 24-Si, 33-C ) :   0.6320 B( 24-Si, 34-H ) :  -0.1477 B( 24-Si, 35-H ) :  -0.1678
B( 24-Si, 36-H ) :  -0.1449 B( 24-Si, 45-O ) :  -0.2028 B( 25-C , 26-H ) :   0.9955
B( 25-C , 27-H ) :   1.2120 B( 25-C , 28-H ) :   0.9565 B( 28-H , 37-B ) :  -0.1360
B( 29-C , 30-H ) :   0.9927 B( 29-C , 31-H ) :   1.0621 B( 29-C , 32-H ) :   0.7905
B( 29-C , 33-C ) :   0.1132 B( 33-C , 34-H ) :   1.0515 B( 33-C , 35-H ) :   1.0753
B( 33-C , 36-H ) :   0.9882 B( 37-B , 44-C ) :  -0.1624 B( 37-B , 45-O ) :  -0.8583
B( 37-B , 46-O ) :   0.4973 B( 37-B , 47-C ) :  -0.3419 B( 37-B , 50-H ) :  -0.2228
B( 38-C , 39-C ) :   1.0183 B( 38-C , 41-C ) :  -0.2758 B( 38-C , 44-C ) :   1.0949
B( 38-C , 45-O ) :  -0.3994 B( 38-C , 51-H ) :   1.0452 B( 39-C , 40-H ) :   0.7659
B( 39-C , 41-C ) :   1.6020 B( 39-C , 43-H ) :  -0.1871 B( 39-C , 44-C ) :  -0.4318
B( 39-C , 46-O ) :  -0.1001 B( 41-C , 42-H ) :   0.8413 B( 41-C , 43-H ) :   1.1021
B( 44-C , 45-O ) :   1.2585 B( 44-C , 46-O ) :  -0.1202 B( 44-C , 47-C ) :  -0.3618
B( 45-O , 46-O ) :  -0.2174 B( 45-O , 47-C ) :   0.2655 B( 46-O , 47-C ) :   0.9901
B( 47-C , 48-H ) :   0.9102 B( 47-C , 49-H ) :   0.9614 B( 47-C , 50-H ) :   0.8519

MP2 TOTAL ENERGY:    -1129.396288272 Eh
FINAL SINGLE POINT ENERGY     -1129.396288272008

DIPOLE MOMENT
-------------
                                X             Y             Z
Electronic contribution:    -10.92604      -0.68286      -2.72868
Nuclear contribution   :     11.46191       0.32079       2.20111
                        -----------------------------------------
Total Dipole Moment    :      0.53587      -0.36207      -0.52758
                        -----------------------------------------
Magnitude (a.u.)       :      0.83462
Magnitude (Debye)      :      2.12143

Rotational constants in cm-1:     0.011991     0.007418     0.006172
Rotational constants in MHz :   359.475720   222.387202   185.017991

                             ****ORCA TERMINATED NORMALLY****
TOTAL RUN TIME: 0 days 16 hours 49 minutes 21 seconds 40 msec
