                         Program Version 4.2.1 -  RELEASE  -
|  1> %pal
|  2>  nprocs 32
|  3> end
|  4> !RI-MP2 aug-cc-pVQZ aug-cc-pVQZ/C TightSCF
|  5> %maxcore 4500
|  6> *xyzfile 1 1  05_25TS.xyz
|  7>
|  8>
|  9>                          ****END OF INPUT****

CARTESIAN COORDINATES (ANGSTROEM)
---------------------------------
  C      2.127314    1.280893    0.551273
  C      0.727612   -0.772022   -0.335036
  C      2.108723   -1.433669   -0.386438
  C      3.144769   -0.557197   -1.081725
  C      3.116111    0.905990   -0.574165
  H      2.436785   -1.666471    0.625811
  H      2.013385   -2.378270   -0.925241
  H      2.885673   -0.530399   -2.140089
  H      4.107227    1.176410   -0.213409
  H      2.914564    1.553789   -1.429928
  N      0.881049    0.469235    0.456690
  O     -0.093454    0.836337    1.191607
  C      2.711348    1.056059    1.952138
  H      3.071082    0.038935    2.079975
  H      3.564777    1.721613    2.092594
  H      1.961512    1.290663    2.708436
  C      1.751491    2.753951    0.385567
  H      1.250743    2.923359   -0.569470
  H      1.116153    3.097876    1.201941
  H      2.662866    3.352302    0.400005
  C     -0.258378   -1.701746    0.365171
  H      0.069370   -1.924751    1.380989
  H     -1.260475   -1.279294    0.409173
  H     -0.308501   -2.636331   -0.194393
  C      0.206192   -0.406665   -1.734668
  H     -0.801500    0.000199   -1.667828
  H      0.833812    0.332970   -2.231724
  H      0.172610   -1.304073   -2.355517
  C     -2.032084    2.114495    0.160844
  H     -2.085411    2.859233    0.959910
  H     -0.920749    1.484183    0.663334
  C     -2.961824    1.013213    0.208595
  C     -3.418017    0.381786   -0.954258
  C     -3.368009    0.512763    1.461628
  C     -4.260511   -0.708138   -0.882109
  H     -3.123938    0.772636   -1.919471
  C     -4.197899   -0.573239    1.542583
  H     -3.019191    0.988941    2.370945
  C     -4.651894   -1.199053    0.370152
  H     -4.618084   -1.166547   -1.792475
  H     -4.525069   -0.968459    2.494981
  O     -1.667821    2.573426   -1.044342
  C     -1.355534    3.969825   -1.137240
  H     -0.694402    4.272476   -0.324213
  H     -2.278950    4.550067   -1.108120
  H     -0.859129    4.112519   -2.092936
  O     -5.457231   -2.245335    0.549600
  C     -5.984559   -2.933061   -0.581152
  H     -5.181504   -3.363110   -1.183809
  H     -6.603177   -3.729019   -0.177351
  H     -6.598114   -2.265422   -1.189765
  N      4.473702   -1.155446   -1.062740
  C      5.176937   -1.420714    0.072741
  C      6.538759   -2.036331   -0.115720
  H      6.562781   -2.991752    0.409109
  H      6.807834   -2.194115   -1.160117
  H      7.280277   -1.388341    0.352306
  O      4.725956   -1.170339    1.176485
  H      4.900603   -1.373890   -1.947176

 Total Charge           Charge          ....    1
 Multiplicity           Mult            ....    1
 Number of Electrons    NEL             ....  198
 Basis Dimension        Dim             .... 3598

ORBITAL ENERGIES
----------------

  NO   OCC          E(Eh)            E(eV)
   0   2.0000     -20.785357      -565.5983
   1   2.0000     -20.737770      -564.3034
   2   2.0000     -20.700031      -563.2765
   3   2.0000     -20.596849      -560.4688
   4   2.0000     -15.775188      -429.2647
   5   2.0000     -15.672651      -426.4745
   6   2.0000     -11.480906      -312.4113
   7   2.0000     -11.435188      -311.1673
   8   2.0000     -11.432911      -311.1053
   9   2.0000     -11.411320      -310.5178
  10   2.0000     -11.392274      -309.9995
  11   2.0000     -11.389395      -309.9212
  12   2.0000     -11.382196      -309.7253
  13   2.0000     -11.374918      -309.5273
  14   2.0000     -11.373966      -309.5014
  15   2.0000     -11.372315      -309.4564
  16   2.0000     -11.367586      -309.3277
  17   2.0000     -11.349876      -308.8458
  18   2.0000     -11.344776      -308.7071
  19   2.0000     -11.330064      -308.3067
  20   2.0000     -11.327928      -308.2486
  21   2.0000     -11.326072      -308.1981
  22   2.0000     -11.324142      -308.1456
  23   2.0000     -11.318113      -307.9815
  24   2.0000     -11.310210      -307.7665
  25   2.0000     -11.297801      -307.4288
  26   2.0000      -1.622471       -44.1497
  27   2.0000      -1.566831       -42.6357
  28   2.0000      -1.535007       -41.7697
  29   2.0000      -1.469206       -39.9791
  30   2.0000      -1.329193       -36.1692
  31   2.0000      -1.294027       -35.2123
  32   2.0000      -1.286831       -35.0164
  33   2.0000      -1.213816       -33.0296
  34   2.0000      -1.189518       -32.3684
  35   2.0000      -1.153543       -31.3895
  36   2.0000      -1.150234       -31.2995
  37   2.0000      -1.109026       -30.1781
  38   2.0000      -1.100453       -29.9448
  39   2.0000      -1.072447       -29.1828
  40   2.0000      -1.060249       -28.8508
  41   2.0000      -1.055261       -28.7151
  42   2.0000      -1.040651       -28.3175
  43   2.0000      -1.038104       -28.2483
  44   2.0000      -1.019926       -27.7536
  45   2.0000      -0.958253       -26.0754
  46   2.0000      -0.957230       -26.0476
  47   2.0000      -0.931281       -25.3415
  48   2.0000      -0.927236       -25.2314
  49   2.0000      -0.894986       -24.3538
  50   2.0000      -0.861544       -23.4438
  51   2.0000      -0.852875       -23.2079
  52   2.0000      -0.831750       -22.6331
  53   2.0000      -0.820153       -22.3175
  54   2.0000      -0.816299       -22.2126
  55   2.0000      -0.807978       -21.9862
  56   2.0000      -0.789831       -21.4924
  57   2.0000      -0.786426       -21.3997
  58   2.0000      -0.780341       -21.2342
  59   2.0000      -0.771776       -21.0011
  60   2.0000      -0.765444       -20.8288
  61   2.0000      -0.750949       -20.4344
  62   2.0000      -0.741696       -20.1826
  63   2.0000      -0.726415       -19.7668
  64   2.0000      -0.722683       -19.6652
  65   2.0000      -0.716635       -19.5006
  66   2.0000      -0.711038       -19.3483
  67   2.0000      -0.703819       -19.1519
  68   2.0000      -0.696612       -18.9558
  69   2.0000      -0.691972       -18.8295
  70   2.0000      -0.688759       -18.7421
  71   2.0000      -0.685509       -18.6536
  72   2.0000      -0.671874       -18.2826
  73   2.0000      -0.667823       -18.1724
  74   2.0000      -0.663183       -18.0461
  75   2.0000      -0.660506       -17.9733
  76   2.0000      -0.657097       -17.8805
  77   2.0000      -0.649874       -17.6840
  78   2.0000      -0.647271       -17.6131
  79   2.0000      -0.640223       -17.4213
  80   2.0000      -0.636674       -17.3248
  81   2.0000      -0.635606       -17.2957
  82   2.0000      -0.632450       -17.2098
  83   2.0000      -0.628037       -17.0898
  84   2.0000      -0.624780       -17.0011
  85   2.0000      -0.610283       -16.6066
  86   2.0000      -0.598966       -16.2987
  87   2.0000      -0.597376       -16.2554
  88   2.0000      -0.593592       -16.1524
  89   2.0000      -0.590694       -16.0736
  90   2.0000      -0.580966       -15.8089
  91   2.0000      -0.575913       -15.6714
  92   2.0000      -0.567796       -15.4505
  93   2.0000      -0.555295       -15.1103
  94   2.0000      -0.504954       -13.7405
  95   2.0000      -0.484122       -13.1736
  96   2.0000      -0.480427       -13.0731
  97   2.0000      -0.470071       -12.7913
  98   2.0000      -0.403812       -10.9883
  99   0.0000      -0.136988        -3.7276
 100   0.0000      -0.057284        -1.5588
 101   0.0000      -0.051628        -1.4049
 102   0.0000      -0.046640        -1.2691
 103   0.0000      -0.044356        -1.2070

MULLIKEN ATOMIC CHARGES
-----------------------
   0 C :    1.634617
   1 C :    1.525333
   2 C :   -0.786684
   3 C :    1.214415
   4 C :   -0.808634
   5 H :    0.298574
   6 H :    0.085400
   7 H :    0.400929
   8 H :    0.040353
   9 H :    0.103684
  10 N :    2.111066
  11 O :   -1.420809
  12 C :   -1.429703
  13 H :    0.276975
  14 H :    0.209051
  15 H :    0.162508
  16 C :   -1.258633
  17 H :    0.293191
  18 H :    0.231096
  19 H :    0.048494
  20 C :   -1.457392
  21 H :    0.214138
  22 H :    0.263501
  23 H :    0.164007
  24 C :   -1.483993
  25 H :    0.438655
  26 H :    0.277533
  27 H :    0.016067
  28 C :    1.208438
  29 H :    0.460143
  30 H :    0.188808
  31 C :    0.385417
  32 C :   -0.291646
  33 C :   -0.628036
  34 C :   -0.675022
  35 H :    0.255087
  36 C :   -0.578491
  37 H :    0.166669
  38 C :    1.527161
  39 H :    0.145380
  40 H :    0.116243
  41 O :   -0.943492
  42 C :   -0.973498
  43 H :    0.324238
  44 H :    0.327622
  45 H :    0.377759
  46 O :   -0.920995
  47 C :   -0.826740
  48 H :    0.296369
  49 H :    0.495913
  50 H :    0.301282
  51 N :   -0.842211
  52 C :    0.876997
  53 C :   -0.859781
  54 H :    0.270682
  55 H :    0.246421
  56 H :    0.270292
  57 O :   -0.987032
  58 H :   -0.077717
Sum of atomic charges:    1.0000000

LOEWDIN ATOMIC CHARGES
----------------------
   0 C :   -0.361901
   1 C :   -0.372777
   2 C :    0.525457
   3 C :    0.049020
   4 C :    0.571694
   5 H :   -0.313223
   6 H :   -0.242336
   7 H :   -0.309770
   8 H :   -0.282531
   9 H :   -0.274573
  10 N :    0.185168
  11 O :    1.108006
  12 C :    0.938966
  13 H :   -0.365209
  14 H :   -0.256132
  15 H :   -0.270746
  16 C :    0.909876
  17 H :   -0.294301
  18 H :   -0.274860
  19 H :   -0.248710
  20 C :    0.926967
  21 H :   -0.247963
  22 H :   -0.315789
  23 H :   -0.254874
  24 C :    0.952584
  25 H :   -0.315143
  26 H :   -0.275373
  27 H :   -0.241429
  28 C :    0.011064
  29 H :   -0.250185
  30 H :   -0.925505
  31 C :   -0.077456
  32 C :    0.359778
  33 C :    0.362586
  34 C :    0.378282
  35 H :   -0.309319
  36 C :    0.368754
  37 H :   -0.284614
  38 C :   -0.439506
  39 H :   -0.342311
  40 H :   -0.309507
  41 O :    0.954129
  42 C :    0.670572
  43 H :   -0.320697
  44 H :   -0.275913
  45 H :   -0.292636
  46 O :    0.903529
  47 C :    0.621061
  48 H :   -0.297497
  49 H :   -0.305014
  50 H :   -0.296359
  51 N :    0.888305
  52 C :   -0.785943
  53 C :    0.918329
  54 H :   -0.288356
  55 H :   -0.303571
  56 H :   -0.288760
  57 O :    0.788519
  58 H :   -0.481857

  Mayer bond orders larger than 0.100000
B(  0-C ,  1-C ) :   0.4043 B(  0-C ,  2-C ) :  -0.1084 B(  0-C ,  3-C ) :   0.1268
B(  0-C ,  4-C ) :   0.2099 B(  0-C ,  8-H ) :  -0.2128 B(  0-C ,  9-H ) :  -0.1112
B(  0-C , 10-N ) :   0.5866 B(  0-C , 12-C ) :  -0.1300 B(  0-C , 13-H ) :  -0.1911
B(  0-C , 14-H ) :  -0.1407 B(  0-C , 15-H ) :  -0.2069 B(  0-C , 16-C ) :  -0.1369
B(  0-C , 17-H ) :  -0.3006 B(  0-C , 18-H ) :  -0.2704 B(  0-C , 19-H ) :  -0.1601
B(  0-C , 57-O ) :   0.1068 B(  1-C ,  2-C ) :   0.6303 B(  1-C , 10-N ) :   0.8406
B(  1-C , 20-C ) :  -0.2103 B(  1-C , 21-H ) :  -0.3579 B(  1-C , 22-H ) :  -0.2670
B(  1-C , 23-H ) :  -0.2192 B(  1-C , 24-C ) :   0.3721 B(  1-C , 26-H ) :  -0.1225
B(  1-C , 31-C ) :   0.1060 B(  2-C ,  3-C ) :   0.8017 B(  2-C ,  4-C ) :   0.1365
B(  2-C ,  5-H ) :   1.0217 B(  2-C ,  6-H ) :   1.0709 B(  2-C , 20-C ) :   0.1319
B(  2-C , 51-N ) :   0.1229 B(  2-C , 57-O ) :   0.1137 B(  3-C ,  4-C ) :   0.5799
B(  3-C ,  7-H ) :   0.8546 B(  3-C ,  8-H ) :  -0.1195 B(  3-C , 51-N ) :  -0.2424
B(  3-C , 57-O ) :   0.1884 B(  3-C , 58-H ) :  -0.3219 B(  4-C ,  8-H ) :   1.2945
B(  4-C ,  9-H ) :   1.2617 B(  4-C , 16-C ) :   0.1186 B(  4-C , 51-N ) :   0.1779
B(  4-C , 57-O ) :  -0.2098 B(  5-H , 57-O ) :  -0.2026 B(  8-H , 57-O ) :   0.1282
B( 10-N , 11-O ) :  -0.4685 B( 10-N , 12-C ) :  -0.2794 B( 10-N , 15-H ) :  -0.1102
B( 10-N , 16-C ) :  -0.3735 B( 10-N , 19-H ) :  -0.1295 B( 10-N , 24-C ) :  -0.2569
B( 10-N , 27-H ) :  -0.1034 B( 10-N , 28-C ) :   0.2289 B( 10-N , 33-C ) :  -0.1220
B( 10-N , 41-O ) :   0.1177 B( 11-O , 16-C ) :   0.1251 B( 11-O , 30-H ) :   0.2718
B( 11-O , 31-C ) :   0.1776 B( 12-C , 13-H ) :   1.1143 B( 12-C , 14-H ) :   1.1321
B( 12-C , 15-H ) :   1.3342 B( 12-C , 16-C ) :   0.1213 B( 16-C , 17-H ) :   1.0311
B( 16-C , 18-H ) :   1.1137 B( 16-C , 19-H ) :   1.3621 B( 20-C , 21-H ) :   1.2725
B( 20-C , 22-H ) :   1.0507 B( 20-C , 23-H ) :   1.1886 B( 20-C , 24-C ) :   0.1540
B( 20-C , 33-C ) :   0.1065 B( 22-H , 31-C ) :   0.1424 B( 24-C , 25-H ) :   0.7231
B( 24-C , 26-H ) :   1.0653 B( 24-C , 27-H ) :   1.3734 B( 25-H , 27-H ) :  -0.1765
B( 28-C , 29-H ) :   1.0411 B( 28-C , 30-H ) :   0.3772 B( 28-C , 31-C ) :   0.4497
B( 28-C , 32-C ) :  -0.3349 B( 28-C , 33-C ) :  -0.6862 B( 28-C , 41-O ) :   0.6520
B( 28-C , 42-C ) :  -0.3290 B( 29-H , 31-C ) :  -0.2620 B( 29-H , 33-C ) :  -0.1362
B( 30-H , 31-C ) :   0.1409 B( 30-H , 41-O ) :   0.1394 B( 31-C , 32-C ) :   0.9037
B( 31-C , 33-C ) :   1.1180 B( 31-C , 34-C ) :  -0.4837 B( 31-C , 36-C ) :  -0.2748
B( 31-C , 37-H ) :  -0.1169 B( 31-C , 41-O ) :  -0.2329 B( 32-C , 34-C ) :   1.0214
B( 32-C , 35-H ) :   1.0188 B( 32-C , 38-C ) :  -0.1046 B( 32-C , 39-H ) :  -0.1751
B( 33-C , 34-C ) :   0.1423 B( 33-C , 36-C ) :   1.5808 B( 33-C , 37-H ) :   1.2032
B( 34-C , 35-H ) :  -0.1538 B( 34-C , 38-C ) :   1.3132 B( 34-C , 39-H ) :   1.2024
B( 34-C , 46-O ) :   0.4008 B( 34-C , 47-C ) :   0.2323 B( 36-C , 37-H ) :  -0.1293
B( 36-C , 38-C ) :   1.0443 B( 36-C , 40-H ) :   1.1739 B( 36-C , 46-O ) :   0.2987
B( 38-C , 40-H ) :  -0.1485 B( 38-C , 46-O ) :  -0.4489 B( 38-C , 47-C ) :  -0.2976
B( 40-H , 46-O ) :   0.1263 B( 41-O , 42-C ) :   0.9995 B( 42-C , 43-H ) :   0.8836
B( 42-C , 44-H ) :   0.9704 B( 42-C , 45-H ) :   0.9200 B( 46-O , 47-C ) :   0.9627
B( 47-C , 48-H ) :   0.8735 B( 47-C , 49-H ) :   0.7752 B( 47-C , 50-H ) :   0.8961
B( 51-N , 52-C ) :   1.0587 B( 51-N , 53-C ) :  -0.1494 B( 51-N , 58-H ) :   1.5168
B( 52-C , 53-C ) :   0.6095 B( 52-C , 54-H ) :  -0.1056 B( 52-C , 55-H ) :  -0.1530
B( 52-C , 56-H ) :  -0.1062 B( 52-C , 57-O ) :   1.0044 B( 53-C , 54-H ) :   1.0126
B( 53-C , 55-H ) :   1.0327 B( 53-C , 56-H ) :   1.0169

MP2 TOTAL ENERGY:    -1190.149494547 Eh
FINAL SINGLE POINT ENERGY     -1190.149494547207

DIPOLE MOMENT
-------------
                                X             Y             Z
Electronic contribution:    -13.26643      -2.36250       4.65226
Nuclear contribution   :     11.99044       3.43967      -6.59295
                        -----------------------------------------
Total Dipole Moment    :     -1.27599       1.07716      -1.94070
                        -----------------------------------------
Magnitude (a.u.)       :      2.56022
Magnitude (Debye)      :      6.50757

Rotational constants in cm-1:     0.011535     0.003468     0.003018
Rotational constants in MHz :   345.801924   103.954928    90.474288

                             ****ORCA TERMINATED NORMALLY****
TOTAL RUN TIME: 1 days 11 hours 55 minutes 44 seconds 72 msec
