                         Program Version 4.2.1 -  RELEASE  -
|  1> %pal
|  2>  nprocs 32
|  3> end
|  4> !RI-MP2 aug-cc-pVQZ aug-cc-pVQZ/C TightSCF
|  5> %maxcore 4500
|  6> *xyzfile 0 1  03_10R1.xyz
|  7>
|  8>
|  9>                          ****END OF INPUT****

CARTESIAN COORDINATES (ANGSTROEM)
---------------------------------
  C      0.272587    0.436301   -0.493132
  C      1.458203   -0.458749   -0.090540
  O      2.579185    0.223737    0.121540
  O      1.398465   -1.653247   -0.005949
  C     -1.086187   -0.087798    0.013207
  H      0.244913    0.397666   -1.586353
  N      0.573657    1.816886   -0.123441
  H      2.337353    1.170273    0.020348
  C     -1.140502   -0.258333    1.517490
  C     -1.553208   -1.318942   -0.731103
  H      0.283117    2.018736    0.827506
  H      0.082568    2.466194   -0.723983
  H     -0.839595    0.651775    2.040813
  H     -2.161601   -0.491533    1.819482
  H     -2.559536   -1.583063   -0.403091
  H     -0.877130   -2.150818   -0.542423
  H     -1.580214   -1.122824   -1.804496
  H     -0.488060   -1.075229    1.826172
  F     -1.998219    0.951314   -0.314462

 Total Charge           Charge          ....    0
 Multiplicity           Mult            ....    1
 Number of Electrons    NEL             ....   72
 Basis Dimension        Dim             .... 1180

ORBITAL ENERGIES
----------------

  NO   OCC          E(Eh)            E(eV)
   0   2.0000     -26.278246      -715.0674
   1   2.0000     -20.601256      -560.5887
   2   2.0000     -20.542079      -558.9784
   3   2.0000     -15.584226      -424.0684
   4   2.0000     -11.384335      -309.7835
   5   2.0000     -11.334346      -308.4232
   6   2.0000     -11.299097      -307.4641
   7   2.0000     -11.234002      -305.6927
   8   2.0000     -11.223099      -305.3960
   9   2.0000      -1.589317       -43.2475
  10   2.0000      -1.464725       -39.8572
  11   2.0000      -1.367809       -37.2200
  12   2.0000      -1.230660       -33.4880
  13   2.0000      -1.092577       -29.7305
  14   2.0000      -0.975788       -26.5526
  15   2.0000      -0.959706       -26.1149
  16   2.0000      -0.837604       -22.7924
  17   2.0000      -0.809718       -22.0335
  18   2.0000      -0.750247       -20.4153
  19   2.0000      -0.721146       -19.6234
  20   2.0000      -0.692754       -18.8508
  21   2.0000      -0.678232       -18.4556
  22   2.0000      -0.663966       -18.0674
  23   2.0000      -0.649798       -17.6819
  24   2.0000      -0.639569       -17.4036
  25   2.0000      -0.611031       -16.6270
  26   2.0000      -0.585287       -15.9265
  27   2.0000      -0.577823       -15.7233
  28   2.0000      -0.562014       -15.2932
  29   2.0000      -0.551676       -15.0119
  30   2.0000      -0.541693       -14.7402
  31   2.0000      -0.517572       -14.0839
  32   2.0000      -0.497116       -13.5272
  33   2.0000      -0.477107       -12.9827
  34   2.0000      -0.464714       -12.6455
  35   2.0000      -0.428343       -11.6558
  36   0.0000       0.020277         0.5518
  37   0.0000       0.028669         0.7801
  38   0.0000       0.030213         0.8221
  39   0.0000       0.040960         1.1146
  40   0.0000       0.044967         1.2236

MULLIKEN ATOMIC CHARGES
-----------------------
   0 C :   -0.007313
   1 C :    1.330307
   2 O :   -0.924937
   3 O :   -0.864830
   4 C :    1.260991
   5 H :    0.340773
   6 N :   -0.727283
   7 H :    0.403031
   8 C :   -0.992666
   9 C :   -0.963661
  10 H :    0.247530
  11 H :    0.183100
  12 H :    0.246622
  13 H :    0.309213
  14 H :    0.265113
  15 H :    0.251004
  16 H :    0.250945
  17 H :    0.226233
  18 F :   -0.834171
Sum of atomic charges:   -0.0000000

LOEWDIN ATOMIC CHARGES
----------------------
   0 C :   -0.096021
   1 C :   -1.013215
   2 O :    1.269051
   3 O :    0.719976
   4 C :   -0.831526
   5 H :   -0.303497
   6 N :    1.298873
   7 H :   -0.947734
   8 C :    0.895644
   9 C :    0.888164
  10 H :   -0.486460
  11 H :   -0.458476
  12 H :   -0.285341
  13 H :   -0.275733
  14 H :   -0.277795
  15 H :   -0.327959
  16 H :   -0.277051
  17 H :   -0.287501
  18 F :    0.796603

  Mayer bond orders larger than 0.100000
B(  0-C ,  1-C ) :   1.1198 B(  0-C ,  2-O ) :   0.1670 B(  0-C ,  3-O ) :   0.1959
B(  0-C ,  4-C ) :   0.8672 B(  0-C ,  5-H ) :   0.7750 B(  0-C ,  6-N ) :   0.6355
B(  0-C , 18-F ) :   0.1940 B(  1-C ,  2-O ) :   0.5406 B(  1-C ,  3-O ) :   1.3024
B(  2-O ,  3-O ) :   0.1477 B(  2-O ,  7-H ) :   0.7478 B(  4-C ,  8-C ) :   0.6688
B(  4-C ,  9-C ) :   0.7116 B(  4-C , 18-F ) :  -0.3322 B(  6-N ,  7-H ) :   0.1183
B(  6-N , 10-H ) :   0.9524 B(  6-N , 11-H ) :   1.0309 B(  8-C , 12-H ) :   1.0006
B(  8-C , 13-H ) :   0.9534 B(  8-C , 17-H ) :   1.0022 B(  8-C , 18-F ) :   0.1301
B(  9-C , 14-H ) :   1.0043 B(  9-C , 15-H ) :   0.9995 B(  9-C , 16-H ) :   0.9773
B(  9-C , 18-F ) :   0.1260

MP2 TOTAL ENERGY:     -500.949922347 Eh
FINAL SINGLE POINT ENERGY      -500.949922346830

DIPOLE MOMENT
-------------
                                X             Y             Z
Electronic contribution:      2.80535       1.77286      -1.78375
Nuclear contribution   :     -3.52086      -0.67061       1.78673
                        -----------------------------------------
Total Dipole Moment    :     -0.71551       1.10224       0.00298
                        -----------------------------------------
Magnitude (a.u.)       :      1.31412
Magnitude (Debye)      :      3.34022

Rotational constants in cm-1:     0.079063     0.043961     0.035032
Rotational constants in MHz :  2370.263848  1317.926385  1050.234658

                             ****ORCA TERMINATED NORMALLY****
TOTAL RUN TIME: 0 days 0 hours 41 minutes 54 seconds 338 msec
