                         Program Version 4.2.1 -  RELEASE  -
|  1> %pal
|  2>  nprocs 32
|  3> end
|  4> !RI-MP2 aug-cc-pVQZ aug-cc-pVQZ/C TightSCF
|  5> %maxcore 4500
|  6> *xyzfile 0 1  05_32R1.xyz
|  7>
|  8>
|  9>                          ****END OF INPUT****

CARTESIAN COORDINATES (ANGSTROEM)
---------------------------------
  C      2.577036    1.242646   -0.348595
  C      1.280041    1.223418    0.150913
  C      0.663458    0.023144    0.488468
  C      1.380353   -1.160522    0.317424
  C      2.672765   -1.145212   -0.182277
  C      3.277961    0.059242   -0.518634
  H      3.037179    2.188941   -0.607429
  H      0.754412    2.161696    0.271397
  H      0.905137   -2.098620    0.575946
  H      3.211412   -2.077020   -0.308457
  H      4.287946    0.073472   -0.910148
  C     -0.734277   -0.051794    1.094135
  C     -1.634092    1.157767    0.839527
  C     -2.098599    1.217219   -0.614603
  C     -1.790878   -1.259820   -0.673905
  C     -2.736953   -0.115637   -1.001104
  H     -1.246485    1.416751   -1.271884
  H     -2.805446    2.038856   -0.752244
  H     -0.901360   -1.207082   -1.315032
  H     -2.264455   -2.228887   -0.832385
  O     -1.401785   -1.246824    0.693772
  H     -2.982485   -0.139908   -2.066457
  H     -3.670018   -0.254401   -0.445761
  H     -2.506277    1.050606    1.490598
  H     -1.132955    2.079591    1.139812
  H     -0.613213   -0.172104    2.173776

 Total Charge           Charge          ....    0
 Multiplicity           Mult            ....    1
 Number of Electrons    NEL             ....   88
 Basis Dimension        Dim             .... 1604

ORBITAL ENERGIES
----------------

  NO   OCC          E(Eh)            E(eV)
   0   2.0000     -20.546868      -559.1087
   1   2.0000     -11.281106      -306.9745
   2   2.0000     -11.265124      -306.5396
   3   2.0000     -11.234895      -305.7170
   4   2.0000     -11.231627      -305.6281
   5   2.0000     -11.230445      -305.5959
   6   2.0000     -11.229298      -305.5647
   7   2.0000     -11.228573      -305.5450
   8   2.0000     -11.224400      -305.4315
   9   2.0000     -11.220740      -305.3319
  10   2.0000     -11.219878      -305.3084
  11   2.0000     -11.217287      -305.2379
  12   2.0000      -1.371681       -37.3253
  13   2.0000      -1.155002       -31.4292
  14   2.0000      -1.080587       -29.4043
  15   2.0000      -1.051982       -28.6259
  16   2.0000      -1.013396       -27.5759
  17   2.0000      -0.996629       -27.1197
  18   2.0000      -0.883844       -24.0506
  19   2.0000      -0.868117       -23.6227
  20   2.0000      -0.822763       -22.3885
  21   2.0000      -0.813260       -22.1299
  22   2.0000      -0.754777       -20.5385
  23   2.0000      -0.697969       -18.9927
  24   2.0000      -0.679493       -18.4900
  25   2.0000      -0.648782       -17.6542
  26   2.0000      -0.635467       -17.2919
  27   2.0000      -0.626327       -17.0432
  28   2.0000      -0.606584       -16.5060
  29   2.0000      -0.598462       -16.2850
  30   2.0000      -0.582222       -15.8431
  31   2.0000      -0.576708       -15.6930
  32   2.0000      -0.548096       -14.9145
  33   2.0000      -0.542847       -14.7716
  34   2.0000      -0.521991       -14.2041
  35   2.0000      -0.502042       -13.6612
  36   2.0000      -0.492867       -13.4116
  37   2.0000      -0.485037       -13.1985
  38   2.0000      -0.479159       -13.0386
  39   2.0000      -0.458837       -12.4856
  40   2.0000      -0.439470       -11.9586
  41   2.0000      -0.407139       -11.0788
  42   2.0000      -0.336379        -9.1533
  43   2.0000      -0.328500        -8.9389
  44   0.0000       0.023114         0.6290
  45   0.0000       0.026931         0.7328
  46   0.0000       0.028908         0.7866
  47   0.0000       0.031307         0.8519
  48   0.0000       0.038240         1.0406

MULLIKEN ATOMIC CHARGES
-----------------------
   0 C :   -0.429638
   1 C :   -0.599012
   2 C :    0.794872
   3 C :   -0.630375
   4 C :   -0.407763
   5 C :   -0.450516
   6 H :    0.218034
   7 H :    0.276578
   8 H :    0.245697
   9 H :    0.209650
  10 H :    0.318188
  11 C :    0.989550
  12 C :   -0.625395
  13 C :   -0.399002
  14 C :   -0.207898
  15 C :   -0.621133
  16 H :    0.216087
  17 H :    0.307465
  18 H :    0.133695
  19 H :    0.396824
  20 O :   -1.268844
  21 H :    0.286357
  22 H :    0.176198
  23 H :    0.187487
  24 H :    0.272058
  25 H :    0.610833
Sum of atomic charges:   -0.0000000

LOEWDIN ATOMIC CHARGES
----------------------
   0 C :    0.353100
   1 C :    0.348181
   2 C :   -0.073719
   3 C :    0.335511
   4 C :    0.352421
   5 C :    0.337894
   6 H :   -0.318437
   7 H :   -0.342150
   8 H :   -0.323589
   9 H :   -0.318726
  10 H :   -0.322639
  11 C :   -0.216227
  12 C :    0.513777
  13 C :    0.532578
  14 C :    0.188904
  15 C :    0.530518
  16 H :   -0.274049
  17 H :   -0.252314
  18 H :   -0.300615
  19 H :   -0.294975
  20 O :    0.923883
  21 H :   -0.259545
  22 H :   -0.266466
  23 H :   -0.262153
  24 H :   -0.285311
  25 H :   -0.305853

  Mayer bond orders larger than 0.100000
B(  0-C ,  1-C ) :   1.3475 B(  0-C ,  2-C ) :  -0.4857 B(  0-C ,  3-C ) :   0.1531
B(  0-C ,  5-C ) :   1.2202 B(  0-C ,  6-H ) :   1.1669 B(  1-C ,  2-C ) :   0.6193
B(  1-C ,  4-C ) :   0.1577 B(  1-C ,  6-H ) :  -0.1526 B(  1-C ,  7-H ) :   0.9894
B(  2-C ,  3-C ) :   0.7718 B(  2-C ,  4-C ) :  -0.3865 B(  2-C , 11-C ) :   0.4920
B(  3-C ,  4-C ) :   1.3670 B(  3-C ,  8-H ) :   1.0111 B(  3-C ,  9-H ) :  -0.1640
B(  3-C , 11-C ) :  -0.2131 B(  4-C ,  5-C ) :   1.1632 B(  4-C ,  9-H ) :   1.1817
B(  5-C , 10-H ) :   1.0415 B( 11-C , 12-C ) :   0.8660 B( 11-C , 20-O ) :   0.1153
B( 11-C , 25-H ) :   0.6985 B( 12-C , 13-C ) :   0.8422 B( 12-C , 23-H ) :   1.0391
B( 12-C , 24-H ) :   0.9669 B( 13-C , 15-C ) :   0.9160 B( 13-C , 16-H ) :   0.9501
B( 13-C , 17-H ) :   0.8759 B( 14-C , 15-C ) :   1.0130 B( 14-C , 18-H ) :   1.0703
B( 14-C , 19-H ) :   0.8070 B( 14-C , 20-O ) :   0.7077 B( 15-C , 21-H ) :   0.9073
B( 15-C , 22-H ) :   0.9594 B( 20-O , 25-H ) :  -0.1303

MP2 TOTAL ENERGY:     -501.939295555 Eh
FINAL SINGLE POINT ENERGY      -501.939295554832

DIPOLE MOMENT
-------------
                                X             Y             Z
Electronic contribution:      5.99729      -2.42438       2.55389
Nuclear contribution   :     -6.06012       2.86491      -2.90066
                        -----------------------------------------
Total Dipole Moment    :     -0.06283       0.44052      -0.34677
                        -----------------------------------------
Magnitude (a.u.)       :      0.56414
Magnitude (Debye)      :      1.43394

Rotational constants in cm-1:     0.063815     0.022169     0.019546
Rotational constants in MHz :  1913.121984   664.602344   585.968567

                             ****ORCA TERMINATED NORMALLY****
TOTAL RUN TIME: 0 days 2 hours 0 minutes 33 seconds 255 msec
