                         Program Version 4.2.1 -  RELEASE  -
|  1> %pal
|  2>  nprocs 32
|  3> end
|  4> !RI-MP2 aug-cc-pVQZ aug-cc-pVQZ/C TightSCF
|  5> %maxcore 4500
|  6> *xyzfile -1 1  07_4R2.xyz
|  7>
|  8>
|  9>                          ****END OF INPUT****

CARTESIAN COORDINATES (ANGSTROEM)
---------------------------------
  C     -1.186446   -0.780886    0.000026
  C     -0.133601    0.110327   -0.000005
  O     -0.187385    1.376818   -0.000042
  C      1.284413   -0.484208    0.000013
  H     -1.020451   -1.852210    0.000060
  H     -2.208040   -0.415206    0.000018
  H      1.823176   -0.119984    0.880759
  H      1.823174   -0.120040   -0.880757
  H      1.295027   -1.578508    0.000048

 Total Charge           Charge          ....   -1
 Multiplicity           Mult            ....    1
 Number of Electrons    NEL             ....   32
 Basis Dimension        Dim             ....  550

ORBITAL ENERGIES
----------------

  NO   OCC          E(Eh)            E(eV)
   0   2.0000     -20.266060      -551.4675
   1   2.0000     -11.081741      -301.5495
   2   2.0000     -11.040870      -300.4374
   3   2.0000     -10.976278      -298.6797
   4   2.0000      -1.096727       -29.8435
   5   2.0000      -0.814620       -22.1670
   6   2.0000      -0.725510       -19.7421
   7   2.0000      -0.502782       -13.6814
   8   2.0000      -0.411226       -11.1900
   9   2.0000      -0.404460       -11.0059
  10   2.0000      -0.396819       -10.7980
  11   2.0000      -0.340087        -9.2542
  12   2.0000      -0.303506        -8.2588
  13   2.0000      -0.271311        -7.3827
  14   2.0000      -0.172843        -4.7033
  15   2.0000      -0.081444        -2.2162
  16   0.0000       0.120146         3.2693
  17   0.0000       0.126798         3.4504
  18   0.0000       0.133615         3.6359
  19   0.0000       0.136010         3.7010
  20   0.0000       0.143967         3.9176

MULLIKEN ATOMIC CHARGES
-----------------------
   0 C :   -1.159751
   1 C :    0.720885
   2 O :   -0.967740
   3 C :   -0.798026
   4 H :    0.230905
   5 H :    0.291293
   6 H :    0.217245
   7 H :    0.217245
   8 H :    0.247943
Sum of atomic charges:   -1.0000000

LOEWDIN ATOMIC CHARGES
----------------------
   0 C :    0.589261
   1 C :   -0.917644
   2 O :    0.503924
   3 C :    0.751198
   4 H :   -0.460246
   5 H :   -0.449904
   6 H :   -0.332086
   7 H :   -0.332086
   8 H :   -0.352416

  Mayer bond orders larger than 0.100000
B(  0-C ,  1-C ) :   1.4167 B(  0-C ,  2-O ) :   0.1562 B(  0-C ,  4-H ) :   1.0198
B(  0-C ,  5-H ) :   0.9821 B(  1-C ,  2-O ) :   1.0372 B(  1-C ,  3-C ) :   0.8736
B(  2-O ,  3-C ) :   0.1047 B(  3-C ,  6-H ) :   0.9665 B(  3-C ,  7-H ) :   0.9665
B(  3-C ,  8-H ) :   0.9667

MP2 TOTAL ENERGY:     -192.249751314 Eh
FINAL SINGLE POINT ENERGY      -192.249751314016

DIPOLE MOMENT
-------------
                                X             Y             Z
Electronic contribution:     -0.79608       3.27625      -0.00010
Nuclear contribution   :      1.74433      -4.14601       0.00013
                        -----------------------------------------
Total Dipole Moment    :      0.94826      -0.86977       0.00003
                        -----------------------------------------
Magnitude (a.u.)       :      1.28673
Magnitude (Debye)      :      3.27062

Rotational constants in cm-1:     0.350780     0.315836     0.171484
Rotational constants in MHz : 10516.107784  9468.523507  5140.955587

                             ****ORCA TERMINATED NORMALLY****
TOTAL RUN TIME: 0 days 0 hours 3 minutes 13 seconds 113 msec
