                         Program Version 4.2.1 -  RELEASE  -
|  1> %pal
|  2>  nprocs 32
|  3> end
|  4> !RI-MP2 aug-cc-pVQZ aug-cc-pVQZ/C TightSCF
|  5> %maxcore 4500
|  6> *xyzfile 0 2  03_42P1.xyz
|  7>
|  8>
|  9>                          ****END OF INPUT****

CARTESIAN COORDINATES (ANGSTROEM)
---------------------------------
  O     -3.396627    1.102294   -0.874701
  C     -2.886958    0.072982   -0.624226
  C     -2.367933   -0.431473    0.703554
  C     -1.069275   -1.221576    0.563752
  H     -3.160098   -1.080317    1.090429
  H     -2.275384    0.419068    1.385793
  H     -0.785386   -1.600922    1.550823
  C      0.096100   -0.426996   -0.026945
  H     -1.258894   -2.095522   -0.066150
  C      0.510405    0.759050    0.849561
  H     -0.226065   -0.029562   -1.000167
  C      1.295775   -1.344072   -0.278242
  H      1.593469   -1.803476    0.673361
  C      2.486619   -0.591477   -0.868148
  H      1.000371   -2.163297   -0.940650
  C      2.888566    0.589314    0.013136
  H      2.220734   -0.222751   -1.865781
  H      3.331554   -1.272116   -1.002464
  C      1.700919    1.516194    0.262102
  H      3.712581    1.142736   -0.445016
  H      3.259769    0.212351    0.973757
  H      1.398881    1.977808   -0.685248
  H      1.988748    2.333766    0.928312
  H      0.774283    0.383879    1.847189
  H     -0.326855    1.448325    0.986152

 Total Charge           Charge          ....    0
 Multiplicity           Mult            ....    2
 Number of Electrons    NEL             ....   77
 Basis Dimension        Dim             .... 1490

ORBITAL ENERGIES
----------------
                 SPIN UP ORBITALS
  NO   OCC          E(Eh)            E(eV)
   0   1.0000     -20.589626      -560.2722
   1   1.0000     -11.332097      -308.3620
   2   1.0000     -11.258025      -306.3464
   3   1.0000     -11.234547      -305.7076
   4   1.0000     -11.228307      -305.5378
   5   1.0000     -11.218989      -305.2842
   6   1.0000     -11.218699      -305.2763
   7   1.0000     -11.216897      -305.2273
   8   1.0000     -11.216703      -305.2220
   9   1.0000     -11.215660      -305.1936
  10   1.0000      -1.439621       -39.1741
  11   1.0000      -1.135376       -30.8952
  12   1.0000      -1.081555       -29.4306
  13   1.0000      -1.010108       -27.4864
  14   1.0000      -1.005775       -27.3685
  15   1.0000      -0.901278       -24.5250
  16   1.0000      -0.836794       -22.7703
  17   1.0000      -0.811730       -22.0883
  18   1.0000      -0.767350       -20.8807
  19   1.0000      -0.750825       -20.4310
  20   1.0000      -0.669244       -18.2110
  21   1.0000      -0.666484       -18.1359
  22   1.0000      -0.648913       -17.6578
  23   1.0000      -0.624355       -16.9896
  24   1.0000      -0.609105       -16.5746
  25   1.0000      -0.603148       -16.4125
  26   1.0000      -0.598188       -16.2775
  27   1.0000      -0.550195       -14.9716
  28   1.0000      -0.546375       -14.8676
  29   1.0000      -0.535784       -14.5794
  30   1.0000      -0.529550       -14.4098
  31   1.0000      -0.501560       -13.6481
  32   1.0000      -0.493903       -13.4398
  33   1.0000      -0.485612       -13.2142
  34   1.0000      -0.477700       -12.9989
  35   1.0000      -0.456208       -12.4141
  36   1.0000      -0.431171       -11.7328
  37   1.0000      -0.428618       -11.6633
  38   1.0000      -0.353679        -9.6241
  39   0.0000       0.022548         0.6136
  40   0.0000       0.026135         0.7112
  41   0.0000       0.028171         0.7666
  42   0.0000       0.033195         0.9033
  43   0.0000       0.040323         1.0972

                 SPIN DOWN ORBITALS
  NO   OCC          E(Eh)            E(eV)
   0   1.0000     -20.578680      -559.9743
   1   1.0000     -11.313023      -307.8430
   2   1.0000     -11.252647      -306.2001
   3   1.0000     -11.234839      -305.7155
   4   1.0000     -11.228230      -305.5357
   5   1.0000     -11.218990      -305.2842
   6   1.0000     -11.218717      -305.2768
   7   1.0000     -11.216895      -305.2272
   8   1.0000     -11.216696      -305.2218
   9   1.0000     -11.215659      -305.1936
  10   1.0000      -1.411953       -38.4212
  11   1.0000      -1.134021       -30.8583
  12   1.0000      -1.072929       -29.1959
  13   1.0000      -1.008222       -27.4351
  14   1.0000      -0.998404       -27.1680
  15   1.0000      -0.890632       -24.2353
  16   1.0000      -0.836304       -22.7570
  17   1.0000      -0.805177       -21.9100
  18   1.0000      -0.760623       -20.6976
  19   1.0000      -0.718255       -19.5447
  20   1.0000      -0.657534       -17.8924
  21   1.0000      -0.650424       -17.6989
  22   1.0000      -0.622466       -16.9382
  23   1.0000      -0.608600       -16.5608
  24   1.0000      -0.602480       -16.3943
  25   1.0000      -0.597993       -16.2722
  26   1.0000      -0.567960       -15.4550
  27   1.0000      -0.547777       -14.9058
  28   1.0000      -0.535834       -14.5808
  29   1.0000      -0.529643       -14.4123
  30   1.0000      -0.505339       -13.7510
  31   1.0000      -0.501408       -13.6440
  32   1.0000      -0.486261       -13.2318
  33   1.0000      -0.481840       -13.1115
  34   1.0000      -0.474610       -12.9148
  35   1.0000      -0.455899       -12.4056
  36   1.0000      -0.430943       -11.7266
  37   1.0000      -0.428039       -11.6475
  38   0.0000       0.021812         0.5935
  39   0.0000       0.025911         0.7051
  40   0.0000       0.028257         0.7689
  41   0.0000       0.032170         0.8754
  42   0.0000       0.040273         1.0959

MULLIKEN ATOMIC CHARGES AND SPIN POPULATIONS
--------------------------------------------
   0 O :   -0.771865    0.162007
   1 C :    0.459652    0.763585
   2 C :   -0.581650    0.068475
   3 C :   -0.584731   -0.020346
   4 H :    0.365783   -0.018181
   5 H :    0.242479    0.059890
   6 H :    0.275145   -0.001964
   7 C :    0.840247    0.000084
   8 H :    0.202906   -0.017714
   9 C :   -0.413047    0.000753
  10 H :    0.066620    0.000336
  11 C :   -0.515199    0.001416
  12 H :    0.145123    0.000530
  13 C :   -0.523112   -0.000050
  14 H :    0.249712    0.001156
  15 C :   -0.468755   -0.000272
  16 H :    0.121221    0.000406
  17 H :    0.222647   -0.000059
  18 C :   -0.469709    0.001666
  19 H :    0.248500   -0.000010
  20 H :    0.102120   -0.000007
  21 H :    0.136641    0.000327
  22 H :    0.210469   -0.000063
  23 H :    0.175518    0.000113
  24 H :    0.263285   -0.002081
Sum of atomic charges         :    0.0000000

LOEWDIN ATOMIC CHARGES AND SPIN POPULATIONS
-------------------------------------------
   0 O :    0.588203    0.262018
   1 C :   -0.314751    0.484721
   2 C :    0.435477    0.148443
   3 C :    0.493554    0.023298
   4 H :   -0.303380    0.022226
   5 H :   -0.318615    0.031407
   6 H :   -0.258810    0.001276
   7 C :    0.115630    0.007384
   8 H :   -0.273372    0.006318
   9 C :    0.531938    0.002280
  10 H :   -0.274966    0.007364
  11 C :    0.532272    0.000786
  12 H :   -0.255543   -0.000011
  13 C :    0.544804    0.000033
  14 H :   -0.253470    0.000132
  15 C :    0.536419    0.000030
  16 H :   -0.259592    0.000024
  17 H :   -0.256539   -0.000002
  18 C :    0.547688    0.000273
  19 H :   -0.257861    0.000015
  20 H :   -0.261859    0.000007
  21 H :   -0.258020    0.000064
  22 H :   -0.255389    0.000026
  23 H :   -0.250922    0.000328
  24 H :   -0.272897    0.001560

  Mayer bond orders larger than 0.100000
B(  0-O ,  1-C ) :   1.6430 B(  0-O ,  7-C ) :  -0.1056 B(  0-O , 10-H ) :   0.1022
B(  1-C ,  2-C ) :   0.9749 B(  2-C ,  3-C ) :   0.9988 B(  2-C ,  4-H ) :   0.9035
B(  2-C ,  5-H ) :   0.8673 B(  2-C ,  7-C ) :  -0.2293 B(  3-C ,  6-H ) :   0.9013
B(  3-C ,  7-C ) :   0.4458 B(  3-C ,  8-H ) :   0.9941 B(  3-C , 11-C ) :   0.1136
B(  7-C ,  9-C ) :   0.6286 B(  7-C , 10-H ) :   0.9854 B(  7-C , 11-C ) :   0.4937
B(  7-C , 12-H ) :  -0.1070 B(  7-C , 13-C ) :  -0.1234 B(  9-C , 15-C ) :  -0.1165
B(  9-C , 18-C ) :   0.7374 B(  9-C , 22-H ) :  -0.1045 B(  9-C , 23-H ) :   0.9732
B(  9-C , 24-H ) :   0.9649 B( 11-C , 12-H ) :   1.0567 B( 11-C , 13-C ) :   0.8817
B( 11-C , 14-H ) :   0.9752 B( 11-C , 17-H ) :  -0.1033 B( 13-C , 15-C ) :   0.8936
B( 13-C , 16-H ) :   1.0486 B( 13-C , 17-H ) :   1.0151 B( 15-C , 18-C ) :   0.8826
B( 15-C , 19-H ) :   0.9613 B( 15-C , 20-H ) :   1.0672 B( 18-C , 21-H ) :   1.0526
B( 18-C , 22-H ) :   1.0314

MP2 TOTAL ENERGY:     -426.414975284 Eh
FINAL SINGLE POINT ENERGY      -426.414975283744

DIPOLE MOMENT
-------------
                                X             Y             Z
Electronic contribution:    -10.93758       1.70951      -2.84358
Nuclear contribution   :     11.62785      -2.42303       3.54892
                        -----------------------------------------
Total Dipole Moment    :      0.69027      -0.71351       0.70533
                        -----------------------------------------
Magnitude (a.u.)       :      1.21781
Magnitude (Debye)      :      3.09544

Rotational constants in cm-1:     0.083195     0.023042     0.020971
Rotational constants in MHz :  2494.128540   690.780451   628.698559

                             ****ORCA TERMINATED NORMALLY****
TOTAL RUN TIME: 0 days 3 hours 42 minutes 4 seconds 807 msec
