                         Program Version 4.2.1 -  RELEASE  -
|  1> %pal
|  2>  nprocs 32
|  3> end
|  4> !RI-MP2 aug-cc-pVQZ aug-cc-pVQZ/C TightSCF
|  5> %maxcore 4500
|  6> *xyzfile 0 1  06_30P.xyz
|  7>
|  8>
|  9>                          ****END OF INPUT****

CARTESIAN COORDINATES (ANGSTROEM)
---------------------------------
  C     -0.587168    2.224552   -0.220507
  C      0.206700    1.313282   -1.204048
  C      2.023799    0.956342    1.284023
  H     -1.649239    2.160316   -0.468114
  C      1.502924    1.973342   -1.717523
  H      2.095300    1.236331   -2.270226
  H      1.218629    2.734368   -2.452733
  H      2.639804    0.615755    2.121825
  H     -0.422850    1.183562   -2.090201
  C      2.385912    2.652520   -0.676870
  H      3.205110    3.156089   -1.199776
  H      1.820371    3.451606   -0.190287
  C      2.992711    1.746920    0.388040
  H      3.692677    1.055576   -0.089278
  H      3.604168    2.374837    1.045144
  C      0.934669    1.866148    1.910134
  H      0.792214    1.560352    2.951146
  C     -0.458187    1.867752    1.267528
  H     -0.915401    0.883661    1.425816
  H     -1.084911    2.560028    1.837938
  H      1.316552    2.891247    1.957283
  H     -0.305453    3.269605   -0.380859
  C      1.423904   -0.311837    0.631744
  H      0.912033   -0.888089    1.418901
  Si     2.721882   -1.609487    0.092257
  C      3.341380   -1.361436   -1.667981
  H      2.517843   -1.366252   -2.387399
  H      3.887402   -0.425904   -1.797941
  H      4.015295   -2.177861   -1.942167
  C      1.966028   -3.330001    0.178147
  H      2.745420   -4.082403    0.029012
  H      1.505664   -3.522575    1.150471
  H      1.207069   -3.491444   -0.589302
  C      4.176035   -1.566057    1.281970
  H      3.848427   -1.743242    2.309645
  H      4.891070   -2.352057    1.024229
  H      4.709028   -0.614018    1.262373
  B      0.364528   -0.078402   -0.478656
  C     -3.028154   -1.057174   -0.054367
  C     -2.060601   -0.750869   -0.915531
  C     -0.659965   -1.245178   -0.843456
  C     -4.360721   -0.446971   -0.185193
  O     -4.697200    0.359351   -1.017677
  O     -5.197001   -0.900413    0.768253
  C     -6.520875   -0.365821    0.736198
  H     -7.047362   -0.833159    1.564324
  H     -6.498508    0.717222    0.858217
  H     -7.006280   -0.604533   -0.210200
  H     -0.359153   -1.596267   -1.842605
  H     -2.878983   -1.749273    0.765757
  H     -2.311582   -0.049107   -1.706089
  H     -0.590093   -2.094116   -0.161682

 Total Charge           Charge          ....    0
 Multiplicity           Mult            ....    1
 Number of Electrons    NEL             ....  168
 Basis Dimension        Dim             .... 3110

ORBITAL ENERGIES
----------------

  NO   OCC          E(Eh)            E(eV)
   0   2.0000     -68.752673     -1870.8554
   1   2.0000     -20.591622      -560.3265
   2   2.0000     -20.525389      -558.5242
   3   2.0000     -11.367036      -309.3128
   4   2.0000     -11.276485      -306.8488
   5   2.0000     -11.256747      -306.3117
   6   2.0000     -11.224572      -305.4361
   7   2.0000     -11.224393      -305.4313
   8   2.0000     -11.216115      -305.2060
   9   2.0000     -11.215448      -305.1879
  10   2.0000     -11.213733      -305.1412
  11   2.0000     -11.213182      -305.1262
  12   2.0000     -11.213054      -305.1227
  13   2.0000     -11.210999      -305.0668
  14   2.0000     -11.210931      -305.0649
  15   2.0000     -11.199355      -304.7499
  16   2.0000     -11.196959      -304.6848
  17   2.0000     -11.196672      -304.6769
  18   2.0000     -11.194150      -304.6083
  19   2.0000     -11.183713      -304.3243
  20   2.0000      -7.582134      -206.3204
  21   2.0000      -6.101112      -166.0197
  22   2.0000      -4.207602      -114.4947
  23   2.0000      -4.207504      -114.4920
  24   2.0000      -4.207450      -114.4905
  25   2.0000      -1.451594       -39.4999
  26   2.0000      -1.346910       -36.6513
  27   2.0000      -1.117495       -30.4086
  28   2.0000      -1.093579       -29.7578
  29   2.0000      -1.047842       -28.5132
  30   2.0000      -1.043962       -28.4077
  31   2.0000      -1.000451       -27.2237
  32   2.0000      -0.979204       -26.6455
  33   2.0000      -0.955384       -25.9973
  34   2.0000      -0.935165       -25.4471
  35   2.0000      -0.927112       -25.2280
  36   2.0000      -0.924706       -25.1625
  37   2.0000      -0.916484       -24.9388
  38   2.0000      -0.880121       -23.9493
  39   2.0000      -0.813877       -22.1467
  40   2.0000      -0.796847       -21.6833
  41   2.0000      -0.785043       -21.3621
  42   2.0000      -0.747150       -20.3310
  43   2.0000      -0.716847       -19.5064
  44   2.0000      -0.708889       -19.2898
  45   2.0000      -0.669901       -18.2289
  46   2.0000      -0.664157       -18.0726
  47   2.0000      -0.662798       -18.0356
  48   2.0000      -0.645341       -17.5606
  49   2.0000      -0.625474       -17.0200
  50   2.0000      -0.618140       -16.8205
  51   2.0000      -0.605811       -16.4849
  52   2.0000      -0.600007       -16.3270
  53   2.0000      -0.590611       -16.0713
  54   2.0000      -0.583091       -15.8667
  55   2.0000      -0.575113       -15.6496
  56   2.0000      -0.572145       -15.5688
  57   2.0000      -0.569241       -15.4898
  58   2.0000      -0.568177       -15.4609
  59   2.0000      -0.556433       -15.1413
  60   2.0000      -0.553173       -15.0526
  61   2.0000      -0.547543       -14.8994
  62   2.0000      -0.542979       -14.7752
  63   2.0000      -0.540053       -14.6956
  64   2.0000      -0.534528       -14.5452
  65   2.0000      -0.533673       -14.5220
  66   2.0000      -0.525669       -14.3042
  67   2.0000      -0.518777       -14.1167
  68   2.0000      -0.513311       -13.9679
  69   2.0000      -0.492930       -13.4133
  70   2.0000      -0.486305       -13.2330
  71   2.0000      -0.477379       -12.9901
  72   2.0000      -0.466221       -12.6865
  73   2.0000      -0.456677       -12.4268
  74   2.0000      -0.452526       -12.3138
  75   2.0000      -0.447149       -12.1675
  76   2.0000      -0.441334       -12.0093
  77   2.0000      -0.434196       -11.8151
  78   2.0000      -0.433738       -11.8026
  79   2.0000      -0.420905       -11.4534
  80   2.0000      -0.416891       -11.3442
  81   2.0000      -0.407432       -11.0868
  82   2.0000      -0.385633       -10.4936
  83   2.0000      -0.358564        -9.7570
  84   0.0000       0.017849         0.4857
  85   0.0000       0.024423         0.6646
  86   0.0000       0.025102         0.6831
  87   0.0000       0.026138         0.7112
  88   0.0000       0.032557         0.8859

MULLIKEN ATOMIC CHARGES
-----------------------
   0 C :   -0.621323
   1 C :    0.754828
   2 C :    1.122892
   3 H :    0.228566
   4 C :   -0.724278
   5 H :    0.191885
   6 H :    0.027319
   7 H :    0.270813
   8 H :    0.237122
   9 C :   -0.187759
  10 H :   -0.054960
  11 H :    0.078913
  12 C :   -0.532797
  13 H :    0.305159
  14 H :   -0.050814
  15 C :   -0.680313
  16 H :   -0.007913
  17 C :   -0.501816
  18 H :    0.378698
  19 H :    0.129559
  20 H :    0.080101
  21 H :    0.077066
  22 C :   -0.351609
  23 H :    0.041381
  24 Si:    1.586258
  25 C :   -1.066060
  26 H :    0.320851
  27 H :    0.256868
  28 H :    0.095646
  29 C :   -0.949105
  30 H :    0.209077
  31 H :    0.273953
  32 H :    0.227823
  33 C :   -0.906819
  34 H :    0.210370
  35 H :    0.210329
  36 H :    0.284910
  37 B :   -0.863507
  38 C :   -1.094745
  39 C :    0.122135
  40 C :   -0.632153
  41 C :    1.812250
  42 O :   -0.951118
  43 O :   -0.872943
  44 C :   -0.839909
  45 H :    0.447720
  46 H :    0.344141
  47 H :    0.350339
  48 H :    0.494962
  49 H :    0.196960
  50 H :    0.253843
  51 H :    0.267207
Sum of atomic charges:   -0.0000000

LOEWDIN ATOMIC CHARGES
----------------------
   0 C :    0.590310
   1 C :    0.347104
   2 C :    0.158824
   3 H :   -0.259513
   4 C :    0.575248
   5 H :   -0.273906
   6 H :   -0.252105
   7 H :   -0.305063
   8 H :   -0.299385
   9 C :    0.573861
  10 H :   -0.248535
  11 H :   -0.297342
  12 C :    0.558262
  13 H :   -0.316165
  14 H :   -0.246326
  15 C :    0.598444
  16 H :   -0.253254
  17 C :    0.582985
  18 H :   -0.283155
  19 H :   -0.245423
  20 H :   -0.271070
  21 H :   -0.266472
  22 C :    0.409169
  23 H :   -0.325658
  24 Si:    0.188070
  25 C :    1.025887
  26 H :   -0.323177
  27 H :   -0.338861
  28 H :   -0.320261
  29 C :    1.011472
  30 H :   -0.327114
  31 H :   -0.319647
  32 H :   -0.346937
  33 C :    1.016702
  34 H :   -0.320056
  35 H :   -0.326627
  36 H :   -0.338737
  37 B :   -0.714206
  38 C :    0.337997
  39 C :    0.372003
  40 C :    0.684301
  41 C :   -1.118732
  42 O :    0.712843
  43 O :    0.831833
  44 C :    0.564471
  45 H :   -0.325651
  46 H :   -0.318539
  47 H :   -0.317889
  48 H :   -0.251730
  49 H :   -0.342490
  50 H :   -0.324474
  51 H :   -0.321283

  Mayer bond orders larger than 0.100000
B(  0-C ,  1-C ) :   0.7012 B(  0-C ,  3-H ) :   0.9968 B(  0-C , 15-C ) :  -0.1140
B(  0-C , 17-C ) :   0.8066 B(  0-C , 21-H ) :   1.2746 B(  0-C , 22-C ) :   0.1176
B(  0-C , 37-B ) :  -0.2458 B(  1-C ,  4-C ) :  -0.1761 B(  1-C ,  5-H ) :  -0.2244
B(  1-C ,  6-H ) :  -0.1355 B(  1-C ,  8-H ) :   0.9394 B(  1-C ,  9-C ) :  -0.2649
B(  1-C , 17-C ) :  -0.1104 B(  1-C , 21-H ) :  -0.1508 B(  1-C , 37-B ) :   0.7451
B(  1-C , 40-C ) :  -0.1373 B(  2-C ,  7-H ) :   1.2355 B(  2-C ,  9-C ) :  -0.1459
B(  2-C , 12-C ) :   0.3111 B(  2-C , 13-H ) :  -0.1598 B(  2-C , 15-C ) :   0.2623
B(  2-C , 16-H ) :  -0.2892 B(  2-C , 17-C ) :   0.1352 B(  2-C , 20-H ) :  -0.3108
B(  2-C , 22-C ) :   0.6632 B(  2-C , 23-H ) :  -0.2559 B(  2-C , 24-Si) :  -0.2909
B(  2-C , 37-B ) :  -0.3614 B(  4-C ,  5-H ) :   1.2233 B(  4-C ,  6-H ) :   1.3308
B(  4-C ,  9-C ) :   0.6547 B(  4-C , 10-H ) :  -0.1150 B(  7-H , 12-C ) :  -0.1322
B(  7-H , 15-C ) :  -0.1348 B(  7-H , 22-C ) :  -0.2359 B(  7-H , 24-Si) :   0.1529
B(  9-C , 10-H ) :   1.3061 B(  9-C , 11-H ) :   1.2820 B(  9-C , 12-C ) :   0.5020
B(  9-C , 37-B ) :   0.1653 B( 10-H , 12-C ) :  -0.1782 B( 11-H , 12-C ) :  -0.1290
B( 12-C , 13-H ) :   1.0210 B( 12-C , 14-H ) :   1.3342 B( 12-C , 22-C ) :   0.1059
B( 15-C , 16-H ) :   1.3921 B( 15-C , 17-C ) :   0.6678 B( 15-C , 18-H ) :  -0.1471
B( 15-C , 20-H ) :   1.4287 B( 15-C , 24-Si) :  -0.1014 B( 16-H , 17-C ) :  -0.1091
B( 17-C , 18-H ) :   0.9954 B( 17-C , 19-H ) :   1.1279 B( 17-C , 37-B ) :   0.2045
B( 22-C , 23-H ) :   1.0285 B( 22-C , 24-Si) :   0.8109 B( 22-C , 25-C ) :   0.2421
B( 22-C , 33-C ) :  -0.1060 B( 22-C , 37-B ) :   0.9416 B( 22-C , 39-C ) :  -0.1015
B( 22-C , 40-C ) :  -0.1475 B( 23-H , 24-Si) :  -0.1053 B( 24-Si, 25-C ) :   0.2578
B( 24-Si, 28-H ) :  -0.1081 B( 24-Si, 29-C ) :   0.7761 B( 24-Si, 30-H ) :  -0.1151
B( 24-Si, 31-H ) :  -0.1253 B( 24-Si, 33-C ) :   0.6578 B( 24-Si, 35-H ) :  -0.1821
B( 24-Si, 36-H ) :  -0.1623 B( 24-Si, 37-B ) :   0.1798 B( 25-C , 26-H ) :   0.9232
B( 25-C , 27-H ) :   0.9594 B( 25-C , 28-H ) :   1.2021 B( 25-C , 37-B ) :   0.1362
B( 29-C , 30-H ) :   1.0859 B( 29-C , 31-H ) :   0.9890 B( 29-C , 32-H ) :   0.9816
B( 29-C , 37-B ) :   0.2340 B( 29-C , 51-H ) :  -0.1172 B( 33-C , 34-H ) :   1.0308
B( 33-C , 35-H ) :   1.1012 B( 33-C , 36-H ) :   0.9847 B( 37-B , 38-C ) :   0.2479
B( 37-B , 39-C ) :  -0.2211 B( 37-B , 40-C ) :   0.2245 B( 37-B , 51-H ) :  -0.3857
B( 38-C , 39-C ) :   1.1567 B( 38-C , 40-C ) :  -0.3439 B( 38-C , 41-C ) :   1.2902
B( 38-C , 42-O ) :   0.2818 B( 38-C , 49-H ) :   1.0146 B( 38-C , 50-H ) :   0.1533
B( 39-C , 40-C ) :   1.0355 B( 39-C , 41-C ) :  -0.3317 B( 39-C , 42-O ) :  -0.1405
B( 39-C , 50-H ) :   0.8870 B( 40-C , 48-H ) :   0.9026 B( 40-C , 51-H ) :   1.2520
B( 41-C , 42-O ) :   0.9521 B( 41-C , 43-O ) :   0.6347 B( 41-C , 44-C ) :  -0.2298
B( 42-O , 43-O ) :   0.1619 B( 43-O , 44-C ) :   0.9305 B( 44-C , 45-H ) :   0.8194
B( 44-C , 46-H ) :   0.8932 B( 44-C , 47-H ) :   0.8883

MP2 TOTAL ENERGY:    -1129.393560785 Eh
FINAL SINGLE POINT ENERGY     -1129.393560785142

DIPOLE MOMENT
-------------
                                X             Y             Z
Electronic contribution:    -18.75134      -2.80697      -1.89548
Nuclear contribution   :     19.50733       2.48497       2.38895
                        -----------------------------------------
Total Dipole Moment    :      0.75599      -0.32200       0.49348
                        -----------------------------------------
Magnitude (a.u.)       :      0.95850
Magnitude (Debye)      :      2.43632

Rotational constants in cm-1:     0.014850     0.005196     0.004538
Rotational constants in MHz :   445.201710   155.773230   136.039851

                             ****ORCA TERMINATED NORMALLY****
TOTAL RUN TIME: 0 days 17 hours 27 minutes 59 seconds 620 msec
