                         Program Version 4.2.1 -  RELEASE  -
|  1> %pal
|  2>  nprocs 32
|  3> end
|  4> !RI-MP2 aug-cc-pVQZ aug-cc-pVQZ/C TightSCF
|  5> %maxcore 4500
|  6> *xyzfile 0 1  10_86TS.xyz
|  7>
|  8>
|  9>                          ****END OF INPUT****

CARTESIAN COORDINATES (ANGSTROEM)
---------------------------------
  O     -0.477684   -1.361735   -0.246471
  C     -1.269347   -0.493171    0.260126
  C     -1.465236    0.748644   -0.294256
  C      0.619812    1.421859    0.328890
  C      1.349183    0.442836   -0.304694
  C      1.307584   -0.863290    0.178628
  H     -1.223160    0.917218   -1.333942
  H     -2.156488    1.441022    0.173139
  H      0.542828    2.418534   -0.087995
  H      0.407337    1.347284    1.387444
  H      1.658058    0.601028   -1.332216
  H      1.798681   -1.660367   -0.362063
  H      1.195861   -1.035704    1.241650
  H     -1.653615   -0.676398    1.273591

 Total Charge           Charge          ....    0
 Multiplicity           Mult            ....    1
 Number of Electrons    NEL             ....   46
 Basis Dimension        Dim             ....  848

ORBITAL ENERGIES
----------------

  NO   OCC          E(Eh)            E(eV)
   0   2.0000     -20.538798      -558.8891
   1   2.0000     -11.286340      -307.1169
   2   2.0000     -11.279819      -306.9395
   3   2.0000     -11.271361      -306.7093
   4   2.0000     -11.220040      -305.3128
   5   2.0000     -11.217239      -305.2366
   6   2.0000      -1.349478       -36.7212
   7   2.0000      -1.089148       -29.6372
   8   2.0000      -1.003752       -27.3135
   9   2.0000      -0.924648       -25.1610
  10   2.0000      -0.784956       -21.3597
  11   2.0000      -0.767538       -20.8858
  12   2.0000      -0.675366       -18.3776
  13   2.0000      -0.648131       -17.6365
  14   2.0000      -0.625314       -17.0157
  15   2.0000      -0.609295       -16.5797
  16   2.0000      -0.560160       -15.2427
  17   2.0000      -0.548917       -14.9368
  18   2.0000      -0.532494       -14.4899
  19   2.0000      -0.526692       -14.3320
  20   2.0000      -0.428167       -11.6510
  21   2.0000      -0.376504       -10.2452
  22   2.0000      -0.308890        -8.4053
  23   0.0000       0.024924         0.6782
  24   0.0000       0.030885         0.8404
  25   0.0000       0.032928         0.8960
  26   0.0000       0.039844         1.0842
  27   0.0000       0.047267         1.2862

MULLIKEN ATOMIC CHARGES
-----------------------
   0 O :   -0.827115
   1 C :    0.214673
   2 C :   -0.723427
   3 C :   -0.493223
   4 C :   -0.454001
   5 C :   -0.334013
   6 H :    0.304985
   7 H :    0.343859
   8 H :    0.338840
   9 H :    0.355527
  10 H :    0.303335
  11 H :    0.413263
  12 H :    0.240671
  13 H :    0.316624
Sum of atomic charges:   -0.0000000

LOEWDIN ATOMIC CHARGES
----------------------
   0 O :    0.750401
   1 C :   -0.269438
   2 C :    0.641079
   3 C :    0.664844
   4 C :    0.293188
   5 C :    0.507741
   6 H :   -0.348024
   7 H :   -0.331947
   8 H :   -0.295477
   9 H :   -0.314572
  10 H :   -0.326041
  11 H :   -0.304057
  12 H :   -0.321038
  13 H :   -0.346659

  Mayer bond orders larger than 0.100000
B(  0-O ,  1-C ) :   1.0800 B(  0-O ,  5-C ) :   0.3417 B(  1-C ,  2-C ) :   1.5249
B(  1-C , 13-H ) :   0.8853 B(  2-C ,  3-C ) :   0.3259 B(  2-C ,  6-H ) :   0.8788
B(  2-C ,  7-H ) :   0.9130 B(  3-C ,  4-C ) :   1.3508 B(  3-C ,  8-H ) :   0.9178
B(  3-C ,  9-H ) :   0.8695 B(  4-C ,  5-C ) :   1.2930 B(  4-C , 10-H ) :   0.9249
B(  5-C , 11-H ) :   0.8521 B(  5-C , 12-H ) :   0.9595

MP2 TOTAL ENERGY:     -270.008968305 Eh
FINAL SINGLE POINT ENERGY      -270.008968305374

DIPOLE MOMENT
-------------
                                X             Y             Z
Electronic contribution:     -0.22590      -2.63612      -0.51670
Nuclear contribution   :      0.57716       3.42118       0.98155
                        -----------------------------------------
Total Dipole Moment    :      0.35126       0.78506       0.46485
                        -----------------------------------------
Magnitude (a.u.)       :      0.97764
Magnitude (Debye)      :      2.48497

Rotational constants in cm-1:     0.162480     0.131704     0.083091
Rotational constants in MHz :  4871.016271  3948.376091  2490.999466

                             ****ORCA TERMINATED NORMALLY****
TOTAL RUN TIME: 0 days 0 hours 15 minutes 48 seconds 491 msec
