                         Program Version 4.2.1 -  RELEASE  -
|  1> %pal
|  2>  nprocs 32
|  3> end
|  4> !RI-MP2 aug-cc-pVQZ aug-cc-pVQZ/C TightSCF
|  5> %maxcore 4500
|  6> *xyzfile 0 1  06_17R.xyz
|  7>
|  8>
|  9>                          ****END OF INPUT****

CARTESIAN COORDINATES (ANGSTROEM)
---------------------------------
  C     -1.527963   -2.295721   -0.562245
  H     -2.259279   -2.677975    0.145096
  H     -0.871262   -0.893044    0.953330
  C      0.733656   -2.543045   -0.725713
  O      1.797867   -3.068374   -0.864529
  C      2.005034    0.543294   -1.187258
  O      2.990989    1.418505   -0.869191
  O      1.777798   -0.226679    1.043826
  H      3.271272   -1.256130    3.653891
  H      2.209482    0.162555    3.576102
  H      3.840447   -1.803660   -0.003910
  H      4.974338   -1.516639    1.336919
  C      1.890324    3.595247   -0.922784
  H      1.350175    2.442127    0.753103
  H      1.740145    4.523997   -1.467870
  H     -1.588266    0.169838   -1.813029
  C     -2.944148    0.465138   -0.170456
  C     -4.389713    1.101525    1.659955
  C     -5.345456    0.277725   -0.380755
  H     -3.952944   -0.240724   -1.926480
  H     -6.500326    0.877837    1.326629
  H     -2.251036    1.228742    1.711852
  H     -1.980740   -2.220782   -1.554255
  C     -0.893641   -0.972928   -0.139505
  N      0.466283   -1.184168   -0.640310
  O     -0.434582   -3.219642   -0.631665
  C      1.486185   -0.281330   -0.289046
  H      1.674770    0.509788   -2.219838
  B      3.007472   -0.529233    1.603722
  C      3.101067   -0.298914    3.148581
  H      3.970428    0.320453    3.391621
  C      4.183154   -1.071134    0.731463
  H      4.622747   -0.240193    0.168937
  C      2.906914    2.673042   -1.526335
  C      1.209953    3.355621    0.187282
  H      0.496234    4.075738    0.567522
  C     -1.557283    0.266845   -0.724853
  H     -0.933531    1.134594   -0.497457
  C     -3.119897    0.954509    1.122753
  C     -5.507744    0.761422    0.909019
  C     -4.071584    0.131146   -0.914538
  H     -6.212066    0.015973   -0.975947
  H     -4.508098    1.486433    2.665752
  H      3.904285    3.112598   -1.457345
  H      2.692173    2.518698   -2.591991

 Total Charge           Charge          ....    0
 Multiplicity           Mult            ....    1
 Number of Electrons    NEL             ....  168
 Basis Dimension        Dim             .... 2852

ORBITAL ENERGIES
----------------

  NO   OCC          E(Eh)            E(eV)
   0   2.0000     -20.602224      -560.6150
   1   2.0000     -20.589136      -560.2589
   2   2.0000     -20.574749      -559.8674
   3   2.0000     -20.526836      -558.5636
   4   2.0000     -15.597436      -424.4278
   5   2.0000     -11.399129      -310.1861
   6   2.0000     -11.321004      -308.0602
   7   2.0000     -11.302470      -307.5558
   8   2.0000     -11.301788      -307.5373
   9   2.0000     -11.291351      -307.2533
  10   2.0000     -11.288693      -307.1810
  11   2.0000     -11.252246      -306.1892
  12   2.0000     -11.244685      -305.9834
  13   2.0000     -11.244215      -305.9706
  14   2.0000     -11.244211      -305.9705
  15   2.0000     -11.244025      -305.9655
  16   2.0000     -11.241866      -305.9067
  17   2.0000     -11.241160      -305.8875
  18   2.0000     -11.240426      -305.8676
  19   2.0000     -11.230383      -305.5943
  20   2.0000     -11.181644      -304.2680
  21   2.0000     -11.168646      -303.9143
  22   2.0000      -7.605287      -206.9504
  23   2.0000      -1.476019       -40.1645
  24   2.0000      -1.427047       -38.8319
  25   2.0000      -1.398191       -38.0467
  26   2.0000      -1.368749       -37.2456
  27   2.0000      -1.262519       -34.3549
  28   2.0000      -1.171816       -31.8867
  29   2.0000      -1.093893       -29.7664
  30   2.0000      -1.081267       -29.4228
  31   2.0000      -1.038187       -28.2505
  32   2.0000      -1.027278       -27.9537
  33   2.0000      -1.016312       -27.6553
  34   2.0000      -0.956952       -26.0400
  35   2.0000      -0.952300       -25.9134
  36   2.0000      -0.940421       -25.5902
  37   2.0000      -0.914181       -24.8761
  38   2.0000      -0.864113       -23.5137
  39   2.0000      -0.856206       -23.2986
  40   2.0000      -0.839570       -22.8458
  41   2.0000      -0.807075       -21.9616
  42   2.0000      -0.788768       -21.4635
  43   2.0000      -0.775636       -21.1061
  44   2.0000      -0.741469       -20.1764
  45   2.0000      -0.727584       -19.7986
  46   2.0000      -0.719677       -19.5834
  47   2.0000      -0.704378       -19.1671
  48   2.0000      -0.688499       -18.7350
  49   2.0000      -0.673363       -18.3231
  50   2.0000      -0.664405       -18.0794
  51   2.0000      -0.649885       -17.6843
  52   2.0000      -0.646468       -17.5913
  53   2.0000      -0.639761       -17.4088
  54   2.0000      -0.624482       -16.9930
  55   2.0000      -0.614019       -16.7083
  56   2.0000      -0.604137       -16.4394
  57   2.0000      -0.602776       -16.4024
  58   2.0000      -0.596202       -16.2235
  59   2.0000      -0.589709       -16.0468
  60   2.0000      -0.579356       -15.7651
  61   2.0000      -0.577820       -15.7233
  62   2.0000      -0.570089       -15.5129
  63   2.0000      -0.564138       -15.3510
  64   2.0000      -0.548560       -14.9271
  65   2.0000      -0.547133       -14.8882
  66   2.0000      -0.523711       -14.2509
  67   2.0000      -0.522123       -14.2077
  68   2.0000      -0.518332       -14.1045
  69   2.0000      -0.514242       -13.9932
  70   2.0000      -0.506861       -13.7924
  71   2.0000      -0.504021       -13.7151
  72   2.0000      -0.500318       -13.6143
  73   2.0000      -0.497865       -13.5476
  74   2.0000      -0.493933       -13.4406
  75   2.0000      -0.491418       -13.3722
  76   2.0000      -0.460079       -12.5194
  77   2.0000      -0.455704       -12.4003
  78   2.0000      -0.436965       -11.8904
  79   2.0000      -0.410825       -11.1791
  80   2.0000      -0.380366       -10.3503
  81   2.0000      -0.349740        -9.5169
  82   2.0000      -0.347346        -9.4518
  83   2.0000      -0.337926        -9.1954
  84   0.0000       0.016635         0.4527
  85   0.0000       0.020966         0.5705
  86   0.0000       0.022730         0.6185
  87   0.0000       0.028801         0.7837
  88   0.0000       0.031077         0.8456

MULLIKEN ATOMIC CHARGES
-----------------------
   0 C :    0.123341
   1 H :    0.413918
   2 H :    0.199030
   3 C :    1.644622
   4 O :   -1.021003
   5 C :    0.512275
   6 O :   -1.014025
   7 O :   -1.672372
   8 H :    0.320123
   9 H :    0.378743
  10 H :    0.403905
  11 H :    0.288166
  12 C :   -0.342177
  13 H :    0.345949
  14 H :    0.430691
  15 H :    0.202090
  16 C :    0.644866
  17 C :   -0.370921
  18 C :   -0.337956
  19 H :    0.188342
  20 H :    0.363646
  21 H :    0.411983
  22 H :    0.201558
  23 C :   -0.266666
  24 N :   -0.443257
  25 O :   -1.152434
  26 C :    1.388648
  27 H :    0.263672
  28 B :    1.287897
  29 C :   -1.261015
  30 H :    0.318105
  31 C :   -1.161918
  32 H :    0.335895
  33 C :   -0.250838
  34 C :   -1.098139
  35 H :    0.343917
  36 C :   -0.791127
  37 H :    0.675083
  38 C :   -0.669809
  39 C :   -0.353601
  40 C :   -0.674770
  41 H :    0.243386
  42 H :    0.219093
  43 H :    0.416347
  44 H :    0.316738
Sum of atomic charges:   -0.0000000

LOEWDIN ATOMIC CHARGES
----------------------
   0 C :    0.219886
   1 H :   -0.268507
   2 H :   -0.265557
   3 C :   -1.227614
   4 O :    0.697298
   5 C :   -0.038435
   6 O :    0.879217
   7 O :    0.996908
   8 H :   -0.299712
   9 H :   -0.312824
  10 H :   -0.337844
  11 H :   -0.296292
  12 C :    0.370752
  13 H :   -0.380807
  14 H :   -0.324909
  15 H :   -0.279356
  16 C :   -0.068567
  17 C :    0.352222
  18 C :    0.349380
  19 H :   -0.312285
  20 H :   -0.321287
  21 H :   -0.305595
  22 H :   -0.284036
  23 C :   -0.045311
  24 N :    0.384505
  25 O :    0.883917
  26 C :   -0.662027
  27 H :   -0.318152
  28 B :   -0.890703
  29 C :    1.054008
  30 H :   -0.300446
  31 C :    1.059804
  32 H :   -0.312340
  33 C :    0.154015
  34 C :    0.788255
  35 H :   -0.341491
  36 C :    0.506753
  37 H :   -0.289060
  38 C :    0.352473
  39 C :    0.339852
  40 C :    0.350143
  41 H :   -0.317606
  42 H :   -0.317195
  43 H :   -0.307719
  44 H :   -0.313710

  Mayer bond orders larger than 0.100000
B(  0-C ,  1-H ) :   0.8820 B(  0-C , 22-H ) :   1.0795 B(  0-C , 23-C ) :   0.5397
B(  0-C , 25-O ) :   0.1777 B(  0-C , 36-C ) :   0.1270 B(  2-H ,  7-O ) :   0.1492
B(  2-H , 23-C ) :   0.8851 B(  3-C ,  4-O ) :   0.9183 B(  3-C , 24-N ) :   1.3853
B(  3-C , 25-O ) :   0.6536 B(  4-O , 24-N ) :   0.3345 B(  5-C ,  6-O ) :   0.3312
B(  5-C ,  7-O ) :   0.2328 B(  5-C , 24-N ) :  -0.1129 B(  5-C , 26-C ) :   1.4928
B(  5-C , 27-H ) :   1.1786 B(  5-C , 33-C ) :  -0.1954 B(  6-O , 13-H ) :   0.1065
B(  6-O , 33-C ) :   0.9802 B(  7-O , 26-C ) :  -0.2853 B(  7-O , 28-B ) :  -0.1722
B(  7-O , 29-C ) :  -0.1787 B(  7-O , 31-C ) :  -0.1028 B(  8-H , 29-C ) :   0.9201
B(  9-H , 29-C ) :   0.8437 B( 10-H , 31-C ) :   0.8475 B( 11-H , 31-C ) :   0.9739
B( 12-C , 14-H ) :   0.8116 B( 12-C , 33-C ) :   0.8510 B( 12-C , 34-C ) :   1.8964
B( 13-H , 34-C ) :   0.8034 B( 15-H , 36-C ) :   1.0230 B( 16-C , 17-C ) :  -0.3928
B( 16-C , 18-C ) :  -0.4263 B( 16-C , 21-H ) :  -0.1198 B( 16-C , 36-C ) :   0.7731
B( 16-C , 37-H ) :  -0.2372 B( 16-C , 38-C ) :   0.9878 B( 16-C , 40-C ) :   0.9823
B( 17-C , 38-C ) :   1.3633 B( 17-C , 39-C ) :   1.1547 B( 17-C , 40-C ) :   0.1640
B( 17-C , 42-H ) :   1.1828 B( 18-C , 38-C ) :   0.1376 B( 18-C , 39-C ) :   1.1058
B( 18-C , 40-C ) :   1.4687 B( 18-C , 41-H ) :   1.1552 B( 19-H , 40-C ) :   1.0851
B( 20-H , 39-C ) :   0.9773 B( 20-H , 40-C ) :  -0.1062 B( 21-H , 38-C ) :   0.8398
B( 22-H , 23-C ) :  -0.2282 B( 23-C , 24-N ) :   0.9398 B( 23-C , 25-O ) :   0.4054
B( 23-C , 36-C ) :   0.9471 B( 23-C , 37-H ) :   0.1269 B( 23-C , 40-C ) :   0.1059
B( 24-N , 25-O ) :  -0.2092 B( 24-N , 26-C ) :   0.5799 B( 26-C , 27-H ) :  -0.1470
B( 26-C , 36-C ) :  -0.1718 B( 28-B , 29-C ) :   0.9721 B( 28-B , 31-C ) :   0.9992
B( 29-C , 30-H ) :   0.9070 B( 31-C , 32-H ) :   0.8566 B( 33-C , 43-H ) :   0.8222
B( 33-C , 44-H ) :   0.9163 B( 34-C , 35-H ) :   0.9718 B( 36-C , 37-H ) :   0.5574
B( 36-C , 38-C ) :  -0.2573 B( 36-C , 40-C ) :  -0.4269 B( 38-C , 42-H ) :  -0.1588
B( 39-C , 40-C ) :   0.1107 B( 39-C , 41-H ) :  -0.1090 B( 40-C , 41-H ) :  -0.1580

MP2 TOTAL ENERGY:    -1039.898917606 Eh
FINAL SINGLE POINT ENERGY     -1039.898917605570

DIPOLE MOMENT
-------------
                                X             Y             Z
Electronic contribution:     -2.76267     -10.22127      -4.73205
Nuclear contribution   :      1.36639      12.08242       4.43054
                        -----------------------------------------
Total Dipole Moment    :     -1.39628       1.86115      -0.30151
                        -----------------------------------------
Magnitude (a.u.)       :      2.34614
Magnitude (Debye)      :      5.96342

Rotational constants in cm-1:     0.011442     0.005556     0.004622
Rotational constants in MHz :   343.017351   166.551323   138.576357

                             ****ORCA TERMINATED NORMALLY****
TOTAL RUN TIME: 0 days 9 hours 56 minutes 42 seconds 857 msec
