                         Program Version 4.2.1 -  RELEASE  -
|  1> %pal
|  2>  nprocs 32
|  3> end
|  4> !RI-MP2 aug-cc-pVQZ aug-cc-pVQZ/C TightSCF
|  5> %maxcore 4500
|  6> *xyzfile 0 1  06_28P.xyz
|  7>
|  8>
|  9>                          ****END OF INPUT****

CARTESIAN COORDINATES (ANGSTROEM)
---------------------------------
  C      1.284905    2.330918    0.640552
  C      0.569877    1.166877    1.389354
  C     -1.411875    1.478220   -0.972103
  H      2.359744    2.219673    0.797572
  C     -0.687863    1.628147    2.157157
  H     -1.237754    0.752065    2.518454
  H     -0.353309    2.158203    3.055639
  H     -2.084989    1.373913   -1.827536
  H      1.271925    0.821235    2.151046
  C     -1.642071    2.551413    1.407974
  H     -2.426222    2.869560    2.102234
  H     -1.114282    3.467603    1.130042
  C     -2.317029    1.966185    0.173083
  H     -2.978836    1.153439    0.484135
  H     -2.975537    2.738244   -0.239627
  C     -0.375410    2.550118   -1.394436
  H     -0.310914    2.550400   -2.486861
  C      1.058353    2.401647   -0.875326
  H      1.496420    1.510652   -1.338053
  H      1.642026    3.240547   -1.267480
  H     -0.762064    3.538320   -1.124388
  H      1.009551    3.284200    1.101704
  C     -0.777486    0.084664   -0.737313
  H     -0.283616   -0.234088   -1.669929
  Si    -2.085110   -1.310457   -0.587674
  C     -2.635366   -1.636155    1.180089
  H     -3.165417   -0.786430    1.613976
  H     -3.312784   -2.494440    1.206442
  H     -1.787560   -1.866937    1.828877
  C     -1.401215   -2.911843   -1.303086
  H     -2.209835   -3.642243   -1.396299
  H     -0.983855   -2.755715   -2.301116
  H     -0.625758   -3.366745   -0.686702
  C     -3.584790   -0.862179   -1.630594
  H     -3.307103   -0.699792   -2.675276
  H     -4.303817   -1.685753   -1.606454
  H     -4.097751    0.034014   -1.278296
  B      0.324836    0.008171    0.351250
  C      1.342501   -1.249490    0.358701
  C      1.399585   -1.858347    1.729969
  H      1.971712   -1.301044    2.463400
  C      0.806431   -2.989906    2.083647
  H      0.235466   -3.587065    1.381716
  H      0.879456   -3.365325    3.096877
  C      2.687861   -0.720666   -0.051340
  O      3.540993   -0.300417    0.686073
  O      2.819082   -0.719881   -1.391879
  C      4.035858   -0.162242   -1.895919
  H      3.976840   -0.257831   -2.976906
  H      4.120735    0.886055   -1.608326
  H      4.895187   -0.708304   -1.508187
  H      1.035497   -1.982651   -0.385492

 Total Charge           Charge          ....    0
 Multiplicity           Mult            ....    1
 Number of Electrons    NEL             ....  168
 Basis Dimension        Dim             .... 3110

ORBITAL ENERGIES
----------------

  NO   OCC          E(Eh)            E(eV)
   0   2.0000     -68.751317     -1870.8185
   1   2.0000     -20.599912      -560.5521
   2   2.0000     -20.537292      -558.8481
   3   2.0000     -11.375745      -309.5498
   4   2.0000     -11.283668      -307.0442
   5   2.0000     -11.237368      -305.7843
   6   2.0000     -11.223502      -305.4070
   7   2.0000     -11.222148      -305.3702
   8   2.0000     -11.219638      -305.3019
   9   2.0000     -11.214877      -305.1723
  10   2.0000     -11.213107      -305.1242
  11   2.0000     -11.212491      -305.1074
  12   2.0000     -11.212042      -305.0952
  13   2.0000     -11.211860      -305.0902
  14   2.0000     -11.209547      -305.0273
  15   2.0000     -11.196231      -304.6649
  16   2.0000     -11.194496      -304.6177
  17   2.0000     -11.193350      -304.5865
  18   2.0000     -11.190625      -304.5124
  19   2.0000     -11.184394      -304.3428
  20   2.0000      -7.589343      -206.5165
  21   2.0000      -6.099648      -165.9799
  22   2.0000      -4.206136      -114.4548
  23   2.0000      -4.206026      -114.4518
  24   2.0000      -4.205986      -114.4507
  25   2.0000      -1.461940       -39.7814
  26   2.0000      -1.358728       -36.9729
  27   2.0000      -1.116387       -30.3784
  28   2.0000      -1.087547       -29.5937
  29   2.0000      -1.046095       -28.4657
  30   2.0000      -1.043145       -28.3854
  31   2.0000      -1.003928       -27.3183
  32   2.0000      -0.979778       -26.6611
  33   2.0000      -0.954462       -25.9722
  34   2.0000      -0.933582       -25.4040
  35   2.0000      -0.924208       -25.1490
  36   2.0000      -0.923369       -25.1261
  37   2.0000      -0.914894       -24.8955
  38   2.0000      -0.879376       -23.9290
  39   2.0000      -0.798154       -21.7189
  40   2.0000      -0.792931       -21.5767
  41   2.0000      -0.787078       -21.4175
  42   2.0000      -0.752694       -20.4819
  43   2.0000      -0.719815       -19.5872
  44   2.0000      -0.699975       -19.0473
  45   2.0000      -0.680741       -18.5239
  46   2.0000      -0.675851       -18.3908
  47   2.0000      -0.663338       -18.0504
  48   2.0000      -0.642079       -17.4719
  49   2.0000      -0.630935       -17.1686
  50   2.0000      -0.623392       -16.9634
  51   2.0000      -0.608629       -16.5616
  52   2.0000      -0.601082       -16.3563
  53   2.0000      -0.593999       -16.1635
  54   2.0000      -0.581126       -15.8132
  55   2.0000      -0.575419       -15.6580
  56   2.0000      -0.570798       -15.5322
  57   2.0000      -0.570632       -15.5277
  58   2.0000      -0.567305       -15.4371
  59   2.0000      -0.562498       -15.3064
  60   2.0000      -0.557213       -15.1625
  61   2.0000      -0.550988       -14.9932
  62   2.0000      -0.545876       -14.8540
  63   2.0000      -0.537295       -14.6205
  64   2.0000      -0.532304       -14.4847
  65   2.0000      -0.529928       -14.4201
  66   2.0000      -0.527798       -14.3621
  67   2.0000      -0.510920       -13.9028
  68   2.0000      -0.499490       -13.5918
  69   2.0000      -0.489802       -13.3282
  70   2.0000      -0.485222       -13.2036
  71   2.0000      -0.479167       -13.0388
  72   2.0000      -0.465336       -12.6624
  73   2.0000      -0.461003       -12.5445
  74   2.0000      -0.456712       -12.4278
  75   2.0000      -0.446809       -12.1583
  76   2.0000      -0.440397       -11.9838
  77   2.0000      -0.432225       -11.7615
  78   2.0000      -0.430561       -11.7162
  79   2.0000      -0.419891       -11.4258
  80   2.0000      -0.413883       -11.2623
  81   2.0000      -0.407473       -11.0879
  82   2.0000      -0.385494       -10.4898
  83   2.0000      -0.354289        -9.6407
  84   0.0000       0.018627         0.5069
  85   0.0000       0.024076         0.6551
  86   0.0000       0.025478         0.6933
  87   0.0000       0.027006         0.7349
  88   0.0000       0.034310         0.9336

MULLIKEN ATOMIC CHARGES
-----------------------
   0 C :   -0.588681
   1 C :    0.349277
   2 C :    1.001072
   3 H :    0.102893
   4 C :   -0.797970
   5 H :    0.213934
   6 H :    0.021091
   7 H :    0.386509
   8 H :    0.222981
   9 C :   -0.265456
  10 H :   -0.039542
  11 H :    0.080795
  12 C :   -0.713928
  13 H :    0.310403
  14 H :   -0.062658
  15 C :   -0.710154
  16 H :   -0.007709
  17 C :   -0.795977
  18 H :    0.339221
  19 H :    0.065400
  20 H :    0.098165
  21 H :    0.026821
  22 C :   -1.185283
  23 H :   -0.017688
  24 Si:    1.786699
  25 C :   -1.167776
  26 H :    0.223196
  27 H :    0.069886
  28 H :    0.333331
  29 C :   -1.083133
  30 H :    0.177401
  31 H :    0.260104
  32 H :    0.369504
  33 C :   -0.901234
  34 H :    0.212781
  35 H :    0.167568
  36 H :    0.282741
  37 B :    1.796808
  38 C :   -0.744934
  39 C :   -0.065691
  40 H :    0.285127
  41 C :   -1.060730
  42 H :    0.282028
  43 H :    0.235874
  44 C :    2.337279
  45 O :   -1.238168
  46 O :   -1.119583
  47 C :   -1.076539
  48 H :    0.380039
  49 H :    0.435882
  50 H :    0.374320
  51 H :    0.413708
Sum of atomic charges:    0.0000000

LOEWDIN ATOMIC CHARGES
----------------------
   0 C :    0.591869
   1 C :    0.349430
   2 C :    0.160154
   3 H :   -0.267837
   4 C :    0.579808
   5 H :   -0.261677
   6 H :   -0.249710
   7 H :   -0.316887
   8 H :   -0.315803
   9 C :    0.575406
  10 H :   -0.248673
  11 H :   -0.297361
  12 C :    0.559374
  13 H :   -0.318299
  14 H :   -0.245213
  15 C :    0.599413
  16 H :   -0.252519
  17 C :    0.576084
  18 H :   -0.313856
  19 H :   -0.245532
  20 H :   -0.270404
  21 H :   -0.268733
  22 C :    0.423827
  23 H :   -0.324096
  24 Si:    0.193923
  25 C :    1.026487
  26 H :   -0.334917
  27 H :   -0.317822
  28 H :   -0.351525
  29 C :    1.020744
  30 H :   -0.323404
  31 H :   -0.315084
  32 H :   -0.365081
  33 C :    1.015872
  34 H :   -0.318056
  35 H :   -0.325638
  36 H :   -0.338309
  37 B :   -0.745965
  38 C :    0.203291
  39 C :    0.360981
  40 H :   -0.328505
  41 C :    0.830426
  42 H :   -0.354885
  43 H :   -0.334003
  44 C :   -1.067153
  45 O :    0.784831
  46 O :    0.888603
  47 C :    0.590087
  48 H :   -0.315423
  49 H :   -0.312718
  50 H :   -0.310138
  51 H :   -0.375385

  Mayer bond orders larger than 0.100000
B(  0-C ,  1-C ) :   0.6711 B(  0-C ,  3-H ) :   1.2485 B(  0-C , 17-C ) :   0.7272
B(  0-C , 21-H ) :   1.3857 B(  0-C , 37-B ) :  -0.3218 B(  1-C ,  2-C ) :   0.1189
B(  1-C ,  4-C ) :   0.1005 B(  1-C ,  5-H ) :  -0.1445 B(  1-C ,  6-H ) :  -0.1219
B(  1-C ,  8-H ) :   0.8367 B(  1-C ,  9-C ) :  -0.1402 B(  1-C , 21-H ) :  -0.1672
B(  1-C , 22-C ) :  -0.1572 B(  1-C , 37-B ) :   0.9946 B(  2-C ,  7-H ) :   1.1552
B(  2-C ,  9-C ) :  -0.1393 B(  2-C , 12-C ) :   0.3854 B(  2-C , 13-H ) :  -0.1372
B(  2-C , 15-C ) :   0.3646 B(  2-C , 16-H ) :  -0.2695 B(  2-C , 17-C ) :   0.2444
B(  2-C , 20-H ) :  -0.2666 B(  2-C , 22-C ) :   0.5258 B(  2-C , 23-H ) :  -0.1429
B(  2-C , 24-Si) :  -0.3811 B(  2-C , 33-C ) :  -0.1556 B(  2-C , 37-B ) :  -0.3765
B(  3-H , 37-B ) :  -0.1290 B(  4-C ,  5-H ) :   1.2414 B(  4-C ,  6-H ) :   1.3625
B(  4-C ,  9-C ) :   0.6175 B(  4-C , 10-H ) :  -0.1206 B(  4-C , 37-B ) :  -0.2693
B(  5-H , 37-B ) :  -0.1773 B(  7-H , 12-C ) :  -0.1267 B(  7-H , 15-C ) :  -0.1332
B(  7-H , 22-C ) :  -0.2746 B(  8-H , 38-C ) :   0.1722 B(  8-H , 45-O ) :   0.1715
B(  9-C , 10-H ) :   1.2840 B(  9-C , 11-H ) :   1.2918 B(  9-C , 12-C ) :   0.5279
B(  9-C , 37-B ) :   0.1328 B( 10-H , 12-C ) :  -0.1362 B( 11-H , 12-C ) :  -0.1115
B( 12-C , 13-H ) :   0.9869 B( 12-C , 14-H ) :   1.3659 B( 12-C , 24-Si) :  -0.1034
B( 12-C , 37-B ) :   0.3078 B( 15-C , 16-H ) :   1.3994 B( 15-C , 17-C ) :   0.6155
B( 15-C , 18-H ) :  -0.1915 B( 15-C , 20-H ) :   1.3977 B( 17-C , 18-H ) :   1.0147
B( 17-C , 19-H ) :   1.2068 B( 22-C , 23-H ) :   1.2237 B( 22-C , 24-Si) :   0.7799
B( 22-C , 25-C ) :   0.1200 B( 22-C , 29-C ) :   0.3629 B( 22-C , 37-B ) :   0.9697
B( 22-C , 38-C ) :  -0.1114 B( 24-Si, 27-H ) :  -0.1098 B( 24-Si, 29-C ) :   0.7009
B( 24-Si, 30-H ) :  -0.1504 B( 24-Si, 31-H ) :  -0.1248 B( 24-Si, 33-C ) :   0.8889
B( 24-Si, 34-H ) :  -0.1799 B( 24-Si, 35-H ) :  -0.1688 B( 24-Si, 36-H ) :  -0.2154
B( 24-Si, 37-B ) :   0.1041 B( 24-Si, 38-C ) :  -0.2867 B( 25-C , 26-H ) :   1.0380
B( 25-C , 27-H ) :   1.2292 B( 25-C , 28-H ) :   0.9630 B( 25-C , 37-B ) :   0.1737
B( 29-C , 30-H ) :   1.1348 B( 29-C , 31-H ) :   1.0343 B( 29-C , 32-H ) :   0.8695
B( 29-C , 33-C ) :   0.1177 B( 29-C , 37-B ) :  -0.1767 B( 33-C , 34-H ) :   1.0583
B( 33-C , 35-H ) :   1.1346 B( 33-C , 36-H ) :   0.9914 B( 37-B , 38-C ) :   0.5055
B( 37-B , 39-C ) :  -0.4008 B( 37-B , 40-H ) :  -0.1146 B( 37-B , 45-O ) :   0.3898
B( 37-B , 46-O ) :   0.1100 B( 37-B , 51-H ) :  -0.2552 B( 38-C , 39-C ) :   0.9990
B( 38-C , 41-C ) :  -0.1948 B( 38-C , 44-C ) :   1.2138 B( 38-C , 45-O ) :   0.2350
B( 38-C , 46-O ) :  -0.1951 B( 38-C , 51-H ) :   0.9606 B( 39-C , 40-H ) :   1.0341
B( 39-C , 41-C ) :   1.6730 B( 39-C , 43-H ) :  -0.1147 B( 41-C , 42-H ) :   1.0518
B( 41-C , 43-H ) :   1.1113 B( 44-C , 46-O ) :   0.5956 B( 44-C , 47-C ) :  -0.2942
B( 45-O , 46-O ) :   0.2559 B( 46-O , 47-C ) :   1.0178 B( 47-C , 48-H ) :   0.9259
B( 47-C , 49-H ) :   0.8029 B( 47-C , 50-H ) :   0.9579

MP2 TOTAL ENERGY:    -1129.392169102 Eh
FINAL SINGLE POINT ENERGY     -1129.392169102415

DIPOLE MOMENT
-------------
                                X             Y             Z
Electronic contribution:     13.35675      -3.95960       1.04409
Nuclear contribution   :    -13.86549       4.03823      -1.75439
                        -----------------------------------------
Total Dipole Moment    :     -0.50874       0.07864      -0.71029
                        -----------------------------------------
Magnitude (a.u.)       :      0.87722
Magnitude (Debye)      :      2.22972

Rotational constants in cm-1:     0.011522     0.008782     0.007159
Rotational constants in MHz :   345.433841   263.273837   214.609470

                             ****ORCA TERMINATED NORMALLY****
TOTAL RUN TIME: 0 days 17 hours 52 minutes 55 seconds 488 msec
