                         Program Version 4.2.1 -  RELEASE  -
|  1> %pal
|  2>  nprocs 32
|  3> end
|  4> !RI-MP2 aug-cc-pVQZ aug-cc-pVQZ/C TightSCF
|  5> %maxcore 4500
|  6> *xyzfile 0 1  10_65P.xyz
|  7>
|  8>
|  9>                          ****END OF INPUT****

CARTESIAN COORDINATES (ANGSTROEM)
---------------------------------
  C     -0.649929   -0.305438    0.569209
  C      0.285011    0.682477    1.242351
  C     -0.146668   -1.567977    0.041945
  C      1.163610    0.052446    2.295102
  C      1.106871   -2.036099    0.076080
  C      2.098532   -0.841866    2.028068
  C      2.342992   -1.406047    0.650422
  H      1.026658    0.403742    3.311918
  H      2.724990   -1.214012    2.831489
  C      1.610996    1.027639   -2.017608
  C      1.127025    1.477849    0.202415
  H     -0.328163    1.426799    1.744457
  C      1.947893    0.655097   -0.772467
  C      0.291201    2.346091   -0.696732
  C      0.588737    2.076548   -1.971298
  H     -0.430927    3.060796   -0.328576
  H      0.158120    2.551088   -2.842734
  C      2.969916   -0.373947   -0.363346
  C      3.468676   -1.153279   -1.584274
  C      4.176545    0.308434    0.299788
  H      3.884089    0.901418    1.165736
  H      4.670132    0.969168   -0.415153
  H      4.903378   -0.438771    0.631261
  H      2.651132   -1.648983   -2.109927
  H      4.191579   -1.912744   -1.277448
  H      3.969054   -0.487371   -2.289266
  C     -1.967163    0.031866    0.446792
  C     -2.426798    1.285656    0.965552
  N     -2.768462    2.297474    1.390904
  C     -3.021616   -0.788469   -0.214975
  O     -2.897988   -1.887642   -0.694244
  O     -4.186167   -0.130659   -0.216001
  C     -5.290316   -0.807482   -0.821435
  H     -5.078025   -1.015530   -1.869798
  H     -5.489774   -1.745208   -0.303440
  H     -6.132572   -0.128140   -0.726342
  H      1.797668    2.118270    0.788311
  H      2.020876    0.627131   -2.933929
  H     -0.888531   -2.189778   -0.433402
  H      1.258153   -2.999525   -0.400781
  H      3.091550   -2.195251    0.749721

 Total Charge           Charge          ....    0
 Multiplicity           Mult            ....    1
 Number of Electrons    NEL             ....  156
 Basis Dimension        Dim             .... 2634

ORBITAL ENERGIES
----------------

  NO   OCC          E(Eh)            E(eV)
   0   2.0000     -20.604987      -560.6902
   1   2.0000     -20.544928      -559.0559
   2   2.0000     -15.556269      -423.3076
   3   2.0000     -11.393201      -310.0248
   4   2.0000     -11.305996      -307.6518
   5   2.0000     -11.285732      -307.1004
   6   2.0000     -11.278078      -306.8921
   7   2.0000     -11.267078      -306.5928
   8   2.0000     -11.261862      -306.4509
   9   2.0000     -11.260623      -306.4171
  10   2.0000     -11.260369      -306.4102
  11   2.0000     -11.254502      -306.2506
  12   2.0000     -11.249491      -306.1142
  13   2.0000     -11.241687      -305.9019
  14   2.0000     -11.238935      -305.8270
  15   2.0000     -11.235026      -305.7206
  16   2.0000     -11.234448      -305.7049
  17   2.0000     -11.228780      -305.5506
  18   2.0000     -11.226607      -305.4915
  19   2.0000     -11.223658      -305.4113
  20   2.0000     -11.223377      -305.4036
  21   2.0000     -11.222451      -305.3784
  22   2.0000      -1.472705       -40.0743
  23   2.0000      -1.367272       -37.2054
  24   2.0000      -1.220243       -33.2045
  25   2.0000      -1.194859       -32.5138
  26   2.0000      -1.148155       -31.2429
  27   2.0000      -1.132137       -30.8070
  28   2.0000      -1.086183       -29.5566
  29   2.0000      -1.060823       -28.8665
  30   2.0000      -1.025334       -27.9008
  31   2.0000      -0.979124       -26.6433
  32   2.0000      -0.970398       -26.4059
  33   2.0000      -0.950889       -25.8750
  34   2.0000      -0.947061       -25.7708
  35   2.0000      -0.899322       -24.4718
  36   2.0000      -0.875523       -23.8242
  37   2.0000      -0.822925       -22.3929
  38   2.0000      -0.805682       -21.9237
  39   2.0000      -0.764830       -20.8121
  40   2.0000      -0.756031       -20.5727
  41   2.0000      -0.739895       -20.1336
  42   2.0000      -0.723792       -19.6954
  43   2.0000      -0.717135       -19.5142
  44   2.0000      -0.698422       -19.0050
  45   2.0000      -0.680455       -18.5161
  46   2.0000      -0.676454       -18.4072
  47   2.0000      -0.669108       -18.2074
  48   2.0000      -0.646609       -17.5951
  49   2.0000      -0.634235       -17.2584
  50   2.0000      -0.624889       -17.0041
  51   2.0000      -0.609354       -16.5814
  52   2.0000      -0.600744       -16.3471
  53   2.0000      -0.593398       -16.1472
  54   2.0000      -0.585247       -15.9254
  55   2.0000      -0.568443       -15.4681
  56   2.0000      -0.565554       -15.3895
  57   2.0000      -0.556862       -15.1530
  58   2.0000      -0.551289       -15.0013
  59   2.0000      -0.544682       -14.8215
  60   2.0000      -0.538533       -14.6542
  61   2.0000      -0.537450       -14.6248
  62   2.0000      -0.533343       -14.5130
  63   2.0000      -0.514612       -14.0033
  64   2.0000      -0.506727       -13.7887
  65   2.0000      -0.503914       -13.7122
  66   2.0000      -0.496632       -13.5140
  67   2.0000      -0.486396       -13.2355
  68   2.0000      -0.478804       -13.0289
  69   2.0000      -0.472301       -12.8520
  70   2.0000      -0.470452       -12.8017
  71   2.0000      -0.457981       -12.4623
  72   2.0000      -0.436798       -11.8859
  73   2.0000      -0.427803       -11.6411
  74   2.0000      -0.419941       -11.4272
  75   2.0000      -0.366182        -9.9643
  76   2.0000      -0.338067        -9.1993
  77   2.0000      -0.306518        -8.3408
  78   0.0000       0.017388         0.4732
  79   0.0000       0.023663         0.6439
  80   0.0000       0.026487         0.7207
  81   0.0000       0.026884         0.7315
  82   0.0000       0.032778         0.8919

MULLIKEN ATOMIC CHARGES
-----------------------
   0 C :    0.828084
   1 C :    0.234514
   2 C :   -0.430527
   3 C :   -0.632960
   4 C :   -0.397054
   5 C :   -0.444058
   6 C :    0.248336
   7 H :    0.114880
   8 H :    0.083290
   9 C :   -1.063874
  10 C :    0.645851
  11 H :    0.377948
  12 C :    0.813275
  13 C :   -0.797762
  14 C :   -0.488494
  15 H :    0.237550
  16 H :    0.273370
  17 C :    1.725903
  18 C :   -1.395109
  19 C :   -1.230592
  20 H :    0.241570
  21 H :    0.199736
  22 H :    0.159005
  23 H :    0.193221
  24 H :    0.207314
  25 H :    0.213475
  26 C :   -1.061162
  27 C :    0.581683
  28 N :   -1.059032
  29 C :    1.861596
  30 O :   -1.057575
  31 O :   -0.826660
  32 C :   -0.872903
  33 H :    0.338649
  34 H :    0.361308
  35 H :    0.446565
  36 H :    0.474422
  37 H :    0.134615
  38 H :    0.477955
  39 H :    0.084229
  40 H :    0.199418
Sum of atomic charges:    0.0000000

LOEWDIN ATOMIC CHARGES
----------------------
   0 C :   -0.032013
   1 C :    0.109849
   2 C :    0.421248
   3 C :    0.439132
   4 C :    0.434000
   5 C :    0.405672
   6 C :    0.106520
   7 H :   -0.284210
   8 H :   -0.284014
   9 C :    0.397095
  10 C :    0.091211
  11 H :   -0.409656
  12 C :   -0.055382
  13 C :    0.384672
  14 C :    0.409009
  15 H :   -0.293976
  16 H :   -0.301447
  17 C :   -0.257124
  18 C :    0.899307
  19 C :    0.932238
  20 H :   -0.284475
  21 H :   -0.255501
  22 H :   -0.255474
  23 H :   -0.271035
  24 H :   -0.258842
  25 H :   -0.270693
  26 C :   -0.144580
  27 C :   -0.396782
  28 N :    0.489159
  29 C :   -1.075720
  30 O :    0.778172
  31 O :    0.836825
  32 C :    0.592417
  33 H :   -0.312787
  34 H :   -0.312634
  35 H :   -0.317966
  36 H :   -0.258566
  37 H :   -0.305462
  38 H :   -0.489481
  39 H :   -0.283089
  40 H :   -0.315618

  Mayer bond orders larger than 0.100000
B(  0-C ,  1-C ) :   0.1204 B(  0-C ,  2-C ) :   1.1114 B(  0-C ,  3-C ) :   0.4839
B(  0-C ,  4-C ) :  -0.3652 B(  0-C ,  6-C ) :   0.1218 B(  0-C , 11-H ) :  -0.4114
B(  0-C , 12-C ) :   0.1167 B(  0-C , 17-C ) :   0.1226 B(  0-C , 26-C ) :   0.8594
B(  0-C , 27-C ) :  -0.7816 B(  0-C , 28-N ) :  -0.1279 B(  0-C , 29-C ) :  -0.1766
B(  0-C , 31-O ) :   0.1345 B(  0-C , 36-H ) :   0.1918 B(  0-C , 38-H ) :  -0.1465
B(  1-C ,  2-C ) :  -0.1284 B(  1-C ,  3-C ) :   0.9018 B(  1-C ,  5-C ) :  -0.1970
B(  1-C ,  6-C ) :   0.1258 B(  1-C , 10-C ) :   1.0112 B(  1-C , 11-H ) :   1.1964
B(  1-C , 26-C ) :  -0.1342 B(  1-C , 27-C ) :   0.1570 B(  1-C , 36-H ) :  -0.1676
B(  2-C ,  3-C ) :  -0.1465 B(  2-C ,  4-C ) :   1.3325 B(  2-C ,  5-C ) :  -0.1745
B(  2-C , 17-C ) :   0.1365 B(  2-C , 26-C ) :  -0.3138 B(  2-C , 38-H ) :   0.7893
B(  2-C , 39-H ) :  -0.2665 B(  3-C ,  5-C ) :   1.3445 B(  3-C ,  6-C ) :  -0.3517
B(  3-C ,  7-H ) :   1.2905 B(  3-C ,  8-H ) :  -0.2417 B(  3-C , 10-C ) :   0.1177
B(  3-C , 11-H ) :  -0.2415 B(  3-C , 17-C ) :   0.1227 B(  3-C , 26-C ) :  -0.1657
B(  4-C ,  5-C ) :   0.4346 B(  4-C ,  6-C ) :   0.9740 B(  4-C , 17-C ) :   0.1301
B(  4-C , 39-H ) :   1.3080 B(  4-C , 40-H ) :  -0.2561 B(  5-C ,  6-C ) :   0.7216
B(  5-C ,  7-H ) :  -0.2213 B(  5-C ,  8-H ) :   1.3110 B(  5-C , 40-H ) :  -0.1804
B(  6-C ,  8-H ) :  -0.1584 B(  6-C , 17-C ) :   0.4332 B(  6-C , 18-C ) :   0.1404
B(  6-C , 40-H ) :   1.2167 B(  9-C , 10-C ) :  -0.8293 B(  9-C , 12-C ) :   1.0867
B(  9-C , 13-C ) :   0.2109 B(  9-C , 14-C ) :   1.3049 B(  9-C , 17-C ) :  -0.3566
B(  9-C , 37-H ) :   1.2342 B( 10-C , 11-H ) :  -0.1429 B( 10-C , 13-C ) :   0.4973
B( 10-C , 14-C ) :  -0.3350 B( 10-C , 26-C ) :   0.1563 B( 10-C , 28-N ) :   0.1242
B( 10-C , 36-H ) :   0.7873 B( 12-C , 13-C ) :  -0.2421 B( 12-C , 14-C ) :  -0.5166
B( 12-C , 17-C ) :   0.2319 B( 13-C , 14-C ) :   1.9748 B( 13-C , 15-H ) :   1.1699
B( 13-C , 36-H ) :  -0.1181 B( 14-C , 16-H ) :   1.1344 B( 17-C , 18-C ) :  -0.2822
B( 17-C , 20-H ) :  -0.2221 B( 17-C , 21-H ) :  -0.1928 B( 17-C , 22-H ) :  -0.2055
B( 17-C , 23-H ) :  -0.3652 B( 17-C , 24-H ) :  -0.2067 B( 17-C , 25-H ) :  -0.2342
B( 18-C , 19-C ) :   0.1420 B( 18-C , 23-H ) :   1.2618 B( 18-C , 24-H ) :   1.1514
B( 18-C , 25-H ) :   1.1904 B( 19-C , 20-H ) :   1.1247 B( 19-C , 21-H ) :   1.1528
B( 19-C , 22-H ) :   1.2119 B( 26-C , 27-C ) :   1.6596 B( 26-C , 29-C ) :   1.3852
B( 26-C , 30-O ) :   0.7076 B( 27-C , 28-N ) :   1.9952 B( 29-C , 30-O ) :   0.5092
B( 29-C , 31-O ) :   0.6724 B( 29-C , 32-C ) :  -0.2626 B( 30-O , 31-O ) :   0.1805
B( 31-O , 32-C ) :   0.9029 B( 32-C , 33-H ) :   0.9085 B( 32-C , 34-H ) :   0.8960
B( 32-C , 35-H ) :   0.8305

MP2 TOTAL ENERGY:     -939.001636563 Eh
FINAL SINGLE POINT ENERGY      -939.001636563462

DIPOLE MOMENT
-------------
                                X             Y             Z
Electronic contribution:    -16.42043       2.97910       4.31485
Nuclear contribution   :     17.84791      -3.93005      -4.70788
                        -----------------------------------------
Total Dipole Moment    :      1.42748      -0.95094      -0.39303
                        -----------------------------------------
Magnitude (a.u.)       :      1.75967
Magnitude (Debye)      :      4.47274

Rotational constants in cm-1:     0.018332     0.006966     0.006627
Rotational constants in MHz :   549.573175   208.835951   198.684372

                             ****ORCA TERMINATED NORMALLY****
TOTAL RUN TIME: 0 days 11 hours 49 minutes 59 seconds 543 msec
