                         Program Version 4.2.1 -  RELEASE  -
|  1> %pal
|  2>  nprocs 32
|  3> end
|  4> !RI-MP2 aug-cc-pVQZ aug-cc-pVQZ/C TightSCF
|  5> %maxcore 4500
|  6> *xyzfile 0 1  02_41TS.xyz
|  7>
|  8>
|  9>                          ****END OF INPUT****

CARTESIAN COORDINATES (ANGSTROEM)
---------------------------------
  C     -0.630859    0.256575    0.777918
  C     -0.027246    1.528344    0.380281
  C     -2.284288    0.204785   -0.958603
  O     -2.350672   -1.101510   -0.608326
  C     -1.459839    0.346680   -2.076804
  C     -0.768909   -0.832338   -2.203498
  C     -1.158477   -1.623292   -1.079875
  C     -0.111143   -1.001036    0.372243
  C      1.332021   -1.166004   -0.015258
  O      2.140461   -0.741735    0.966109
  O      1.741328   -1.695052   -1.014508
  O     -0.324588    2.600323    0.864681
  O      0.900196    1.396117   -0.584937
  C      1.488858    2.606353   -1.054960
  C      3.541488   -0.867161    0.711529
  H     -3.043390    0.850889   -0.548674
  H     -1.330579    1.253651   -2.646171
  H      0.047227   -1.062959   -2.865292
  H     -1.098859   -2.701524   -1.037136
  H      2.204662    2.307948   -1.816853
  H      1.988800    3.130659   -0.240695
  H      0.728252    3.261452   -1.481464
  H      4.036524   -0.477126    1.596871
  H      3.816348   -0.286283   -0.169120
  H      3.810318   -1.910514    0.548053
  H     -0.356218   -1.794250    1.074264
  N     -1.520975    0.371429    1.847075
  H     -1.547551    1.317841    2.199056
  C     -1.648072   -0.672097    2.837650
  H     -2.273839   -0.302632    3.649506
  H     -2.147062   -1.550182    2.420548
  H     -0.682819   -0.986967    3.259691

 Total Charge           Charge          ....    0
 Multiplicity           Mult            ....    1
 Number of Electrons    NEL             ....  128
 Basis Dimension        Dim             .... 2050

ORBITAL ENERGIES
----------------

  NO   OCC          E(Eh)            E(eV)
   0   2.0000     -20.605273      -560.6980
   1   2.0000     -20.599468      -560.5400
   2   2.0000     -20.594267      -560.3985
   3   2.0000     -20.540818      -558.9441
   4   2.0000     -20.525234      -558.5200
   5   2.0000     -15.547200      -423.0608
   6   2.0000     -11.382240      -309.7265
   7   2.0000     -11.368582      -309.3548
   8   2.0000     -11.311288      -307.7958
   9   2.0000     -11.310040      -307.7618
  10   2.0000     -11.283848      -307.0491
  11   2.0000     -11.283301      -307.0342
  12   2.0000     -11.275291      -306.8163
  13   2.0000     -11.259999      -306.4002
  14   2.0000     -11.249424      -306.1124
  15   2.0000     -11.238310      -305.8100
  16   2.0000     -11.235959      -305.7460
  17   2.0000      -1.466675       -39.9102
  18   2.0000      -1.457727       -39.6668
  19   2.0000      -1.454761       -39.5861
  20   2.0000      -1.361662       -37.0527
  21   2.0000      -1.349958       -36.7342
  22   2.0000      -1.226789       -33.3826
  23   2.0000      -1.101508       -29.9736
  24   2.0000      -1.067892       -29.0588
  25   2.0000      -1.011482       -27.5238
  26   2.0000      -0.988515       -26.8989
  27   2.0000      -0.960386       -26.1334
  28   2.0000      -0.931975       -25.3603
  29   2.0000      -0.849957       -23.1285
  30   2.0000      -0.805099       -21.9079
  31   2.0000      -0.798466       -21.7274
  32   2.0000      -0.792753       -21.5719
  33   2.0000      -0.757117       -20.6022
  34   2.0000      -0.743633       -20.2353
  35   2.0000      -0.737687       -20.0735
  36   2.0000      -0.692673       -18.8486
  37   2.0000      -0.690790       -18.7973
  38   2.0000      -0.678408       -18.4604
  39   2.0000      -0.663265       -18.0484
  40   2.0000      -0.661606       -18.0032
  41   2.0000      -0.644578       -17.5399
  42   2.0000      -0.627011       -17.0618
  43   2.0000      -0.622629       -16.9426
  44   2.0000      -0.607828       -16.5398
  45   2.0000      -0.596282       -16.2257
  46   2.0000      -0.587423       -15.9846
  47   2.0000      -0.575301       -15.6547
  48   2.0000      -0.565611       -15.3911
  49   2.0000      -0.561587       -15.2816
  50   2.0000      -0.551590       -15.0095
  51   2.0000      -0.546003       -14.8575
  52   2.0000      -0.539008       -14.6672
  53   2.0000      -0.528182       -14.3726
  54   2.0000      -0.526664       -14.3313
  55   2.0000      -0.512851       -13.9554
  56   2.0000      -0.469162       -12.7665
  57   2.0000      -0.460250       -12.5240
  58   2.0000      -0.457244       -12.4422
  59   2.0000      -0.444708       -12.1011
  60   2.0000      -0.438612       -11.9352
  61   2.0000      -0.414632       -11.2827
  62   2.0000      -0.380043       -10.3415
  63   2.0000      -0.254037        -6.9127
  64   0.0000       0.021881         0.5954
  65   0.0000       0.026748         0.7279
  66   0.0000       0.028698         0.7809
  67   0.0000       0.031294         0.8516
  68   0.0000       0.039328         1.0702

MULLIKEN ATOMIC CHARGES
-----------------------
   0 C :    0.880319
   1 C :    1.909260
   2 C :    0.087898
   3 O :   -1.308487
   4 C :   -0.398111
   5 C :   -0.749988
   6 C :    0.777444
   7 C :   -0.642728
   8 C :    2.069773
   9 O :   -0.985475
  10 O :   -1.146810
  11 O :   -1.141706
  12 O :   -0.805947
  13 C :   -1.036244
  14 C :   -0.980145
  15 H :    0.451175
  16 H :    0.373127
  17 H :    0.335291
  18 H :    0.591088
  19 H :    0.401520
  20 H :    0.369114
  21 H :    0.401608
  22 H :    0.421895
  23 H :    0.363364
  24 H :    0.379381
  25 H :    0.328555
  26 N :   -0.935514
  27 H :    0.133302
  28 C :   -1.067003
  29 H :    0.342353
  30 H :    0.261968
  31 H :    0.319727
Sum of atomic charges:    0.0000000

LOEWDIN ATOMIC CHARGES
----------------------
   0 C :   -0.367462
   1 C :   -1.112363
   2 C :   -0.054842
   3 O :    0.896666
   4 C :    0.325278
   5 C :    0.330147
   6 C :   -0.171416
   7 C :    0.086184
   8 C :   -1.119315
   9 O :    0.866236
  10 O :    0.758558
  11 O :    0.756029
  12 O :    0.845523
  13 C :    0.584074
  14 C :    0.582154
  15 H :   -0.285141
  16 H :   -0.292216
  17 H :   -0.305776
  18 H :   -0.276566
  19 H :   -0.315041
  20 H :   -0.310142
  21 H :   -0.309035
  22 H :   -0.318963
  23 H :   -0.313234
  24 H :   -0.314588
  25 H :   -0.364186
  26 N :    0.848718
  27 H :   -0.582722
  28 C :    0.782570
  29 H :   -0.287401
  30 H :   -0.290485
  31 H :   -0.271244

  Mayer bond orders larger than 0.100000
B(  0-C ,  1-C ) :   1.2237 B(  0-C ,  2-C ) :   0.2733 B(  0-C ,  3-O ) :   0.1133
B(  0-C ,  5-C ) :   0.1405 B(  0-C ,  7-C ) :   0.8977 B(  0-C , 11-O ) :   0.7964
B(  0-C , 26-N ) :  -0.2457 B(  0-C , 27-H ) :  -0.1179 B(  0-C , 28-C ) :  -0.3971
B(  0-C , 30-H ) :  -0.1003 B(  1-C ,  2-C ) :   0.1333 B(  1-C ,  7-C ) :   0.1015
B(  1-C , 11-O ) :  -0.1182 B(  1-C , 12-O ) :   0.9209 B(  2-C ,  3-O ) :   0.8198
B(  2-C ,  4-C ) :   1.3721 B(  2-C ,  7-C ) :   0.1494 B(  2-C , 15-H ) :   0.7730
B(  3-O ,  5-C ) :   0.1309 B(  3-O ,  6-C ) :   0.5138 B(  3-O , 18-H ) :  -0.1144
B(  4-C ,  5-C ) :   1.4342 B(  4-C ,  6-C ) :  -0.4085 B(  4-C , 16-H ) :   0.9056
B(  5-C ,  6-C ) :   1.0773 B(  5-C , 17-H ) :   0.9438 B(  5-C , 18-H ) :  -0.1182
B(  6-C ,  7-C ) :   0.5140 B(  6-C , 18-H ) :   0.7053 B(  7-C ,  8-C ) :   1.1819
B(  7-C ,  9-O ) :  -0.2407 B(  7-C , 10-O ) :   0.4818 B(  7-C , 12-O ) :  -0.1111
B(  7-C , 25-H ) :   0.8890 B(  7-C , 26-N ) :   0.1942 B(  8-C ,  9-O ) :   0.9064
B(  8-C , 10-O ) :   0.2794 B(  8-C , 14-C ) :  -0.2525 B(  9-O , 10-O ) :   0.2080
B(  9-O , 14-C ) :   1.0395 B( 11-O , 12-O ) :   0.3531 B( 12-O , 13-C ) :   0.8306
B( 13-C , 19-H ) :   0.8864 B( 13-C , 20-H ) :   0.9248 B( 13-C , 21-H ) :   0.8825
B( 14-C , 22-H ) :   0.8551 B( 14-C , 23-H ) :   0.8755 B( 14-C , 24-H ) :   0.8880
B( 26-N , 27-H ) :   1.1609 B( 26-N , 28-C ) :   1.0199 B( 28-C , 29-H ) :   0.9547
B( 28-C , 30-H ) :   1.0156 B( 28-C , 31-H ) :   0.9093

MP2 TOTAL ENERGY:     -857.748232117 Eh
FINAL SINGLE POINT ENERGY      -857.748232116830

DIPOLE MOMENT
-------------
                                X             Y             Z
Electronic contribution:     -3.64547      -1.21965      -3.93277
Nuclear contribution   :      4.16139       1.05567       3.93358
                        -----------------------------------------
Total Dipole Moment    :      0.51592      -0.16398       0.00081
                        -----------------------------------------
Magnitude (a.u.)       :      0.54135
Magnitude (Debye)      :      1.37601

Rotational constants in cm-1:     0.019045     0.015264     0.014630
Rotational constants in MHz :   570.950463   457.612421   438.593563

                             ****ORCA TERMINATED NORMALLY****
TOTAL RUN TIME: 0 days 5 hours 20 minutes 15 seconds 253 msec
