                         Program Version 4.2.1 -  RELEASE  -
|  1> %pal
|  2>  nprocs 32
|  3> end
|  4> !RI-MP2 aug-cc-pVQZ aug-cc-pVQZ/C TightSCF
|  5> %maxcore 4500
|  6> *xyzfile 0 1  02_42R2.xyz
|  7>
|  8>
|  9>                          ****END OF INPUT****

CARTESIAN COORDINATES (ANGSTROEM)
---------------------------------
  C     -0.050085   -1.194386    0.000009
  C      0.025395    1.223488   -0.000047
  C     -1.259493    0.874167   -0.000009
  H      0.165683   -1.805867    0.877456
  H      0.165620   -1.805826   -0.877484
  C     -1.471456   -0.616110    0.000057
  H     -2.050815   -0.922320    0.875276
  H     -2.050915   -0.922398   -0.875068
  C      0.879920    0.016329   -0.000014
  O      2.085387   -0.019836   -0.000006
  H     -2.090880    1.569355   -0.000019
  H      0.432527    2.224820   -0.000089

 Total Charge           Charge          ....    0
 Multiplicity           Mult            ....    1
 Number of Electrons    NEL             ....   44
 Basis Dimension        Dim             ....  756

ORBITAL ENERGIES
----------------

  NO   OCC          E(Eh)            E(eV)
   0   2.0000     -20.534152      -558.7627
   1   2.0000     -11.324426      -308.1533
   2   2.0000     -11.267926      -306.6159
   3   2.0000     -11.249572      -306.1164
   4   2.0000     -11.238044      -305.8027
   5   2.0000     -11.237874      -305.7981
   6   2.0000      -1.380686       -37.5704
   7   2.0000      -1.153185       -31.3797
   8   2.0000      -1.000076       -27.2135
   9   2.0000      -0.939059       -25.5531
  10   2.0000      -0.795186       -21.6381
  11   2.0000      -0.734153       -19.9773
  12   2.0000      -0.685447       -18.6519
  13   2.0000      -0.651229       -17.7208
  14   2.0000      -0.605131       -16.4664
  15   2.0000      -0.585629       -15.9358
  16   2.0000      -0.549108       -14.9420
  17   2.0000      -0.543405       -14.7868
  18   2.0000      -0.521324       -14.1860
  19   2.0000      -0.502280       -13.6677
  20   2.0000      -0.403943       -10.9918
  21   2.0000      -0.383815       -10.4441
  22   0.0000       0.020548         0.5592
  23   0.0000       0.030571         0.8319
  24   0.0000       0.034288         0.9330
  25   0.0000       0.035751         0.9728
  26   0.0000       0.046995         1.2788

MULLIKEN ATOMIC CHARGES
-----------------------
   0 C :   -0.535745
   1 C :   -0.699324
   2 C :   -0.398408
   3 H :    0.249867
   4 H :    0.249880
   5 C :   -0.403333
   6 H :    0.244537
   7 H :    0.244529
   8 C :    1.006921
   9 O :   -0.827293
  10 H :    0.437666
  11 H :    0.430702
Sum of atomic charges:    0.0000000

LOEWDIN ATOMIC CHARGES
----------------------
   0 C :    0.474130
   1 C :    0.368121
   2 C :    0.387885
   3 H :   -0.276229
   4 H :   -0.276230
   5 C :    0.490311
   6 H :   -0.272405
   7 H :   -0.272404
   8 C :   -0.703290
   9 O :    0.691176
  10 H :   -0.286587
  11 H :   -0.324478

  Mayer bond orders larger than 0.100000
B(  0-C ,  3-H ) :   0.9199 B(  0-C ,  4-H ) :   0.9198 B(  0-C ,  5-C ) :   1.0322
B(  0-C ,  8-C ) :   0.9853 B(  0-C ,  9-O ) :   0.1696 B(  1-C ,  2-C ) :   1.5084
B(  1-C ,  8-C ) :   1.1041 B(  1-C ,  9-O ) :   0.2531 B(  1-C , 11-H ) :   0.7961
B(  2-C ,  5-C ) :   0.9042 B(  2-C ,  8-C ) :  -0.1676 B(  2-C , 10-H ) :   0.8305
B(  5-C ,  6-H ) :   0.9117 B(  5-C ,  7-H ) :   0.9117 B(  8-C ,  9-O ) :   1.0417

MP2 TOTAL ENERGY:     -268.902889751 Eh
FINAL SINGLE POINT ENERGY      -268.902889751179

DIPOLE MOMENT
-------------
                                X             Y             Z
Electronic contribution:      3.70754       1.65020      -0.00007
Nuclear contribution   :     -5.43095      -1.67335       0.00007
                        -----------------------------------------
Total Dipole Moment    :     -1.72341      -0.02315       0.00000
                        -----------------------------------------
Magnitude (a.u.)       :      1.72356
Magnitude (Debye)      :      4.38094

Rotational constants in cm-1:     0.249106     0.120530     0.083726
Rotational constants in MHz :  7467.999914  3613.389613  2510.042556

                             ****ORCA TERMINATED NORMALLY****
TOTAL RUN TIME: 0 days 0 hours 10 minutes 21 seconds 955 msec
