                         Program Version 4.2.1 -  RELEASE  -
|  1> %pal
|  2>  nprocs 32
|  3> end
|  4> !RI-MP2 aug-cc-pVQZ aug-cc-pVQZ/C TightSCF
|  5> %maxcore 4500
|  6> *xyzfile 0 1  05_17R2.xyz
|  7>
|  8>
|  9>                          ****END OF INPUT****

CARTESIAN COORDINATES (ANGSTROEM)
---------------------------------
  C     -6.279991    0.978827   -0.262693
  C     -4.889604    0.801027    0.243817
  H     -6.484025    2.032937   -0.471762
  H     -7.009183    0.661226    0.488243
  H     -6.452917    0.406664   -1.175010
  C     -3.953447    0.041609   -0.329573
  C     -2.617562   -0.092804    0.206908
  C     -1.650187   -0.841138   -0.336390
  H     -2.383164    0.452994    1.117013
  C     -0.322936   -0.910872    0.285501
  H     -1.815758   -1.413075   -1.242573
  O     -0.005719   -0.320818    1.298041
  S      0.801426   -1.966597   -0.604290
  C      2.266041   -1.908099    0.472470
  C      3.244002   -0.789716    0.155646
  H      2.756340   -2.872837    0.344732
  H      1.905998   -1.843412    1.499967
  N      2.652621    0.508165    0.396998
  H      3.570386   -0.832429   -0.884785
  H      4.137857   -0.928628    0.774984
  C      3.135222    1.626725   -0.196153
  O      4.112867    1.610818   -0.923772
  C      2.382087    2.901666    0.104875
  H      3.056037    3.594611    0.610076
  H      1.498538    2.743288    0.724070
  H      2.085706    3.359550   -0.839075
  H      1.820562    0.551623    0.968862
  H     -4.630896    1.338438    1.153877
  H     -4.185586   -0.505902   -1.239574

 Total Charge           Charge          ....    0
 Multiplicity           Mult            ....    1
 Number of Electrons    NEL             ....  114
 Basis Dimension        Dim             .... 1814

ORBITAL ENERGIES
----------------

  NO   OCC          E(Eh)            E(eV)
   0   2.0000     -91.971806     -2502.6801
   1   2.0000     -20.553898      -559.3000
   2   2.0000     -20.496887      -557.7487
   3   2.0000     -15.565326      -423.5541
   4   2.0000     -11.369266      -309.3735
   5   2.0000     -11.331979      -308.3588
   6   2.0000     -11.274317      -306.7898
   7   2.0000     -11.270191      -306.6775
   8   2.0000     -11.266276      -306.5710
   9   2.0000     -11.263872      -306.5055
  10   2.0000     -11.249076      -306.1029
  11   2.0000     -11.245988      -306.0189
  12   2.0000     -11.242795      -305.9320
  13   2.0000     -11.222655      -305.3840
  14   2.0000      -8.974940      -244.2205
  15   2.0000      -6.656345      -181.1284
  16   2.0000      -6.655308      -181.1001
  17   2.0000      -6.654776      -181.0857
  18   2.0000      -1.406551       -38.2742
  19   2.0000      -1.365880       -37.1675
  20   2.0000      -1.222902       -33.2768
  21   2.0000      -1.132877       -30.8272
  22   2.0000      -1.088143       -29.6099
  23   2.0000      -1.068014       -29.0621
  24   2.0000      -1.008667       -27.4472
  25   2.0000      -0.980530       -26.6816
  26   2.0000      -0.949714       -25.8430
  27   2.0000      -0.875233       -23.8163
  28   2.0000      -0.821316       -22.3492
  29   2.0000      -0.785064       -21.3627
  30   2.0000      -0.780813       -21.2470
  31   2.0000      -0.737125       -20.0582
  32   2.0000      -0.687479       -18.7072
  33   2.0000      -0.675593       -18.3838
  34   2.0000      -0.664454       -18.0807
  35   2.0000      -0.656069       -17.8525
  36   2.0000      -0.641038       -17.4435
  37   2.0000      -0.624816       -17.0021
  38   2.0000      -0.607641       -16.5348
  39   2.0000      -0.590941       -16.0803
  40   2.0000      -0.586591       -15.9620
  41   2.0000      -0.582389       -15.8476
  42   2.0000      -0.572956       -15.5909
  43   2.0000      -0.561602       -15.2820
  44   2.0000      -0.558514       -15.1979
  45   2.0000      -0.544691       -14.8218
  46   2.0000      -0.535604       -14.5745
  47   2.0000      -0.525472       -14.2988
  48   2.0000      -0.520266       -14.1571
  49   2.0000      -0.501169       -13.6375
  50   2.0000      -0.467887       -12.7319
  51   2.0000      -0.458255       -12.4698
  52   2.0000      -0.420671       -11.4470
  53   2.0000      -0.408309       -11.1107
  54   2.0000      -0.382282       -10.4024
  55   2.0000      -0.377945       -10.2844
  56   2.0000      -0.338075        -9.1995
  57   0.0000       0.017285         0.4703
  58   0.0000       0.024928         0.6783
  59   0.0000       0.027017         0.7352
  60   0.0000       0.031021         0.8441
  61   0.0000       0.034624         0.9422

MULLIKEN ATOMIC CHARGES
-----------------------
   0 C :   -0.728356
   1 C :   -0.341654
   2 H :    0.235507
   3 H :    0.241904
   4 H :    0.254992
   5 C :   -0.480965
   6 C :   -0.269448
   7 C :   -0.098760
   8 H :    0.441670
   9 C :    0.267347
  10 H :    0.388140
  11 O :   -0.883856
  12 S :    0.067631
  13 C :   -0.602815
  14 C :   -0.351835
  15 H :    0.290979
  16 H :    0.299641
  17 N :   -0.607646
  18 H :    0.285336
  19 H :    0.331541
  20 C :    0.932092
  21 O :   -0.897486
  22 C :   -0.879588
  23 H :    0.316031
  24 H :    0.243360
  25 H :    0.277615
  26 H :    0.469448
  27 H :    0.402849
  28 H :    0.396326
Sum of atomic charges:    0.0000000

LOEWDIN ATOMIC CHARGES
----------------------
   0 C :    0.903789
   1 C :    0.388319
   2 H :   -0.290087
   3 H :   -0.290091
   4 H :   -0.309789
   5 C :    0.363964
   6 C :    0.318510
   7 C :    0.214359
   8 H :   -0.353976
   9 C :   -1.086814
  10 H :   -0.385578
  11 O :    0.710044
  12 S :    1.368193
  13 C :    0.167577
  14 C :    0.292044
  15 H :   -0.363071
  16 H :   -0.381242
  17 N :    0.810375
  18 H :   -0.324329
  19 H :   -0.265855
  20 C :   -0.839157
  21 O :    0.701181
  22 C :    0.894048
  23 H :   -0.295466
  24 H :   -0.310694
  25 H :   -0.299379
  26 H :   -0.682407
  27 H :   -0.316415
  28 H :   -0.338054

  Mayer bond orders larger than 0.100000
B(  0-C ,  1-C ) :   0.9404 B(  0-C ,  2-H ) :   0.9925 B(  0-C ,  3-H ) :   0.9867
B(  0-C ,  4-H ) :   0.9575 B(  0-C ,  5-C ) :  -0.2037 B(  1-C ,  5-C ) :   1.6330
B(  1-C ,  6-C ) :  -0.4526 B(  1-C , 27-H ) :   0.7689 B(  5-C ,  6-C ) :   1.0633
B(  5-C ,  7-C ) :  -0.5000 B(  5-C , 28-H ) :   0.7861 B(  6-C ,  7-C ) :   1.5286
B(  6-C ,  8-H ) :   0.7160 B(  6-C ,  9-C ) :  -0.6049 B(  7-C ,  9-C ) :   0.2335
B(  7-C , 10-H ) :   0.8289 B(  7-C , 12-S ) :  -0.3705 B(  9-C , 11-O ) :   1.0552
B(  9-C , 12-S ) :   1.2471 B( 12-S , 13-C ) :   0.9614 B( 13-C , 14-C ) :   1.0403
B( 13-C , 15-H ) :   0.9236 B( 13-C , 16-H ) :   0.8763 B( 14-C , 17-N ) :   0.8074
B( 14-C , 18-H ) :   0.9003 B( 14-C , 19-H ) :   0.8132 B( 17-N , 20-C ) :   1.2663
B( 17-N , 21-O ) :   0.2545 B( 17-N , 26-H ) :   0.7547 B( 20-C , 21-O ) :   1.0364
B( 20-C , 22-C ) :   0.9153 B( 22-C , 23-H ) :   0.9063 B( 22-C , 24-H ) :   0.9808
B( 22-C , 25-H ) :   0.9561

MP2 TOTAL ENERGY:     -992.065936833 Eh
FINAL SINGLE POINT ENERGY      -992.065936833100

DIPOLE MOMENT
-------------
                                X             Y             Z
Electronic contribution:      9.65539      -7.21405      -1.30077
Nuclear contribution   :    -12.12011       6.85483       1.86293
                        -----------------------------------------
Total Dipole Moment    :     -2.46472      -0.35922       0.56216
                        -----------------------------------------
Magnitude (a.u.)       :      2.55341
Magnitude (Debye)      :      6.49025

Rotational constants in cm-1:     0.032138     0.007844     0.006693
Rotational constants in MHz :   963.480384   235.153201   200.665632

                             ****ORCA TERMINATED NORMALLY****
TOTAL RUN TIME: 0 days 2 hours 14 minutes 53 seconds 547 msec
