                         Program Version 4.2.1 -  RELEASE  -
|  1> %pal
|  2>  nprocs 32
|  3> end
|  4> !RI-MP2 aug-cc-pVQZ aug-cc-pVQZ/C TightSCF
|  5> %maxcore 4500
|  6> *xyzfile 1 1  05_12P1.xyz
|  7>
|  8>
|  9>                          ****END OF INPUT****

CARTESIAN COORDINATES (ANGSTROEM)
---------------------------------
  C      1.560016   -0.361684    0.000038
  C      1.255429    0.994148    0.000024
  C      0.005484    1.601364    0.000013
  C      0.689874   -1.445158    0.000021
  C     -1.248593    1.002726   -0.000014
  C     -0.699753   -1.440400   -0.000029
  C     -1.562457   -0.350997   -0.000053
  H      2.616825   -0.606705    0.000059
  H      2.105901    1.667628    0.000026
  H      0.009203    2.686199    0.000024
  H      1.157210   -2.424176    0.000041
  H     -2.094431    1.682018   -0.000012
  H     -1.173784   -2.416194   -0.000046
  H     -2.620920   -0.588770   -0.000093

 Total Charge           Charge          ....    1
 Multiplicity           Mult            ....    1
 Number of Electrons    NEL             ....   48
 Basis Dimension        Dim             ....  882

ORBITAL ENERGIES
----------------

  NO   OCC          E(Eh)            E(eV)
   0   2.0000     -11.461147      -311.8737
   1   2.0000     -11.460702      -311.8615
   2   2.0000     -11.460701      -311.8615
   3   2.0000     -11.459639      -311.8326
   4   2.0000     -11.459638      -311.8326
   5   2.0000     -11.458789      -311.8095
   6   2.0000     -11.458788      -311.8095
   7   2.0000      -1.355141       -36.8753
   8   2.0000      -1.264972       -34.4216
   9   2.0000      -1.264968       -34.4215
  10   2.0000      -1.104880       -30.0653
  11   2.0000      -1.104878       -30.0653
  12   2.0000      -0.931395       -25.3445
  13   2.0000      -0.931394       -25.3445
  14   2.0000      -0.916517       -24.9397
  15   2.0000      -0.826174       -22.4813
  16   2.0000      -0.826170       -22.4812
  17   2.0000      -0.758208       -20.6319
  18   2.0000      -0.758207       -20.6319
  19   2.0000      -0.703419       -19.1410
  20   2.0000      -0.703417       -19.1410
  21   2.0000      -0.699034       -19.0217
  22   2.0000      -0.569123       -15.4866
  23   2.0000      -0.569120       -15.4865
  24   0.0000      -0.154442        -4.2026
  25   0.0000      -0.154440        -4.2025
  26   0.0000      -0.085326        -2.3218
  27   0.0000      -0.068492        -1.8638
  28   0.0000      -0.068492        -1.8638

MULLIKEN ATOMIC CHARGES
-----------------------
   0 C :   -0.224783
   1 C :   -0.224690
   2 C :   -0.224634
   3 C :   -0.225062
   4 C :   -0.224215
   5 C :   -0.225105
   6 C :   -0.224463
   7 H :    0.367580
   8 H :    0.367590
   9 H :    0.367583
  10 H :    0.367517
  11 H :    0.367578
  12 H :    0.367540
  13 H :    0.367564
Sum of atomic charges:    1.0000000

LOEWDIN ATOMIC CHARGES
----------------------
   0 C :    0.441839
   1 C :    0.441839
   2 C :    0.441843
   3 C :    0.441844
   4 C :    0.441845
   5 C :    0.441842
   6 C :    0.441842
   7 H :   -0.298982
   8 H :   -0.298985
   9 H :   -0.298987
  10 H :   -0.298986
  11 H :   -0.298985
  12 H :   -0.298987
  13 H :   -0.298983

  Mayer bond orders larger than 0.100000
B(  0-C ,  1-C ) :   1.2412 B(  0-C ,  3-C ) :   1.2416 B(  0-C ,  7-H ) :   0.9395
B(  1-C ,  2-C ) :   1.2417 B(  1-C ,  8-H ) :   0.9395 B(  2-C ,  4-C ) :   1.2412
B(  2-C ,  9-H ) :   0.9395 B(  3-C ,  5-C ) :   1.2420 B(  3-C , 10-H ) :   0.9396
B(  4-C ,  6-C ) :   1.2412 B(  4-C , 11-H ) :   0.9395 B(  5-C ,  6-C ) :   1.2414
B(  5-C , 12-H ) :   0.9395 B(  6-C , 13-H ) :   0.9395

MP2 TOTAL ENERGY:     -270.148772027 Eh
FINAL SINGLE POINT ENERGY      -270.148772027209

DIPOLE MOMENT
-------------
                                X             Y             Z
Electronic contribution:     -0.00001      -0.00000       0.00000
Nuclear contribution   :      0.00000       0.00000      -0.00000
                        -----------------------------------------
Total Dipole Moment    :     -0.00000      -0.00000      -0.00000
                        -----------------------------------------
Magnitude (a.u.)       :      0.00000
Magnitude (Debye)      :      0.00001

Rotational constants in cm-1:     0.126501     0.126498     0.063250
Rotational constants in MHz :  3792.408605  3792.328244  1896.184212

                             ****ORCA TERMINATED NORMALLY****
TOTAL RUN TIME: 0 days 0 hours 16 minutes 41 seconds 882 msec
