                         Program Version 4.2.1 -  RELEASE  -
|  1> %pal
|  2>  nprocs 32
|  3> end
|  4> !RI-MP2 aug-cc-pVQZ aug-cc-pVQZ/C TightSCF
|  5> %maxcore 4500
|  6> *xyzfile 0 2  04_13P1.xyz
|  7>
|  8>
|  9>                          ****END OF INPUT****

CARTESIAN COORDINATES (ANGSTROEM)
---------------------------------
  N     -0.532120   -1.152429    0.087671
  H      0.020500   -2.000498   -0.024603
  C      0.241033   -0.021905    0.210561
  C     -0.354357    1.299645    0.574797
  C      1.659517   -0.298841   -0.015295
  H     -1.041509    1.163107    1.415906
  H      0.435265    1.968969    0.913934
  O      2.050296   -1.455050   -0.145460
  H     -1.832208    1.460522   -0.641861
  N      2.512973    0.765027   -0.044132
  H      2.171728    1.690651   -0.243550
  H      3.460854    0.555569   -0.315187
  C     -1.887630   -1.231649   -0.032728
  H     -2.241236   -2.269723   -0.101851
  O     -2.643751   -0.282222   -0.067775
  O     -1.005387    1.944735   -0.503211

 Total Charge           Charge          ....    0
 Multiplicity           Mult            ....    2
 Number of Electrons    NEL             ....   69
 Basis Dimension        Dim             .... 1042

ORBITAL ENERGIES
----------------
                 SPIN UP ORBITALS
  NO   OCC          E(Eh)            E(eV)
   0   1.0000     -20.558387      -559.4222
   1   1.0000     -20.555471      -559.3428
   2   1.0000     -20.541872      -558.9727
   3   1.0000     -15.625724      -425.1976
   4   1.0000     -15.595680      -424.3800
   5   1.0000     -11.378145      -309.6151
   6   1.0000     -11.368600      -309.3553
   7   1.0000     -11.306324      -307.6607
   8   1.0000     -11.297840      -307.4299
   9   1.0000      -1.425876       -38.8001
  10   1.0000      -1.408797       -38.3353
  11   1.0000      -1.366833       -37.1934
  12   1.0000      -1.284763       -34.9602
  13   1.0000      -1.230131       -33.4736
  14   1.0000      -1.059238       -28.8233
  15   1.0000      -0.933240       -25.3948
  16   1.0000      -0.864131       -23.5142
  17   1.0000      -0.798806       -21.7366
  18   1.0000      -0.774186       -21.0667
  19   1.0000      -0.734035       -19.9741
  20   1.0000      -0.710323       -19.3289
  21   1.0000      -0.678130       -18.4529
  22   1.0000      -0.672391       -18.2967
  23   1.0000      -0.648289       -17.6408
  24   1.0000      -0.638332       -17.3699
  25   1.0000      -0.609420       -16.5832
  26   1.0000      -0.606584       -16.5060
  27   1.0000      -0.596895       -16.2423
  28   1.0000      -0.521883       -14.2012
  29   1.0000      -0.502077       -13.6622
  30   1.0000      -0.483591       -13.1592
  31   1.0000      -0.469449       -12.7743
  32   1.0000      -0.457128       -12.4391
  33   1.0000      -0.447565       -12.1789
  34   1.0000      -0.335114        -9.1189
  35   0.0000       0.021476         0.5844
  36   0.0000       0.026014         0.7079
  37   0.0000       0.034942         0.9508
  38   0.0000       0.041997         1.1428
  39   0.0000       0.048887         1.3303

                 SPIN DOWN ORBITALS
  NO   OCC          E(Eh)            E(eV)
   0   1.0000     -20.553280      -559.2832
   1   1.0000     -20.553256      -559.2825
   2   1.0000     -20.534529      -558.7730
   3   1.0000     -15.625891      -425.2021
   4   1.0000     -15.594707      -424.3536
   5   1.0000     -11.378715      -309.6306
   6   1.0000     -11.372359      -309.4576
   7   1.0000     -11.300571      -307.5042
   8   1.0000     -11.285805      -307.1024
   9   1.0000      -1.415539       -38.5188
  10   1.0000      -1.395908       -37.9846
  11   1.0000      -1.359968       -37.0066
  12   1.0000      -1.271643       -34.6032
  13   1.0000      -1.224284       -33.3145
  14   1.0000      -1.020593       -27.7718
  15   1.0000      -0.927618       -25.2418
  16   1.0000      -0.859342       -23.3839
  17   1.0000      -0.795140       -21.6369
  18   1.0000      -0.766581       -20.8597
  19   1.0000      -0.730840       -19.8872
  20   1.0000      -0.703273       -19.1370
  21   1.0000      -0.670518       -18.2457
  22   1.0000      -0.659510       -17.9462
  23   1.0000      -0.633439       -17.2368
  24   1.0000      -0.615760       -16.7557
  25   1.0000      -0.600477       -16.3398
  26   1.0000      -0.595812       -16.2129
  27   1.0000      -0.572637       -15.5822
  28   1.0000      -0.513367       -13.9694
  29   1.0000      -0.475251       -12.9322
  30   1.0000      -0.463206       -12.6045
  31   1.0000      -0.455969       -12.4075
  32   1.0000      -0.442488       -12.0407
  33   1.0000      -0.414805       -11.2874
  34   0.0000       0.021397         0.5822
  35   0.0000       0.026052         0.7089
  36   0.0000       0.034794         0.9468
  37   0.0000       0.041262         1.1228
  38   0.0000       0.048379         1.3165

MULLIKEN ATOMIC CHARGES AND SPIN POPULATIONS
--------------------------------------------
   0 N :   -0.438311   -0.004563
   1 H :    0.221326    0.002280
   2 C :   -0.248905    0.961024
   3 C :    0.208022   -0.112942
   4 C :    1.214832   -0.166262
   5 H :    0.274035    0.029474
   6 H :    0.259840    0.004166
   7 O :   -0.882036    0.166233
   8 H :    0.364355   -0.004442
   9 N :   -0.742645    0.026854
  10 H :    0.321354   -0.005499
  11 H :    0.222207   -0.003913
  12 C :    0.312456   -0.037529
  13 H :    0.557758    0.000196
  14 O :   -0.783500    0.108195
  15 O :   -0.860788    0.036729
Sum of atomic charges         :    0.0000000

LOEWDIN ATOMIC CHARGES AND SPIN POPULATIONS
-------------------------------------------
   0 N :    0.786160    0.116332
   1 H :   -0.615107    0.011778
   2 C :   -0.187875    0.377926
   3 C :    0.154112    0.092092
   4 C :   -0.825481    0.110625
   5 H :   -0.310045    0.011202
   6 H :   -0.356778    0.007733
   7 O :    0.734724    0.112634
   8 H :   -0.971423    0.004953
   9 N :    1.247978    0.016060
  10 H :   -0.516271    0.003843
  11 H :   -0.494761    0.001438
  12 C :   -0.344564    0.023203
  13 H :   -0.345282    0.002390
  14 O :    0.763807    0.079519
  15 O :    1.280807    0.028272

  Mayer bond orders larger than 0.100000
B(  0-N ,  1-H ) :   1.0873 B(  0-N ,  2-C ) :   0.6719 B(  0-N , 12-C ) :   1.1118
B(  2-C ,  3-C ) :   0.6700 B(  2-C ,  4-C ) :   1.4286 B(  2-C ,  7-O ) :   0.5564
B(  3-C ,  5-H ) :   0.9311 B(  3-C ,  6-H ) :   0.9893 B(  3-C , 15-O ) :   0.6512
B(  4-C ,  7-O ) :   0.8346 B(  4-C ,  9-N ) :   1.0571 B(  7-O ,  9-N ) :   0.1347
B(  8-H , 15-O ) :   0.8393 B(  9-N , 10-H ) :   0.8676 B(  9-N , 11-H ) :   1.0254
B( 12-C , 13-H ) :   0.6920 B( 12-C , 14-O ) :   1.5662

MP2 TOTAL ENERGY:     -491.130550272 Eh
FINAL SINGLE POINT ENERGY      -491.130550271519

DIPOLE MOMENT
-------------
                                X             Y             Z
Electronic contribution:     -0.44204      -2.66443      -0.71296
Nuclear contribution   :      0.94866       2.53973       0.98022
                        -----------------------------------------
Total Dipole Moment    :      0.50662      -0.12470       0.26726
                        -----------------------------------------
Magnitude (a.u.)       :      0.58620
Magnitude (Debye)      :      1.49001

Rotational constants in cm-1:     0.086844     0.041613     0.029360
Rotational constants in MHz :  2603.502983  1247.531782   880.191267

                             ****ORCA TERMINATED NORMALLY****
TOTAL RUN TIME: 0 days 0 hours 51 minutes 12 seconds 609 msec
