                         Program Version 4.2.1 -  RELEASE  -
|  1> %pal
|  2>  nprocs 32
|  3> end
|  4> !RI-MP2 aug-cc-pVQZ aug-cc-pVQZ/C TightSCF
|  5> %maxcore 4500
|  6> *xyzfile 0 1  02_2P.xyz
|  7>
|  8>
|  9>                          ****END OF INPUT****

CARTESIAN COORDINATES (ANGSTROEM)
---------------------------------
  C      1.202315   -1.661704    0.371375
  O      0.231895   -1.326876    1.359878
  C      2.548283   -1.061388    0.661021
  C      3.058569   -0.002325    0.035807
  C      4.427443    0.508433    0.376255
  C      2.330890    0.679038   -1.107022
  C      2.623923    2.175768   -1.250269
  C      0.837683    0.339180   -1.112065
  C      0.641169   -1.173510   -0.967430
  C     -0.812580   -1.579647   -1.113756
  O     -1.108829   -2.659085   -1.571571
  C     -1.845383   -0.605239   -0.655806
  C     -1.458682    0.629335   -0.101157
  C     -0.052770    1.064608   -0.121870
  O      0.328249    2.016792    0.545235
  C     -2.437758    1.461743    0.463730
  C     -3.782150    1.088717    0.394447
  C     -4.141311   -0.109518   -0.187224
  C     -3.175981   -0.971671   -0.702081
  C      0.515312   -1.791263    2.659656
  O     -2.137199    2.620015    1.063736
  H      4.383806    1.535523    0.745370
  H      4.898137   -0.111340    1.139292
  H      5.073762    0.514320   -0.506789
  H      2.012691    2.597710   -2.051644
  H      2.398156    2.722244   -0.338306
  H      3.668571    2.341785   -1.516313
  H     -4.519735    1.757810    0.818881
  H     -5.187141   -0.390020   -0.224212
  H     -3.438679   -1.934463   -1.118917
  H     -1.158696    2.693456    1.088810
  H     -0.369708   -1.597251    3.263289
  H      0.716320   -2.869966    2.656578
  H      1.368330   -1.266803    3.101117
  H      3.133179   -1.541458    1.439081
  H      0.433223    0.633399   -2.089491
  H      2.726142    0.206349   -2.018390
  H      1.189619   -1.685060   -1.760841
  H      1.285266   -2.756341    0.332587

 Total Charge           Charge          ....    0
 Multiplicity           Mult            ....    1
 Number of Electrons    NEL             ....  152
 Basis Dimension        Dim             .... 2508

ORBITAL ENERGIES
----------------

  NO   OCC          E(Eh)            E(eV)
   0   2.0000     -20.575232      -559.8805
   1   2.0000     -20.563596      -559.5639
   2   2.0000     -20.557852      -559.4076
   3   2.0000     -20.549647      -559.1843
   4   2.0000     -11.350948      -308.8750
   5   2.0000     -11.337953      -308.5214
   6   2.0000     -11.317947      -307.9770
   7   2.0000     -11.300051      -307.4900
   8   2.0000     -11.275234      -306.8147
   9   2.0000     -11.258683      -306.3643
  10   2.0000     -11.258325      -306.3546
  11   2.0000     -11.254385      -306.2474
  12   2.0000     -11.253608      -306.2262
  13   2.0000     -11.251677      -306.1737
  14   2.0000     -11.250755      -306.1486
  15   2.0000     -11.247604      -306.0629
  16   2.0000     -11.239208      -305.8344
  17   2.0000     -11.236368      -305.7571
  18   2.0000     -11.228510      -305.5433
  19   2.0000     -11.224368      -305.4306
  20   2.0000     -11.217332      -305.2391
  21   2.0000      -1.421584       -38.6833
  22   2.0000      -1.399059       -38.0703
  23   2.0000      -1.392150       -37.8823
  24   2.0000      -1.387134       -37.7458
  25   2.0000      -1.179125       -32.0856
  26   2.0000      -1.158374       -31.5210
  27   2.0000      -1.094070       -29.7712
  28   2.0000      -1.054024       -28.6815
  29   2.0000      -1.045206       -28.4415
  30   2.0000      -1.027334       -27.9552
  31   2.0000      -0.971947       -26.4480
  32   2.0000      -0.956555       -26.0292
  33   2.0000      -0.932688       -25.3797
  34   2.0000      -0.897116       -24.4118
  35   2.0000      -0.873290       -23.7634
  36   2.0000      -0.860369       -23.4118
  37   2.0000      -0.821580       -22.3563
  38   2.0000      -0.792701       -21.5705
  39   2.0000      -0.755658       -20.5625
  40   2.0000      -0.727971       -19.8091
  41   2.0000      -0.715333       -19.4652
  42   2.0000      -0.711095       -19.3499
  43   2.0000      -0.692731       -18.8502
  44   2.0000      -0.680890       -18.5280
  45   2.0000      -0.663832       -18.0638
  46   2.0000      -0.656121       -17.8540
  47   2.0000      -0.642123       -17.4730
  48   2.0000      -0.639225       -17.3942
  49   2.0000      -0.628774       -17.1098
  50   2.0000      -0.618506       -16.8304
  51   2.0000      -0.606188       -16.4952
  52   2.0000      -0.601644       -16.3716
  53   2.0000      -0.597362       -16.2551
  54   2.0000      -0.594732       -16.1835
  55   2.0000      -0.571878       -15.5616
  56   2.0000      -0.568162       -15.4605
  57   2.0000      -0.562817       -15.3150
  58   2.0000      -0.556287       -15.1373
  59   2.0000      -0.549232       -14.9454
  60   2.0000      -0.545536       -14.8448
  61   2.0000      -0.541266       -14.7286
  62   2.0000      -0.529499       -14.4084
  63   2.0000      -0.525362       -14.2958
  64   2.0000      -0.519126       -14.1261
  65   2.0000      -0.504529       -13.7289
  66   2.0000      -0.498892       -13.5756
  67   2.0000      -0.486517       -13.2388
  68   2.0000      -0.481100       -13.0914
  69   2.0000      -0.455482       -12.3943
  70   2.0000      -0.438180       -11.9235
  71   2.0000      -0.420684       -11.4474
  72   2.0000      -0.410884       -11.1807
  73   2.0000      -0.358279        -9.7493
  74   2.0000      -0.358186        -9.7467
  75   2.0000      -0.321517        -8.7489
  76   0.0000       0.018906         0.5145
  77   0.0000       0.024727         0.6729
  78   0.0000       0.025362         0.6901
  79   0.0000       0.029467         0.8018
  80   0.0000       0.033600         0.9143

MULLIKEN ATOMIC CHARGES
-----------------------
   0 C :    0.757184
   1 O :   -0.961489
   2 C :   -0.703110
   3 C :    0.346960
   4 C :   -1.021774
   5 C :    0.581121
   6 C :   -1.130037
   7 C :    0.358988
   8 C :   -0.857289
   9 C :    1.973444
  10 O :   -1.120087
  11 C :   -0.082990
  12 C :   -0.202535
  13 C :    1.511452
  14 O :   -1.017824
  15 C :    1.154900
  16 C :   -0.751145
  17 C :   -0.393531
  18 C :   -0.727308
  19 C :   -0.969650
  20 O :   -1.067902
  21 H :    0.205565
  22 H :    0.208659
  23 H :    0.194624
  24 H :    0.224221
  25 H :    0.224338
  26 H :    0.157312
  27 H :    0.289853
  28 H :    0.168513
  29 H :    0.210645
  30 H :    0.291892
  31 H :    0.354051
  32 H :    0.276223
  33 H :    0.302512
  34 H :    0.112705
  35 H :    0.374305
  36 H :    0.236170
  37 H :    0.090776
  38 H :    0.400259
Sum of atomic charges:    0.0000000

LOEWDIN ATOMIC CHARGES
----------------------
   0 C :   -0.229124
   1 O :    0.907202
   2 C :    0.411127
   3 C :    0.025110
   4 C :    0.920966
   5 C :    0.117754
   6 C :    0.930811
   7 C :    0.100476
   8 C :    0.058432
   9 C :   -0.638128
  10 O :    0.786774
  11 C :   -0.113877
  12 C :   -0.093679
  13 C :   -0.541879
  14 O :    0.933875
  15 C :   -0.421910
  16 C :    0.355521
  17 C :    0.366006
  18 C :    0.344211
  19 C :    0.595149
  20 O :    1.300405
  21 H :   -0.283410
  22 H :   -0.298613
  23 H :   -0.268760
  24 H :   -0.260090
  25 H :   -0.321888
  26 H :   -0.280002
  27 H :   -0.320481
  28 H :   -0.310309
  29 H :   -0.337773
  30 H :   -1.096304
  31 H :   -0.311923
  32 H :   -0.294816
  33 H :   -0.309633
  34 H :   -0.320172
  35 H :   -0.261389
  36 H :   -0.270461
  37 H :   -0.283164
  38 H :   -0.286034

  Mayer bond orders larger than 0.100000
B(  0-C ,  1-O ) :   0.4713 B(  0-C ,  2-C ) :   0.8718 B(  0-C ,  8-C ) :   0.5439
B(  0-C , 10-O ) :   0.1583 B(  0-C , 12-C ) :   0.1175 B(  0-C , 19-C ) :  -0.1456
B(  0-C , 32-H ) :  -0.1015 B(  0-C , 38-H ) :   0.9246 B(  1-O , 11-C ) :   0.1203
B(  1-O , 12-C ) :  -0.1118 B(  1-O , 19-C ) :   0.9974 B(  1-O , 31-H ) :  -0.1334
B(  1-O , 38-H ) :  -0.1455 B(  2-C ,  3-C ) :   0.8772 B(  2-C ,  4-C ) :  -0.1080
B(  2-C ,  5-C ) :  -0.2406 B(  2-C , 34-H ) :   1.2656 B(  2-C , 38-H ) :  -0.1996
B(  3-C ,  4-C ) :   0.5547 B(  3-C ,  5-C ) :   0.1124 B(  3-C ,  7-C ) :   0.3467
B(  3-C , 21-H ) :  -0.2016 B(  3-C , 23-H ) :  -0.1631 B(  3-C , 34-H ) :  -0.1865
B(  3-C , 36-H ) :  -0.1041 B(  4-C ,  5-C ) :  -0.1308 B(  4-C , 21-H ) :   1.1217
B(  4-C , 22-H ) :   1.0998 B(  4-C , 23-H ) :   1.1477 B(  5-C ,  6-C ) :   0.4829
B(  5-C ,  7-C ) :   0.7730 B(  5-C , 25-H ) :  -0.1674 B(  5-C , 26-H ) :  -0.1970
B(  5-C , 35-H ) :  -0.1552 B(  5-C , 36-H ) :   1.0596 B(  6-C , 24-H ) :   1.0830
B(  6-C , 25-H ) :   1.0541 B(  6-C , 26-H ) :   1.2106 B(  7-C ,  8-C ) :   0.8694
B(  7-C ,  9-C ) :  -0.1016 B(  7-C , 11-C ) :  -0.1718 B(  7-C , 12-C ) :  -0.4927
B(  7-C , 13-C ) :   1.0572 B(  7-C , 14-O ) :   0.1624 B(  7-C , 35-H ) :   0.9502
B(  7-C , 37-H ) :  -0.1170 B(  8-C ,  9-C ) :   1.2507 B(  8-C , 10-O ) :   0.8642
B(  8-C , 13-C ) :   0.1400 B(  8-C , 37-H ) :   1.2327 B(  9-C , 10-O ) :  -0.8985
B(  9-C , 11-C ) :   0.8942 B(  9-C , 12-C ) :  -0.4776 B(  9-C , 18-C ) :  -0.2756
B( 10-O , 11-C ) :   0.6509 B( 10-O , 12-C ) :   0.1181 B( 10-O , 29-H ) :   0.1030
B( 11-C , 12-C ) :   0.5797 B( 11-C , 13-C ) :  -0.1419 B( 11-C , 15-C ) :  -0.2893
B( 11-C , 16-C ) :  -0.1317 B( 11-C , 17-C ) :  -0.5927 B( 11-C , 18-C ) :   1.1034
B( 12-C , 13-C ) :   0.2110 B( 12-C , 14-O ) :   0.4660 B( 12-C , 15-C ) :   0.8080
B( 12-C , 16-C ) :  -0.1919 B( 12-C , 17-C ) :   0.1774 B( 12-C , 18-C ) :  -0.3230
B( 12-C , 20-O ) :   0.7168 B( 12-C , 30-H ) :   0.2509 B( 13-C , 15-C ) :  -0.1988
B( 13-C , 16-C ) :   0.1373 B( 13-C , 35-H ) :  -0.1153 B( 14-O , 30-H ) :   0.2571
B( 15-C , 16-C ) :   1.1319 B( 15-C , 17-C ) :  -0.2933 B( 15-C , 20-O ) :  -0.6295
B( 16-C , 17-C ) :   1.3211 B( 16-C , 18-C ) :   0.2881 B( 16-C , 20-O ) :   0.3693
B( 16-C , 27-H ) :   0.9592 B( 16-C , 28-H ) :  -0.1826 B( 17-C , 18-C ) :   1.3535
B( 17-C , 28-H ) :   1.3016 B( 18-C , 28-H ) :  -0.2316 B( 18-C , 29-H ) :   1.0554
B( 19-C , 31-H ) :   0.9629 B( 19-C , 32-H ) :   0.9638 B( 19-C , 33-H ) :   0.9203
B( 20-O , 30-H ) :   0.7747

MP2 TOTAL ENERGY:     -958.022662207 Eh
FINAL SINGLE POINT ENERGY      -958.022662206859

DIPOLE MOMENT
-------------
                                X             Y             Z
Electronic contribution:    -17.61665      -0.99193      -2.94946
Nuclear contribution   :     18.51513       0.85757       2.97317
                        -----------------------------------------
Total Dipole Moment    :      0.89847      -0.13436       0.02372
                        -----------------------------------------
Magnitude (a.u.)       :      0.90878
Magnitude (Debye)      :      2.30992

Rotational constants in cm-1:     0.017184     0.009101     0.007745
Rotational constants in MHz :   515.149199   272.851373   232.175394

                             ****ORCA TERMINATED NORMALLY****
TOTAL RUN TIME: 0 days 10 hours 9 minutes 14 seconds 186 msec
