                         Program Version 4.2.1 -  RELEASE  -
|  1> %pal
|  2>  nprocs 32
|  3> end
|  4> !RI-MP2 aug-cc-pVQZ aug-cc-pVQZ/C TightSCF
|  5> %maxcore 4500
|  6> *xyzfile 0 2  04_25TS.xyz
|  7>
|  8>
|  9>                          ****END OF INPUT****

CARTESIAN COORDINATES (ANGSTROEM)
---------------------------------
  N     -0.461848    1.011770   -0.267501
  H      0.522059    0.949599   -0.034495
  C     -1.165155   -0.193404   -0.681548
  H     -1.845775    0.100144   -1.488238
  C     -0.197727   -1.229519   -1.227240
  C     -2.044007   -0.803540    0.428985
  H     -0.757935   -2.097743   -1.567518
  H      0.344136   -0.820079   -2.080522
  S      1.022884   -1.844711   -0.026759
  O     -1.924639   -1.966815    0.760190
  H      2.151526   -0.922688   -0.445558
  N     -2.954186    0.041197    0.953222
  H     -3.074828    0.974304    0.575066
  H     -3.583079   -0.316583    1.654015
  C     -1.034243    2.226629   -0.254776
  H     -0.325350    3.035149   -0.020333
  O     -2.215917    2.440849   -0.469682
  O      2.896485    0.043737   -0.758317
  O      2.568129    1.066541    0.074630
  C      3.297289    0.955798    1.300109
  H      3.053760    1.857243    1.860034
  H      2.967893    0.067254    1.842033
  H      4.364286    0.907733    1.085872

 Total Charge           Charge          ....    0
 Multiplicity           Mult            ....    2
 Number of Electrons    NEL             ....  103
 Basis Dimension        Dim             .... 1470

ORBITAL ENERGIES
----------------
                 SPIN UP ORBITALS
  NO   OCC          E(Eh)            E(eV)
   0   1.0000     -91.964929     -2502.4929
   1   1.0000     -20.702888      -563.3542
   2   1.0000     -20.674963      -562.5943
   3   1.0000     -20.538515      -558.8814
   4   1.0000     -20.519755      -558.3709
   5   1.0000     -15.602613      -424.5687
   6   1.0000     -15.572664      -423.7537
   7   1.0000     -11.363750      -309.2233
   8   1.0000     -11.350545      -308.8640
   9   1.0000     -11.310264      -307.7679
  10   1.0000     -11.297761      -307.4277
  11   1.0000     -11.274152      -306.7853
  12   1.0000      -8.966875      -244.0011
  13   1.0000      -6.656754      -181.1395
  14   1.0000      -6.645686      -180.8383
  15   1.0000      -6.644682      -180.8110
  16   1.0000      -1.575568       -42.8734
  17   1.0000      -1.402940       -38.1759
  18   1.0000      -1.386533       -37.7295
  19   1.0000      -1.260136       -34.2900
  20   1.0000      -1.256639       -34.1949
  21   1.0000      -1.207562       -32.8594
  22   1.0000      -1.086634       -29.5688
  23   1.0000      -0.987231       -26.8639
  24   1.0000      -0.959825       -26.1182
  25   1.0000      -0.871681       -23.7196
  26   1.0000      -0.848186       -23.0803
  27   1.0000      -0.795985       -21.6598
  28   1.0000      -0.786237       -21.3946
  29   1.0000      -0.745827       -20.2950
  30   1.0000      -0.733589       -19.9620
  31   1.0000      -0.722046       -19.6479
  32   1.0000      -0.716638       -19.5007
  33   1.0000      -0.681174       -18.5357
  34   1.0000      -0.670281       -18.2393
  35   1.0000      -0.646768       -17.5995
  36   1.0000      -0.622616       -16.9422
  37   1.0000      -0.615579       -16.7508
  38   1.0000      -0.585465       -15.9313
  39   1.0000      -0.581232       -15.8161
  40   1.0000      -0.577477       -15.7139
  41   1.0000      -0.561740       -15.2857
  42   1.0000      -0.552183       -15.0257
  43   1.0000      -0.535707       -14.5773
  44   1.0000      -0.519458       -14.1352
  45   1.0000      -0.482635       -13.1332
  46   1.0000      -0.461950       -12.5703
  47   1.0000      -0.448716       -12.2102
  48   1.0000      -0.433132       -11.7861
  49   1.0000      -0.411117       -11.1871
  50   1.0000      -0.402956       -10.9650
  51   1.0000      -0.368178       -10.0186
  52   0.0000       0.018380         0.5001
  53   0.0000       0.029595         0.8053
  54   0.0000       0.030462         0.8289
  55   0.0000       0.033958         0.9240
  56   0.0000       0.041149         1.1197

                 SPIN DOWN ORBITALS
  NO   OCC          E(Eh)            E(eV)
   0   1.0000     -91.959956     -2502.3576
   1   1.0000     -20.672053      -562.5152
   2   1.0000     -20.670309      -562.4677
   3   1.0000     -20.538516      -558.8814
   4   1.0000     -20.519360      -558.3602
   5   1.0000     -15.602563      -424.5673
   6   1.0000     -15.572661      -423.7537
   7   1.0000     -11.363752      -309.2234
   8   1.0000     -11.350597      -308.8655
   9   1.0000     -11.310513      -307.7747
  10   1.0000     -11.297744      -307.4272
  11   1.0000     -11.274508      -306.7950
  12   1.0000      -8.961558      -243.8564
  13   1.0000      -6.643468      -180.7780
  14   1.0000      -6.641866      -180.7343
  15   1.0000      -6.633170      -180.4977
  16   1.0000      -1.528870       -41.6027
  17   1.0000      -1.402890       -38.1746
  18   1.0000      -1.385883       -37.7118
  19   1.0000      -1.259620       -34.2760
  20   1.0000      -1.207392       -32.8548
  21   1.0000      -1.191420       -32.4202
  22   1.0000      -1.078671       -29.3521
  23   1.0000      -0.968378       -26.3509
  24   1.0000      -0.950604       -25.8672
  25   1.0000      -0.852269       -23.1914
  26   1.0000      -0.844703       -22.9855
  27   1.0000      -0.785031       -21.3618
  28   1.0000      -0.747446       -20.3390
  29   1.0000      -0.734574       -19.9888
  30   1.0000      -0.719053       -19.5664
  31   1.0000      -0.706968       -19.2376
  32   1.0000      -0.692090       -18.8327
  33   1.0000      -0.680152       -18.5079
  34   1.0000      -0.667873       -18.1737
  35   1.0000      -0.622622       -16.9424
  36   1.0000      -0.615667       -16.7532
  37   1.0000      -0.587890       -15.9973
  38   1.0000      -0.580037       -15.7836
  39   1.0000      -0.573893       -15.6164
  40   1.0000      -0.560747       -15.2587
  41   1.0000      -0.554140       -15.0789
  42   1.0000      -0.544940       -14.8286
  43   1.0000      -0.512707       -13.9515
  44   1.0000      -0.493708       -13.4345
  45   1.0000      -0.458602       -12.4792
  46   1.0000      -0.447399       -12.1744
  47   1.0000      -0.433708       -11.8018
  48   1.0000      -0.411685       -11.2025
  49   1.0000      -0.401909       -10.9365
  50   1.0000      -0.360752        -9.8166
  51   0.0000       0.003799         0.1034
  52   0.0000       0.018711         0.5091
  53   0.0000       0.029655         0.8070
  54   0.0000       0.031041         0.8447
  55   0.0000       0.034049         0.9265

MULLIKEN ATOMIC CHARGES AND SPIN POPULATIONS
--------------------------------------------
   0 N :   -0.483067    0.002501
   1 H :    0.280849    0.004552
   2 C :    0.166709    0.013312
   3 H :    0.333100   -0.000475
   4 C :   -0.540510   -0.078193
   5 C :    1.075336   -0.003031
   6 H :    0.269003    0.011406
   7 H :    0.230686    0.017023
   8 S :    0.013029    0.567054
   9 O :   -0.889952    0.003487
  10 H :    0.119656   -0.288980
  11 N :   -0.837247   -0.000386
  12 H :    0.388552    0.000031
  13 H :    0.134575   -0.000069
  14 C :    0.345700   -0.000647
  15 H :    0.498068   -0.000244
  16 O :   -0.860283   -0.000014
  17 O :   -0.408726    0.769431
  18 O :   -0.253220   -0.011210
  19 C :   -0.665360   -0.009929
  20 H :    0.367713   -0.002490
  21 H :    0.339466    0.004074
  22 H :    0.375923    0.002795
Sum of atomic charges         :    0.0000000

LOEWDIN ATOMIC CHARGES AND SPIN POPULATIONS
-------------------------------------------
   0 N :    0.819336    0.000371
   1 H :   -0.685814   -0.001634
   2 C :   -0.155226    0.002106
   3 H :   -0.311273    0.000132
   4 C :    0.103059    0.062659
   5 C :   -0.850132    0.002650
   6 H :   -0.379359    0.009539
   7 H :   -0.349779    0.003308
   8 S :    1.553966    0.260142
   9 O :    0.701653    0.009774
  10 H :   -1.339179    0.046418
  11 N :    1.243722   -0.000222
  12 H :   -0.676510   -0.000015
  13 H :   -0.479078   -0.000012
  14 C :   -0.375236   -0.000034
  15 H :   -0.337067   -0.000075
  16 O :    0.751483   -0.000029
  17 O :    0.701837    0.524901
  18 O :    0.488188    0.088258
  19 C :    0.561255   -0.004355
  20 H :   -0.329837   -0.001966
  21 H :   -0.332528   -0.001127
  22 H :   -0.323482   -0.000788

  Mayer bond orders larger than 0.100000
B(  0-N ,  1-H ) :   0.9380 B(  0-N ,  2-C ) :   0.5901 B(  0-N , 14-C ) :   1.2856
B(  2-C ,  3-H ) :   0.8274 B(  2-C ,  4-C ) :   0.8527 B(  2-C ,  5-C ) :   0.9845
B(  2-C ,  8-S ) :  -0.1095 B(  2-C ,  9-O ) :   0.1958 B(  2-C , 11-N ) :  -0.1013
B(  4-C ,  6-H ) :   0.9139 B(  4-C ,  7-H ) :   0.9948 B(  4-C ,  8-S ) :   0.9453
B(  5-C ,  9-O ) :   1.0837 B(  5-C , 11-N ) :   1.1020 B(  8-S , 10-H ) :   0.6150
B(  9-O , 11-N ) :   0.1760 B( 10-H , 17-O ) :   0.2276 B( 11-N , 12-H ) :   0.8087
B( 11-N , 13-H ) :   1.1206 B( 14-C , 15-H ) :   0.7779 B( 14-C , 16-O ) :   1.4218
B( 17-O , 18-O ) :   0.7930 B( 18-O , 19-C ) :   0.7844 B( 19-C , 20-H ) :   0.8668
B( 19-C , 21-H ) :   0.8493 B( 19-C , 22-H ) :   0.8707

MP2 TOTAL ENERGY:    -1004.314190694 Eh
FINAL SINGLE POINT ENERGY     -1004.314190693514

DIPOLE MOMENT
-------------
                                X             Y             Z
Electronic contribution:     -2.48061      -2.75841      -1.07218
Nuclear contribution   :      3.75159       3.78772       1.36649
                        -----------------------------------------
Total Dipole Moment    :      1.27099       1.02932       0.29431
                        -----------------------------------------
Magnitude (a.u.)       :      1.66178
Magnitude (Debye)      :      4.22391

Rotational constants in cm-1:     0.032404     0.018347     0.013667
Rotational constants in MHz :   971.461901   550.029584   409.712496

                             ****ORCA TERMINATED NORMALLY****
TOTAL RUN TIME: 0 days 2 hours 55 minutes 38 seconds 855 msec
