                         Program Version 4.2.1 -  RELEASE  -
|  1> %pal
|  2>  nprocs 32
|  3> end
|  4> !RI-MP2 aug-cc-pVQZ aug-cc-pVQZ/C TightSCF
|  5> %maxcore 4500
|  6> *xyzfile 0 1  04_30P2.xyz
|  7>
|  8>
|  9>                          ****END OF INPUT****

CARTESIAN COORDINATES (ANGSTROEM)
---------------------------------
  C      0.694387    1.202719    0.000000
  C     -0.694387    1.202713    0.000000
  C      1.388772    0.000004    0.000000
  C     -1.388773   -0.000003    0.000000
  C      0.694387   -1.202713    0.000000
  C     -0.694387   -1.202718    0.000000
  H      2.472265   -0.000006    0.000000
  H      1.236142   -2.141041    0.000000
  H     -1.236145    2.141039    0.000000
  H     -2.472265    0.000002    0.000000
  H     -1.236133   -2.141051    0.000000
  H      1.236133    2.141052    0.000000

 Total Charge           Charge          ....    0
 Multiplicity           Mult            ....    1
 Number of Electrons    NEL             ....   42
 Basis Dimension        Dim             ....  756

ORBITAL ENERGIES
----------------

  NO   OCC          E(Eh)            E(eV)
   0   2.0000     -11.233846      -305.6885
   1   2.0000     -11.233254      -305.6724
   2   2.0000     -11.233254      -305.6724
   3   2.0000     -11.231978      -305.6377
   4   2.0000     -11.231978      -305.6376
   5   2.0000     -11.231353      -305.6206
   6   2.0000      -1.153084       -31.3770
   7   2.0000      -1.015876       -27.6434
   8   2.0000      -1.015875       -27.6434
   9   2.0000      -0.824310       -22.4306
  10   2.0000      -0.824309       -22.4306
  11   2.0000      -0.710521       -19.3342
  12   2.0000      -0.641858       -17.4659
  13   2.0000      -0.621261       -16.9054
  14   2.0000      -0.588115       -16.0034
  15   2.0000      -0.588113       -16.0034
  16   2.0000      -0.504732       -13.7345
  17   2.0000      -0.494493       -13.4558
  18   2.0000      -0.494493       -13.4558
  19   2.0000      -0.337872        -9.1940
  20   2.0000      -0.337871        -9.1939
  21   0.0000       0.026471         0.7203
  22   0.0000       0.030432         0.8281
  23   0.0000       0.030432         0.8281
  24   0.0000       0.042502         1.1565
  25   0.0000       0.042502         1.1565

MULLIKEN ATOMIC CHARGES
-----------------------
   0 C :   -0.321323
   1 C :   -0.321326
   2 C :   -0.321262
   3 C :   -0.321281
   4 C :   -0.321336
   5 C :   -0.321345
   6 H :    0.321318
   7 H :    0.321296
   8 H :    0.321308
   9 H :    0.321308
  10 H :    0.321319
  11 H :    0.321324
Sum of atomic charges:    0.0000000

LOEWDIN ATOMIC CHARGES
----------------------
   0 C :    0.324000
   1 C :    0.323998
   2 C :    0.323997
   3 C :    0.323998
   4 C :    0.323998
   5 C :    0.324000
   6 H :   -0.323999
   7 H :   -0.323998
   8 H :   -0.323999
   9 H :   -0.324000
  10 H :   -0.323998
  11 H :   -0.323998

  Mayer bond orders larger than 0.100000
B(  0-C ,  1-C ) :   1.2139 B(  0-C ,  2-C ) :   1.2139 B(  0-C ,  5-C ) :   0.1080
B(  0-C , 11-H ) :   1.0080 B(  1-C ,  3-C ) :   1.2139 B(  1-C ,  4-C ) :   0.1080
B(  1-C ,  8-H ) :   1.0080 B(  2-C ,  3-C ) :   0.1080 B(  2-C ,  4-C ) :   1.2139
B(  2-C ,  6-H ) :   1.0080 B(  3-C ,  5-C ) :   1.2139 B(  3-C ,  9-H ) :   1.0080
B(  4-C ,  5-C ) :   1.2140 B(  4-C ,  7-H ) :   1.0080 B(  5-C , 10-H ) :   1.0080

MP2 TOTAL ENERGY:     -231.809773979 Eh
FINAL SINGLE POINT ENERGY      -231.809773978848

DIPOLE MOMENT
-------------
                                X             Y             Z
Electronic contribution:      0.00000       0.00001       0.00000
Nuclear contribution   :     -0.00000      -0.00001       0.00000
                        -----------------------------------------
Total Dipole Moment    :     -0.00000      -0.00000       0.00000
                        -----------------------------------------
Magnitude (a.u.)       :      0.00000
Magnitude (Debye)      :      0.00000

Rotational constants in cm-1:     0.191609     0.191608     0.095804
Rotational constants in MHz :  5744.289511  5744.258822  2872.137083

                             ****ORCA TERMINATED NORMALLY****
TOTAL RUN TIME: 0 days 0 hours 9 minutes 2 seconds 549 msec
