                         Program Version 4.2.1 -  RELEASE  -
|  1> %pal
|  2>  nprocs 32
|  3> end
|  4> !RI-MP2 aug-cc-pVQZ aug-cc-pVQZ/C TightSCF
|  5> %maxcore 4500
|  6> *xyzfile 1 1  05_35P1.xyz
|  7>
|  8>
|  9>                          ****END OF INPUT****

CARTESIAN COORDINATES (ANGSTROEM)
---------------------------------
  C     -3.578187    0.259961   -0.000087
  O     -4.622383   -0.496826   -0.000176
  C     -5.944653    0.083893    0.000246
  H     -5.881962    1.172152   -0.002284
  H     -6.451179   -0.271408    0.894234
  C     -2.311344   -0.268736   -0.000063
  H     -2.202844   -1.345082   -0.000042
  C     -1.225053    0.593073   -0.000066
  H     -1.448395    1.657891   -0.000085
  H     -6.453230   -0.275373   -0.890966
  C      0.138873    0.258628   -0.000040
  C      1.093318    1.300430   -0.000029
  C      0.612292   -1.080699   -0.000022
  C      2.440956    1.045121    0.000002
  H      0.750061    2.328653   -0.000044
  C      1.946944   -1.347964    0.000006
  H     -0.087955   -1.905637   -0.000032
  C      2.882087   -0.288829    0.000019
  H      3.146116    1.862862    0.000011
  H      2.327227   -2.360683    0.000018
  O      4.149445   -0.653237    0.000047
  C      5.187017    0.332670    0.000055
  H      5.127068    0.950183    0.897577
  H      6.116805   -0.227340    0.000072
  H      5.127093    0.950170   -0.897478
  H     -3.738809    1.338823   -0.000078

 Total Charge           Charge          ....    1
 Multiplicity           Mult            ....    1
 Number of Electrons    NEL             ....   94
 Basis Dimension        Dim             .... 1638

ORBITAL ENERGIES
----------------

  NO   OCC          E(Eh)            E(eV)
   0   2.0000     -20.770430      -565.1921
   1   2.0000     -20.722787      -563.8957
   2   2.0000     -11.507607      -313.1379
   3   2.0000     -11.463419      -311.9355
   4   2.0000     -11.448595      -311.5321
   5   2.0000     -11.429260      -311.0060
   6   2.0000     -11.400846      -310.2328
   7   2.0000     -11.396988      -310.1278
   8   2.0000     -11.392092      -309.9946
   9   2.0000     -11.381501      -309.7064
  10   2.0000     -11.380009      -309.6658
  11   2.0000     -11.363949      -309.2288
  12   2.0000     -11.361071      -309.1505
  13   2.0000      -1.608973       -43.7824
  14   2.0000      -1.560071       -42.4517
  15   2.0000      -1.313674       -35.7469
  16   2.0000      -1.259954       -34.2851
  17   2.0000      -1.187535       -32.3145
  18   2.0000      -1.172248       -31.8985
  19   2.0000      -1.126061       -30.6417
  20   2.0000      -1.086513       -29.5655
  21   2.0000      -1.027154       -27.9503
  22   2.0000      -0.985949       -26.8290
  23   2.0000      -0.971403       -26.4332
  24   2.0000      -0.929858       -25.3027
  25   2.0000      -0.873937       -23.7810
  26   2.0000      -0.855442       -23.2778
  27   2.0000      -0.850459       -23.1422
  28   2.0000      -0.813436       -22.1347
  29   2.0000      -0.803539       -21.8654
  30   2.0000      -0.798230       -21.7210
  31   2.0000      -0.783266       -21.3137
  32   2.0000      -0.761370       -20.7179
  33   2.0000      -0.738636       -20.0993
  34   2.0000      -0.735251       -20.0072
  35   2.0000      -0.708648       -19.2833
  36   2.0000      -0.700357       -19.0577
  37   2.0000      -0.682153       -18.5623
  38   2.0000      -0.681445       -18.5431
  39   2.0000      -0.670654       -18.2494
  40   2.0000      -0.665776       -18.1167
  41   2.0000      -0.650985       -17.7142
  42   2.0000      -0.624267       -16.9872
  43   2.0000      -0.613383       -16.6910
  44   2.0000      -0.551269       -15.0008
  45   2.0000      -0.491300       -13.3690
  46   2.0000      -0.442114       -12.0305
  47   0.0000      -0.121853        -3.3158
  48   0.0000      -0.070205        -1.9104
  49   0.0000      -0.055522        -1.5108
  50   0.0000      -0.054070        -1.4713
  51   0.0000      -0.045029        -1.2253

MULLIKEN ATOMIC CHARGES
-----------------------
   0 C :    0.609719
   1 O :   -0.699715
   2 C :   -0.586920
   3 H :    0.299347
   4 H :    0.344369
   5 C :   -0.800549
   6 H :    0.409244
   7 C :   -0.103511
   8 H :    0.228196
   9 H :    0.344178
  10 C :    0.530452
  11 C :   -0.301146
  12 C :   -0.274689
  13 C :   -0.445182
  14 H :    0.141788
  15 C :   -0.407302
  16 H :    0.123817
  17 C :    1.184268
  18 H :    0.203688
  19 H :    0.234888
  20 O :   -0.760991
  21 C :   -0.711262
  22 H :    0.271805
  23 H :    0.514938
  24 H :    0.271808
  25 H :    0.378762
Sum of atomic charges:    1.0000000

LOEWDIN ATOMIC CHARGES
----------------------
   0 C :    0.034785
   1 O :    0.920378
   2 C :    0.701293
   3 H :   -0.315407
   4 H :   -0.289680
   5 C :    0.402496
   6 H :   -0.343616
   7 C :    0.387330
   8 H :   -0.319591
   9 H :   -0.289755
  10 C :   -0.054754
  11 C :    0.373534
  12 C :    0.369331
  13 C :    0.387340
  14 H :   -0.295318
  15 C :    0.381729
  16 H :   -0.315584
  17 C :   -0.434953
  18 H :   -0.344099
  19 H :   -0.311077
  20 O :    0.912272
  21 C :    0.643171
  22 H :   -0.293812
  23 H :   -0.301465
  24 H :   -0.293812
  25 H :   -0.310735

  Mayer bond orders larger than 0.100000
B(  0-C ,  1-O ) :   0.9104 B(  0-C ,  2-C ) :  -0.1243 B(  0-C ,  5-C ) :   1.5331
B(  0-C ,  7-C ) :  -0.5955 B(  0-C , 25-H ) :   0.9065 B(  1-O ,  2-C ) :   0.7921
B(  2-C ,  3-H ) :   0.8888 B(  2-C ,  4-H ) :   0.8904 B(  2-C ,  9-H ) :   0.8909
B(  5-C ,  6-H ) :   0.8412 B(  5-C ,  7-C ) :   1.0114 B(  5-C , 10-C ) :  -0.4580
B(  5-C , 12-C ) :  -0.1850 B(  5-C , 25-H ) :  -0.1113 B(  7-C ,  8-H ) :   1.0481
B(  7-C , 10-C ) :   0.6689 B(  7-C , 11-C ) :  -0.5547 B(  7-C , 12-C ) :  -0.4261
B(  8-H , 10-C ) :  -0.2499 B( 10-C , 11-C ) :   1.1077 B( 10-C , 12-C ) :   1.1432
B( 10-C , 13-C ) :  -0.5094 B( 10-C , 15-C ) :  -0.1869 B( 10-C , 16-H ) :  -0.1138
B( 11-C , 13-C ) :   0.8795 B( 11-C , 14-H ) :   1.1677 B( 11-C , 15-C ) :   0.1623
B( 11-C , 17-C ) :  -0.1118 B( 11-C , 18-H ) :  -0.1645 B( 12-C , 13-C ) :   0.1019
B( 12-C , 15-C ) :   1.2551 B( 12-C , 16-H ) :   1.2028 B( 12-C , 17-C ) :  -0.3241
B( 13-C , 14-H ) :  -0.2169 B( 13-C , 17-C ) :   1.3243 B( 13-C , 18-H ) :   1.1587
B( 13-C , 20-O ) :   0.1945 B( 13-C , 21-C ) :   0.1525 B( 15-C , 16-H ) :  -0.1682
B( 15-C , 17-C ) :   1.0830 B( 15-C , 19-H ) :   1.0278 B( 15-C , 20-O ) :   0.2762
B( 17-C , 18-H ) :  -0.1022 B( 17-C , 21-C ) :  -0.1720 B( 20-O , 21-C ) :   0.8887
B( 21-C , 22-H ) :   0.9072 B( 21-C , 23-H ) :   0.7396 B( 21-C , 24-H ) :   0.9072

MP2 TOTAL ENERGY:     -576.197649516 Eh
FINAL SINGLE POINT ENERGY      -576.197649515620

DIPOLE MOMENT
-------------
                                X             Y             Z
Electronic contribution:      1.62631      -2.58157      -0.00073
Nuclear contribution   :     -3.70223       3.88307       0.00091
                        -----------------------------------------
Total Dipole Moment    :     -2.07592       1.30149       0.00017
                        -----------------------------------------
Magnitude (a.u.)       :      2.45017
Magnitude (Debye)      :      6.22783

Rotational constants in cm-1:     0.140041     0.008079     0.007661
Rotational constants in MHz :  4198.312536   242.198955   229.660965

                             ****ORCA TERMINATED NORMALLY****
TOTAL RUN TIME: 0 days 1 hours 53 minutes 1 seconds 787 msec
