                         Program Version 4.2.1 -  RELEASE  -
|  1> %pal
|  2>  nprocs 32
|  3> end
|  4> !RI-MP2 aug-cc-pVQZ aug-cc-pVQZ/C TightSCF
|  5> %maxcore 4500
|  6> *xyzfile 0 2  04_12P1.xyz
|  7>
|  8>
|  9>                          ****END OF INPUT****

CARTESIAN COORDINATES (ANGSTROEM)
---------------------------------
  N     -0.641872   -1.093621   -0.298929
  H      0.013284   -1.512445   -0.946766
  C     -0.107384   -0.113245    0.630670
  H     -0.743867   -0.131447    1.518681
  C      1.321067   -0.458200    1.022266
  C     -0.158801    1.300075    0.021932
  H      1.702474    0.285839    1.719720
  H      1.333813   -1.430677    1.524681
  S      2.444592   -0.605012   -0.378702
  O      0.853669    1.869001   -0.338325
  N     -1.397656    1.822720   -0.066387
  H     -1.509064    2.712287   -0.526635
  H     -2.208402    1.257120    0.155853
  C     -1.962301   -1.323785   -0.428765
  H     -2.197881   -2.110129   -1.161544
  O     -2.826497   -0.734392    0.195304

 Total Charge           Charge          ....    0
 Multiplicity           Mult            ....    2
 Number of Electrons    NEL             ....   77
 Basis Dimension        Dim             .... 1046

ORBITAL ENERGIES
----------------
                 SPIN UP ORBITALS
  NO   OCC          E(Eh)            E(eV)
   0   1.0000     -91.974587     -2502.7558
   1   1.0000     -20.546778      -559.1063
   2   1.0000     -20.530667      -558.6679
   3   1.0000     -15.613103      -424.8541
   4   1.0000     -15.583607      -424.0515
   5   1.0000     -11.372370      -309.4579
   6   1.0000     -11.359040      -309.0952
   7   1.0000     -11.304978      -307.6241
   8   1.0000     -11.279664      -306.9353
   9   1.0000      -8.976514      -244.2634
  10   1.0000      -6.672589      -181.5704
  11   1.0000      -6.653847      -181.0604
  12   1.0000      -6.652423      -181.0216
  13   1.0000      -1.411718       -38.4148
  14   1.0000      -1.397034       -38.0152
  15   1.0000      -1.268869       -34.5277
  16   1.0000      -1.218598       -33.1597
  17   1.0000      -1.094798       -29.7910
  18   1.0000      -0.988472       -26.8977
  19   1.0000      -0.867145       -23.5962
  20   1.0000      -0.855946       -23.2915
  21   1.0000      -0.795258       -21.6401
  22   1.0000      -0.757558       -20.6142
  23   1.0000      -0.738328       -20.0909
  24   1.0000      -0.692248       -18.8370
  25   1.0000      -0.675888       -18.3918
  26   1.0000      -0.635382       -17.2896
  27   1.0000      -0.622777       -16.9466
  28   1.0000      -0.593092       -16.1388
  29   1.0000      -0.586045       -15.9471
  30   1.0000      -0.570418       -15.5219
  31   1.0000      -0.563635       -15.3373
  32   1.0000      -0.494497       -13.4559
  33   1.0000      -0.473691       -12.8898
  34   1.0000      -0.458014       -12.4632
  35   1.0000      -0.438975       -11.9451
  36   1.0000      -0.419084       -11.4039
  37   1.0000      -0.401613       -10.9284
  38   1.0000      -0.378283       -10.2936
  39   0.0000       0.020689         0.5630
  40   0.0000       0.027966         0.7610
  41   0.0000       0.029949         0.8149
  42   0.0000       0.039914         1.0861
  43   0.0000       0.045617         1.2413

                 SPIN DOWN ORBITALS
  NO   OCC          E(Eh)            E(eV)
   0   1.0000     -91.965173     -2502.4996
   1   1.0000     -20.546765      -559.1059
   2   1.0000     -20.529101      -558.6252
   3   1.0000     -15.613160      -424.8557
   4   1.0000     -15.583596      -424.0512
   5   1.0000     -11.372369      -309.4579
   6   1.0000     -11.359244      -309.1007
   7   1.0000     -11.304646      -307.6151
   8   1.0000     -11.280745      -306.9647
   9   1.0000      -8.966097      -243.9799
  10   1.0000      -6.648584      -180.9172
  11   1.0000      -6.646896      -180.8712
  12   1.0000      -6.630525      -180.4258
  13   1.0000      -1.411527       -38.4096
  14   1.0000      -1.394601       -37.9490
  15   1.0000      -1.268577       -34.5197
  16   1.0000      -1.217974       -33.1428
  17   1.0000      -1.082504       -29.4564
  18   1.0000      -0.958362       -26.0784
  19   1.0000      -0.858726       -23.3671
  20   1.0000      -0.822297       -22.3758
  21   1.0000      -0.786752       -21.4086
  22   1.0000      -0.755154       -20.5488
  23   1.0000      -0.735249       -20.0071
  24   1.0000      -0.690177       -18.7807
  25   1.0000      -0.672495       -18.2995
  26   1.0000      -0.629805       -17.1379
  27   1.0000      -0.621751       -16.9187
  28   1.0000      -0.587584       -15.9890
  29   1.0000      -0.583984       -15.8910
  30   1.0000      -0.561630       -15.2827
  31   1.0000      -0.560674       -15.2567
  32   1.0000      -0.481811       -13.1107
  33   1.0000      -0.464190       -12.6312
  34   1.0000      -0.455029       -12.3820
  35   1.0000      -0.421803       -11.4778
  36   1.0000      -0.409078       -11.1316
  37   1.0000      -0.359595        -9.7851
  38   0.0000       0.019555         0.5321
  39   0.0000       0.024119         0.6563
  40   0.0000       0.028035         0.7629
  41   0.0000       0.032690         0.8895
  42   0.0000       0.041403         1.1266

MULLIKEN ATOMIC CHARGES AND SPIN POPULATIONS
--------------------------------------------
   0 N :   -0.502830   -0.003425
   1 H :    0.234813    0.000057
   2 C :    0.113508    0.027733
   3 H :    0.309112   -0.006456
   4 C :   -0.403772   -0.171734
   5 C :    1.043318   -0.018201
   6 H :    0.257943    0.005079
   7 H :    0.229348    0.044569
   8 S :   -0.169444    1.116047
   9 O :   -0.870719    0.006280
  10 N :   -0.796270    0.000354
  11 H :    0.173452    0.000810
  12 H :    0.375304   -0.000084
  13 C :    0.310094   -0.001077
  14 H :    0.520367   -0.000180
  15 O :   -0.824223    0.000226
Sum of atomic charges         :   -0.0000000

LOEWDIN ATOMIC CHARGES AND SPIN POPULATIONS
-------------------------------------------
   0 N :    0.796307   -0.000282
   1 H :   -0.569328    0.000706
   2 C :   -0.201852    0.009213
   3 H :   -0.319304    0.000578
   4 C :   -0.051635    0.172595
   5 C :   -0.859885    0.008854
   6 H :   -0.383008    0.006571
   7 H :   -0.377184    0.030282
   8 S :    1.118146    0.738113
   9 O :    0.697375    0.034256
  10 N :    1.249792   -0.000949
  11 H :   -0.476182   -0.000050
  12 H :   -0.635193   -0.000056
  13 C :   -0.385046   -0.000077
  14 H :   -0.341006   -0.000005
  15 O :    0.738003    0.000250

  Mayer bond orders larger than 0.100000
B(  0-N ,  1-H ) :   0.9900 B(  0-N ,  2-C ) :   0.6911 B(  0-N , 13-C ) :   1.2139
B(  0-N , 15-O ) :   0.1030 B(  2-C ,  3-H ) :   0.8437 B(  2-C ,  4-C ) :   0.8751
B(  2-C ,  5-C ) :   0.9113 B(  2-C ,  9-O ) :   0.1185 B(  4-C ,  6-H ) :   0.9615
B(  4-C ,  7-H ) :   0.9717 B(  4-C ,  8-S ) :   0.9008 B(  5-C ,  9-O ) :   1.2000
B(  5-C , 10-N ) :   1.1229 B(  9-O , 10-N ) :   0.1470 B( 10-N , 11-H ) :   1.0824
B( 10-N , 12-H ) :   0.8179 B( 13-C , 14-H ) :   0.7379 B( 13-C , 15-O ) :   1.5508

MP2 TOTAL ENERGY:     -813.726766257 Eh
FINAL SINGLE POINT ENERGY      -813.726766256648

DIPOLE MOMENT
-------------
                                X             Y             Z
Electronic contribution:      3.21041      -0.00374      -2.14950
Nuclear contribution   :     -3.66329      -0.87316       2.25142
                        -----------------------------------------
Total Dipole Moment    :     -0.45288      -0.87689       0.10191
                        -----------------------------------------
Magnitude (a.u.)       :      0.99218
Magnitude (Debye)      :      2.52193

Rotational constants in cm-1:     0.070404     0.034598     0.025905
Rotational constants in MHz :  2110.647336  1037.235188   776.608756

                             ****ORCA TERMINATED NORMALLY****
TOTAL RUN TIME: 0 days 1 hours 2 minutes 54 seconds 717 msec
