                         Program Version 4.2.1 -  RELEASE  -
|  1> %pal
|  2>  nprocs 32
|  3> end
|  4> !RI-MP2 aug-cc-pVQZ aug-cc-pVQZ/C TightSCF
|  5> %maxcore 4500
|  6> *xyzfile 0 1  04_67P2.xyz
|  7>
|  8>
|  9>                          ****END OF INPUT****

CARTESIAN COORDINATES (ANGSTROEM)
---------------------------------
  C      1.172451    1.433806    0.000059
  C      1.212094    0.043054    0.000019
  C      0.001340   -0.648880   -0.000019
  C     -1.228675    0.009179   -0.000020
  C     -1.223708    1.397577    0.000020
  C     -0.034418    2.113567    0.000060
  H      2.106021    1.985226    0.000089
  H     -2.171784    1.923639    0.000020
  H     -0.049822    3.196228    0.000091
  O     -0.043015   -2.016931   -0.000056
  H      0.846910   -2.378088   -0.000059
  C     -2.500034   -0.788429   -0.000062
  H     -3.368840   -0.129857   -0.000087
  H     -2.556173   -1.438444   -0.876173
  H     -2.556228   -1.438449    0.876042
  C      2.516186   -0.706979    0.000021
  H      2.622413   -1.343487   -0.885239
  H      3.357788   -0.015217    0.000013
  H      2.622416   -1.343477    0.885287

 Total Charge           Charge          ....    0
 Multiplicity           Mult            ....    1
 Number of Electrons    NEL             ....   66
 Basis Dimension        Dim             .... 1180

ORBITAL ENERGIES
----------------

  NO   OCC          E(Eh)            E(eV)
   0   2.0000     -20.583409      -560.1030
   1   2.0000     -11.288311      -307.1706
   2   2.0000     -11.235367      -305.7299
   3   2.0000     -11.234684      -305.7113
   4   2.0000     -11.229304      -305.5649
   5   2.0000     -11.227612      -305.5188
   6   2.0000     -11.225091      -305.4503
   7   2.0000     -11.219550      -305.2995
   8   2.0000     -11.213745      -305.1415
   9   2.0000      -1.402307       -38.1587
  10   2.0000      -1.151637       -31.3376
  11   2.0000      -1.063201       -28.9312
  12   2.0000      -1.020172       -27.7603
  13   2.0000      -0.944602       -25.7039
  14   2.0000      -0.925905       -25.1952
  15   2.0000      -0.820155       -22.3176
  16   2.0000      -0.797322       -21.6962
  17   2.0000      -0.727253       -19.7896
  18   2.0000      -0.674275       -18.3479
  19   2.0000      -0.637893       -17.3580
  20   2.0000      -0.611402       -16.6371
  21   2.0000      -0.592327       -16.1180
  22   2.0000      -0.573400       -15.6030
  23   2.0000      -0.572888       -15.5891
  24   2.0000      -0.564285       -15.3550
  25   2.0000      -0.556902       -15.1541
  26   2.0000      -0.544947       -14.8288
  27   2.0000      -0.528848       -14.3907
  28   2.0000      -0.494727       -13.4622
  29   2.0000      -0.479800       -13.0560
  30   2.0000      -0.470877       -12.8132
  31   2.0000      -0.325028        -8.8445
  32   2.0000      -0.305793        -8.3211
  33   0.0000       0.023424         0.6374
  34   0.0000       0.028613         0.7786
  35   0.0000       0.029769         0.8101
  36   0.0000       0.038948         1.0598
  37   0.0000       0.040417         1.0998

MULLIKEN ATOMIC CHARGES
-----------------------
   0 C :   -0.651151
   1 C :    0.370416
   2 C :    0.837971
   3 C :    0.392348
   4 C :   -0.569642
   5 C :   -0.276238
   6 H :    0.192442
   7 H :    0.238627
   8 H :    0.192717
   9 O :   -0.835298
  10 H :    0.344522
  11 C :   -0.828675
  12 H :    0.265837
  13 H :    0.226084
  14 H :    0.226085
  15 C :   -0.698938
  16 H :    0.180331
  17 H :    0.212200
  18 H :    0.180362
Sum of atomic charges:    0.0000000

LOEWDIN ATOMIC CHARGES
----------------------
   0 C :    0.334728
   1 C :   -0.071535
   2 C :   -0.420372
   3 C :   -0.094855
   4 C :    0.336245
   5 C :    0.347694
   6 H :   -0.321458
   7 H :   -0.320613
   8 H :   -0.325229
   9 O :    1.307649
  10 H :   -0.848389
  11 C :    0.894782
  12 H :   -0.307233
  13 H :   -0.284897
  14 H :   -0.284894
  15 C :    0.904763
  16 H :   -0.272229
  17 H :   -0.301933
  18 H :   -0.272225

  Mayer bond orders larger than 0.100000
B(  0-C ,  1-C ) :   0.8616 B(  0-C ,  2-C ) :   0.1190 B(  0-C ,  3-C ) :  -0.1109
B(  0-C ,  4-C ) :   0.3123 B(  0-C ,  5-C ) :   1.2475 B(  0-C ,  6-H ) :   1.0916
B(  0-C ,  8-H ) :  -0.2089 B(  0-C , 15-C ) :  -0.1351 B(  1-C ,  2-C ) :   1.1142
B(  1-C ,  3-C ) :  -0.2079 B(  1-C ,  5-C ) :  -0.4081 B(  1-C ,  9-O ) :   0.3750
B(  1-C , 10-H ) :   0.1047 B(  1-C , 15-C ) :   0.6514 B(  1-C , 16-H ) :  -0.1115
B(  1-C , 17-H ) :  -0.1339 B(  1-C , 18-H ) :  -0.1115 B(  2-C ,  3-C ) :   1.0695
B(  2-C ,  5-C ) :   0.2029 B(  2-C ,  9-O ) :  -0.3659 B(  2-C , 10-H ) :  -0.1580
B(  2-C , 15-C ) :  -0.1086 B(  3-C ,  4-C ) :   0.8501 B(  3-C ,  5-C ) :  -0.3986
B(  3-C ,  9-O ) :   0.3537 B(  3-C , 11-C ) :   0.6872 B(  4-C ,  5-C ) :   1.2223
B(  4-C ,  7-H ) :   1.0398 B(  4-C ,  8-H ) :  -0.1973 B(  4-C , 11-C ) :  -0.1342
B(  5-C ,  8-H ) :   1.2391 B(  9-O , 10-H ) :   0.9370 B( 11-C , 12-H ) :   1.0366
B( 11-C , 13-H ) :   1.0142 B( 11-C , 14-H ) :   1.0142 B( 15-C , 16-H ) :   1.0432
B( 15-C , 17-H ) :   1.0643 B( 15-C , 18-H ) :   1.0431

MP2 TOTAL ENERGY:     -385.446615563 Eh
FINAL SINGLE POINT ENERGY      -385.446615563477

DIPOLE MOMENT
-------------
                                X             Y             Z
Electronic contribution:     -0.29541       0.94791       0.00002
Nuclear contribution   :      0.86448      -1.02854      -0.00002
                        -----------------------------------------
Total Dipole Moment    :      0.56907      -0.08063       0.00000
                        -----------------------------------------
Magnitude (a.u.)       :      0.57475
Magnitude (Debye)      :      1.46090

Rotational constants in cm-1:     0.076606     0.059278     0.033838
Rotational constants in MHz :  2296.604478  1777.117000  1014.447333

                             ****ORCA TERMINATED NORMALLY****
TOTAL RUN TIME: 0 days 0 hours 45 minutes 29 seconds 923 msec
