                         Program Version 4.2.1 -  RELEASE  -
|  1> %pal
|  2>  nprocs 32
|  3> end
|  4> !RI-MP2 aug-cc-pVQZ aug-cc-pVQZ/C TightSCF
|  5> %maxcore 4500
|  6> *xyzfile 0 1  10_11R1.xyz
|  7>
|  8>
|  9>                          ****END OF INPUT****

CARTESIAN COORDINATES (ANGSTROEM)
---------------------------------
  C      0.600016   -1.151146    0.209992
  C     -0.600016   -1.151146    0.209992
  C      1.876398   -0.436612    0.047299
  C     -1.876398   -0.436612    0.047299
  C      1.447911    0.844237   -0.725539
  H      2.264746    1.570334   -0.718432
  H      1.241533    0.586130   -1.765942
  C     -1.447911    0.844237   -0.725539
  H     -2.264746    1.570334   -0.718432
  S      0.000000    1.770465   -0.085694
  C     -2.897858   -1.207793   -0.791594
  H     -3.213233   -2.113727   -0.270956
  H     -3.783319   -0.593115   -0.972546
  H     -2.475675   -1.499243   -1.754904
  C     -2.468910   -0.075001    1.412371
  H     -3.389650    0.499848    1.282018
  H     -2.704459   -0.977080    1.979124
  H     -1.763555    0.521033    1.992018
  C      2.897858   -1.207794   -0.791594
  H      3.783318   -0.593116   -0.972546
  H      3.213233   -2.113727   -0.270956
  H      2.475675   -1.499243   -1.754904
  C      2.468911   -0.075001    1.412371
  H      2.704459   -0.977080    1.979124
  H      3.389650    0.499847    1.282017
  H      1.763556    0.521033    1.992018
  H     -1.241533    0.586130   -1.765942

 Total Charge           Charge          ....    0
 Multiplicity           Mult            ....    1
 Number of Electrons    NEL             ....   92
 Basis Dimension        Dim             .... 1620

ORBITAL ENERGIES
----------------

  NO   OCC          E(Eh)            E(eV)
   0   2.0000     -91.940562     -2501.8299
   1   2.0000     -11.266142      -306.5673
   2   2.0000     -11.266141      -306.5673
   3   2.0000     -11.259855      -306.3962
   4   2.0000     -11.259846      -306.3960
   5   2.0000     -11.222171      -305.3708
   6   2.0000     -11.222171      -305.3708
   7   2.0000     -11.216562      -305.2182
   8   2.0000     -11.216562      -305.2182
   9   2.0000     -11.211169      -305.0714
  10   2.0000     -11.207217      -304.9639
  11   2.0000      -8.942091      -243.3267
  12   2.0000      -6.623613      -180.2377
  13   2.0000      -6.622739      -180.2139
  14   2.0000      -6.621993      -180.1936
  15   2.0000      -1.148150       -31.2428
  16   2.0000      -1.113163       -30.2907
  17   2.0000      -1.023718       -27.8568
  18   2.0000      -0.997444       -27.1418
  19   2.0000      -0.941662       -25.6239
  20   2.0000      -0.940718       -25.5982
  21   2.0000      -0.939472       -25.5643
  22   2.0000      -0.834747       -22.7146
  23   2.0000      -0.830691       -22.6043
  24   2.0000      -0.761245       -20.7145
  25   2.0000      -0.656108       -17.8536
  26   2.0000      -0.652594       -17.7580
  27   2.0000      -0.623685       -16.9713
  28   2.0000      -0.614897       -16.7322
  29   2.0000      -0.605671       -16.4811
  30   2.0000      -0.595842       -16.2137
  31   2.0000      -0.572721       -15.5845
  32   2.0000      -0.551119       -14.9967
  33   2.0000      -0.546403       -14.8684
  34   2.0000      -0.536560       -14.6005
  35   2.0000      -0.527167       -14.3449
  36   2.0000      -0.517709       -14.0876
  37   2.0000      -0.503591       -13.7034
  38   2.0000      -0.503250       -13.6941
  39   2.0000      -0.498914       -13.5761
  40   2.0000      -0.483882       -13.1671
  41   2.0000      -0.469290       -12.7700
  42   2.0000      -0.415059       -11.2943
  43   2.0000      -0.374059       -10.1787
  44   2.0000      -0.359778        -9.7901
  45   2.0000      -0.332302        -9.0424
  46   0.0000       0.024901         0.6776
  47   0.0000       0.025844         0.7032
  48   0.0000       0.031535         0.8581
  49   0.0000       0.034068         0.9270
  50   0.0000       0.039071         1.0632

MULLIKEN ATOMIC CHARGES
-----------------------
   0 C :   -0.326712
   1 C :   -0.327010
   2 C :    1.494581
   3 C :    1.494900
   4 C :   -0.864086
   5 H :    0.232148
   6 H :    0.254778
   7 C :   -0.864298
   8 H :    0.232095
   9 S :   -0.220521
  10 C :   -1.116905
  11 H :    0.254813
  12 H :    0.205062
  13 H :    0.272894
  14 C :   -1.091169
  15 H :    0.224872
  16 H :    0.274622
  17 H :    0.295429
  18 C :   -1.116798
  19 H :    0.205084
  20 H :    0.254841
  21 H :    0.272897
  22 C :   -1.091193
  23 H :    0.274606
  24 H :    0.224893
  25 H :    0.295424
  26 H :    0.254753
Sum of atomic charges:   -0.0000000

LOEWDIN ATOMIC CHARGES
----------------------
   0 C :    0.134065
   1 C :    0.134065
   2 C :   -0.437159
   3 C :   -0.437160
   4 C :    0.165730
   5 H :   -0.356586
   6 H :   -0.351311
   7 C :    0.165729
   8 H :   -0.356586
   9 S :    1.411476
  10 C :    0.899903
  11 H :   -0.269311
  12 H :   -0.269638
  13 H :   -0.273343
  14 C :    0.883871
  15 H :   -0.271309
  16 H :   -0.267825
  17 H :   -0.292822
  18 C :    0.899904
  19 H :   -0.269639
  20 H :   -0.269312
  21 H :   -0.273344
  22 C :    0.883872
  23 H :   -0.267826
  24 H :   -0.271310
  25 H :   -0.292822
  26 H :   -0.351311

  Mayer bond orders larger than 0.100000
B(  0-C ,  1-C ) :   2.8962 B(  0-C ,  2-C ) :   0.5803 B(  0-C ,  3-C ) :  -0.2907
B(  1-C ,  2-C ) :  -0.2909 B(  1-C ,  3-C ) :   0.5803 B(  2-C ,  3-C ) :   0.1271
B(  2-C ,  4-C ) :   0.4219 B(  2-C , 18-C ) :   0.2350 B(  2-C , 19-H ) :  -0.1284
B(  2-C , 20-H ) :  -0.1715 B(  2-C , 21-H ) :  -0.1467 B(  2-C , 22-C ) :   0.3815
B(  2-C , 25-H ) :  -0.1310 B(  3-C ,  7-C ) :   0.4218 B(  3-C , 10-C ) :   0.2349
B(  3-C , 11-H ) :  -0.1716 B(  3-C , 12-H ) :  -0.1285 B(  3-C , 13-H ) :  -0.1467
B(  3-C , 14-C ) :   0.3814 B(  3-C , 17-H ) :  -0.1310 B(  4-C ,  5-H ) :   1.0197
B(  4-C ,  6-H ) :   0.9460 B(  4-C ,  9-S ) :   0.9301 B(  4-C , 18-C ) :   0.1603
B(  7-C ,  8-H ) :   1.0197 B(  7-C ,  9-S ) :   0.9305 B(  7-C , 10-C ) :   0.1604
B(  7-C , 26-H ) :   0.9461 B( 10-C , 11-H ) :   1.0585 B( 10-C , 12-H ) :   1.0737
B( 10-C , 13-H ) :   1.0291 B( 10-C , 14-C ) :   0.1663 B( 14-C , 15-H ) :   1.0380
B( 14-C , 16-H ) :   1.0219 B( 14-C , 17-H ) :   1.0269 B( 18-C , 19-H ) :   1.0736
B( 18-C , 20-H ) :   1.0585 B( 18-C , 21-H ) :   1.0290 B( 18-C , 22-C ) :   0.1663
B( 22-C , 23-H ) :   1.0219 B( 22-C , 24-H ) :   1.0380 B( 22-C , 25-H ) :   1.0269

MP2 TOTAL ENERGY:     -787.626957884 Eh
FINAL SINGLE POINT ENERGY      -787.626957884088

DIPOLE MOMENT
-------------
                                X             Y             Z
Electronic contribution:      0.00000       4.08375       0.07605
Nuclear contribution   :     -0.00000      -4.17463      -0.46876
                        -----------------------------------------
Total Dipole Moment    :      0.00000      -0.09088      -0.39272
                        -----------------------------------------
Magnitude (a.u.)       :      0.40310
Magnitude (Debye)      :      1.02459

Rotational constants in cm-1:     0.052068     0.023314     0.020472
Rotational constants in MHz :  1560.971874   698.921325   613.724977

                             ****ORCA TERMINATED NORMALLY****
TOTAL RUN TIME: 0 days 1 hours 49 minutes 24 seconds 72 msec
