                         Program Version 4.2.1 -  RELEASE  -
|  1> %pal
|  2>  nprocs 32
|  3> end
|  4> !RI-MP2 aug-cc-pVQZ aug-cc-pVQZ/C TightSCF
|  5> %maxcore 4500
|  6> *xyzfile 0 1  04_81P2.xyz
|  7>
|  8>
|  9>                          ****END OF INPUT****

CARTESIAN COORDINATES (ANGSTROEM)
---------------------------------
  C     -1.133138    0.013007   -0.018881
  C     -0.357699   -1.129821   -0.115854
  C      1.018759   -0.994846   -0.173343
  C      1.610039    0.265497   -0.129201
  C      0.802460    1.394978   -0.025922
  C     -0.576278    1.278945    0.026324
  H     -0.835879   -2.098372   -0.148377
  H      1.648502   -1.871802   -0.250081
  H      1.255369    2.378815    0.019264
  H     -1.218787    2.143789    0.108932
  C      3.109996    0.409334   -0.227678
  O      3.820244   -0.678457    0.329290
  H      3.419018    1.359494    0.222108
  H      3.404157    0.439786   -1.279297
  N     -2.598233   -0.122375    0.044345
  O     -3.063475   -1.244689    0.005284
  O     -3.255841    0.896564    0.131291
  H      3.663003   -0.704992    1.277449

 Total Charge           Charge          ....    0
 Multiplicity           Mult            ....    1
 Number of Electrons    NEL             ....   80
 Basis Dimension        Dim             .... 1202

ORBITAL ENERGIES
----------------

  NO   OCC          E(Eh)            E(eV)
   0   2.0000     -20.598740      -560.5202
   1   2.0000     -20.598523      -560.5143
   2   2.0000     -20.580280      -560.0179
   3   2.0000     -15.852014      -431.3552
   4   2.0000     -11.306925      -307.6771
   5   2.0000     -11.306187      -307.6570
   6   2.0000     -11.275793      -306.8299
   7   2.0000     -11.274459      -306.7936
   8   2.0000     -11.273245      -306.7606
   9   2.0000     -11.263085      -306.4841
  10   2.0000     -11.258838      -306.3686
  11   2.0000      -1.613033       -43.8929
  12   2.0000      -1.404266       -38.2120
  13   2.0000      -1.387938       -37.7677
  14   2.0000      -1.204933       -32.7879
  15   2.0000      -1.106341       -30.1051
  16   2.0000      -1.054967       -28.7071
  17   2.0000      -0.998081       -27.1592
  18   2.0000      -0.913151       -24.8481
  19   2.0000      -0.870773       -23.6949
  20   2.0000      -0.820587       -22.3293
  21   2.0000      -0.784150       -21.3378
  22   2.0000      -0.734576       -19.9888
  23   2.0000      -0.724837       -19.7238
  24   2.0000      -0.724349       -19.7105
  25   2.0000      -0.691004       -18.8032
  26   2.0000      -0.656253       -17.8575
  27   2.0000      -0.650537       -17.7020
  28   2.0000      -0.631725       -17.1901
  29   2.0000      -0.625247       -17.0138
  30   2.0000      -0.586696       -15.9648
  31   2.0000      -0.544456       -14.8154
  32   2.0000      -0.531688       -14.4680
  33   2.0000      -0.515629       -14.0310
  34   2.0000      -0.495297       -13.4777
  35   2.0000      -0.494644       -13.4600
  36   2.0000      -0.479081       -13.0365
  37   2.0000      -0.456828       -12.4309
  38   2.0000      -0.372742       -10.1428
  39   2.0000      -0.371147       -10.0994
  40   0.0000       0.018008         0.4900
  41   0.0000       0.025874         0.7041
  42   0.0000       0.029761         0.8098
  43   0.0000       0.031187         0.8486
  44   0.0000       0.038978         1.0607

MULLIKEN ATOMIC CHARGES
-----------------------
   0 C :   -0.183623
   1 C :   -0.242267
   2 C :   -0.250696
   3 C :    0.362601
   4 C :   -0.295635
   5 C :   -0.202978
   6 H :    0.310136
   7 H :    0.250091
   8 H :    0.212684
   9 H :    0.333612
  10 C :    0.083584
  11 O :   -0.889701
  12 H :    0.207402
  13 H :    0.370617
  14 N :    0.794880
  15 O :   -0.614880
  16 O :   -0.618379
  17 H :    0.372550
Sum of atomic charges:   -0.0000000

LOEWDIN ATOMIC CHARGES
----------------------
   0 C :   -0.301676
   1 C :    0.333411
   2 C :    0.361590
   3 C :   -0.069612
   4 C :    0.364821
   5 C :    0.330022
   6 H :   -0.345060
   7 H :   -0.323560
   8 H :   -0.312027
   9 H :   -0.345483
  10 C :    0.172716
  11 O :    1.276742
  12 H :   -0.310041
  13 H :   -0.305672
  14 N :   -0.845981
  15 O :    0.547735
  16 O :    0.546930
  17 H :   -0.774857

  Mayer bond orders larger than 0.100000
B(  0-C ,  1-C ) :   1.2236 B(  0-C ,  2-C ) :  -0.2197 B(  0-C ,  4-C ) :  -0.1889
B(  0-C ,  5-C ) :   1.2106 B(  0-C ,  9-H ) :  -0.1140 B(  0-C , 14-N ) :   0.8115
B(  0-C , 15-O ) :   0.2737 B(  0-C , 16-O ) :   0.2847 B(  1-C ,  2-C ) :   1.2525
B(  1-C ,  3-C ) :  -0.1473 B(  1-C ,  4-C ) :   0.1264 B(  1-C ,  6-H ) :   0.9265
B(  1-C ,  7-H ) :  -0.1201 B(  1-C , 14-N ) :  -0.1116 B(  2-C ,  3-C ) :   1.0260
B(  2-C ,  4-C ) :  -0.1198 B(  2-C ,  5-C ) :   0.1296 B(  2-C ,  6-H ) :  -0.1134
B(  2-C ,  7-H ) :   1.0422 B(  3-C ,  4-C ) :   0.9017 B(  3-C ,  5-C ) :  -0.2902
B(  3-C , 10-C ) :   0.9134 B(  3-C , 12-H ) :  -0.1083 B(  4-C ,  5-C ) :   1.3313
B(  4-C ,  8-H ) :   1.1054 B(  4-C ,  9-H ) :  -0.1007 B(  4-C , 10-C ) :  -0.1124
B(  5-C ,  8-H ) :  -0.1414 B(  5-C ,  9-H ) :   0.9146 B(  5-C , 14-N ) :  -0.1148
B( 10-C , 11-O ) :   0.6462 B( 10-C , 12-H ) :   1.0682 B( 10-C , 13-H ) :   0.8027
B( 11-O , 17-H ) :   0.8375 B( 14-N , 15-O ) :   1.1842 B( 14-N , 16-O ) :   1.1771

MP2 TOTAL ENERGY:     -550.485053241 Eh
FINAL SINGLE POINT ENERGY      -550.485053240851

DIPOLE MOMENT
-------------
                                X             Y             Z
Electronic contribution:     -9.31895      -1.03685       0.27017
Nuclear contribution   :     11.06776       1.59905      -0.04160
                        -----------------------------------------
Total Dipole Moment    :      1.74881       0.56220       0.22858
                        -----------------------------------------
Magnitude (a.u.)       :      1.85112
Magnitude (Debye)      :      4.70518

Rotational constants in cm-1:     0.115459     0.019031     0.016558
Rotational constants in MHz :  3461.367767   570.530175   496.384525

                             ****ORCA TERMINATED NORMALLY****
TOTAL RUN TIME: 0 days 0 hours 50 minutes 45 seconds 605 msec
