                         Program Version 4.2.1 -  RELEASE  -
|  1> %pal
|  2>  nprocs 32
|  3> end
|  4> !RI-MP2 aug-cc-pVQZ aug-cc-pVQZ/C TightSCF
|  5> %maxcore 4500
|  6> *xyzfile 0 1  08_6R1.xyz
|  7>
|  8>
|  9>                          ****END OF INPUT****

CARTESIAN COORDINATES (ANGSTROEM)
---------------------------------
  C     -0.012913    2.029409   -0.049013
  C     -1.103083   -1.383953   -0.823681
  C     -0.398887   -1.132387    0.525562
  C      0.802437   -0.180938    0.426800
  O      0.628310    0.875964   -0.518909
  H     -0.004235   -2.091485    0.873953
  O     -1.337561   -0.740123    1.506732
  O     -2.160221   -0.460371   -1.069198
  C      2.056163   -0.915144   -0.024402
  H      0.983391    0.255010    1.416874
  O      3.148772   -0.038692   -0.163418
  H      1.855503   -1.440724   -0.968036
  H      2.334424   -1.657892    0.724170
  O     -1.350730    1.791719    0.290325
  H      2.849839    0.690546   -0.717612
  H     -2.876582   -0.682382   -0.465382
  H     -0.405714   -1.278779   -1.653433
  H     -1.506716    0.208486    1.385051
  H     -1.506090   -2.399709   -0.837155
  H     -1.757786    1.304238   -0.449427
  H      0.472412    2.407983    0.855839
  H      0.070692    2.754811   -0.860704

 Total Charge           Charge          ....    0
 Multiplicity           Mult            ....    1
 Number of Electrons    NEL             ....   82
 Basis Dimension        Dim             .... 1352

ORBITAL ENERGIES
----------------

  NO   OCC          E(Eh)            E(eV)
   0   2.0000     -20.578306      -559.9642
   1   2.0000     -20.578164      -559.9603
   2   2.0000     -20.570357      -559.7479
   3   2.0000     -20.556764      -559.3780
   4   2.0000     -20.554532      -559.3173
   5   2.0000     -11.341643      -308.6218
   6   2.0000     -11.293246      -307.3048
   7   2.0000     -11.291457      -307.2562
   8   2.0000     -11.289054      -307.1908
   9   2.0000     -11.283159      -307.0304
  10   2.0000      -1.435992       -39.0753
  11   2.0000      -1.389842       -37.8195
  12   2.0000      -1.371794       -37.3284
  13   2.0000      -1.358718       -36.9726
  14   2.0000      -1.348673       -36.6993
  15   2.0000      -1.065761       -29.0008
  16   2.0000      -0.980313       -26.6757
  17   2.0000      -0.920348       -25.0439
  18   2.0000      -0.876223       -23.8432
  19   2.0000      -0.821114       -22.3437
  20   2.0000      -0.740354       -20.1461
  21   2.0000      -0.722098       -19.6493
  22   2.0000      -0.716717       -19.5029
  23   2.0000      -0.704569       -19.1723
  24   2.0000      -0.672185       -18.2911
  25   2.0000      -0.667471       -18.1628
  26   2.0000      -0.646620       -17.5954
  27   2.0000      -0.630204       -17.1487
  28   2.0000      -0.620564       -16.8864
  29   2.0000      -0.597986       -16.2720
  30   2.0000      -0.578829       -15.7507
  31   2.0000      -0.557642       -15.1742
  32   2.0000      -0.548703       -14.9310
  33   2.0000      -0.523756       -14.2521
  34   2.0000      -0.514889       -14.0109
  35   2.0000      -0.507285       -13.8039
  36   2.0000      -0.487534       -13.2665
  37   2.0000      -0.480607       -13.0780
  38   2.0000      -0.457449       -12.4478
  39   2.0000      -0.449192       -12.2231
  40   2.0000      -0.424670       -11.5559
  41   0.0000       0.024308         0.6615
  42   0.0000       0.028761         0.7826
  43   0.0000       0.032901         0.8953
  44   0.0000       0.033886         0.9221
  45   0.0000       0.044807         1.2192

MULLIKEN ATOMIC CHARGES
-----------------------
   0 C :   -0.003111
   1 C :   -0.226255
   2 C :    0.597007
   3 C :    0.363787
   4 O :   -0.938010
   5 H :    0.402699
   6 O :   -1.204505
   7 O :   -0.919292
   8 C :    0.068043
   9 H :    0.369829
  10 O :   -0.977783
  11 H :    0.164743
  12 H :    0.315162
  13 O :   -0.997670
  14 H :    0.331106
  15 H :    0.391371
  16 H :    0.261869
  17 H :    0.406019
  18 H :    0.350314
  19 H :    0.508128
  20 H :    0.321291
  21 H :    0.415259
Sum of atomic charges:   -0.0000000

LOEWDIN ATOMIC CHARGES
----------------------
   0 C :   -0.119745
   1 C :    0.235236
   2 C :   -0.205895
   3 C :   -0.238915
   4 O :    0.911962
   5 H :   -0.328755
   6 O :    1.311172
   7 O :    1.323944
   8 C :    0.158234
   9 H :   -0.308183
  10 O :    1.293330
  11 H :   -0.291709
  12 H :   -0.302543
  13 O :    1.321161
  14 H :   -0.842590
  15 H :   -0.758708
  16 H :   -0.322612
  17 H :   -0.967507
  18 H :   -0.284881
  19 H :   -0.931586
  20 H :   -0.326428
  21 H :   -0.324982

  Mayer bond orders larger than 0.100000
B(  0-C ,  4-O ) :   0.9883 B(  0-C , 13-O ) :   0.7894 B(  0-C , 20-H ) :   0.8686
B(  0-C , 21-H ) :   0.8197 B(  1-C ,  2-C ) :   0.9211 B(  1-C ,  6-O ) :   0.1608
B(  1-C ,  7-O ) :   0.6059 B(  1-C , 16-H ) :   0.9302 B(  1-C , 18-H ) :   0.8946
B(  2-C ,  3-C ) :   0.8087 B(  2-C ,  5-H ) :   0.7977 B(  2-C ,  6-O ) :   0.1496
B(  3-C ,  4-O ) :   0.3159 B(  3-C ,  6-O ) :   0.1033 B(  3-C ,  8-C ) :   0.6852
B(  3-C ,  9-H ) :   0.8395 B(  3-C , 11-H ) :  -0.1316 B(  6-O , 17-H ) :   0.7543
B(  7-O , 15-H ) :   0.7870 B(  8-C , 10-O ) :   0.5210 B(  8-C , 11-H ) :   1.0655
B(  8-C , 12-H ) :   0.9172 B( 10-O , 14-H ) :   0.8548 B( 13-O , 19-H ) :   0.6997

MP2 TOTAL ENERGY:     -573.102983925 Eh
FINAL SINGLE POINT ENERGY      -573.102983925122

DIPOLE MOMENT
-------------
                                X             Y             Z
Electronic contribution:     -0.81333       1.74786       0.30846
Nuclear contribution   :      0.49825      -1.93065      -0.70362
                        -----------------------------------------
Total Dipole Moment    :     -0.31508      -0.18279      -0.39516
                        -----------------------------------------
Magnitude (a.u.)       :      0.53744
Magnitude (Debye)      :      1.36606

Rotational constants in cm-1:     0.057422     0.034163     0.027448
Rotational constants in MHz :  1721.466829  1024.187150   822.876769

                             ****ORCA TERMINATED NORMALLY****
TOTAL RUN TIME: 0 days 0 hours 57 minutes 30 seconds 441 msec
