                         Program Version 4.2.1 -  RELEASE  -
|  1> %pal
|  2>  nprocs 32
|  3> end
|  4> !RI-MP2 aug-cc-pVQZ aug-cc-pVQZ/C TightSCF
|  5> %maxcore 4500
|  6> *xyzfile 0 1  06_18R1.xyz
|  7>
|  8>
|  9>                          ****END OF INPUT****

CARTESIAN COORDINATES (ANGSTROEM)
---------------------------------
  C     -2.737445    1.214736    0.227099
  C     -1.566251    0.493464    0.037768
  C     -1.607197   -0.889454   -0.153689
  C     -2.808277   -1.565177   -0.140679
  C     -3.991606   -0.852070    0.057331
  C     -3.946652    0.522596    0.237943
  H     -2.724240    2.288337    0.363080
  H     -2.836019   -2.639092   -0.289665
  H     -4.942712   -1.369477    0.063225
  H     -4.868104    1.074130    0.383364
  C     -0.196327   -1.390324   -0.308317
  C      0.594459   -0.090045   -0.587987
  H      0.615802    0.063529   -1.682097
  N     -0.250476    0.966023    0.014567
  H     -0.075991   -2.120399   -1.109111
  C     -0.027275    2.317671   -0.445304
  H     -0.312634    2.448050   -1.501344
  H     -0.602095    3.020759    0.157242
  H      1.023712    2.578258   -0.339843
  Si     2.371169   -0.175179    0.088190
  C      2.298753   -0.263458    1.958171
  H      1.758804    0.597111    2.359209
  H      1.785418   -1.163347    2.304083
  H      3.302548   -0.267597    2.390637
  C      3.413207    1.300373   -0.436157
  H      4.469983    1.094082   -0.245610
  H      3.308252    1.512375   -1.503232
  H      3.157417    2.207667    0.114697
  C      3.145661   -1.730644   -0.627508
  H      3.162316   -1.699703   -1.720302
  H      4.178072   -1.843326   -0.286849
  H      2.599807   -2.628395   -0.328547
  H      0.130338   -1.868617    0.622411

 Total Charge           Charge          ....    0
 Multiplicity           Mult            ....    1
 Number of Electrons    NEL             ....  112
 Basis Dimension        Dim             .... 1998

ORBITAL ENERGIES
----------------

  NO   OCC          E(Eh)            E(eV)
   0   2.0000     -68.745937     -1870.6721
   1   2.0000     -15.559155      -423.3861
   2   2.0000     -11.257107      -306.3215
   3   2.0000     -11.249122      -306.1042
   4   2.0000     -11.239258      -305.8358
   5   2.0000     -11.229768      -305.5775
   6   2.0000     -11.226525      -305.4893
   7   2.0000     -11.225738      -305.4679
   8   2.0000     -11.219205      -305.2901
   9   2.0000     -11.218333      -305.2664
  10   2.0000     -11.214528      -305.1628
  11   2.0000     -11.198689      -304.7318
  12   2.0000     -11.196884      -304.6827
  13   2.0000     -11.192751      -304.5702
  14   2.0000      -6.095610      -165.8700
  15   2.0000      -4.202029      -114.3430
  16   2.0000      -4.201916      -114.3400
  17   2.0000      -4.201898      -114.3395
  18   2.0000      -1.262659       -34.3587
  19   2.0000      -1.132867       -30.8269
  20   2.0000      -1.059428       -28.8285
  21   2.0000      -1.002422       -27.2773
  22   2.0000      -0.983049       -26.7501
  23   2.0000      -0.957293       -26.0493
  24   2.0000      -0.925161       -25.1749
  25   2.0000      -0.923214       -25.1219
  26   2.0000      -0.917575       -24.9685
  27   2.0000      -0.835209       -22.7272
  28   2.0000      -0.796889       -21.6844
  29   2.0000      -0.780185       -21.2299
  30   2.0000      -0.687677       -18.7126
  31   2.0000      -0.663342       -18.0504
  32   2.0000      -0.652163       -17.7463
  33   2.0000      -0.635044       -17.2804
  34   2.0000      -0.606214       -16.4959
  35   2.0000      -0.599346       -16.3090
  36   2.0000      -0.588718       -16.0198
  37   2.0000      -0.574366       -15.6293
  38   2.0000      -0.567611       -15.4455
  39   2.0000      -0.562700       -15.3119
  40   2.0000      -0.553326       -15.0568
  41   2.0000      -0.552057       -15.0222
  42   2.0000      -0.540847       -14.7172
  43   2.0000      -0.539289       -14.6748
  44   2.0000      -0.532404       -14.4874
  45   2.0000      -0.520205       -14.1555
  46   2.0000      -0.514314       -13.9952
  47   2.0000      -0.493490       -13.4285
  48   2.0000      -0.488732       -13.2991
  49   2.0000      -0.474423       -12.9097
  50   2.0000      -0.440806       -11.9949
  51   2.0000      -0.430040       -11.7020
  52   2.0000      -0.428726       -11.6662
  53   2.0000      -0.386348       -10.5131
  54   2.0000      -0.328275        -8.9328
  55   2.0000      -0.279056        -7.5935
  56   0.0000       0.019731         0.5369
  57   0.0000       0.026601         0.7239
  58   0.0000       0.026800         0.7293
  59   0.0000       0.030979         0.8430
  60   0.0000       0.036764         1.0004

MULLIKEN ATOMIC CHARGES
-----------------------
   0 C :   -1.094115
   1 C :    1.270656
   2 C :    0.198762
   3 C :   -0.534679
   4 C :   -0.537044
   5 C :   -0.267868
   6 H :    0.145052
   7 H :    0.247807
   8 H :    0.250406
   9 H :    0.203086
  10 C :   -0.505527
  11 C :    0.005313
  12 H :    0.231815
  13 N :   -0.485018
  14 H :    0.240161
  15 C :   -1.192054
  16 H :    0.319787
  17 H :    0.314875
  18 H :    0.449068
  19 Si:    1.566431
  20 C :   -1.237831
  21 H :    0.272547
  22 H :    0.245031
  23 H :    0.362497
  24 C :   -1.101928
  25 H :    0.290957
  26 H :    0.254583
  27 H :    0.257242
  28 C :   -1.189580
  29 H :    0.245115
  30 H :    0.326379
  31 H :    0.239282
  32 H :    0.208796
Sum of atomic charges:   -0.0000000

LOEWDIN ATOMIC CHARGES
----------------------
   0 C :    0.374371
   1 C :   -0.260983
   2 C :   -0.064679
   3 C :    0.369372
   4 C :    0.335391
   5 C :    0.334566
   6 H :   -0.330844
   7 H :   -0.309342
   8 H :   -0.331361
   9 H :   -0.323190
  10 C :    0.476980
  11 C :    0.046833
  12 H :   -0.300880
  13 N :    0.459756
  14 H :   -0.255226
  15 C :    0.760611
  16 H :   -0.248027
  17 H :   -0.297467
  18 H :   -0.334496
  19 Si:    0.184636
  20 C :    1.007138
  21 H :   -0.330127
  22 H :   -0.335332
  23 H :   -0.330934
  24 C :    1.000027
  25 H :   -0.333745
  26 H :   -0.326456
  27 H :   -0.347547
  28 C :    0.997412
  29 H :   -0.328674
  30 H :   -0.333677
  31 H :   -0.339267
  32 H :   -0.284841

  Mayer bond orders larger than 0.100000
B(  0-C ,  1-C ) :   0.3494 B(  0-C ,  3-C ) :   0.1023 B(  0-C ,  4-C ) :   0.2652
B(  0-C ,  5-C ) :   1.3283 B(  0-C ,  6-H ) :   1.1349 B(  0-C ,  9-H ) :  -0.2119
B(  0-C , 13-N ) :  -0.1239 B(  1-C ,  2-C ) :   0.9746 B(  1-C ,  3-C ) :  -0.3405
B(  1-C ,  5-C ) :  -0.6079 B(  1-C , 10-C ) :  -0.1594 B(  1-C , 11-C ) :  -0.1279
B(  1-C , 13-N ) :   1.1092 B(  2-C ,  3-C ) :   1.0704 B(  2-C ,  4-C ) :  -0.2658
B(  2-C ,  7-H ) :  -0.1028 B(  2-C , 10-C ) :   0.8684 B(  2-C , 11-C ) :  -0.3425
B(  2-C , 12-H ) :  -0.1022 B(  3-C ,  4-C ) :   1.2646 B(  3-C ,  5-C ) :   0.1153
B(  3-C ,  7-H ) :   1.0516 B(  3-C ,  8-H ) :  -0.1650 B(  3-C , 10-C ) :  -0.1870
B(  4-C ,  5-C ) :   1.2066 B(  4-C ,  8-H ) :   1.1475 B(  4-C ,  9-H ) :  -0.1108
B(  5-C ,  9-H ) :   1.2250 B( 10-C , 11-C ) :   0.8371 B( 10-C , 14-H ) :   1.0546
B( 10-C , 32-H ) :   0.9303 B( 11-C , 12-H ) :   1.0806 B( 11-C , 13-N ) :   0.7270
B( 11-C , 19-Si) :   0.3417 B( 13-N , 15-C ) :   1.0534 B( 13-N , 19-Si) :  -0.1048
B( 15-C , 16-H ) :   0.9542 B( 15-C , 17-H ) :   1.0072 B( 15-C , 18-H ) :   0.8172
B( 19-Si, 20-C ) :   0.6708 B( 19-Si, 24-C ) :   0.9597 B( 19-Si, 28-C ) :   0.6862
B( 20-C , 21-H ) :   0.9743 B( 20-C , 22-H ) :   0.9849 B( 20-C , 23-H ) :   0.9055
B( 24-C , 25-H ) :   0.9979 B( 24-C , 26-H ) :   0.9576 B( 24-C , 27-H ) :   0.9526
B( 28-C , 29-H ) :   0.9795 B( 28-C , 30-H ) :   0.9603 B( 28-C , 31-H ) :   0.9955

MP2 TOTAL ENERGY:     -811.603376320 Eh
FINAL SINGLE POINT ENERGY      -811.603376319703

DIPOLE MOMENT
-------------
                                X             Y             Z
Electronic contribution:    -12.75337      -1.24449       0.03029
Nuclear contribution   :     13.29931       1.33211      -0.26006
                        -----------------------------------------
Total Dipole Moment    :      0.54594       0.08762      -0.22977
                        -----------------------------------------
Magnitude (a.u.)       :      0.59877
Magnitude (Debye)      :      1.52196

Rotational constants in cm-1:     0.043040     0.012395     0.010758
Rotational constants in MHz :  1290.300935   371.591222   322.512479

                             ****ORCA TERMINATED NORMALLY****
TOTAL RUN TIME: 0 days 4 hours 7 minutes 44 seconds 793 msec
