                         Program Version 4.2.1 -  RELEASE  -
|  1> %pal
|  2>  nprocs 32
|  3> end
|  4> !RI-MP2 aug-cc-pVQZ aug-cc-pVQZ/C TightSCF
|  5> %maxcore 4500
|  6> *xyzfile 0 1  02_18R.xyz
|  7>
|  8>
|  9>                          ****END OF INPUT****

CARTESIAN COORDINATES (ANGSTROEM)
---------------------------------
  C      2.683206   -0.471587   -0.207115
  C      1.452023   -1.320729   -0.280933
  C     -1.396555    1.699775   -0.139172
  C      2.354714    0.938480   -0.717364
  H      3.039935   -0.397024    0.828609
  C      1.117528    1.572835   -0.058302
  H      3.229508    1.567497   -0.545609
  H      2.216088    0.885905   -1.800126
  C     -0.144176    1.421783   -0.908965
  H      0.949617    1.104135    0.920987
  C      0.632596   -1.639929    0.727819
  C     -0.750299   -1.962053    0.370734
  C     -2.543144    1.017985   -0.153120
  C     -1.796273   -1.795153    1.176305
  C      0.965724   -1.469917    2.183409
  H      0.463623   -0.596109    2.609403
  H      0.628185   -2.341344    2.749092
  H      2.034820   -1.357204    2.349920
  H     -0.058411    2.144272   -1.728173
  H     -0.178429    0.439410   -1.369963
  C     -3.210709   -1.731460    0.680254
  H     -3.810143   -1.099765    1.336476
  H     -3.685517   -2.714029    0.659784
  C     -2.725931   -0.126377   -1.105077
  O      3.733979   -0.957313   -1.022025
  O      1.287930    2.968569    0.153584
  O     -2.434788   -0.049332   -2.266676
  O     -3.305798   -1.281271   -0.676899
  C      4.283341   -2.171876   -0.564466
  H      5.073917   -2.448133   -1.260200
  H      4.713639   -2.058124    0.439268
  H      3.532905   -2.969920   -0.536158
  C      2.083050    3.288703    1.268078
  H      1.646320    2.889283    2.193166
  H      3.106066    2.905271    1.172495
  H      2.124368    4.375029    1.334113
  C     -3.729058    1.446462    0.677556
  H     -4.667201    1.307431    0.136185
  H     -3.639681    2.504115    0.925977
  H     -3.808453    0.897552    1.618559
  H      1.109038   -1.502029   -1.297265
  H     -0.930246   -2.147817   -0.684078
  H     -1.655406   -1.582396    2.230636
  H     -1.341355    2.567117    0.515200

 Total Charge           Charge          ....    0
 Multiplicity           Mult            ....    1
 Number of Electrons    NEL             ....  152
 Basis Dimension        Dim             .... 2704

ORBITAL ENERGIES
----------------

  NO   OCC          E(Eh)            E(eV)
   0   2.0000     -20.588975      -560.2545
   1   2.0000     -20.556673      -559.3755
   2   2.0000     -20.555689      -559.3487
   3   2.0000     -20.532195      -558.7094
   4   2.0000     -11.373492      -309.4885
   5   2.0000     -11.301581      -307.5317
   6   2.0000     -11.289282      -307.1970
   7   2.0000     -11.283638      -307.0434
   8   2.0000     -11.273740      -306.7741
   9   2.0000     -11.269843      -306.6680
  10   2.0000     -11.250662      -306.1461
  11   2.0000     -11.245387      -306.0025
  12   2.0000     -11.242490      -305.9237
  13   2.0000     -11.241789      -305.9046
  14   2.0000     -11.239529      -305.8431
  15   2.0000     -11.234818      -305.7149
  16   2.0000     -11.234168      -305.6972
  17   2.0000     -11.231868      -305.6347
  18   2.0000     -11.222400      -305.3770
  19   2.0000     -11.221329      -305.3479
  20   2.0000      -1.448724       -39.4218
  21   2.0000      -1.381892       -37.6032
  22   2.0000      -1.379367       -37.5345
  23   2.0000      -1.354794       -36.8658
  24   2.0000      -1.137283       -30.9471
  25   2.0000      -1.111854       -30.2551
  26   2.0000      -1.081712       -29.4349
  27   2.0000      -1.052645       -28.6439
  28   2.0000      -1.017368       -27.6840
  29   2.0000      -0.964785       -26.2531
  30   2.0000      -0.960715       -26.1424
  31   2.0000      -0.947028       -25.7699
  32   2.0000      -0.922698       -25.1079
  33   2.0000      -0.903525       -24.5862
  34   2.0000      -0.858834       -23.3701
  35   2.0000      -0.850251       -23.1365
  36   2.0000      -0.802757       -21.8441
  37   2.0000      -0.782000       -21.2793
  38   2.0000      -0.750644       -20.4261
  39   2.0000      -0.718863       -19.5612
  40   2.0000      -0.702216       -19.1083
  41   2.0000      -0.683079       -18.5875
  42   2.0000      -0.673925       -18.3384
  43   2.0000      -0.668234       -18.1836
  44   2.0000      -0.659586       -17.9483
  45   2.0000      -0.658683       -17.9237
  46   2.0000      -0.649783       -17.6815
  47   2.0000      -0.632645       -17.2152
  48   2.0000      -0.627963       -17.0877
  49   2.0000      -0.617242       -16.7960
  50   2.0000      -0.608284       -16.5522
  51   2.0000      -0.602142       -16.3851
  52   2.0000      -0.598527       -16.2867
  53   2.0000      -0.588129       -16.0038
  54   2.0000      -0.581113       -15.8129
  55   2.0000      -0.569339       -15.4925
  56   2.0000      -0.559104       -15.2140
  57   2.0000      -0.552554       -15.0358
  58   2.0000      -0.548948       -14.9376
  59   2.0000      -0.537662       -14.6305
  60   2.0000      -0.533552       -14.5187
  61   2.0000      -0.525649       -14.3036
  62   2.0000      -0.521981       -14.2038
  63   2.0000      -0.508700       -13.8424
  64   2.0000      -0.496820       -13.5192
  65   2.0000      -0.496337       -13.5060
  66   2.0000      -0.489487       -13.3196
  67   2.0000      -0.479408       -13.0454
  68   2.0000      -0.464706       -12.6453
  69   2.0000      -0.454569       -12.3695
  70   2.0000      -0.440816       -11.9952
  71   2.0000      -0.429999       -11.7009
  72   2.0000      -0.424550       -11.5526
  73   2.0000      -0.416659       -11.3379
  74   2.0000      -0.361122        -9.8266
  75   2.0000      -0.318334        -8.6623
  76   0.0000       0.014925         0.4061
  77   0.0000       0.022774         0.6197
  78   0.0000       0.024468         0.6658
  79   0.0000       0.029983         0.8159
  80   0.0000       0.033594         0.9141

MULLIKEN ATOMIC CHARGES
-----------------------
   0 C :    1.906239
   1 C :   -0.397708
   2 C :   -0.311110
   3 C :   -1.066260
   4 H :    0.109987
   5 C :    1.809909
   6 H :    0.281188
   7 H :    0.237829
   8 C :   -0.706034
   9 H :   -0.066257
  10 C :    0.873255
  11 C :   -0.283853
  12 C :   -0.287955
  13 C :   -0.611222
  14 C :   -0.951283
  15 H :    0.136523
  16 H :    0.168732
  17 H :    0.306040
  18 H :    0.348761
  19 H :    0.047071
  20 C :   -0.185657
  21 H :    0.361291
  22 H :    0.412825
  23 C :    2.400331
  24 O :   -1.221557
  25 O :   -1.271168
  26 O :   -1.198545
  27 O :   -1.197440
  28 C :   -0.810108
  29 H :    0.422817
  30 H :    0.239744
  31 H :    0.248085
  32 C :   -0.804726
  33 H :    0.226367
  34 H :    0.221585
  35 H :    0.443612
  36 C :   -0.982522
  37 H :    0.215300
  38 H :    0.341869
  39 H :    0.174156
  40 H :    0.039699
  41 H :    0.087685
  42 H :    0.116495
  43 H :    0.176008
Sum of atomic charges:   -0.0000000

LOEWDIN ATOMIC CHARGES
----------------------
   0 C :   -0.249792
   1 C :    0.345163
   2 C :    0.402236
   3 C :    0.530429
   4 H :   -0.334918
   5 C :   -0.226927
   6 H :   -0.293544
   7 H :   -0.269364
   8 C :    0.489594
   9 H :   -0.345475
  10 C :   -0.017195
  11 C :    0.350883
  12 C :   -0.069006
  13 C :    0.392443
  14 C :    0.906644
  15 H :   -0.274487
  16 H :   -0.273400
  17 H :   -0.304383
  18 H :   -0.256185
  19 H :   -0.374991
  20 C :    0.183491
  21 H :   -0.359667
  22 H :   -0.304236
  23 C :   -1.100200
  24 O :    0.908722
  25 O :    0.919328
  26 O :    0.721010
  27 O :    0.856326
  28 C :    0.578712
  29 H :   -0.318709
  30 H :   -0.298850
  31 H :   -0.311230
  32 C :    0.582275
  33 H :   -0.297638
  34 H :   -0.311765
  35 H :   -0.314565
  36 C :    0.901375
  37 H :   -0.271334
  38 H :   -0.297644
  39 H :   -0.307626
  40 H :   -0.306641
  41 H :   -0.346870
  42 H :   -0.325979
  43 H :   -0.306010

  Mayer bond orders larger than 0.100000
B(  0-C ,  1-C ) :   0.7051 B(  0-C ,  3-C ) :   0.7038 B(  0-C ,  4-H ) :   1.0280
B(  0-C , 10-C ) :  -0.1611 B(  0-C , 24-O ) :  -0.8952 B(  0-C , 28-C ) :  -0.5066
B(  0-C , 31-H ) :  -0.1179 B(  1-C , 10-C ) :   1.1015 B(  1-C , 11-C ) :  -0.6710
B(  1-C , 13-C ) :   0.1361 B(  1-C , 24-O ) :   0.4697 B(  1-C , 40-H ) :   1.3288
B(  1-C , 41-H ) :  -0.1281 B(  2-C ,  5-C ) :  -0.2064 B(  2-C ,  8-C ) :   1.0004
B(  2-C , 12-C ) :   1.0044 B(  2-C , 26-O ) :   0.1866 B(  2-C , 36-C ) :  -0.2156
B(  2-C , 43-H ) :   1.1538 B(  3-C ,  5-C ) :   0.7652 B(  3-C ,  6-H ) :   1.0134
B(  3-C ,  7-H ) :   1.0823 B(  3-C , 24-O ) :   0.3271 B(  3-C , 25-O ) :   0.1862
B(  4-H , 24-O ) :   0.1219 B(  5-C ,  8-C ) :   0.7534 B(  5-C ,  9-H ) :   1.0675
B(  5-C , 12-C ) :   0.1323 B(  5-C , 25-O ) :  -0.7072 B(  5-C , 32-C ) :  -0.5480
B(  5-C , 34-H ) :  -0.1190 B(  7-H , 24-O ) :  -0.1037 B(  8-C , 12-C ) :  -0.1221
B(  8-C , 18-H ) :   0.9324 B(  8-C , 19-H ) :   1.0612 B(  8-C , 25-O ) :   0.1993
B(  8-C , 26-O ) :   0.1342 B(  9-H , 25-O ) :   0.3875 B( 10-C , 11-C ) :   0.4181
B( 10-C , 13-C ) :  -0.8066 B( 10-C , 14-C ) :   0.2726 B( 10-C , 15-H ) :  -0.1487
B( 10-C , 16-H ) :  -0.2178 B( 10-C , 17-H ) :  -0.1619 B( 10-C , 40-H ) :  -0.1856
B( 10-C , 41-H ) :  -0.2829 B( 11-C , 13-C ) :   1.3389 B( 11-C , 20-C ) :  -0.1924
B( 11-C , 41-H ) :   1.3506 B( 11-C , 42-H ) :  -0.2124 B( 12-C , 23-C ) :   0.8620
B( 12-C , 26-O ) :   0.2586 B( 12-C , 36-C ) :   0.6942 B( 12-C , 37-H ) :  -0.1343
B( 12-C , 39-H ) :  -0.1285 B( 13-C , 20-C ) :   0.8481 B( 13-C , 21-H ) :  -0.1332
B( 13-C , 42-H ) :   1.2303 B( 14-C , 15-H ) :   1.1009 B( 14-C , 16-H ) :   1.1962
B( 14-C , 17-H ) :   1.0176 B( 20-C , 21-H ) :   0.9959 B( 20-C , 22-H ) :   0.8931
B( 20-C , 27-O ) :   0.5344 B( 23-C , 26-O ) :   0.3758 B( 23-C , 27-O ) :   0.4511
B( 24-O , 28-C ) :   1.1783 B( 25-O , 32-C ) :   1.2064 B( 25-O , 33-H ) :   0.1183
B( 26-O , 27-O ) :   0.1914 B( 28-C , 29-H ) :   0.8673 B( 28-C , 30-H ) :   0.9379
B( 28-C , 31-H ) :   0.9398 B( 32-C , 33-H ) :   0.9411 B( 32-C , 34-H ) :   0.9916
B( 32-C , 35-H ) :   0.8329 B( 36-C , 37-H ) :   1.1474 B( 36-C , 38-H ) :   0.9251
B( 36-C , 39-H ) :   1.1204

MP2 TOTAL ENERGY:     -923.474093214 Eh
FINAL SINGLE POINT ENERGY      -923.474093213663

DIPOLE MOMENT
-------------
                                X             Y             Z
Electronic contribution:     -9.91419      -2.57999     -10.52977
Nuclear contribution   :     10.26536       2.42724      12.97006
                        -----------------------------------------
Total Dipole Moment    :      0.35118      -0.15274       2.44029
                        -----------------------------------------
Magnitude (a.u.)       :      2.47016
Magnitude (Debye)      :      6.27864

Rotational constants in cm-1:     0.015016     0.008306     0.006648
Rotational constants in MHz :   450.160279   249.000193   199.287679

                             ****ORCA TERMINATED NORMALLY****
TOTAL RUN TIME: 0 days 11 hours 20 minutes 40 seconds 951 msec
