                         Program Version 4.2.1 -  RELEASE  -
|  1> %pal
|  2>  nprocs 32
|  3> end
|  4> !RI-MP2 aug-cc-pVQZ aug-cc-pVQZ/C TightSCF
|  5> %maxcore 4500
|  6> *xyzfile 1 1  05_36P1.xyz
|  7>
|  8>
|  9>                          ****END OF INPUT****

CARTESIAN COORDINATES (ANGSTROEM)
---------------------------------
  O     -3.510899    0.016882   -0.000398
  C     -2.431747    0.549433    0.000026
  O     -2.201197    1.838166    0.000564
  C     -3.364956    2.693713    0.000612
  C     -1.153822   -0.255532    0.000008
  C      1.153822   -0.255532    0.000011
  C      1.204275   -1.654281   -0.000069
  N      0.000000   -2.260282   -0.000122
  C     -1.204275   -1.654281   -0.000080
  C      2.408316   -2.525993   -0.000096
  C      2.431747    0.549432    0.000169
  O      2.201198    1.838166   -0.000858
  C      3.364957    2.693713   -0.000739
  C     -2.408316   -2.525994   -0.000145
  O      3.510899    0.016882    0.001147
  H      3.961549    2.503571   -0.891162
  H      3.960424    2.504846    0.890708
  H      2.973112    3.705278   -0.001709
  H      3.030382   -2.312436   -0.869524
  H      2.127517   -3.580244   -0.000702
  H      3.029760   -2.313267    0.869991
  H     -3.029957   -2.312930   -0.870005
  H     -3.030185   -2.312775    0.869511
  H     -2.127517   -3.580245   -0.000012
  H     -3.961208    2.503860    0.891325
  H     -3.960765    2.504557   -0.890545
  H     -2.973111    3.705278    0.001104
  N     -0.000000    0.387884    0.000034
  H     -0.000000   -3.277536   -0.000197

 Total Charge           Charge          ....    1
 Multiplicity           Mult            ....    1
 Number of Electrons    NEL             ....  118
 Basis Dimension        Dim             .... 1878

ORBITAL ENERGIES
----------------

  NO   OCC          E(Eh)            E(eV)
   0   2.0000     -20.729412      -564.0760
   1   2.0000     -20.729412      -564.0760
   2   2.0000     -20.679334      -562.7133
   3   2.0000     -20.679334      -562.7133
   4   2.0000     -15.859694      -431.5642
   5   2.0000     -15.783660      -429.4952
   6   2.0000     -11.524043      -313.5852
   7   2.0000     -11.524043      -313.5851
   8   2.0000     -11.517631      -313.4107
   9   2.0000     -11.517603      -313.4099
  10   2.0000     -11.466773      -312.0268
  11   2.0000     -11.466753      -312.0262
  12   2.0000     -11.397382      -310.1385
  13   2.0000     -11.397382      -310.1385
  14   2.0000     -11.392817      -310.0143
  15   2.0000     -11.392817      -310.0143
  16   2.0000      -1.604488       -43.6603
  17   2.0000      -1.602717       -43.6122
  18   2.0000      -1.549355       -42.1601
  19   2.0000      -1.500777       -40.8382
  20   2.0000      -1.500742       -40.8373
  21   2.0000      -1.441745       -39.2319
  22   2.0000      -1.304228       -35.4899
  23   2.0000      -1.184300       -32.2265
  24   2.0000      -1.183303       -32.1993
  25   2.0000      -1.114520       -30.3276
  26   2.0000      -1.106656       -30.1136
  27   2.0000      -1.091449       -29.6998
  28   2.0000      -1.047525       -28.5046
  29   2.0000      -0.994591       -27.0642
  30   2.0000      -0.933160       -25.3926
  31   2.0000      -0.912619       -24.8336
  32   2.0000      -0.898493       -24.4492
  33   2.0000      -0.858985       -23.3742
  34   2.0000      -0.850367       -23.1397
  35   2.0000      -0.832499       -22.6535
  36   2.0000      -0.810786       -22.0626
  37   2.0000      -0.804118       -21.8812
  38   2.0000      -0.802493       -21.8369
  39   2.0000      -0.801704       -21.8155
  40   2.0000      -0.794357       -21.6156
  41   2.0000      -0.750194       -20.4138
  42   2.0000      -0.744855       -20.2685
  43   2.0000      -0.737375       -20.0650
  44   2.0000      -0.720985       -19.6190
  45   2.0000      -0.714066       -19.4307
  46   2.0000      -0.709605       -19.3093
  47   2.0000      -0.708507       -19.2795
  48   2.0000      -0.689221       -18.7546
  49   2.0000      -0.679113       -18.4796
  50   2.0000      -0.650129       -17.6909
  51   2.0000      -0.647438       -17.6177
  52   2.0000      -0.643330       -17.5059
  53   2.0000      -0.640558       -17.4305
  54   2.0000      -0.591396       -16.0927
  55   2.0000      -0.588733       -16.0202
  56   2.0000      -0.588592       -16.0164
  57   2.0000      -0.584762       -15.9122
  58   2.0000      -0.529900       -14.4193
  59   0.0000      -0.127191        -3.4610
  60   0.0000      -0.095608        -2.6016
  61   0.0000      -0.084449        -2.2980
  62   0.0000      -0.060036        -1.6337
  63   0.0000      -0.057964        -1.5773

MULLIKEN ATOMIC CHARGES
-----------------------
   0 O :   -0.897514
   1 C :    1.904381
   2 O :   -0.702839
   3 C :   -0.829143
   4 C :   -0.767962
   5 C :   -0.766749
   6 C :    0.994966
   7 N :   -0.364352
   8 C :    0.995519
   9 C :   -0.977300
  10 C :    1.904688
  11 O :   -0.702649
  12 C :   -0.829327
  13 C :   -0.977352
  14 O :   -0.897398
  15 H :    0.339991
  16 H :    0.340315
  17 H :    0.431728
  18 H :    0.316282
  19 H :    0.284169
  20 H :    0.316324
  21 H :    0.316246
  22 H :    0.316250
  23 H :    0.284167
  24 H :    0.340070
  25 H :    0.340226
  26 H :    0.431638
  27 N :   -0.183327
  28 H :    0.038951
Sum of atomic charges:    1.0000000

LOEWDIN ATOMIC CHARGES
----------------------
   0 O :    0.760074
   1 C :   -1.098448
   2 O :    0.848739
   3 C :    0.636109
   4 C :   -0.305654
   5 C :   -0.305654
   6 C :   -0.107943
   7 N :    0.919615
   8 C :   -0.107943
   9 C :    0.969660
  10 C :   -1.098447
  11 O :    0.848738
  12 C :    0.636109
  13 C :    0.969661
  14 O :    0.760074
  15 H :   -0.302816
  16 H :   -0.302808
  17 H :   -0.308680
  18 H :   -0.277779
  19 H :   -0.276233
  20 H :   -0.277722
  21 H :   -0.277741
  22 H :   -0.277760
  23 H :   -0.276234
  24 H :   -0.302813
  25 H :   -0.302810
  26 H :   -0.308681
  27 N :    0.618747
  28 H :   -0.451358

  Mayer bond orders larger than 0.100000
B(  0-O ,  1-C ) :   0.8058 B(  0-O ,  2-O ) :   0.1745 B(  0-O ,  4-C ) :   0.5684
B(  0-O ,  8-C ) :  -0.1351 B(  1-C ,  2-O ) :   0.7343 B(  1-C ,  3-C ) :  -0.2208
B(  1-C ,  4-C ) :   1.4168 B(  1-C ,  8-C ) :  -0.2556 B(  1-C , 27-N ) :  -0.1879
B(  2-O ,  3-C ) :   0.8721 B(  2-O ,  4-C ) :   0.4673 B(  2-O ,  5-C ) :  -0.1559
B(  2-O , 27-N ) :  -0.1612 B(  3-C , 24-H ) :   0.9054 B(  3-C , 25-H ) :   0.9052
B(  3-C , 26-H ) :   0.8446 B(  4-C ,  5-C ) :  -0.1147 B(  4-C ,  7-N ) :   0.1218
B(  4-C ,  8-C ) :   1.0390 B(  4-C , 11-O ) :  -0.1553 B(  4-C , 13-C ) :   0.1050
B(  4-C , 27-N ) :   0.7565 B(  5-C ,  6-C ) :   1.0393 B(  5-C ,  7-N ) :   0.1222
B(  5-C ,  9-C ) :   0.1052 B(  5-C , 10-C ) :   1.4165 B(  5-C , 11-O ) :   0.4666
B(  5-C , 14-O ) :   0.5683 B(  5-C , 27-N ) :   0.7548 B(  6-C ,  7-N ) :   0.8864
B(  6-C ,  8-C ) :   0.1953 B(  6-C ,  9-C ) :   0.4629 B(  6-C , 10-C ) :  -0.2557
B(  6-C , 14-O ) :  -0.1349 B(  6-C , 18-H ) :  -0.1562 B(  6-C , 19-H ) :  -0.1239
B(  6-C , 20-H ) :  -0.1564 B(  6-C , 27-N ) :   0.1685 B(  6-C , 28-H ) :  -0.1140
B(  7-N ,  8-C ) :   0.8875 B(  7-N , 28-H ) :   1.2691 B(  8-C , 13-C ) :   0.4630
B(  8-C , 21-H ) :  -0.1564 B(  8-C , 22-H ) :  -0.1563 B(  8-C , 23-H ) :  -0.1236
B(  8-C , 27-N ) :   0.1673 B(  8-C , 28-H ) :  -0.1139 B(  9-C , 18-H ) :   0.9899
B(  9-C , 19-H ) :   0.9807 B(  9-C , 20-H ) :   0.9898 B( 10-C , 11-O ) :   0.7344
B( 10-C , 12-C ) :  -0.2209 B( 10-C , 14-O ) :   0.8059 B( 10-C , 27-N ) :  -0.1883
B( 11-O , 12-C ) :   0.8721 B( 11-O , 14-O ) :   0.1743 B( 11-O , 27-N ) :  -0.1611
B( 12-C , 15-H ) :   0.9054 B( 12-C , 16-H ) :   0.9051 B( 12-C , 17-H ) :   0.8445
B( 13-C , 21-H ) :   0.9899 B( 13-C , 22-H ) :   0.9900 B( 13-C , 23-H ) :   0.9807

MP2 TOTAL ENERGY:     -797.885285747 Eh
FINAL SINGLE POINT ENERGY      -797.885285747240

DIPOLE MOMENT
-------------
                                X             Y             Z
Electronic contribution:     -0.00000      -0.03913       0.00069
Nuclear contribution   :     -0.00000      -2.19751      -0.00120
                        -----------------------------------------
Total Dipole Moment    :     -0.00000      -2.23664      -0.00051
                        -----------------------------------------
Magnitude (a.u.)       :      2.23664
Magnitude (Debye)      :      5.68508

Rotational constants in cm-1:     0.024036     0.012936     0.008463
Rotational constants in MHz :   720.566192   387.819177   253.705212

                             ****ORCA TERMINATED NORMALLY****
TOTAL RUN TIME: 0 days 3 hours 2 minutes 53 seconds 203 msec
