                         Program Version 4.2.1 -  RELEASE  -
|  1> %pal
|  2>  nprocs 32
|  3> end
|  4> !RI-MP2 aug-cc-pVQZ aug-cc-pVQZ/C TightSCF
|  5> %maxcore 4500
|  6> *xyzfile 0 1  02_26TS.xyz
|  7>
|  8>
|  9>                          ****END OF INPUT****

CARTESIAN COORDINATES (ANGSTROEM)
---------------------------------
  C      1.366448    1.063438   -0.134188
  C     -0.908843   -0.441778   -0.951894
  C     -1.239859    1.804213   -0.898544
  C     -0.721204    2.186787    0.320777
  C      0.578283    1.843407    0.695948
  C      2.716892    0.509013    0.223428
  C      2.755628   -0.999682   -0.132598
  C      1.502976   -1.350029   -0.939516
  H     -1.020580   -0.474903   -2.027794
  H     -2.297367    1.916332   -1.102752
  H     -1.395218    2.564309    1.082196
  H      0.884270    1.998460    1.726353
  H      3.489780    1.048656   -0.330506
  H      2.765206   -1.591311    0.785655
  H      1.589872   -0.992883   -1.969337
  H     -0.607151    1.761621   -1.773415
  H      1.218824    1.196832   -1.199640
  H      2.925644    0.663922    1.284250
  H      3.661056   -1.264836   -0.680699
  H      1.375018   -2.436212   -0.990937
  C     -0.035684   -1.174277    1.144142
  H      0.582996   -0.680962    1.894136
  H      0.164857   -2.248264    1.223986
  C     -1.529846   -0.892893    1.327504
  H     -2.076775   -1.682846    1.841100
  C      0.289844   -0.730622   -0.285669
  C     -2.065598   -0.713242   -0.085994
  O     -3.226423   -0.805180   -0.417138
  H     -1.703266    0.037516    1.874133

 Total Charge           Charge          ....    0
 Multiplicity           Mult            ....    1
 Number of Electrons    NEL             ....   96
 Basis Dimension        Dim             .... 1776

ORBITAL ENERGIES
----------------

  NO   OCC          E(Eh)            E(eV)
   0   2.0000     -20.513373      -558.1973
   1   2.0000     -11.309073      -307.7355
   2   2.0000     -11.261423      -306.4389
   3   2.0000     -11.250903      -306.1526
   4   2.0000     -11.246632      -306.0364
   5   2.0000     -11.238190      -305.8067
   6   2.0000     -11.237280      -305.7819
   7   2.0000     -11.235033      -305.7208
   8   2.0000     -11.233315      -305.6740
   9   2.0000     -11.232392      -305.6489
  10   2.0000     -11.230093      -305.5864
  11   2.0000     -11.228664      -305.5475
  12   2.0000     -11.223173      -305.3981
  13   2.0000      -1.361089       -37.0371
  14   2.0000      -1.161963       -31.6186
  15   2.0000      -1.105927       -30.0938
  16   2.0000      -1.084783       -29.5185
  17   2.0000      -1.009538       -27.4709
  18   2.0000      -0.975966       -26.5574
  19   2.0000      -0.956307       -26.0224
  20   2.0000      -0.901120       -24.5207
  21   2.0000      -0.861388       -23.4396
  22   2.0000      -0.806333       -21.9414
  23   2.0000      -0.754149       -20.5214
  24   2.0000      -0.733494       -19.9594
  25   2.0000      -0.721053       -19.6209
  26   2.0000      -0.674960       -18.3666
  27   2.0000      -0.658033       -17.9060
  28   2.0000      -0.649440       -17.6722
  29   2.0000      -0.641827       -17.4650
  30   2.0000      -0.616348       -16.7717
  31   2.0000      -0.603344       -16.4178
  32   2.0000      -0.583793       -15.8858
  33   2.0000      -0.568016       -15.4565
  34   2.0000      -0.560827       -15.2609
  35   2.0000      -0.539229       -14.6732
  36   2.0000      -0.531127       -14.4527
  37   2.0000      -0.528494       -14.3810
  38   2.0000      -0.522309       -14.2128
  39   2.0000      -0.499923       -13.6036
  40   2.0000      -0.493693       -13.4341
  41   2.0000      -0.488353       -13.2888
  42   2.0000      -0.478271       -13.0144
  43   2.0000      -0.469281       -12.7698
  44   2.0000      -0.457928       -12.4609
  45   2.0000      -0.389245       -10.5919
  46   2.0000      -0.314733        -8.5643
  47   2.0000      -0.309581        -8.4241
  48   0.0000       0.018859         0.5132
  49   0.0000       0.024889         0.6773
  50   0.0000       0.027911         0.7595
  51   0.0000       0.030185         0.8214
  52   0.0000       0.038310         1.0425

MULLIKEN ATOMIC CHARGES
-----------------------
   0 C :    0.358003
   1 C :   -1.078915
   2 C :   -0.619546
   3 C :   -0.254610
   4 C :   -0.502545
   5 C :   -0.660929
   6 C :   -0.543692
   7 C :   -0.851258
   8 H :    0.078506
   9 H :    0.273029
  10 H :    0.231873
  11 H :    0.059106
  12 H :    0.270371
  13 H :    0.107263
  14 H :    0.154210
  15 H :    0.231733
  16 H :    0.402358
  17 H :    0.100803
  18 H :    0.274198
  19 H :    0.279480
  20 C :   -0.590940
  21 H :    0.146140
  22 H :    0.298597
  23 C :   -0.757475
  24 H :    0.272703
  25 C :    1.796169
  26 C :    1.460080
  27 O :   -1.062503
  28 H :    0.127790
Sum of atomic charges:   -0.0000000

LOEWDIN ATOMIC CHARGES
----------------------
   0 C :    0.247803
   1 C :    0.276448
   2 C :    0.713745
   3 C :    0.352225
   4 C :    0.372454
   5 C :    0.558996
   6 C :    0.560320
   7 C :    0.527726
   8 H :   -0.285967
   9 H :   -0.285624
  10 H :   -0.313894
  11 H :   -0.296522
  12 H :   -0.257838
  13 H :   -0.272540
  14 H :   -0.262574
  15 H :   -0.344631
  16 H :   -0.350156
  17 H :   -0.274770
  18 H :   -0.252673
  19 H :   -0.249140
  20 C :    0.516915
  21 H :   -0.272539
  22 H :   -0.253785
  23 C :    0.516166
  24 H :   -0.266158
  25 C :   -0.133539
  26 C :   -0.698654
  27 O :    0.709396
  28 H :   -0.281190

  Mayer bond orders larger than 0.100000
B(  0-C ,  1-C ) :   0.1514 B(  0-C ,  3-C ) :  -0.3339 B(  0-C ,  4-C ) :   0.9771
B(  0-C ,  5-C ) :   0.3852 B(  0-C ,  6-C ) :  -0.1099 B(  0-C , 11-H ) :  -0.1081
B(  0-C , 12-H ) :  -0.1519 B(  0-C , 16-H ) :   0.8679 B(  0-C , 17-H ) :  -0.1931
B(  0-C , 25-C ) :   0.2048 B(  1-C ,  2-C ) :   0.2690 B(  1-C ,  8-H ) :   1.2115
B(  1-C , 25-C ) :   0.3457 B(  1-C , 26-C ) :   1.3985 B(  1-C , 27-O ) :   0.4255
B(  2-C ,  3-C ) :   1.4038 B(  2-C ,  9-H ) :   0.9926 B(  2-C , 15-H ) :   1.0741
B(  3-C ,  4-C ) :   1.0894 B(  3-C ,  9-H ) :  -0.1182 B(  3-C , 10-H ) :   1.0946
B(  3-C , 11-H ) :  -0.1099 B(  3-C , 25-C ) :   0.1128 B(  4-C ,  5-C ) :  -0.1122
B(  4-C , 10-H ) :  -0.1796 B(  4-C , 11-H ) :   1.2606 B(  5-C ,  6-C ) :   1.0821
B(  5-C , 12-H ) :   1.0358 B(  5-C , 17-H ) :   1.1952 B(  6-C ,  7-C ) :   1.0608
B(  6-C , 13-H ) :   1.1057 B(  6-C , 18-H ) :   0.9565 B(  6-C , 25-C ) :  -0.3242
B(  7-C , 14-H ) :   1.2069 B(  7-C , 19-H ) :   1.0025 B(  7-C , 25-C ) :   0.1656
B(  8-H , 27-O ) :   0.1155 B( 14-H , 25-C ) :  -0.1682 B( 19-H , 25-C ) :  -0.1407
B( 20-C , 21-H ) :   1.1300 B( 20-C , 22-H ) :   0.9249 B( 20-C , 23-C ) :   0.9430
B( 20-C , 25-C ) :   0.4321 B( 21-H , 25-C ) :  -0.1402 B( 23-C , 24-H ) :   0.9741
B( 23-C , 25-C ) :  -0.2317 B( 23-C , 26-C ) :   1.1710 B( 23-C , 27-O ) :   0.2223
B( 23-C , 28-H ) :   1.0447 B( 25-C , 26-C ) :  -0.3177 B( 25-C , 27-O ) :   0.1554
B( 26-C , 27-O ) :   0.1052 B( 26-C , 28-H ) :   0.1140

MP2 TOTAL ENERGY:     -541.102768023 Eh
FINAL SINGLE POINT ENERGY      -541.102768022676

DIPOLE MOMENT
-------------
                                X             Y             Z
Electronic contribution:     -7.84438       0.30054      -1.39048
Nuclear contribution   :      9.72398      -0.20178       1.66748
                        -----------------------------------------
Total Dipole Moment    :      1.87960       0.09876       0.27700
                        -----------------------------------------
Magnitude (a.u.)       :      1.90246
Magnitude (Debye)      :      4.83568

Rotational constants in cm-1:     0.042876     0.024287     0.019617
Rotational constants in MHz :  1285.398316   728.119157   588.104409

                             ****ORCA TERMINATED NORMALLY****
TOTAL RUN TIME: 0 days 3 hours 32 minutes 58 seconds 704 msec
