                         Program Version 4.2.1 -  RELEASE  -
|  1> %pal
|  2>  nprocs 32
|  3> end
|  4> !RI-MP2 aug-cc-pVQZ aug-cc-pVQZ/C TightSCF
|  5> %maxcore 4500
|  6> *xyzfile -1 1  09_14P.xyz
|  7>
|  8>
|  9>                          ****END OF INPUT****

CARTESIAN COORDINATES (ANGSTROEM)
---------------------------------
  C     -1.691482    0.283970   -0.049693
  C     -1.103110    1.669315   -0.103139
  C      0.336365    1.822069   -0.469453
  O     -1.813794    2.621421    0.175221
  C      1.261302    1.488880    0.735467
  C      2.390181    0.775628    0.712168
  C      2.837330    0.188135   -0.575960
  O      4.047726   -0.600532   -0.508660
  C      3.933360   -1.666605    0.390665
  H      2.073249   -0.473404   -1.041137
  H      3.087123    0.961377   -1.314035
  H      4.906826   -2.160794    0.443793
  H      3.634884   -1.304857    1.380438
  H      3.183126   -2.401592    0.046899
  C     -3.078592    0.151619   -0.067878
  C     -3.668354   -1.102473   -0.044223
  C     -2.873000   -2.241442    0.011476
  C     -1.490246   -2.116420    0.042919
  C     -0.898993   -0.860988    0.008986
  H     -3.676088    1.054361   -0.098842
  H     -4.748642   -1.194543   -0.066139
  H     -3.331116   -3.224160    0.035946
  H     -0.864841   -2.999708    0.101677
  H      0.176112   -0.759531    0.073651
  H      0.476265    2.859351   -0.788470
  H      0.576119    1.165641   -1.309302
  H      0.906962    1.960612    1.655011

 Total Charge           Charge          ....   -1
 Multiplicity           Mult            ....    1
 Number of Electrons    NEL             ....  102
 Basis Dimension        Dim             .... 1718

ORBITAL ENERGIES
----------------

  NO   OCC          E(Eh)            E(eV)
   0   2.0000     -20.415612      -555.5370
   1   2.0000     -20.395185      -554.9812
   2   2.0000     -11.203688      -304.8679
   3   2.0000     -11.148015      -303.3529
   4   2.0000     -11.141485      -303.1752
   5   2.0000     -11.138656      -303.0982
   6   2.0000     -11.137810      -303.0752
   7   2.0000     -11.134058      -302.9731
   8   2.0000     -11.132844      -302.9401
   9   2.0000     -11.121913      -302.6427
  10   2.0000     -11.110449      -302.3307
  11   2.0000     -11.084648      -301.6286
  12   2.0000     -11.032251      -300.2028
  13   2.0000     -10.993741      -299.1549
  14   2.0000      -1.258780       -34.2531
  15   2.0000      -1.211578       -32.9687
  16   2.0000      -1.061474       -28.8842
  17   2.0000      -0.943276       -25.6679
  18   2.0000      -0.922807       -25.1109
  19   2.0000      -0.900094       -24.4928
  20   2.0000      -0.837264       -22.7831
  21   2.0000      -0.781367       -21.2621
  22   2.0000      -0.746485       -20.3129
  23   2.0000      -0.730673       -19.8826
  24   2.0000      -0.696361       -18.9489
  25   2.0000      -0.644265       -17.5313
  26   2.0000      -0.594915       -16.1885
  27   2.0000      -0.546166       -14.8619
  28   2.0000      -0.539806       -14.6889
  29   2.0000      -0.536845       -14.6083
  30   2.0000      -0.518712       -14.1149
  31   2.0000      -0.502451       -13.6724
  32   2.0000      -0.500052       -13.6071
  33   2.0000      -0.491763       -13.3816
  34   2.0000      -0.473338       -12.8802
  35   2.0000      -0.457993       -12.4626
  36   2.0000      -0.430010       -11.7012
  37   2.0000      -0.428345       -11.6559
  38   2.0000      -0.409597       -11.1457
  39   2.0000      -0.399304       -10.8656
  40   2.0000      -0.395328       -10.7574
  41   2.0000      -0.380257       -10.3473
  42   2.0000      -0.368930       -10.0391
  43   2.0000      -0.347799        -9.4641
  44   2.0000      -0.319538        -8.6951
  45   2.0000      -0.294814        -8.0223
  46   2.0000      -0.269409        -7.3310
  47   2.0000      -0.244090        -6.6420
  48   2.0000      -0.242375        -6.5954
  49   2.0000      -0.150938        -4.1072
  50   2.0000      -0.108978        -2.9654
  51   0.0000       0.081228         2.2103
  52   0.0000       0.090609         2.4656
  53   0.0000       0.101555         2.7635
  54   0.0000       0.107117         2.9148
  55   0.0000       0.111270         3.0278

MULLIKEN ATOMIC CHARGES
-----------------------
   0 C :    0.014373
   1 C :    1.275396
   2 C :   -0.558674
   3 O :   -1.002181
   4 C :   -0.521422
   5 C :   -0.664346
   6 C :    0.260734
   7 O :   -0.965503
   8 C :   -0.661697
   9 H :    0.051038
  10 H :    0.396513
  11 H :    0.464298
  12 H :    0.267698
  13 H :    0.203443
  14 C :   -0.352752
  15 C :   -0.360214
  16 C :   -0.344244
  17 C :   -0.631774
  18 C :   -0.517643
  19 H :    0.256406
  20 H :    0.237804
  21 H :    0.305973
  22 H :    0.172884
  23 H :    0.882868
  24 H :    0.326072
  25 H :    0.190475
  26 H :    0.274474
Sum of atomic charges:   -1.0000000

LOEWDIN ATOMIC CHARGES
----------------------
   0 C :   -0.104109
   1 C :   -0.681509
   2 C :    0.376988
   3 O :    0.731129
   4 C :    0.176162
   5 C :    0.170120
   6 C :   -0.039796
   7 O :    0.827305
   8 C :    0.467456
   9 H :   -0.361101
  10 H :   -0.354814
  11 H :   -0.344532
  12 H :   -0.382651
  13 H :   -0.319605
  14 C :    0.308277
  15 C :    0.332354
  16 C :    0.322396
  17 C :    0.355034
  18 C :    0.337055
  19 H :   -0.349183
  20 H :   -0.331218
  21 H :   -0.328422
  22 H :   -0.322070
  23 H :   -0.392609
  24 H :   -0.317076
  25 H :   -0.364480
  26 H :   -0.411104

  Mayer bond orders larger than 0.100000
B(  0-C ,  1-C ) :   0.8451 B(  0-C ,  3-O ) :   0.4727 B(  0-C , 14-C ) :   1.0187
B(  0-C , 15-C ) :  -0.3931 B(  0-C , 17-C ) :  -0.2958 B(  0-C , 18-C ) :   1.0765
B(  0-C , 23-H ) :  -0.1915 B(  1-C ,  2-C ) :   1.2820 B(  1-C ,  3-O ) :   0.2103
B(  1-C , 14-C ) :  -0.3107 B(  1-C , 18-C ) :  -0.2557 B(  1-C , 24-H ) :   0.1187
B(  2-C ,  3-O ) :   0.2933 B(  2-C ,  4-C ) :   0.7880 B(  2-C , 24-H ) :   0.8449
B(  2-C , 25-H ) :   0.9892 B(  3-O , 19-H ) :   0.1112 B(  4-C ,  5-C ) :   1.4142
B(  4-C , 26-H ) :   0.9758 B(  5-C ,  6-C ) :   0.9706 B(  6-C ,  7-O ) :   0.4699
B(  6-C ,  9-H ) :   0.9226 B(  6-C , 10-H ) :   0.8378 B(  7-O ,  8-C ) :   0.9434
B(  8-C , 11-H ) :   0.7877 B(  8-C , 12-H ) :   0.8953 B(  8-C , 13-H ) :   0.9447
B( 14-C , 15-C ) :   1.3087 B( 14-C , 17-C ) :   0.1611 B( 14-C , 19-H ) :   0.9445
B( 14-C , 20-H ) :  -0.1761 B( 15-C , 16-C ) :   1.1757 B( 15-C , 20-H ) :   1.1347
B( 15-C , 21-H ) :  -0.1089 B( 16-C , 17-C ) :   1.2996 B( 16-C , 18-C ) :  -0.1359
B( 16-C , 21-H ) :   1.0435 B( 17-C , 18-C ) :   1.0724 B( 17-C , 21-H ) :  -0.1320
B( 17-C , 22-H ) :   1.1644 B( 17-C , 23-H ) :  -0.1611 B( 18-C , 23-H ) :   0.1195

MP2 TOTAL ENERGY:     -614.453768014 Eh
FINAL SINGLE POINT ENERGY      -614.453768014401

DIPOLE MOMENT
-------------
                                X             Y             Z
Electronic contribution:     -9.65276       4.34624      -0.31455
Nuclear contribution   :      6.45054      -6.50086      -0.88788
                        -----------------------------------------
Total Dipole Moment    :     -3.20221      -2.15461      -1.20242
                        -----------------------------------------
Magnitude (a.u.)       :      4.04257
Magnitude (Debye)      :     10.27539

Rotational constants in cm-1:     0.035049     0.013032     0.009901
Rotational constants in MHz :  1050.753878   390.684433   296.833655

                             ****ORCA TERMINATED NORMALLY****
TOTAL RUN TIME: 0 days 2 hours 21 minutes 15 seconds 434 msec
