                         Program Version 4.2.1 -  RELEASE  -
|  1> %pal
|  2>  nprocs 32
|  3> end
|  4> !RI-MP2 aug-cc-pVQZ aug-cc-pVQZ/C TightSCF
|  5> %maxcore 4500
|  6> *xyzfile 0 1  02_36P.xyz
|  7>
|  8>
|  9>                          ****END OF INPUT****

CARTESIAN COORDINATES (ANGSTROEM)
---------------------------------
  C      0.285168   -0.804703   -1.321804
  C     -1.944056   -0.646573   -0.394941
  C      0.608100    0.572776   -0.816270
  C     -1.797509    0.709925   -0.231869
  C     -0.890623   -1.375183   -1.075875
  C     -2.902760    1.553105    0.344890
  C     -0.488910    2.771597   -0.495997
  C     -3.113143   -1.365313    0.084284
  C      1.515592    0.581818    0.435108
  H      1.753889    1.635203    0.640533
  C      0.819017    0.007000    1.672728
  H     -0.066392    0.587721    1.943162
  H      0.496697   -1.021578    1.502519
  H      1.482668    0.010725    2.540694
  N     -0.643240    1.329574   -0.585710
  Si     3.224893   -0.214913    0.159608
  C      4.390264    0.513117    1.442592
  C      3.173222   -2.077552    0.378663
  C      3.864612    0.220668   -1.554823
  H      2.834176   -2.346906    1.381685
  H      4.170872   -2.504061    0.243531
  H      2.501992   -2.559338   -0.333769
  H      4.043686    0.315493    2.459912
  H      4.484634    1.596063    1.327897
  H      5.390611    0.082515    1.349096
  H      0.469357    3.040875   -0.936679
  H     -0.496038    3.134356    0.536666
  H     -1.265891    3.293889   -1.055002
  H      3.889113    1.302929   -1.709054
  H      3.254485   -0.215072   -2.349322
  H      4.884494   -0.149956   -1.686611
  C     -4.164826   -0.562227    0.822436
  C     -4.256950    0.857869    0.287704
  O     -3.243827   -2.570381   -0.064140
  H     -2.642588    1.789098    1.385459
  H     -2.959918    2.509061   -0.175373
  H     -4.598819    0.829496   -0.751228
  H     -4.991465    1.439136    0.849526
  H     -5.111055   -1.097644    0.743613
  H     -3.886785   -0.550437    1.883447
  H      1.059053   -1.323417   -1.873872
  H     -1.113842   -2.385866   -1.393542
  H      1.138686    1.114579   -1.605669

 Total Charge           Charge          ....    0
 Multiplicity           Mult            ....    1
 Number of Electrons    NEL             ....  144
 Basis Dimension        Dim             .... 2594

ORBITAL ENERGIES
----------------

  NO   OCC          E(Eh)            E(eV)
   0   2.0000     -68.746504     -1870.6875
   1   2.0000     -20.502201      -557.8933
   2   2.0000     -15.592019      -424.2804
   3   2.0000     -11.305145      -307.6286
   4   2.0000     -11.301315      -307.5244
   5   2.0000     -11.276397      -306.8464
   6   2.0000     -11.273424      -306.7655
   7   2.0000     -11.248863      -306.0971
   8   2.0000     -11.235013      -305.7202
   9   2.0000     -11.221932      -305.3643
  10   2.0000     -11.219717      -305.3040
  11   2.0000     -11.214049      -305.1498
  12   2.0000     -11.212369      -305.1041
  13   2.0000     -11.210284      -305.0473
  14   2.0000     -11.200534      -304.7820
  15   2.0000     -11.199630      -304.7574
  16   2.0000     -11.196674      -304.6770
  17   2.0000     -11.192296      -304.5579
  18   2.0000      -6.095935      -165.8788
  19   2.0000      -4.202403      -114.3532
  20   2.0000      -4.202275      -114.3497
  21   2.0000      -4.202218      -114.3482
  22   2.0000      -1.349180       -36.7131
  23   2.0000      -1.287355       -35.0307
  24   2.0000      -1.124870       -30.6093
  25   2.0000      -1.093649       -29.7597
  26   2.0000      -1.054970       -28.7072
  27   2.0000      -1.005518       -27.3615
  28   2.0000      -0.980632       -26.6843
  29   2.0000      -0.965795       -26.2806
  30   2.0000      -0.959537       -26.1103
  31   2.0000      -0.926688       -25.2165
  32   2.0000      -0.922456       -25.1013
  33   2.0000      -0.904006       -24.5993
  34   2.0000      -0.855679       -23.2842
  35   2.0000      -0.812193       -22.1009
  36   2.0000      -0.796857       -21.6836
  37   2.0000      -0.745485       -20.2857
  38   2.0000      -0.694001       -18.8847
  39   2.0000      -0.679949       -18.5024
  40   2.0000      -0.670256       -18.2386
  41   2.0000      -0.658275       -17.9126
  42   2.0000      -0.626928       -17.0596
  43   2.0000      -0.621273       -16.9057
  44   2.0000      -0.615284       -16.7427
  45   2.0000      -0.601750       -16.3745
  46   2.0000      -0.594951       -16.1895
  47   2.0000      -0.588017       -16.0007
  48   2.0000      -0.583005       -15.8644
  49   2.0000      -0.577603       -15.7174
  50   2.0000      -0.567000       -15.4288
  51   2.0000      -0.564406       -15.3583
  52   2.0000      -0.557159       -15.1611
  53   2.0000      -0.555177       -15.1071
  54   2.0000      -0.547062       -14.8863
  55   2.0000      -0.541088       -14.7237
  56   2.0000      -0.535733       -14.5780
  57   2.0000      -0.532570       -14.4920
  58   2.0000      -0.529968       -14.4212
  59   2.0000      -0.521491       -14.1905
  60   2.0000      -0.507982       -13.8229
  61   2.0000      -0.489237       -13.3128
  62   2.0000      -0.485070       -13.1994
  63   2.0000      -0.473586       -12.8869
  64   2.0000      -0.469049       -12.7635
  65   2.0000      -0.445388       -12.1196
  66   2.0000      -0.429490       -11.6870
  67   2.0000      -0.426009       -11.5923
  68   2.0000      -0.406171       -11.0525
  69   2.0000      -0.387541       -10.5455
  70   2.0000      -0.383721       -10.4416
  71   2.0000      -0.272370        -7.4116
  72   0.0000       0.014420         0.3924
  73   0.0000       0.021308         0.5798
  74   0.0000       0.024849         0.6762
  75   0.0000       0.027822         0.7571
  76   0.0000       0.034513         0.9391

MULLIKEN ATOMIC CHARGES
-----------------------
   0 C :   -0.933586
   1 C :   -0.566295
   2 C :    1.198364
   3 C :    1.331732
   4 C :   -0.118523
   5 C :   -0.481613
   6 C :   -1.327474
   7 C :    1.232421
   8 C :   -0.343070
   9 H :   -0.173807
  10 C :   -1.168225
  11 H :    0.387517
  12 H :    0.300243
  13 H :    0.012923
  14 N :   -0.564409
  15 Si:    1.689928
  16 C :   -1.184535
  17 C :   -1.225033
  18 C :   -1.155812
  19 H :    0.212624
  20 H :    0.302008
  21 H :    0.266730
  22 H :    0.257626
  23 H :    0.283608
  24 H :    0.335339
  25 H :    0.249089
  26 H :    0.322782
  27 H :    0.243706
  28 H :    0.233565
  29 H :    0.244366
  30 H :    0.273398
  31 C :   -0.714997
  32 C :   -0.669146
  33 O :   -1.056434
  34 H :    0.211658
  35 H :    0.259886
  36 H :    0.200313
  37 H :    0.237838
  38 H :    0.262631
  39 H :    0.188662
  40 H :   -0.013065
  41 H :    0.130704
  42 H :    0.826363
Sum of atomic charges:    0.0000000

LOEWDIN ATOMIC CHARGES
----------------------
   0 C :    0.386209
   1 C :   -0.107673
   2 C :   -0.064404
   3 C :   -0.188327
   4 C :    0.351601
   5 C :    0.527191
   6 C :    0.802139
   7 C :   -0.680476
   8 C :    0.219360
   9 H :   -0.335402
  10 C :    0.892488
  11 H :   -0.275896
  12 H :   -0.284076
  13 H :   -0.273946
  14 N :    0.519810
  15 Si:    0.162075
  16 C :    1.000067
  17 C :    1.007651
  18 C :    1.005323
  19 H :   -0.331668
  20 H :   -0.328802
  21 H :   -0.344421
  22 H :   -0.336732
  23 H :   -0.331853
  24 H :   -0.333284
  25 H :   -0.293653
  26 H :   -0.248751
  27 H :   -0.277598
  28 H :   -0.326556
  29 H :   -0.340565
  30 H :   -0.329784
  31 C :    0.487366
  32 C :    0.532549
  33 O :    0.727654
  34 H :   -0.242536
  35 H :   -0.307377
  36 H :   -0.255277
  37 H :   -0.252921
  38 H :   -0.291248
  39 H :   -0.265058
  40 H :   -0.319962
  41 H :   -0.325972
  42 H :   -0.327265

  Mayer bond orders larger than 0.100000
B(  0-C ,  1-C ) :  -0.1798 B(  0-C ,  2-C ) :   0.4624 B(  0-C ,  3-C ) :   0.1801
B(  0-C ,  4-C ) :   1.7117 B(  0-C ,  8-C ) :   0.1870 B(  0-C ,  9-H ) :   0.1072
B(  0-C , 14-N ) :   0.3144 B(  0-C , 15-Si) :  -0.1141 B(  0-C , 40-H ) :   1.4820
B(  0-C , 42-H ) :  -0.5078 B(  1-C ,  2-C ) :  -0.1794 B(  1-C ,  3-C ) :   1.0498
B(  1-C ,  4-C ) :   0.4363 B(  1-C ,  5-C ) :  -0.1663 B(  1-C ,  7-C ) :   1.1325
B(  1-C , 14-N ) :   0.2940 B(  1-C , 31-C ) :  -0.2688 B(  1-C , 32-C ) :   0.1398
B(  1-C , 33-O ) :   0.7639 B(  1-C , 42-H ) :  -0.1177 B(  2-C ,  4-C ) :  -0.1136
B(  2-C ,  6-C ) :  -0.2812 B(  2-C ,  8-C ) :   0.9191 B(  2-C ,  9-H ) :  -0.1033
B(  2-C , 14-N ) :   0.4432 B(  2-C , 15-Si) :   0.1129 B(  2-C , 25-H ) :  -0.1379
B(  2-C , 40-H ) :  -0.1643 B(  2-C , 42-H ) :   0.7412 B(  3-C ,  4-C ) :  -0.1090
B(  3-C ,  5-C ) :   0.3547 B(  3-C ,  6-C ) :  -0.2298 B(  3-C ,  7-C ) :  -0.2855
B(  3-C , 14-N ) :   0.9344 B(  3-C , 32-C ) :  -0.3339 B(  4-C ,  7-C ) :  -0.2818
B(  4-C ,  8-C ) :  -0.1104 B(  4-C , 14-N ) :  -0.2644 B(  4-C , 33-O ) :  -0.1097
B(  4-C , 40-H ) :  -0.2624 B(  4-C , 41-H ) :   1.0726 B(  4-C , 42-H ) :   0.1190
B(  5-C , 32-C ) :   0.9313 B(  5-C , 34-H ) :   0.9397 B(  5-C , 35-H ) :   0.9760
B(  6-C , 14-N ) :   0.7901 B(  6-C , 25-H ) :   1.0619 B(  6-C , 26-H ) :   1.0614
B(  6-C , 27-H ) :   1.1136 B(  6-C , 42-H ) :  -0.1291 B(  7-C , 31-C ) :   1.1009
B(  8-C ,  9-H ) :   1.4156 B(  8-C , 10-C ) :   0.3118 B(  8-C , 11-H ) :  -0.1228
B(  8-C , 12-H ) :  -0.1479 B(  8-C , 13-H ) :  -0.1766 B(  8-C , 15-Si) :   0.4890
B(  8-C , 17-C ) :   0.1147 B(  8-C , 18-C ) :   0.1053 B(  9-H , 15-Si) :  -0.1167
B( 10-C , 11-H ) :   0.8877 B( 10-C , 12-H ) :   0.9855 B( 10-C , 13-H ) :   1.3781
B( 14-N , 26-H ) :  -0.1564 B( 14-N , 27-H ) :  -0.1630 B( 14-N , 42-H ) :  -0.4038
B( 15-Si, 16-C ) :   0.8233 B( 15-Si, 17-C ) :   0.5069 B( 15-Si, 18-C ) :   0.6010
B( 15-Si, 24-H ) :  -0.1014 B( 16-C , 22-H ) :   0.9771 B( 16-C , 23-H ) :   0.9620
B( 16-C , 24-H ) :   0.9364 B( 17-C , 19-H ) :   1.0342 B( 17-C , 20-H ) :   0.9910
B( 17-C , 21-H ) :   0.9577 B( 18-C , 28-H ) :   1.0042 B( 18-C , 29-H ) :   0.9871
B( 18-C , 30-H ) :   1.0441 B( 31-C , 32-C ) :   1.0414 B( 31-C , 33-O ) :   0.2484
B( 31-C , 38-H ) :   0.9849 B( 31-C , 39-H ) :   0.9743 B( 32-C , 36-H ) :   1.0042
B( 32-C , 37-H ) :   1.0330 B( 33-O , 41-H ) :   0.1512

MP2 TOTAL ENERGY:    -1004.451633064 Eh
FINAL SINGLE POINT ENERGY     -1004.451633064336

DIPOLE MOMENT
-------------
                                X             Y             Z
Electronic contribution:    -14.11879      -6.27836      -4.77127
Nuclear contribution   :     14.85462       8.73276       5.03350
                        -----------------------------------------
Total Dipole Moment    :      0.73583       2.45440       0.26223
                        -----------------------------------------
Magnitude (a.u.)       :      2.57571
Magnitude (Debye)      :      6.54694

Rotational constants in cm-1:     0.024703     0.007485     0.006704
Rotational constants in MHz :   740.576708   224.390944   200.987696

                             ****ORCA TERMINATED NORMALLY****
TOTAL RUN TIME: 0 days 9 hours 23 minutes 37 seconds 265 msec
