                         Program Version 4.2.1 -  RELEASE  -
|  1> %pal
|  2>  nprocs 32
|  3> end
|  4> !RI-MP2 aug-cc-pVQZ aug-cc-pVQZ/C TightSCF
|  5> %maxcore 4500
|  6> *xyzfile 0 2  01_13R.xyz
|  7>
|  8>
|  9>                          ****END OF INPUT****

CARTESIAN COORDINATES (ANGSTROEM)
---------------------------------
  C      3.294507   -0.534173    0.090292
  N      1.962330   -0.339911   -0.399068
  H      3.794987   -1.327251   -0.464887
  H      3.284568   -0.803896    1.157087
  H      3.889554    0.387642    0.005910
  C      1.279427    0.728567    0.271241
  C     -0.157685    0.876530   -0.205719
  H      1.833159    1.667363    0.105665
  H      1.303708    0.562204    1.362055
  C     -1.013293   -0.345889    0.130267
  H     -0.150804    1.034404   -1.288398
  H     -0.600046    1.770080    0.244866
  C     -2.401419   -0.245512   -0.419712
  H     -1.056198   -0.480263    1.216329
  H     -0.517530   -1.229937   -0.283615
  C     -3.512742   -0.239524    0.302590
  H     -4.490263   -0.159568   -0.157514
  H     -3.483793   -0.319291    1.384747
  H     -2.476417   -0.162104   -1.502532

 Total Charge           Charge          ....    0
 Multiplicity           Mult            ....    2
 Number of Electrons    NEL             ....   55
 Basis Dimension        Dim             .... 1112

ORBITAL ENERGIES
----------------
                 SPIN UP ORBITALS
  NO   OCC          E(Eh)            E(eV)
   0   1.0000     -15.576352      -423.8541
   1   1.0000     -11.248730      -306.0935
   2   1.0000     -11.245618      -306.0088
   3   1.0000     -11.226356      -305.4847
   4   1.0000     -11.218501      -305.2709
   5   1.0000     -11.217611      -305.2467
   6   1.0000     -11.212898      -305.1185
   7   1.0000      -1.234819       -33.6011
   8   1.0000      -1.083997       -29.4971
   9   1.0000      -1.018090       -27.7036
  10   1.0000      -0.934765       -25.4362
  11   1.0000      -0.867408       -23.6034
  12   1.0000      -0.792612       -21.5681
  13   1.0000      -0.754162       -20.5218
  14   1.0000      -0.669132       -18.2080
  15   1.0000      -0.653060       -17.7707
  16   1.0000      -0.618356       -16.8263
  17   1.0000      -0.616363       -16.7721
  18   1.0000      -0.595100       -16.1935
  19   1.0000      -0.562875       -15.3166
  20   1.0000      -0.545709       -14.8495
  21   1.0000      -0.516963       -14.0673
  22   1.0000      -0.496527       -13.5112
  23   1.0000      -0.478518       -13.0211
  24   1.0000      -0.469223       -12.7682
  25   1.0000      -0.429173       -11.6784
  26   1.0000      -0.419247       -11.4083
  27   1.0000      -0.355760        -9.6807
  28   0.0000       0.025238         0.6868
  29   0.0000       0.030601         0.8327
  30   0.0000       0.032983         0.8975
  31   0.0000       0.033776         0.9191
  32   0.0000       0.043448         1.1823

                 SPIN DOWN ORBITALS
  NO   OCC          E(Eh)            E(eV)
   0   1.0000     -15.544293      -422.9817
   1   1.0000     -11.251775      -306.1764
   2   1.0000     -11.248675      -306.0920
   3   1.0000     -11.226437      -305.4869
   4   1.0000     -11.218399      -305.2682
   5   1.0000     -11.217594      -305.2463
   6   1.0000     -11.212817      -305.1162
   7   1.0000      -1.161962       -31.6186
   8   1.0000      -1.080539       -29.4030
   9   1.0000      -1.015050       -27.6209
  10   1.0000      -0.932759       -25.3817
  11   1.0000      -0.848923       -23.1004
  12   1.0000      -0.769224       -20.9317
  13   1.0000      -0.753380       -20.5005
  14   1.0000      -0.649289       -17.6681
  15   1.0000      -0.624809       -17.0019
  16   1.0000      -0.612929       -16.6786
  17   1.0000      -0.601419       -16.3655
  18   1.0000      -0.580310       -15.7910
  19   1.0000      -0.555965       -15.1286
  20   1.0000      -0.538474       -14.6526
  21   1.0000      -0.515695       -14.0328
  22   1.0000      -0.489312       -13.3149
  23   1.0000      -0.475765       -12.9462
  24   1.0000      -0.467755       -12.7283
  25   1.0000      -0.396722       -10.7954
  26   1.0000      -0.355418        -9.6714
  27   0.0000       0.025411         0.6915
  28   0.0000       0.030619         0.8332
  29   0.0000       0.032930         0.8961
  30   0.0000       0.033754         0.9185
  31   0.0000       0.043357         1.1798

MULLIKEN ATOMIC CHARGES AND SPIN POPULATIONS
--------------------------------------------
   0 C :   -0.860711   -0.118738
   1 N :   -0.498029    1.039596
   2 H :    0.391294    0.004835
   3 H :    0.275774    0.058192
   4 H :    0.260015    0.054820
   5 C :   -0.039168   -0.176705
   6 C :   -0.497592    0.010641
   7 H :    0.267431    0.076299
   8 H :    0.182438    0.065090
   9 C :   -0.203882   -0.002373
  10 H :    0.223185   -0.002796
  11 H :    0.304804   -0.005600
  12 C :   -0.576055   -0.004142
  13 H :    0.263814   -0.000789
  14 H :    0.309131   -0.002782
  15 C :   -0.864032    0.004511
  16 H :    0.353039   -0.000163
  17 H :    0.298429   -0.000193
  18 H :    0.410115    0.000299
Sum of atomic charges         :    0.0000000

LOEWDIN ATOMIC CHARGES AND SPIN POPULATIONS
-------------------------------------------
   0 C :    0.674216    0.141713
   1 N :    0.684973    0.616736
   2 H :   -0.328497    0.002555
   3 H :   -0.308112    0.023596
   4 H :   -0.309185    0.022058
   5 C :    0.247957    0.141391
   6 C :    0.483674    0.002962
   7 H :   -0.290270    0.024938
   8 H :   -0.292261    0.020984
   9 C :    0.457832    0.001285
  10 H :   -0.278838   -0.000592
  11 H :   -0.267446   -0.000171
  12 C :    0.356791   -0.000868
  13 H :   -0.297736    0.000161
  14 H :   -0.294477    0.001725
  15 C :    0.795010    0.000991
  16 H :   -0.359028    0.000473
  17 H :   -0.354973    0.000474
  18 H :   -0.319629   -0.000413

  Mayer bond orders larger than 0.100000
B(  0-C ,  1-N ) :   1.0590 B(  0-C ,  2-H ) :   0.8836 B(  0-C ,  3-H ) :   0.9191
B(  0-C ,  4-H ) :   0.9240 B(  1-N ,  5-C ) :   0.8061 B(  5-C ,  6-C ) :   0.9686
B(  5-C ,  7-H ) :   0.9101 B(  5-C ,  8-H ) :   0.9367 B(  6-C ,  9-C ) :   0.9325
B(  6-C , 10-H ) :   0.8875 B(  6-C , 11-H ) :   0.9040 B(  9-C , 12-C ) :   0.9540
B(  9-C , 13-H ) :   0.8758 B(  9-C , 14-H ) :   0.8306 B(  9-C , 15-C ) :  -0.1939
B( 12-C , 15-C ) :   1.9043 B( 12-C , 18-H ) :   0.8052 B( 15-C , 16-H ) :   0.9479
B( 15-C , 17-H ) :   0.9403

MP2 TOTAL ENERGY:     -289.975358842 Eh
FINAL SINGLE POINT ENERGY      -289.975358842220

DIPOLE MOMENT
-------------
                                X             Y             Z
Electronic contribution:     -0.94226      -0.64863      -1.46519
Nuclear contribution   :      1.41253       0.98633       1.87016
                        -----------------------------------------
Total Dipole Moment    :      0.47027       0.33769       0.40497
                        -----------------------------------------
Magnitude (a.u.)       :      0.70653
Magnitude (Debye)      :      1.79586

Rotational constants in cm-1:     0.315553     0.031312     0.030337
Rotational constants in MHz :  9460.034990   938.699038   909.466148

                             ****ORCA TERMINATED NORMALLY****
TOTAL RUN TIME: 0 days 0 hours 41 minutes 36 seconds 231 msec
