                         Program Version 4.2.1 -  RELEASE  -
|  1> %pal
|  2>  nprocs 32
|  3> end
|  4> !RI-MP2 aug-cc-pVQZ aug-cc-pVQZ/C TightSCF
|  5> %maxcore 4500
|  6> *xyzfile 0 2  04_58R2.xyz
|  7>
|  8>
|  9>                          ****END OF INPUT****

CARTESIAN COORDINATES (ANGSTROEM)
---------------------------------
  C     -2.892230    0.927183    0.000029
  C     -1.874121   -0.107379    0.000028
  H     -3.925772    0.614538    0.000099
  H     -2.645818    1.981184   -0.000045
  O     -2.147065   -1.302134    0.000067
  N     -0.578950    0.325474   -0.000042
  H     -0.340357    1.305841   -0.000047
  C      0.505888   -0.614717   -0.000036
  C      1.811387    0.129123   -0.000018
  H      0.470982   -1.272607    0.873769
  H      0.471006   -1.272598   -0.873850
  O      1.922221    1.325940   -0.000011
  O      2.856481   -0.707085   -0.000012
  H      3.663966   -0.173706   -0.000002

 Total Charge           Charge          ....    0
 Multiplicity           Mult            ....    2
 Number of Electrons    NEL             ....   61
 Basis Dimension        Dim             ....  916

ORBITAL ENERGIES
----------------
                 SPIN UP ORBITALS
  NO   OCC          E(Eh)            E(eV)
   0   1.0000     -20.629378      -561.3539
   1   1.0000     -20.567746      -559.6768
   2   1.0000     -20.530992      -558.6767
   3   1.0000     -15.588441      -424.1830
   4   1.0000     -11.404785      -310.3400
   5   1.0000     -11.351124      -308.8798
   6   1.0000     -11.292533      -307.2854
   7   1.0000     -11.268922      -306.6430
   8   1.0000      -1.490066       -40.5468
   9   1.0000      -1.396735       -38.0071
  10   1.0000      -1.385947       -37.7135
  11   1.0000      -1.245890       -33.9024
  12   1.0000      -1.056278       -28.7428
  13   1.0000      -0.990806       -26.9612
  14   1.0000      -0.844997       -22.9935
  15   1.0000      -0.806071       -21.9343
  16   1.0000      -0.730488       -19.8776
  17   1.0000      -0.723745       -19.6941
  18   1.0000      -0.686448       -18.6792
  19   1.0000      -0.676583       -18.4108
  20   1.0000      -0.667269       -18.1573
  21   1.0000      -0.625031       -17.0080
  22   1.0000      -0.606694       -16.5090
  23   1.0000      -0.590563       -16.0700
  24   1.0000      -0.585236       -15.9251
  25   1.0000      -0.567617       -15.4456
  26   1.0000      -0.505633       -13.7590
  27   1.0000      -0.479606       -13.0508
  28   1.0000      -0.449031       -12.2187
  29   1.0000      -0.432163       -11.7597
  30   1.0000      -0.397343       -10.8123
  31   0.0000       0.021932         0.5968
  32   0.0000       0.025952         0.7062
  33   0.0000       0.039751         1.0817
  34   0.0000       0.041162         1.1201
  35   0.0000       0.042501         1.1565

                 SPIN DOWN ORBITALS
  NO   OCC          E(Eh)            E(eV)
   0   1.0000     -20.629370      -561.3537
   1   1.0000     -20.567778      -559.6777
   2   1.0000     -20.521401      -558.4157
   3   1.0000     -15.587525      -424.1581
   4   1.0000     -11.404763      -310.3394
   5   1.0000     -11.356324      -309.0213
   6   1.0000     -11.292652      -307.2887
   7   1.0000     -11.247113      -306.0495
   8   1.0000      -1.490066       -40.5467
   9   1.0000      -1.387389       -37.7528
  10   1.0000      -1.379201       -37.5300
  11   1.0000      -1.239601       -33.7312
  12   1.0000      -1.035427       -28.1754
  13   1.0000      -0.941652       -25.6237
  14   1.0000      -0.838991       -22.8301
  15   1.0000      -0.803392       -21.8614
  16   1.0000      -0.728933       -19.8353
  17   1.0000      -0.717091       -19.5130
  18   1.0000      -0.684933       -18.6380
  19   1.0000      -0.670017       -18.2321
  20   1.0000      -0.662412       -18.0251
  21   1.0000      -0.615756       -16.7556
  22   1.0000      -0.601249       -16.3608
  23   1.0000      -0.584473       -15.9043
  24   1.0000      -0.579190       -15.7606
  25   1.0000      -0.530788       -14.4435
  26   1.0000      -0.505262       -13.7489
  27   1.0000      -0.479304       -13.0425
  28   1.0000      -0.436757       -11.8848
  29   1.0000      -0.384076       -10.4512
  30   0.0000       0.022103         0.6014
  31   0.0000       0.026365         0.7174
  32   0.0000       0.037233         1.0132
  33   0.0000       0.039858         1.0846
  34   0.0000       0.042530         1.1573

MULLIKEN ATOMIC CHARGES AND SPIN POPULATIONS
--------------------------------------------
   0 C :   -0.781522    1.116610
   1 C :    0.772085   -0.228655
   2 H :    0.324240   -0.074809
   3 H :    0.438355   -0.058593
   4 O :   -0.726308    0.218453
   5 N :   -0.549823    0.028138
   6 H :    0.341089   -0.001101
   7 C :   -0.373173   -0.002561
   8 C :    1.103173    0.001252
   9 H :    0.301367    0.000856
  10 H :    0.301372    0.000857
  11 O :   -0.806731   -0.000595
  12 O :   -0.690933    0.000233
  13 H :    0.346808   -0.000084
Sum of atomic charges         :   -0.0000000

LOEWDIN ATOMIC CHARGES AND SPIN POPULATIONS
-------------------------------------------
   0 C :    0.813304    0.425321
   1 C :   -0.893270    0.131249
   2 H :   -0.358948    0.144125
   3 H :   -0.344096    0.148638
   4 O :    0.686533    0.142861
   5 N :    0.768663    0.007566
   6 H :   -0.575457    0.001712
   7 C :    0.282376   -0.000609
   8 C :   -1.010250   -0.000146
   9 H :   -0.287871   -0.000199
  10 H :   -0.287865   -0.000198
  11 O :    0.741292   -0.000564
  12 O :    1.266313    0.000238
  13 H :   -0.800723    0.000004

  Mayer bond orders larger than 0.100000
B(  0-C ,  1-C ) :   1.0676 B(  0-C ,  2-H ) :   0.9730 B(  0-C ,  3-H ) :   0.8182
B(  0-C ,  4-O ) :   0.1449 B(  1-C ,  4-O ) :   1.2173 B(  1-C ,  5-N ) :   1.1453
B(  4-O ,  5-N ) :   0.1582 B(  5-N ,  6-H ) :   0.8828 B(  5-N ,  7-C ) :   0.8063
B(  7-C ,  8-C ) :   1.1889 B(  7-C ,  9-H ) :   0.8875 B(  7-C , 10-H ) :   0.8875
B(  7-C , 11-O ) :   0.1217 B(  7-C , 12-O ) :   0.1334 B(  8-C , 11-O ) :   1.3416
B(  8-C , 12-O ) :   0.8037 B( 12-O , 13-H ) :   0.9003

MP2 TOTAL ENERGY:     -435.837068070 Eh
FINAL SINGLE POINT ENERGY      -435.837068069908

DIPOLE MOMENT
-------------
                                X             Y             Z
Electronic contribution:      2.83982      -0.39565       0.00004
Nuclear contribution   :     -2.23795       1.15829      -0.00007
                        -----------------------------------------
Total Dipole Moment    :      0.60188       0.76264      -0.00004
                        -----------------------------------------
Magnitude (a.u.)       :      0.97153
Magnitude (Debye)      :      2.46943

Rotational constants in cm-1:     0.186112     0.034286     0.029106
Rotational constants in MHz :  5579.483186  1027.875128   872.587237

                             ****ORCA TERMINATED NORMALLY****
TOTAL RUN TIME: 0 days 0 hours 35 minutes 29 seconds 371 msec
