                         Program Version 4.2.1 -  RELEASE  -
|  1> %pal
|  2>  nprocs 32
|  3> end
|  4> !RI-MP2 aug-cc-pVQZ aug-cc-pVQZ/C TightSCF
|  5> %maxcore 4500
|  6> *xyzfile 0 1  03_40P2.xyz
|  7>
|  8>
|  9>                          ****END OF INPUT****

CARTESIAN COORDINATES (ANGSTROEM)
---------------------------------
  C      0.220867    0.028630   -0.016066
  C     -1.202930   -0.524757   -0.018620
  C     -2.007949    0.680427   -0.548871
  C     -1.294186    1.911104    0.013154
  C      0.193912    1.537900   -0.062208
  C      1.303884   -0.726606    0.003549
  C     -1.622428   -0.853486    1.423080
  C     -1.380319   -1.759515   -0.897984
  H     -3.062760    0.623526   -0.271217
  H     -1.955612    0.692164   -1.642438
  H     -1.591279    2.081307    1.050542
  H     -1.525280    2.822407   -0.539398
  H      0.795728    1.983367    0.732017
  H      0.634495    1.873069   -1.006655
  H     -1.509460    0.006392    2.085814
  H     -1.008688   -1.661820    1.825396
  H     -2.668979   -1.168876    1.450899
  H     -1.039141   -1.567320   -1.917051
  H     -2.434237   -2.046929   -0.937374
  H     -0.823223   -2.614908   -0.508964
  Cl     2.918815   -0.057551    0.017296
  H      1.303475   -1.806197    0.008187

 Total Charge           Charge          ....    0
 Multiplicity           Mult            ....    1
 Number of Electrons    NEL             ....   78
 Basis Dimension        Dim             .... 1322

ORBITAL ENERGIES
----------------

  NO   OCC          E(Eh)            E(eV)
   0   2.0000    -104.826019     -2852.4610
   1   2.0000     -11.272584      -306.7426
   2   2.0000     -11.244483      -305.9779
   3   2.0000     -11.241889      -305.9073
   4   2.0000     -11.227285      -305.5099
   5   2.0000     -11.223194      -305.3986
   6   2.0000     -11.222134      -305.3698
   7   2.0000     -11.218757      -305.2779
   8   2.0000     -11.217950      -305.2559
   9   2.0000     -10.551293      -287.1153
  10   2.0000      -8.018421      -218.1923
  11   2.0000      -8.016776      -218.1476
  12   2.0000      -8.016736      -218.1465
  13   2.0000      -1.169063       -31.8118
  14   2.0000      -1.122371       -30.5413
  15   2.0000      -1.039674       -28.2910
  16   2.0000      -1.000117       -27.2146
  17   2.0000      -0.939427       -25.5631
  18   2.0000      -0.911897       -24.8140
  19   2.0000      -0.846859       -23.0442
  20   2.0000      -0.777064       -21.1450
  21   2.0000      -0.705383       -19.1944
  22   2.0000      -0.661569       -18.0022
  23   2.0000      -0.651177       -17.7194
  24   2.0000      -0.610696       -16.6179
  25   2.0000      -0.595556       -16.2059
  26   2.0000      -0.573327       -15.6010
  27   2.0000      -0.561364       -15.2755
  28   2.0000      -0.551798       -15.0152
  29   2.0000      -0.531907       -14.4739
  30   2.0000      -0.522588       -14.2203
  31   2.0000      -0.508977       -13.8500
  32   2.0000      -0.483879       -13.1670
  33   2.0000      -0.481991       -13.1156
  34   2.0000      -0.461737       -12.5645
  35   2.0000      -0.460900       -12.5417
  36   2.0000      -0.449896       -12.2423
  37   2.0000      -0.437891       -11.9156
  38   2.0000      -0.341800        -9.3009
  39   0.0000       0.024279         0.6607
  40   0.0000       0.028140         0.7657
  41   0.0000       0.030822         0.8387
  42   0.0000       0.032220         0.8768
  43   0.0000       0.044351         1.2069

MULLIKEN ATOMIC CHARGES
-----------------------
   0 C :    0.422637
   1 C :    1.451956
   2 C :   -0.764616
   3 C :   -0.553334
   4 C :   -0.519093
   5 C :   -0.550543
   6 C :   -1.114924
   7 C :   -1.076153
   8 H :    0.288084
   9 H :    0.214350
  10 H :    0.198554
  11 H :    0.292042
  12 H :    0.244316
  13 H :    0.166927
  14 H :    0.243606
  15 H :    0.247490
  16 H :    0.278808
  17 H :    0.237490
  18 H :    0.228671
  19 H :    0.181148
  20 Cl:   -0.473452
  21 H :    0.356035
Sum of atomic charges:    0.0000000

LOEWDIN ATOMIC CHARGES
----------------------
   0 C :   -0.206541
   1 C :   -0.318495
   2 C :    0.515198
   3 C :    0.546307
   4 C :    0.477289
   5 C :   -0.350523
   6 C :    0.924917
   7 C :    0.910746
   8 H :   -0.244504
   9 H :   -0.257947
  10 H :   -0.269826
  11 H :   -0.249541
  12 H :   -0.275920
  13 H :   -0.270343
  14 H :   -0.272852
  15 H :   -0.267778
  16 H :   -0.261814
  17 H :   -0.265120
  18 H :   -0.262066
  19 H :   -0.283610
  20 Cl:    1.143205
  21 H :   -0.460785

  Mayer bond orders larger than 0.100000
B(  0-C ,  1-C ) :   0.6265 B(  0-C ,  4-C ) :   0.6188 B(  0-C ,  5-C ) :   1.4399
B(  0-C , 20-Cl) :  -0.1824 B(  1-C ,  2-C ) :   0.4270 B(  1-C ,  3-C ) :  -0.1084
B(  1-C ,  5-C ) :  -0.1081 B(  1-C ,  6-C ) :   0.3587 B(  1-C ,  7-C ) :   0.2518
B(  1-C , 14-H ) :  -0.1366 B(  1-C , 15-H ) :  -0.1229 B(  1-C , 17-H ) :  -0.1341
B(  1-C , 18-H ) :  -0.1270 B(  1-C , 19-H ) :  -0.1961 B(  2-C ,  3-C ) :   1.0198
B(  2-C ,  6-C ) :   0.1032 B(  2-C ,  7-C ) :   0.1147 B(  2-C ,  8-H ) :   0.9428
B(  2-C ,  9-H ) :   1.0180 B(  3-C ,  4-C ) :   1.0526 B(  3-C , 10-H ) :   1.0023
B(  3-C , 11-H ) :   0.9334 B(  4-C , 12-H ) :   1.0102 B(  4-C , 13-H ) :   1.0340
B(  5-C , 20-Cl) :   0.7258 B(  5-C , 21-H ) :   0.8685 B(  6-C ,  7-C ) :   0.1113
B(  6-C , 14-H ) :   1.0811 B(  6-C , 15-H ) :   1.0583 B(  6-C , 16-H ) :   0.9807
B(  7-C , 17-H ) :   1.0781 B(  7-C , 18-H ) :   1.0434 B(  7-C , 19-H ) :   1.1342

MP2 TOTAL ENERGY:     -771.809911174 Eh
FINAL SINGLE POINT ENERGY      -771.809911174455

DIPOLE MOMENT
-------------
                                X             Y             Z
Electronic contribution:     18.32348       0.69775      -0.32593
Nuclear contribution   :    -19.30387      -0.71043       0.30890
                        -----------------------------------------
Total Dipole Moment    :     -0.98038      -0.01268      -0.01703
                        -----------------------------------------
Magnitude (a.u.)       :      0.98061
Magnitude (Debye)      :      2.49252

Rotational constants in cm-1:     0.072198     0.030164     0.024937
Rotational constants in MHz :  2164.448396   904.303014   747.584214

                             ****ORCA TERMINATED NORMALLY****
TOTAL RUN TIME: 0 days 1 hours 8 minutes 41 seconds 242 msec
