                         Program Version 4.2.1 -  RELEASE  -
|  1> %pal
|  2>  nprocs 32
|  3> end
|  4> !RI-MP2 aug-cc-pVQZ aug-cc-pVQZ/C TightSCF
|  5> %maxcore 4500
|  6> *xyzfile 0 1  03_28R1.xyz
|  7>
|  8>
|  9>                          ****END OF INPUT****

CARTESIAN COORDINATES (ANGSTROEM)
---------------------------------
  C      1.963488   -0.158892    0.000005
  C      0.564933   -0.766590   -0.000100
  C     -0.579649    0.213799   -0.000035
  O     -1.748986   -0.436848   -0.000075
  O     -0.494886    1.414709    0.000038
  C     -2.937728    0.377260   -0.000023
  C     -4.123842   -0.554665    0.000053
  C      2.274973    0.618102   -1.261739
  C      2.274875    0.617879    1.261909
  H      0.452659   -1.414285   -0.872937
  H     -2.918808    1.020195   -0.881493
  H     -2.918714    1.020226    0.881421
  H     -4.117731   -1.192322   -0.885114
  H     -5.048783    0.025311    0.000070
  H     -4.117663   -1.192266    0.885260
  H      2.098566   -0.001533   -2.142930
  H      3.322423    0.922468   -1.257765
  H      1.646869    1.506652   -1.319216
  H      2.098414   -0.001917    2.142976
  H      1.646757    1.506412    1.319502
  H      3.322321    0.922260    1.258065
  H      0.452606   -1.414470    0.872593
  F      2.823307   -1.290109   -0.000062

 Total Charge           Charge          ....    0
 Multiplicity           Mult            ....    1
 Number of Electrons    NEL             ....   80
 Basis Dimension        Dim             .... 1398

ORBITAL ENERGIES
----------------

  NO   OCC          E(Eh)            E(eV)
   0   2.0000     -26.260802      -714.5927
   1   2.0000     -20.603677      -560.6545
   2   2.0000     -20.548120      -559.1428
   3   2.0000     -11.385606      -309.8181
   4   2.0000     -11.318937      -308.0039
   5   2.0000     -11.293062      -307.2998
   6   2.0000     -11.247474      -306.0593
   7   2.0000     -11.228249      -305.5362
   8   2.0000     -11.215362      -305.1855
   9   2.0000     -11.215348      -305.1851
  10   2.0000      -1.571310       -42.7575
  11   2.0000      -1.470080       -40.0029
  12   2.0000      -1.367973       -37.2244
  13   2.0000      -1.104645       -30.0589
  14   2.0000      -1.052698       -28.6454
  15   2.0000      -0.989598       -26.9283
  16   2.0000      -0.950366       -25.8608
  17   2.0000      -0.877790       -23.8859
  18   2.0000      -0.808054       -21.9883
  19   2.0000      -0.774972       -21.0881
  20   2.0000      -0.709708       -19.3121
  21   2.0000      -0.695900       -18.9364
  22   2.0000      -0.688029       -18.7222
  23   2.0000      -0.671469       -18.2716
  24   2.0000      -0.661447       -17.9989
  25   2.0000      -0.635612       -17.2959
  26   2.0000      -0.620543       -16.8858
  27   2.0000      -0.587712       -15.9924
  28   2.0000      -0.570766       -15.5313
  29   2.0000      -0.570516       -15.5245
  30   2.0000      -0.556254       -15.1364
  31   2.0000      -0.542745       -14.7688
  32   2.0000      -0.537807       -14.6345
  33   2.0000      -0.530817       -14.4443
  34   2.0000      -0.518243       -14.1021
  35   2.0000      -0.508841       -13.8463
  36   2.0000      -0.481304       -13.0970
  37   2.0000      -0.478794       -13.0286
  38   2.0000      -0.466031       -12.6814
  39   2.0000      -0.454438       -12.3659
  40   0.0000       0.022303         0.6069
  41   0.0000       0.030763         0.8371
  42   0.0000       0.031263         0.8507
  43   0.0000       0.032606         0.8872
  44   0.0000       0.041327         1.1246

MULLIKEN ATOMIC CHARGES
-----------------------
   0 C :    1.297165
   1 C :   -0.538734
   2 C :    1.279132
   3 O :   -0.903599
   4 O :   -0.871958
   5 C :   -0.127465
   6 C :   -0.816371
   7 C :   -0.971734
   8 C :   -0.971791
   9 H :    0.303955
  10 H :    0.296370
  11 H :    0.296338
  12 H :    0.226153
  13 H :    0.271215
  14 H :    0.226155
  15 H :    0.221765
  16 H :    0.300449
  17 H :    0.246793
  18 H :    0.221784
  19 H :    0.246797
  20 H :    0.300454
  21 H :    0.303939
  22 F :   -0.836814
Sum of atomic charges:   -0.0000000

LOEWDIN ATOMIC CHARGES
----------------------
   0 C :   -0.851782
   1 C :    0.416253
   2 C :   -1.040761
   3 O :    0.877715
   4 O :    0.767824
   5 C :    0.158666
   6 C :    0.911718
   7 C :    0.885306
   8 C :    0.885305
   9 H :   -0.293330
  10 H :   -0.303581
  11 H :   -0.303596
  12 H :   -0.289224
  13 H :   -0.288543
  14 H :   -0.289223
  15 H :   -0.278805
  16 H :   -0.281037
  17 H :   -0.310561
  18 H :   -0.278805
  19 H :   -0.310560
  20 H :   -0.281037
  21 H :   -0.293332
  22 F :    0.791391

  Mayer bond orders larger than 0.100000
B(  0-C ,  1-C ) :   1.1770 B(  0-C ,  4-O ) :  -0.1064 B(  0-C ,  7-C ) :   0.7058
B(  0-C ,  8-C ) :   0.7058 B(  0-C , 22-F ) :  -0.2285 B(  1-C ,  2-C ) :   0.8802
B(  1-C ,  3-O ) :   0.1181 B(  1-C ,  4-O ) :   0.1383 B(  1-C ,  9-H ) :   0.8759
B(  1-C , 21-H ) :   0.8760 B(  1-C , 22-F ) :   0.1013 B(  2-C ,  3-O ) :   0.9268
B(  2-C ,  4-O ) :   1.2384 B(  2-C ,  5-C ) :  -0.1010 B(  3-O ,  4-O ) :   0.1433
B(  3-O ,  5-C ) :   0.8801 B(  5-C ,  6-C ) :   0.9348 B(  5-C , 10-H ) :   0.8606
B(  5-C , 11-H ) :   0.8606 B(  6-C , 12-H ) :   0.9518 B(  6-C , 13-H ) :   0.9955
B(  6-C , 14-H ) :   0.9518 B(  7-C , 15-H ) :   1.0031 B(  7-C , 16-H ) :   0.9578
B(  7-C , 17-H ) :   0.9830 B(  7-C , 22-F ) :   0.1207 B(  8-C , 18-H ) :   1.0031
B(  8-C , 19-H ) :   0.9830 B(  8-C , 20-H ) :   0.9578 B(  8-C , 22-F ) :   0.1207

MP2 TOTAL ENERGY:     -524.130937055 Eh
FINAL SINGLE POINT ENERGY      -524.130937055111

DIPOLE MOMENT
-------------
                                X             Y             Z
Electronic contribution:      6.05754      -3.02716      -0.00049
Nuclear contribution   :     -7.00113       3.03808       0.00050
                        -----------------------------------------
Total Dipole Moment    :     -0.94359       0.01092       0.00001
                        -----------------------------------------
Magnitude (a.u.)       :      0.94366
Magnitude (Debye)      :      2.39858

Rotational constants in cm-1:     0.103490     0.019517     0.018548
Rotational constants in MHz :  3102.560735   585.103123   556.057485

                             ****ORCA TERMINATED NORMALLY****
TOTAL RUN TIME: 0 days 1 hours 3 minutes 1 seconds 803 msec
