                         Program Version 4.2.1 -  RELEASE  -
|  1> %pal
|  2>  nprocs 32
|  3> end
|  4> !RI-MP2 aug-cc-pVQZ aug-cc-pVQZ/C TightSCF
|  5> %maxcore 4500
|  6> *xyzfile -1 1  07_7TS.xyz
|  7>
|  8>
|  9>                          ****END OF INPUT****

CARTESIAN COORDINATES (ANGSTROEM)
---------------------------------
  C     -1.135946    0.929262    0.299092
  C     -2.471279    0.185214    0.232725
  C     -2.191636   -1.238412    0.722038
  H     -3.160607    0.668733    0.927694
  C     -1.022685   -1.890133   -0.027472
  C      0.087685   -1.054690   -0.332315
  O     -0.207697    0.353973   -0.565767
  C     -1.246893    2.402360   -0.119373
  C      1.128728   -1.479783   -1.309273
  H      0.950771   -0.851869    0.825036
  O      2.495166   -1.218626   -0.885764
  H      0.995254   -0.971806   -2.269768
  H      1.062175   -2.556688   -1.447817
  P      2.904092   -0.090802    0.195536
  O      4.323481   -0.170104    0.558456
  O      1.818014   -0.271356    1.328121
  O      2.567192    1.323448   -0.510588
  H      1.615255    1.469781   -0.627455
  O     -1.082923   -3.111491   -0.208076
  O     -3.327959   -2.062769    0.609425
  H     -1.878460   -1.179681    1.770239
  H     -2.961986   -2.922715    0.339163
  O     -2.242766    3.069935   -0.074476
  O     -0.050811    2.905977   -0.471013
  H     -0.164535    3.852929   -0.626705
  O     -0.686996    0.955141    1.636130
  H      0.280904    0.825471    1.651491
  C     -3.063550    0.192223   -1.172364
  H     -3.957756   -0.429516   -1.188108
  H     -3.332255    1.202977   -1.479904
  H     -2.354304   -0.214853   -1.896848

 Total Charge           Charge          ....   -1
 Multiplicity           Mult            ....    1
 Number of Electrons    NEL             ....  156
 Basis Dimension        Dim             .... 2076

ORBITAL ENERGIES
----------------

  NO   OCC          E(Eh)            E(eV)
   0   2.0000     -79.948000     -2175.4957
   1   2.0000     -20.532795      -558.7258
   2   2.0000     -20.476032      -557.1812
   3   2.0000     -20.469700      -557.0089
   4   2.0000     -20.465446      -556.8931
   5   2.0000     -20.450863      -556.4963
   6   2.0000     -20.448202      -556.4239
   7   2.0000     -20.447920      -556.4162
   8   2.0000     -20.421633      -555.7009
   9   2.0000     -20.415758      -555.5410
  10   2.0000     -20.364411      -554.1438
  11   2.0000     -11.301698      -307.5348
  12   2.0000     -11.266516      -306.5775
  13   2.0000     -11.210953      -305.0655
  14   2.0000     -11.179974      -304.2225
  15   2.0000     -11.179853      -304.2193
  16   2.0000     -11.140748      -303.1552
  17   2.0000     -11.135843      -303.0217
  18   2.0000     -11.119853      -302.5866
  19   2.0000      -7.463945      -203.1043
  20   2.0000      -5.363046      -145.9359
  21   2.0000      -5.362645      -145.9250
  22   2.0000      -5.361421      -145.8917
  23   2.0000      -1.395443       -37.9719
  24   2.0000      -1.333947       -36.2986
  25   2.0000      -1.297905       -35.3178
  26   2.0000      -1.287695       -35.0400
  27   2.0000      -1.281001       -34.8578
  28   2.0000      -1.249107       -33.9899
  29   2.0000      -1.236875       -33.6571
  30   2.0000      -1.235139       -33.6098
  31   2.0000      -1.202349       -32.7176
  32   2.0000      -1.151701       -31.3394
  33   2.0000      -0.992473       -27.0066
  34   2.0000      -0.946127       -25.7454
  35   2.0000      -0.859883       -23.3986
  36   2.0000      -0.855211       -23.2715
  37   2.0000      -0.783090       -21.3090
  38   2.0000      -0.752036       -20.4639
  39   2.0000      -0.709180       -19.2978
  40   2.0000      -0.671030       -18.2597
  41   2.0000      -0.652877       -17.7657
  42   2.0000      -0.637097       -17.3363
  43   2.0000      -0.626191       -17.0395
  44   2.0000      -0.621471       -16.9111
  45   2.0000      -0.604422       -16.4472
  46   2.0000      -0.583310       -15.8727
  47   2.0000      -0.572998       -15.5921
  48   2.0000      -0.559618       -15.2280
  49   2.0000      -0.552443       -15.0327
  50   2.0000      -0.544868       -14.8266
  51   2.0000      -0.538859       -14.6631
  52   2.0000      -0.527983       -14.3671
  53   2.0000      -0.517556       -14.0834
  54   2.0000      -0.507650       -13.8139
  55   2.0000      -0.482194       -13.1212
  56   2.0000      -0.479458       -13.0467
  57   2.0000      -0.465177       -12.6581
  58   2.0000      -0.453089       -12.3292
  59   2.0000      -0.442048       -12.0287
  60   2.0000      -0.438341       -11.9279
  61   2.0000      -0.430815       -11.7231
  62   2.0000      -0.428781       -11.6677
  63   2.0000      -0.420865       -11.4523
  64   2.0000      -0.414938       -11.2910
  65   2.0000      -0.408195       -11.1076
  66   2.0000      -0.402798       -10.9607
  67   2.0000      -0.399189       -10.8625
  68   2.0000      -0.390911       -10.6372
  69   2.0000      -0.381940       -10.3931
  70   2.0000      -0.375960       -10.2304
  71   2.0000      -0.353256        -9.6126
  72   2.0000      -0.351093        -9.5537
  73   2.0000      -0.332062        -9.0359
  74   2.0000      -0.329056        -8.9541
  75   2.0000      -0.328617        -8.9421
  76   2.0000      -0.294706        -8.0194
  77   2.0000      -0.209942        -5.7128
  78   0.0000       0.091085         2.4785
  79   0.0000       0.098616         2.6835
  80   0.0000       0.102686         2.7942
  81   0.0000       0.106787         2.9058
  82   0.0000       0.112019         3.0482

MULLIKEN ATOMIC CHARGES
-----------------------
   0 C :    2.036216
   1 C :   -0.250906
   2 C :    0.768282
   3 H :    0.220168
   4 C :    1.137004
   5 C :    0.158193
   6 O :   -0.969660
   7 C :    1.232865
   8 C :   -0.019729
   9 H :    0.540531
  10 O :   -1.041155
  11 H :    0.171391
  12 H :    0.316865
  13 P :    2.625475
  14 O :   -1.413606
  15 O :   -1.326414
  16 O :   -1.003581
  17 H :    0.392524
  18 O :   -1.174565
  19 O :   -1.149967
  20 H :    0.358448
  21 H :    0.333966
  22 O :   -0.985542
  23 O :   -0.832627
  24 H :    0.296165
  25 O :   -1.345225
  26 H :    0.344074
  27 C :   -1.060795
  28 H :    0.233349
  29 H :    0.245163
  30 H :    0.163094
Sum of atomic charges:   -1.0000000

LOEWDIN ATOMIC CHARGES
----------------------
   0 C :   -1.048096
   1 C :    0.042923
   2 C :   -0.266511
   3 H :   -0.274394
   4 C :   -0.647885
   5 C :   -0.405670
   6 O :    0.893005
   7 C :   -1.051735
   8 C :    0.116999
   9 H :   -1.036272
  10 O :    0.688171
  11 H :   -0.311679
  12 H :   -0.349425
  13 P :   -0.979325
  14 O :    0.216906
  15 O :    0.972685
  16 O :    1.096313
  17 H :   -1.074856
  18 O :    0.772793
  19 O :    1.289153
  20 H :   -0.312827
  21 H :   -0.968635
  22 O :    0.736758
  23 O :    1.279909
  24 H :   -0.783299
  25 O :    1.319685
  26 H :   -0.967753
  27 C :    0.919744
  28 H :   -0.288048
  29 H :   -0.299928
  30 H :   -0.278707

  Mayer bond orders larger than 0.100000
B(  0-C ,  1-C ) :   0.7384 B(  0-C ,  6-O ) :   0.5823 B(  0-C ,  7-C ) :   1.0226
B(  0-C , 15-O ) :  -0.1331 B(  0-C , 22-O ) :   0.4347 B(  0-C , 23-O ) :  -0.1544
B(  0-C , 25-O ) :  -0.4857 B(  0-C , 26-H ) :  -0.1466 B(  1-C ,  2-C ) :   0.8437
B(  1-C ,  3-H ) :   0.9549 B(  1-C , 19-O ) :   0.2764 B(  1-C , 25-O ) :   0.1657
B(  1-C , 27-C ) :   0.5162 B(  1-C , 28-H ) :  -0.1588 B(  1-C , 30-H ) :  -0.1016
B(  2-C ,  4-C ) :   1.1775 B(  2-C ,  5-C ) :  -0.1757 B(  2-C , 18-O ) :   0.2554
B(  2-C , 19-O ) :  -0.2441 B(  2-C , 20-H ) :   0.9805 B(  4-C ,  5-C ) :   1.0227
B(  4-C , 18-O ) :  -0.3956 B(  4-C , 19-O ) :   0.3031 B(  5-C ,  6-O ) :   0.4937
B(  5-C ,  8-C ) :   0.5181 B(  5-C ,  9-H ) :   0.3184 B(  5-C , 11-H ) :  -0.1147
B(  5-C , 15-O ) :  -0.2027 B(  5-C , 18-O ) :   0.7695 B(  5-C , 25-O ) :   0.1324
B(  7-C , 22-O ) :   0.8175 B(  7-C , 23-O ) :   0.7639 B(  7-C , 25-O ) :   0.2555
B(  8-C , 10-O ) :   0.4240 B(  8-C , 11-H ) :   1.0596 B(  8-C , 12-H ) :   0.9612
B(  9-H , 15-O ) :   0.2186 B( 10-O , 11-H ) :   0.1009 B( 10-O , 13-P ) :   0.6760
B( 10-O , 14-O ) :  -0.2906 B( 13-P , 14-O ) :   1.0860 B( 13-P , 15-O ) :   0.8995
B( 13-P , 16-O ) :   0.6464 B( 14-O , 15-O ) :  -0.1638 B( 14-O , 16-O ) :  -0.1562
B( 16-O , 17-H ) :   0.8677 B( 18-O , 19-O ) :   0.1024 B( 19-O , 21-H ) :   0.8986
B( 22-O , 23-O ) :   0.1845 B( 23-O , 24-H ) :   0.9783 B( 23-O , 26-H ) :   0.1123
B( 25-O , 26-H ) :   0.8471 B( 27-C , 28-H ) :   1.0995 B( 27-C , 29-H ) :   1.0639
B( 27-C , 30-H ) :   1.0605

MP2 TOTAL ENERGY:    -1404.136351775 Eh
FINAL SINGLE POINT ENERGY     -1404.136351775006

DIPOLE MOMENT
-------------
                                X             Y             Z
Electronic contribution:     12.87121       2.41744       2.97042
Nuclear contribution   :    -15.19449      -0.96609      -4.07425
                        -----------------------------------------
Total Dipole Moment    :     -2.32328       1.45135      -1.10383
                        -----------------------------------------
Magnitude (a.u.)       :      2.95339
Magnitude (Debye)      :      7.50692

Rotational constants in cm-1:     0.017242     0.010231     0.007434
Rotational constants in MHz :   516.908639   306.719971   222.851464

                             ****ORCA TERMINATED NORMALLY****
TOTAL RUN TIME: 0 days 4 hours 58 minutes 23 seconds 500 msec
