                         Program Version 4.2.1 -  RELEASE  -
|  1> %pal
|  2>  nprocs 32
|  3> end
|  4> !RI-MP2 aug-cc-pVQZ aug-cc-pVQZ/C TightSCF
|  5> %maxcore 4500
|  6> *xyzfile 0 2  03_38R2.xyz
|  7>
|  8>
|  9>                          ****END OF INPUT****

CARTESIAN COORDINATES (ANGSTROEM)
---------------------------------
  O     -1.569981   -1.609179    0.074294
  C     -0.892660   -0.773506   -0.398183
  C     -0.219274    0.408377    0.286142
  C      1.214615    0.571721   -0.214245
  H     -0.217412    0.188278    1.361110
  C     -1.072742    1.649304    0.016877
  H      1.190604    0.753515   -1.292935
  C      2.103156   -0.627166    0.094953
  H      1.630312    1.472476    0.246851
  H      2.147690   -0.817978    1.170293
  H      3.122749   -0.461800   -0.257222
  H      1.729323   -1.533421   -0.388208
  H     -2.089446    1.526856    0.392923
  H     -1.125359    1.859694   -1.053346
  H     -0.627185    2.513436    0.512923

 Total Charge           Charge          ....    0
 Multiplicity           Mult            ....    2
 Number of Electrons    NEL             ....   47
 Basis Dimension        Dim             ....  894

ORBITAL ENERGIES
----------------
                 SPIN UP ORBITALS
  NO   OCC          E(Eh)            E(eV)
   0   1.0000     -20.589952      -560.2811
   1   1.0000     -11.329466      -308.2904
   2   1.0000     -11.263154      -306.4860
   3   1.0000     -11.236809      -305.7691
   4   1.0000     -11.234968      -305.7190
   5   1.0000     -11.223011      -305.3937
   6   1.0000      -1.440112       -39.1874
   7   1.0000      -1.116457       -30.3803
   8   1.0000      -1.009352       -27.4659
   9   1.0000      -0.902395       -24.5554
  10   1.0000      -0.850075       -23.1317
  11   1.0000      -0.757345       -20.6084
  12   1.0000      -0.682362       -18.5680
  13   1.0000      -0.656776       -17.8718
  14   1.0000      -0.616362       -16.7721
  15   1.0000      -0.596968       -16.2443
  16   1.0000      -0.595764       -16.2116
  17   1.0000      -0.561874       -15.2894
  18   1.0000      -0.541930       -14.7467
  19   1.0000      -0.530239       -14.4285
  20   1.0000      -0.501879       -13.6568
  21   1.0000      -0.490565       -13.3490
  22   1.0000      -0.482002       -13.1159
  23   1.0000      -0.350881        -9.5480
  24   0.0000       0.023774         0.6469
  25   0.0000       0.029283         0.7968
  26   0.0000       0.032430         0.8825
  27   0.0000       0.038742         1.0542
  28   0.0000       0.049072         1.3353

                 SPIN DOWN ORBITALS
  NO   OCC          E(Eh)            E(eV)
   0   1.0000     -20.578981      -559.9825
   1   1.0000     -11.310930      -307.7861
   2   1.0000     -11.257593      -306.3347
   3   1.0000     -11.237131      -305.7779
   4   1.0000     -11.235268      -305.7272
   5   1.0000     -11.222953      -305.3921
   6   1.0000      -1.412520       -38.4366
   7   1.0000      -1.105677       -30.0870
   8   1.0000      -1.006609       -27.3912
   9   1.0000      -0.890462       -24.2307
  10   1.0000      -0.834960       -22.7204
  11   1.0000      -0.719266       -19.5722
  12   1.0000      -0.667460       -18.1625
  13   1.0000      -0.619599       -16.8602
  14   1.0000      -0.605892       -16.4872
  15   1.0000      -0.593187       -16.1414
  16   1.0000      -0.562551       -15.3078
  17   1.0000      -0.537888       -14.6367
  18   1.0000      -0.529392       -14.4055
  19   1.0000      -0.520816       -14.1721
  20   1.0000      -0.496168       -13.5014
  21   1.0000      -0.485418       -13.2089
  22   1.0000      -0.469415       -12.7734
  23   0.0000       0.023103         0.6287
  24   0.0000       0.029302         0.7973
  25   0.0000       0.032663         0.8888
  26   0.0000       0.037304         1.0151
  27   0.0000       0.048650         1.3238

MULLIKEN ATOMIC CHARGES AND SPIN POPULATIONS
--------------------------------------------
   0 O :   -0.763233    0.160125
   1 C :    0.538957    0.774415
   2 C :    0.079672    0.035223
   3 C :   -0.400225   -0.016462
   4 H :    0.280534    0.051468
   5 C :   -0.895609   -0.002949
   6 H :    0.246942   -0.000152
   7 C :   -0.837256    0.000491
   8 H :    0.260794   -0.000670
   9 H :    0.227271   -0.001910
  10 H :    0.266084    0.000347
  11 H :    0.227396    0.000021
  12 H :    0.267608    0.005101
  13 H :    0.241693   -0.005222
  14 H :    0.259372    0.000175
Sum of atomic charges         :    0.0000000

LOEWDIN ATOMIC CHARGES AND SPIN POPULATIONS
-------------------------------------------
   0 O :    0.603365    0.260916
   1 C :   -0.339776    0.477625
   2 C :   -0.010636    0.152302
   3 C :    0.461753    0.024297
   4 H :   -0.308617    0.032111
   5 C :    0.897406    0.022913
   6 H :   -0.277399    0.006580
   7 C :    0.924387    0.006402
   8 H :   -0.272653    0.000877
   9 H :   -0.277580    0.001030
  10 H :   -0.276616    0.000295
  11 H :   -0.291028    0.005525
  12 H :   -0.276484    0.002256
  13 H :   -0.279821    0.004843
  14 H :   -0.276302    0.002029

  Mayer bond orders larger than 0.100000
B(  0-O ,  1-C ) :   1.6024 B(  1-C ,  2-C ) :   0.6863 B(  1-C ,  5-C ) :   0.1123
B(  2-C ,  3-C ) :   0.8280 B(  2-C ,  4-H ) :   0.8073 B(  2-C ,  5-C ) :   0.7630
B(  3-C ,  6-H ) :   0.8949 B(  3-C ,  7-C ) :   0.9216 B(  3-C ,  8-H ) :   0.8746
B(  5-C , 12-H ) :   1.0003 B(  5-C , 13-H ) :   0.9600 B(  5-C , 14-H ) :   0.9523
B(  7-C ,  9-H ) :   0.9463 B(  7-C , 10-H ) :   1.0028 B(  7-C , 11-H ) :   0.9426

MP2 TOTAL ENERGY:     -270.659108185 Eh
FINAL SINGLE POINT ENERGY      -270.659108185351

DIPOLE MOMENT
-------------
                                X             Y             Z
Electronic contribution:     -5.24101      -4.66187      -0.62406
Nuclear contribution   :      5.94836       5.67789       0.71917
                        -----------------------------------------
Total Dipole Moment    :      0.70735       1.01602       0.09511
                        -----------------------------------------
Magnitude (a.u.)       :      1.24165
Magnitude (Debye)      :      3.15601

Rotational constants in cm-1:     0.141998     0.097165     0.062103
Rotational constants in MHz :  4257.005753  2912.944125  1861.788000

                             ****ORCA TERMINATED NORMALLY****
TOTAL RUN TIME: 0 days 0 hours 36 minutes 27 seconds 810 msec
