                         Program Version 4.2.1 -  RELEASE  -
|  1> %pal
|  2>  nprocs 32
|  3> end
|  4> !RI-MP2 aug-cc-pVQZ aug-cc-pVQZ/C TightSCF
|  5> %maxcore 4500
|  6> *xyzfile 0 1  07_4R1.xyz
|  7>
|  8>
|  9>                          ****END OF INPUT****

CARTESIAN COORDINATES (ANGSTROEM)
---------------------------------
  C     -0.001119    0.941797    0.196925
  C     -1.212366    0.128355    0.049226
  C     -2.203545   -0.530409   -0.073518
  O      1.129230    0.394968   -0.438797
  C      1.570184   -0.816660    0.135794
  H     -3.083619   -1.116160   -0.184632
  H     -0.163424    1.920049   -0.257266
  H      2.465452   -1.115294   -0.406258
  H      1.818668   -0.681565    1.196397
  H      0.812801   -1.602074    0.044875
  H      0.197363    1.096801    1.266702

 Total Charge           Charge          ....    0
 Multiplicity           Mult            ....    1
 Number of Electrons    NEL             ....   38
 Basis Dimension        Dim             ....  676

ORBITAL ENERGIES
----------------

  NO   OCC          E(Eh)            E(eV)
   0   2.0000     -20.565212      -559.6079
   1   2.0000     -11.306798      -307.6736
   2   2.0000     -11.271293      -306.7075
   3   2.0000     -11.235919      -305.7449
   4   2.0000     -11.228687      -305.5481
   5   2.0000      -1.387678       -37.7606
   6   2.0000      -1.056837       -28.7580
   7   2.0000      -0.977308       -26.5939
   8   2.0000      -0.894500       -24.3406
   9   2.0000      -0.733797       -19.9676
  10   2.0000      -0.679834       -18.4992
  11   2.0000      -0.671801       -18.2806
  12   2.0000      -0.663887       -18.0653
  13   2.0000      -0.583912       -15.8890
  14   2.0000      -0.550341       -14.9755
  15   2.0000      -0.499206       -13.5841
  16   2.0000      -0.443517       -12.0687
  17   2.0000      -0.404280       -11.0010
  18   2.0000      -0.394364       -10.7312
  19   0.0000       0.025795         0.7019
  20   0.0000       0.030364         0.8262
  21   0.0000       0.036407         0.9907
  22   0.0000       0.040343         1.0978
  23   0.0000       0.053560         1.4575

MULLIKEN ATOMIC CHARGES
-----------------------
   0 C :    0.206359
   1 C :   -0.031432
   2 C :   -0.869545
   3 O :   -0.745659
   4 C :   -0.580973
   5 H :    0.411151
   6 H :    0.397072
   7 H :    0.396108
   8 H :    0.238108
   9 H :    0.284917
  10 H :    0.293893
Sum of atomic charges:    0.0000000

LOEWDIN ATOMIC CHARGES
----------------------
   0 C :    0.049449
   1 C :    0.068138
   2 C :    0.567494
   3 O :    0.856818
   4 C :    0.551252
   5 H :   -0.460102
   6 H :   -0.346159
   7 H :   -0.323408
   8 H :   -0.306424
   9 H :   -0.325958
  10 H :   -0.331099

  Mayer bond orders larger than 0.100000
B(  0-C ,  1-C ) :   0.7485 B(  0-C ,  2-C ) :  -0.1239 B(  0-C ,  3-O ) :   0.6769
B(  0-C ,  6-H ) :   0.8579 B(  0-C , 10-H ) :   0.9071 B(  1-C ,  2-C ) :   2.6531
B(  1-C ,  3-O ) :   0.1260 B(  1-C ,  5-H ) :  -0.1077 B(  2-C ,  5-H ) :   0.9893
B(  3-O ,  4-C ) :   0.8626 B(  4-C ,  7-H ) :   0.8664 B(  4-C ,  8-H ) :   0.9347
B(  4-C ,  9-H ) :   0.8875

MP2 TOTAL ENERGY:     -230.788424422 Eh
FINAL SINGLE POINT ENERGY      -230.788424422371

DIPOLE MOMENT
-------------
                                X             Y             Z
Electronic contribution:     -2.21215       1.30513      -1.23711
Nuclear contribution   :      2.10263      -1.51917       1.68299
                        -----------------------------------------
Total Dipole Moment    :     -0.10953      -0.21405       0.44588
                        -----------------------------------------
Magnitude (a.u.)       :      0.50658
Magnitude (Debye)      :      1.28762

Rotational constants in cm-1:     0.398668     0.110265     0.093162
Rotational constants in MHz : 11951.775844  3305.668046  2792.913669

                             ****ORCA TERMINATED NORMALLY****
TOTAL RUN TIME: 0 days 0 hours 5 minutes 54 seconds 366 msec
