                         Program Version 4.2.1 -  RELEASE  -
|  1> %pal
|  2>  nprocs 32
|  3> end
|  4> !RI-MP2 aug-cc-pVQZ aug-cc-pVQZ/C TightSCF
|  5> %maxcore 4500
|  6> *xyzfile -1 1  02_14P.xyz
|  7>
|  8>
|  9>                          ****END OF INPUT****

CARTESIAN COORDINATES (ANGSTROEM)
---------------------------------
  C      4.477615   -2.003505   -0.438977
  C      3.049245   -1.659029   -0.016938
  H      2.336549   -2.251542   -0.588361
  H      2.906513   -1.906918    1.043485
  H      4.683265   -3.063219   -0.255942
  H      4.567986   -1.851428   -1.521344
  C      2.756824   -0.171586   -0.222591
  C      1.335079    0.241865    0.162021
  C      3.770155    0.654989    0.580855
  C      3.450893    2.120456    0.538524
  C      2.252624    2.590606    0.216563
  C      1.073057    1.736735   -0.156173
  C      0.680235    2.014182   -1.614109
  H      1.441104    1.646849   -2.305852
  H     -0.260917    1.527263   -1.870564
  H      0.566352    3.090927   -1.774193
  C      0.259345   -0.608785   -0.522744
  C     -1.023353   -0.721341    0.118567
  O      0.518914   -1.117721   -1.611195
  C     -1.392827   -0.175754    1.413784
  C     -2.170467   -1.364153   -0.444176
  O     -2.362391   -1.933517   -1.511350
  O     -0.766860    0.532035    2.203805
  C     -3.332682   -1.208037    0.562641
  H     -3.689824   -2.213584    0.815144
  C     -4.502223   -0.421522   -0.046889
  C     -4.081950    0.985026   -0.484743
  H     -3.185472    0.900764   -1.102539
  H     -3.791320    1.568695    0.395248
  C     -5.152956    1.737210   -1.269327
  H     -6.039338    1.946210   -0.664899
  H     -4.769850    2.695438   -1.628984
  H     -5.472601    1.160297   -2.142152
  N     -2.691018   -0.584009    1.696134
  H     -3.191260   -0.062696    2.397504
  C     -5.700024   -0.402782    0.902951
  H     -5.959497   -1.416297    1.220131
  H     -5.484142    0.183747    1.802748
  H     -6.584788    0.034739    0.435443
  H     -4.776147   -0.985505   -0.945773
  C      5.198689    0.350035    0.124806
  H      5.912539    0.951086    0.699862
  H      5.307763    0.649027   -0.925023
  C      5.514775   -1.137062    0.275716
  H      6.520305   -1.354167   -0.100373
  H      5.517753   -1.389797    1.343418
  H      4.249225    2.811350    0.804080
  H      2.089582    3.666623    0.200726
  H      1.217800    0.141457    1.243322
  H      0.234962    2.038467    0.479027
  H      2.905477    0.048649   -1.286635
  H      3.695470    0.329947    1.630907

 Total Charge           Charge          ....   -1
 Multiplicity           Mult            ....    1
 Number of Electrons    NEL             ....  180
 Basis Dimension        Dim             .... 3208

ORBITAL ENERGIES
----------------

  NO   OCC          E(Eh)            E(eV)
   0   2.0000     -20.367901      -554.2388
   1   2.0000     -20.366803      -554.2089
   2   2.0000     -20.363618      -554.1222
   3   2.0000     -15.436144      -420.0388
   4   2.0000     -11.202230      -304.8282
   5   2.0000     -11.169337      -303.9331
   6   2.0000     -11.168691      -303.9155
   7   2.0000     -11.138499      -303.0940
   8   2.0000     -11.124587      -302.7154
   9   2.0000     -11.124439      -302.7114
  10   2.0000     -11.122665      -302.6631
  11   2.0000     -11.122465      -302.6577
  12   2.0000     -11.122380      -302.6553
  13   2.0000     -11.117753      -302.5294
  14   2.0000     -11.116088      -302.4841
  15   2.0000     -11.116076      -302.4838
  16   2.0000     -11.114255      -302.4343
  17   2.0000     -11.113539      -302.4148
  18   2.0000     -11.110018      -302.3190
  19   2.0000     -11.101665      -302.0917
  20   2.0000     -11.096641      -301.9549
  21   2.0000     -11.095279      -301.9179
  22   2.0000     -11.090750      -301.7947
  23   2.0000     -11.051444      -300.7251
  24   2.0000      -1.233934       -33.5770
  25   2.0000      -1.215064       -33.0636
  26   2.0000      -1.205822       -32.8121
  27   2.0000      -1.109083       -30.1797
  28   2.0000      -1.040229       -28.3061
  29   2.0000      -0.985851       -26.8264
  30   2.0000      -0.985307       -26.8116
  31   2.0000      -0.932757       -25.3816
  32   2.0000      -0.906933       -24.6789
  33   2.0000      -0.901359       -24.5272
  34   2.0000      -0.895421       -24.3656
  35   2.0000      -0.872861       -23.7518
  36   2.0000      -0.832006       -22.6400
  37   2.0000      -0.814773       -22.1711
  38   2.0000      -0.766282       -20.8516
  39   2.0000      -0.741427       -20.1753
  40   2.0000      -0.727421       -19.7941
  41   2.0000      -0.712837       -19.3973
  42   2.0000      -0.674954       -18.3664
  43   2.0000      -0.672612       -18.3027
  44   2.0000      -0.658139       -17.9089
  45   2.0000      -0.619343       -16.8532
  46   2.0000      -0.590934       -16.0801
  47   2.0000      -0.570665       -15.5286
  48   2.0000      -0.551183       -14.9985
  49   2.0000      -0.541216       -14.7272
  50   2.0000      -0.535220       -14.5641
  51   2.0000      -0.532346       -14.4859
  52   2.0000      -0.522142       -14.2082
  53   2.0000      -0.517116       -14.0715
  54   2.0000      -0.510877       -13.9017
  55   2.0000      -0.498472       -13.5641
  56   2.0000      -0.489218       -13.3123
  57   2.0000      -0.483136       -13.1468
  58   2.0000      -0.475821       -12.9477
  59   2.0000      -0.471570       -12.8321
  60   2.0000      -0.464498       -12.6396
  61   2.0000      -0.462026       -12.5724
  62   2.0000      -0.452707       -12.3188
  63   2.0000      -0.447127       -12.1670
  64   2.0000      -0.434067       -11.8116
  65   2.0000      -0.425763       -11.5856
  66   2.0000      -0.419987       -11.4284
  67   2.0000      -0.419454       -11.4139
  68   2.0000      -0.412014       -11.2115
  69   2.0000      -0.408221       -11.1083
  70   2.0000      -0.406709       -11.0671
  71   2.0000      -0.397292       -10.8109
  72   2.0000      -0.386745       -10.5239
  73   2.0000      -0.379477       -10.3261
  74   2.0000      -0.374872       -10.2008
  75   2.0000      -0.372703       -10.1418
  76   2.0000      -0.365491        -9.9455
  77   2.0000      -0.364062        -9.9066
  78   2.0000      -0.362768        -9.8714
  79   2.0000      -0.353881        -9.6296
  80   2.0000      -0.339371        -9.2347
  81   2.0000      -0.336747        -9.1634
  82   2.0000      -0.316345        -8.6082
  83   2.0000      -0.303377        -8.2553
  84   2.0000      -0.290151        -7.8954
  85   2.0000      -0.265645        -7.2286
  86   2.0000      -0.255663        -6.9569
  87   2.0000      -0.239176        -6.5083
  88   2.0000      -0.228152        -6.2083
  89   2.0000      -0.172481        -4.6934
  90   0.0000       0.081596         2.2204
  91   0.0000       0.082618         2.2481
  92   0.0000       0.088265         2.4018
  93   0.0000       0.091556         2.4914
  94   0.0000       0.096014         2.6127

MULLIKEN ATOMIC CHARGES
-----------------------
   0 C :   -0.556591
   1 C :   -0.603071
   2 H :    0.281017
   3 H :    0.129828
   4 H :    0.179269
   5 H :    0.072725
   6 C :    1.015226
   7 C :    0.047373
   8 C :    0.856888
   9 C :   -0.847976
  10 C :   -0.515432
  11 C :    0.022149
  12 C :   -1.343116
  13 H :    0.287335
  14 H :    0.303069
  15 H :    0.083457
  16 C :    2.513593
  17 C :   -1.810807
  18 O :   -1.429804
  19 C :    1.853847
  20 C :    1.432100
  21 O :   -1.263517
  22 O :   -1.315263
  23 C :    0.027745
  24 H :    0.267824
  25 C :    0.480537
  26 C :   -0.561058
  27 H :    0.328841
  28 H :    0.170750
  29 C :   -0.975921
  30 H :    0.211271
  31 H :    0.268998
  32 H :    0.209096
  33 N :   -1.022702
  34 H :    0.127424
  35 C :   -1.122067
  36 H :    0.237225
  37 H :    0.179872
  38 H :    0.248074
  39 H :    0.082314
  40 C :   -0.608386
  41 H :    0.168999
  42 H :    0.133810
  43 C :   -0.571645
  44 H :    0.208930
  45 H :    0.068546
  46 H :    0.067329
  47 H :    0.077961
  48 H :    0.217750
  49 H :    0.329065
  50 H :    0.089633
  51 H :    0.267486
Sum of atomic charges:   -1.0000000

LOEWDIN ATOMIC CHARGES
----------------------
   0 C :    0.548719
   1 C :    0.546860
   2 H :   -0.311461
   3 H :   -0.245296
   4 H :   -0.259485
   5 H :   -0.260208
   6 C :    0.101066
   7 C :    0.079831
   8 C :    0.099254
   9 C :    0.429559
  10 C :    0.417232
  11 C :    0.108863
  12 C :    0.926883
  13 H :   -0.271859
  14 H :   -0.293661
  15 H :   -0.275003
  16 C :   -0.723751
  17 C :   -0.145340
  18 O :    0.762154
  19 C :   -0.895619
  20 C :   -0.783345
  21 O :    0.698791
  22 O :    0.712835
  23 C :   -0.099084
  24 H :   -0.285426
  25 C :    0.107476
  26 C :    0.507919
  27 H :   -0.290214
  28 H :   -0.266743
  29 C :    0.935394
  30 H :   -0.299161
  31 H :   -0.279378
  32 H :   -0.274502
  33 N :    0.827682
  34 H :   -0.502616
  35 C :    0.925687
  36 H :   -0.273428
  37 H :   -0.275547
  38 H :   -0.291746
  39 H :   -0.289719
  40 C :    0.525744
  41 H :   -0.261886
  42 H :   -0.255125
  43 C :    0.537059
  44 H :   -0.262037
  45 H :   -0.265713
  46 H :   -0.311373
  47 H :   -0.305605
  48 H :   -0.379959
  49 H :   -0.320120
  50 H :   -0.277166
  51 H :   -0.267430

  Mayer bond orders larger than 0.100000
B(  0-C ,  1-C ) :   0.7117 B(  0-C ,  4-H ) :   1.0905 B(  0-C ,  5-H ) :   1.1657
B(  0-C ,  6-C ) :  -0.2953 B(  0-C , 43-C ) :   0.8534 B(  1-C ,  2-H ) :   0.9900
B(  1-C ,  3-H ) :   1.1782 B(  1-C ,  4-H ) :  -0.1425 B(  1-C ,  5-H ) :  -0.1147
B(  1-C ,  6-C ) :   0.3387 B(  1-C , 43-C ) :  -0.1326 B(  2-H ,  6-C ) :  -0.1143
B(  3-H ,  6-C ) :  -0.1398 B(  6-C ,  7-C ) :   1.2196 B(  6-C ,  8-C ) :   0.8038
B(  6-C , 10-C ) :   0.1604 B(  6-C , 11-C ) :   0.1165 B(  6-C , 16-C ) :  -0.1082
B(  6-C , 18-O ) :  -0.1175 B(  6-C , 40-C ) :  -0.2592 B(  6-C , 50-H ) :   0.8663
B(  7-C ,  8-C ) :  -0.1420 B(  7-C , 11-C ) :   0.4113 B(  7-C , 12-C ) :  -0.2087
B(  7-C , 16-C ) :   0.9128 B(  7-C , 18-O ) :   0.8033 B(  7-C , 48-H ) :   0.8639
B(  7-C , 50-H ) :   0.2157 B(  8-C ,  9-C ) :   0.2191 B(  8-C , 10-C ) :  -0.3637
B(  8-C , 11-C ) :   0.1456 B(  8-C , 16-C ) :   0.1154 B(  8-C , 17-C ) :  -0.1061
B(  8-C , 40-C ) :   0.3394 B(  8-C , 41-H ) :  -0.2149 B(  8-C , 42-H ) :  -0.1707
B(  8-C , 43-C ) :  -0.2037 B(  8-C , 46-H ) :  -0.1290 B(  8-C , 48-H ) :   0.1044
B(  8-C , 51-H ) :   0.9431 B(  9-C , 10-C ) :   1.3852 B(  9-C , 11-C ) :   0.1182
B(  9-C , 46-H ) :   1.3793 B(  9-C , 47-H ) :  -0.3412 B(  9-C , 51-H ) :  -0.2195
B( 10-C , 11-C ) :   1.0898 B( 10-C , 46-H ) :  -0.2539 B( 10-C , 47-H ) :   1.2839
B( 10-C , 49-H ) :  -0.2232 B( 11-C , 12-C ) :   0.5547 B( 11-C , 15-H ) :  -0.2164
B( 11-C , 17-C ) :  -0.2222 B( 11-C , 18-O ) :  -0.1342 B( 11-C , 49-H ) :   1.0345
B( 12-C , 13-H ) :   1.0551 B( 12-C , 14-H ) :   0.9505 B( 12-C , 15-H ) :   1.2619
B( 12-C , 18-O ) :   0.1020 B( 16-C , 18-O ) :  -0.8946 B( 16-C , 21-O ) :  -0.1845
B( 16-C , 48-H ) :  -0.1078 B( 17-C , 18-O ) :   0.8587 B( 17-C , 19-C ) :   1.1100
B( 17-C , 20-C ) :   0.8425 B( 17-C , 21-O ) :   1.0662 B( 17-C , 22-O ) :   0.7815
B( 17-C , 23-C ) :  -0.5501 B( 17-C , 33-N ) :  -0.1239 B( 18-O , 48-H ) :   0.1018
B( 19-C , 22-O ) :  -0.2121 B( 19-C , 33-N ) :   0.8235 B( 20-C , 21-O ) :  -0.4622
B( 20-C , 23-C ) :   1.6070 B( 21-O , 23-C ) :   0.1565 B( 22-O , 33-N ) :   0.1979
B( 23-C , 24-H ) :   0.8245 B( 23-C , 25-C ) :   0.7419 B( 23-C , 33-N ) :   0.7328
B( 25-C , 26-C ) :   0.6534 B( 25-C , 35-C ) :   0.3629 B( 25-C , 36-H ) :  -0.1058
B( 25-C , 37-H ) :  -0.1402 B( 25-C , 38-H ) :  -0.1974 B( 25-C , 39-H ) :   1.0893
B( 26-C , 27-H ) :   0.7608 B( 26-C , 28-H ) :   0.9931 B( 26-C , 29-C ) :   0.6418
B( 26-C , 30-H ) :  -0.1032 B( 26-C , 31-H ) :  -0.1398 B( 29-C , 30-H ) :   1.0733
B( 29-C , 31-H ) :   1.0206 B( 29-C , 32-H ) :   1.0455 B( 33-N , 34-H ) :   1.1159
B( 35-C , 36-H ) :   1.0771 B( 35-C , 37-H ) :   1.0754 B( 35-C , 38-H ) :   1.1005
B( 40-C , 41-H ) :   1.1711 B( 40-C , 42-H ) :   1.1682 B( 40-C , 43-C ) :   0.8253
B( 43-C , 44-H ) :   1.0347 B( 43-C , 45-H ) :   1.1723 B( 48-H , 50-H ) :   0.1122
B( 50-H , 51-H ) :   0.1016

MP2 TOTAL ENERGY:    -1057.762044575 Eh
FINAL SINGLE POINT ENERGY     -1057.762044575057

DIPOLE MOMENT
-------------
                                X             Y             Z
Electronic contribution:     -0.42224      -7.69590       3.55225
Nuclear contribution   :      0.90598       9.00668      -2.65128
                        -----------------------------------------
Total Dipole Moment    :      0.48374       1.31078       0.90097
                        -----------------------------------------
Magnitude (a.u.)       :      1.66249
Magnitude (Debye)      :      4.22573

Rotational constants in cm-1:     0.017566     0.004214     0.003961
Rotational constants in MHz :   526.608765   126.343566   118.748740

                             ****ORCA TERMINATED NORMALLY****
TOTAL RUN TIME: 0 days 15 hours 22 minutes 3 seconds 347 msec
