                         Program Version 4.2.1 -  RELEASE  -
|  1> %pal
|  2>  nprocs 32
|  3> end
|  4> !RI-MP2 aug-cc-pVQZ aug-cc-pVQZ/C TightSCF
|  5> %maxcore 4500
|  6> *xyzfile 0 1  10_75P.xyz
|  7>
|  8>
|  9>                          ****END OF INPUT****

CARTESIAN COORDINATES (ANGSTROEM)
---------------------------------
  C     -0.916771    1.072096   -0.183760
  C     -2.325535    1.105516    0.337380
  C      0.179636    0.696391    0.480191
  C      1.406863    0.311880   -0.311615
  C      1.528974   -1.205403   -0.721660
  C      2.777902    0.610567    0.303046
  H      1.367913    0.846238   -1.266282
  C     -3.028420   -0.242926   -0.049739
  C     -2.318915   -1.384448    0.641631
  C     -4.518777   -0.139054    0.226626
  C     -1.258159   -1.892471    0.005723
  C     -0.122324   -2.609123    0.579729
  C      1.134268   -2.270143    0.278472
  C      3.021834   -1.315713   -1.046748
  H      0.973340   -1.369232   -1.646281
  N      3.659125   -0.351258   -0.338803
  H      2.781725    0.480862    1.389770
  C      3.456918    1.943792   -0.019092
  C     -3.110712    2.279976   -0.184893
  C     -5.161001    0.945796   -0.639152
  H     -4.689398    0.112866    1.280478
  O     -5.203939   -1.352332   -0.075057
  C     -4.361523    2.213283   -0.620042
  H     -6.165137    1.145016   -0.241989
  O     -5.271902    0.512225   -1.986007
  C      0.250551    0.528399    1.971313
  C     -2.651205   -1.664801    2.079986
  H     -4.576367   -2.081357   -0.066978
  H     -5.668914   -0.366981   -1.951770
  H     -2.592741    3.234396   -0.193374
  H     -4.852967    3.099775   -1.004946
  C      5.016010    0.152135   -0.571217
  O      3.544930   -2.116292   -1.793068
  H     -3.679179   -2.020460    2.191527
  H     -2.570417   -0.760125    2.690067
  H     -1.988820   -2.413395    2.511396
  H      0.575495   -0.479424    2.236792
  H     -0.702085    0.717002    2.459335
  H      0.979581    1.222875    2.397467
  C      4.937975    1.575052    0.010472
  O      3.189506    2.972941    0.911730
  H      3.166855    2.258583   -1.030221
  H      5.177705    0.182720   -1.653478
  C      6.083290   -0.725621    0.059846
  H      5.261615    1.575611    1.055360
  H      5.559614    2.286208   -0.532564
  H      7.074927   -0.298689   -0.108049
  H      6.057788   -1.724032   -0.377221
  H      5.921733   -0.809132    1.137182
  H      2.302836    3.312311    0.762911
  H      1.946191   -2.794660    0.772317
  H     -0.290076   -3.377193    1.327180
  H     -1.113253   -1.566267   -1.019423
  H     -2.912868   -0.358645   -1.131405
  H     -2.312372    1.177692    1.428745
  H     -0.840634    1.182828   -1.264687

 Total Charge           Charge          ....    0
 Multiplicity           Mult            ....    1
 Number of Electrons    NEL             ....  200
 Basis Dimension        Dim             .... 3494

ORBITAL ENERGIES
----------------

  NO   OCC          E(Eh)            E(eV)
   0   2.0000     -20.572710      -559.8119
   1   2.0000     -20.568210      -559.6894
   2   2.0000     -20.549070      -559.1686
   3   2.0000     -20.516385      -558.2792
   4   2.0000     -15.579385      -423.9366
   5   2.0000     -11.341950      -308.6301
   6   2.0000     -11.295590      -307.3686
   7   2.0000     -11.287623      -307.1518
   8   2.0000     -11.284086      -307.0556
   9   2.0000     -11.274164      -306.7856
  10   2.0000     -11.272617      -306.7435
  11   2.0000     -11.257134      -306.3222
  12   2.0000     -11.255618      -306.2809
  13   2.0000     -11.252357      -306.1922
  14   2.0000     -11.250525      -306.1423
  15   2.0000     -11.245927      -306.0172
  16   2.0000     -11.245423      -306.0035
  17   2.0000     -11.244424      -305.9763
  18   2.0000     -11.242957      -305.9364
  19   2.0000     -11.238655      -305.8193
  20   2.0000     -11.236256      -305.7541
  21   2.0000     -11.235206      -305.7255
  22   2.0000     -11.233162      -305.6699
  23   2.0000     -11.232655      -305.6561
  24   2.0000     -11.231081      -305.6133
  25   2.0000     -11.229566      -305.5720
  26   2.0000     -11.216255      -305.2098
  27   2.0000      -1.386864       -37.7385
  28   2.0000      -1.386275       -37.7225
  29   2.0000      -1.379964       -37.5507
  30   2.0000      -1.350108       -36.7383
  31   2.0000      -1.280173       -34.8353
  32   2.0000      -1.165726       -31.7210
  33   2.0000      -1.133391       -30.8411
  34   2.0000      -1.114330       -30.3224
  35   2.0000      -1.088680       -29.6245
  36   2.0000      -1.067897       -29.0590
  37   2.0000      -1.047785       -28.5117
  38   2.0000      -1.011845       -27.5337
  39   2.0000      -1.010565       -27.4989
  40   2.0000      -0.992740       -27.0138
  41   2.0000      -0.961326       -26.1590
  42   2.0000      -0.944264       -25.6947
  43   2.0000      -0.939260       -25.5586
  44   2.0000      -0.885509       -24.0959
  45   2.0000      -0.863665       -23.5015
  46   2.0000      -0.851508       -23.1707
  47   2.0000      -0.830750       -22.6059
  48   2.0000      -0.816074       -22.2065
  49   2.0000      -0.779086       -21.2000
  50   2.0000      -0.753077       -20.4923
  51   2.0000      -0.739430       -20.1209
  52   2.0000      -0.731775       -19.9126
  53   2.0000      -0.722194       -19.6519
  54   2.0000      -0.719084       -19.5673
  55   2.0000      -0.701948       -19.1010
  56   2.0000      -0.691516       -18.8171
  57   2.0000      -0.682971       -18.5846
  58   2.0000      -0.678453       -18.4617
  59   2.0000      -0.668765       -18.1980
  60   2.0000      -0.659474       -17.9452
  61   2.0000      -0.645205       -17.5569
  62   2.0000      -0.632163       -17.2020
  63   2.0000      -0.626907       -17.0590
  64   2.0000      -0.618040       -16.8177
  65   2.0000      -0.615327       -16.7439
  66   2.0000      -0.611130       -16.6297
  67   2.0000      -0.599033       -16.3005
  68   2.0000      -0.596072       -16.2199
  69   2.0000      -0.590255       -16.0616
  70   2.0000      -0.579140       -15.7592
  71   2.0000      -0.576794       -15.6954
  72   2.0000      -0.571632       -15.5549
  73   2.0000      -0.569260       -15.4904
  74   2.0000      -0.560692       -15.2572
  75   2.0000      -0.557418       -15.1681
  76   2.0000      -0.551199       -14.9989
  77   2.0000      -0.547899       -14.9091
  78   2.0000      -0.542184       -14.7536
  79   2.0000      -0.539239       -14.6734
  80   2.0000      -0.533074       -14.5057
  81   2.0000      -0.521047       -14.1784
  82   2.0000      -0.516158       -14.0454
  83   2.0000      -0.510805       -13.8997
  84   2.0000      -0.505568       -13.7572
  85   2.0000      -0.504058       -13.7161
  86   2.0000      -0.490043       -13.3347
  87   2.0000      -0.488008       -13.2794
  88   2.0000      -0.480398       -13.0723
  89   2.0000      -0.472360       -12.8536
  90   2.0000      -0.466427       -12.6921
  91   2.0000      -0.456856       -12.4317
  92   2.0000      -0.449039       -12.2190
  93   2.0000      -0.433281       -11.7902
  94   2.0000      -0.419889       -11.4258
  95   2.0000      -0.406149       -11.0519
  96   2.0000      -0.377743       -10.2789
  97   2.0000      -0.375376       -10.2145
  98   2.0000      -0.352788        -9.5999
  99   2.0000      -0.314442        -8.5564
 100   0.0000       0.017037         0.4636
 101   0.0000       0.020982         0.5710
 102   0.0000       0.024164         0.6575
 103   0.0000       0.026566         0.7229
 104   0.0000       0.030071         0.8183

MULLIKEN ATOMIC CHARGES
-----------------------
   0 C :   -0.544185
   1 C :    0.771719
   2 C :    0.597677
   3 C :    0.124249
   4 C :   -0.516279
   5 C :    0.421019
   6 H :    0.175116
   7 C :    0.491989
   8 C :    1.369895
   9 C :    0.799012
  10 C :   -0.812666
  11 C :   -0.111166
  12 C :   -0.760891
  13 C :    2.170200
  14 H :    0.317125
  15 N :   -0.582934
  16 H :    0.148855
  17 C :    0.574211
  18 C :   -0.971677
  19 C :    0.515853
  20 H :    0.106731
  21 O :   -1.269481
  22 C :   -0.685907
  23 H :    0.274807
  24 O :   -1.120413
  25 C :   -0.978474
  26 C :   -1.164675
  27 H :    0.355092
  28 H :    0.352452
  29 H :    0.068976
  30 H :    0.236060
  31 C :   -0.178828
  32 O :   -1.249731
  33 H :    0.286161
  34 H :    0.206772
  35 H :    0.220993
  36 H :    0.232050
  37 H :    0.218931
  38 H :    0.158483
  39 C :   -0.590209
  40 O :   -1.194800
  41 H :    0.003133
  42 H :    0.268943
  43 C :   -1.050467
  44 H :    0.174903
  45 H :    0.361419
  46 H :    0.281938
  47 H :    0.269185
  48 H :    0.200681
  49 H :    0.345796
  50 H :    0.079695
  51 H :    0.156671
  52 H :    0.062367
  53 H :    0.054325
  54 H :    0.360576
  55 H :   -0.031278
Sum of atomic charges:   -0.0000000

LOEWDIN ATOMIC CHARGES
----------------------
   0 C :    0.402702
   1 C :    0.116434
   2 C :    0.037980
   3 C :    0.151372
   4 C :    0.126462
   5 C :   -0.014866
   6 H :   -0.310234
   7 C :    0.086597
   8 C :    0.001654
   9 C :   -0.214932
  10 C :    0.360319
  11 C :    0.402101
  12 C :    0.416763
  13 C :   -0.840241
  14 H :   -0.295509
  15 N :    0.474703
  16 H :   -0.284623
  17 C :   -0.179022
  18 C :    0.431370
  19 C :   -0.244384
  20 H :   -0.283793
  21 O :    1.342192
  22 C :    0.405683
  23 H :   -0.290653
  24 O :    1.298865
  25 C :    0.939001
  26 C :    0.934051
  27 H :   -0.798792
  28 H :   -0.850862
  29 H :   -0.300555
  30 H :   -0.307671
  31 C :    0.002563
  32 O :    0.729198
  33 H :   -0.277649
  34 H :   -0.279750
  35 H :   -0.299132
  36 H :   -0.282935
  37 H :   -0.315671
  38 H :   -0.270013
  39 C :    0.541156
  40 O :    1.320330
  41 H :   -0.269115
  42 H :   -0.262992
  43 C :    0.951860
  44 H :   -0.272657
  45 H :   -0.239171
  46 H :   -0.268321
  47 H :   -0.279743
  48 H :   -0.275901
  49 H :   -0.767746
  50 H :   -0.301170
  51 H :   -0.316952
  52 H :   -0.352649
  53 H :   -0.306544
  54 H :   -0.329993
  55 H :   -0.289119

  Mayer bond orders larger than 0.100000
B(  0-C ,  1-C ) :   0.3904 B(  0-C ,  2-C ) :   1.0116 B(  0-C ,  3-C ) :  -0.6699
B(  0-C ,  9-C ) :   0.1071 B(  0-C , 18-C ) :  -0.3222 B(  0-C , 55-H ) :   1.6062
B(  1-C ,  2-C ) :  -0.1707 B(  1-C ,  3-C ) :   0.1793 B(  1-C ,  7-C ) :   0.7073
B(  1-C ,  9-C ) :   0.1205 B(  1-C , 18-C ) :   0.6060 B(  1-C , 22-C ) :  -0.5968
B(  1-C , 24-O ) :   0.1084 B(  1-C , 37-H ) :  -0.1115 B(  1-C , 54-H ) :   0.8946
B(  1-C , 55-H ) :  -0.1964 B(  2-C ,  3-C ) :   0.4639 B(  2-C ,  4-C ) :   0.1255
B(  2-C ,  5-C ) :   0.1024 B(  2-C ,  6-H ) :  -0.2769 B(  2-C , 11-C ) :   0.1393
B(  2-C , 25-C ) :   0.1640 B(  2-C , 36-H ) :  -0.3173 B(  2-C , 38-H ) :  -0.1063
B(  2-C , 40-O ) :  -0.2174 B(  2-C , 55-H ) :  -0.3134 B(  3-C ,  4-C ) :   0.6810
B(  3-C ,  5-C ) :   1.2120 B(  3-C ,  6-H ) :   1.0340 B(  3-C , 12-C ) :   0.2019
B(  3-C , 14-H ) :  -0.1138 B(  3-C , 15-N ) :   0.3047 B(  3-C , 16-H ) :  -0.1482
B(  4-C ,  5-C ) :   0.1207 B(  4-C , 12-C ) :   0.9215 B(  4-C , 13-C ) :   1.0338
B(  4-C , 14-H ) :   0.9091 B(  4-C , 15-N ) :   0.1155 B(  4-C , 32-O ) :   0.7616
B(  4-C , 52-H ) :  -0.1301 B(  5-C , 13-C ) :  -0.1114 B(  5-C , 14-H ) :   0.1026
B(  5-C , 15-N ) :   0.4280 B(  5-C , 16-H ) :   1.1489 B(  5-C , 17-C ) :   0.2319
B(  5-C , 31-C ) :  -0.1400 B(  5-C , 39-C ) :  -0.2765 B(  5-C , 40-O ) :   0.2191
B(  5-C , 41-H ) :  -0.2470 B(  6-H , 16-H ) :   0.1732 B(  7-C ,  8-C ) :   0.5186
B(  7-C ,  9-C ) :   0.3842 B(  7-C , 10-C ) :  -0.4600 B(  7-C , 18-C ) :  -0.1735
B(  7-C , 20-H ) :  -0.3268 B(  7-C , 21-O ) :   0.3736 B(  7-C , 24-O ) :  -0.1305
B(  7-C , 53-H ) :   1.2287 B(  7-C , 55-H ) :   0.1003 B(  8-C , 10-C ) :   0.9573
B(  8-C , 11-C ) :  -0.3965 B(  8-C , 21-O ) :  -0.1417 B(  8-C , 26-C ) :   0.1159
B(  8-C , 33-H ) :  -0.1778 B(  8-C , 34-H ) :  -0.2086 B(  8-C , 35-H ) :  -0.2546
B(  8-C , 52-H ) :  -0.3226 B(  8-C , 53-H ) :  -0.1287 B(  9-C , 19-C ) :   0.9689
B(  9-C , 20-H ) :   1.3160 B(  9-C , 21-O ) :  -0.4337 B(  9-C , 22-C ) :   0.1282
B(  9-C , 23-H ) :  -0.1392 B(  9-C , 54-H ) :  -0.1646 B( 10-C , 11-C ) :   0.8290
B( 10-C , 12-C ) :  -0.3319 B( 10-C , 51-H ) :  -0.1465 B( 10-C , 52-H ) :   1.6627
B( 11-C , 12-C ) :   1.3310 B( 11-C , 50-H ) :  -0.2562 B( 11-C , 51-H ) :   1.2267
B( 11-C , 52-H ) :  -0.1064 B( 12-C , 13-C ) :  -0.1805 B( 12-C , 50-H ) :   1.2770
B( 12-C , 51-H ) :  -0.2194 B( 13-C , 15-N ) :   1.4150 B( 13-C , 32-O ) :  -1.0340
B( 15-N , 31-C ) :   0.4492 B( 15-N , 32-O ) :   0.9516 B( 15-N , 42-H ) :  -0.1154
B( 17-C , 31-C ) :  -0.1186 B( 17-C , 39-C ) :   1.0665 B( 17-C , 40-O ) :  -0.1407
B( 17-C , 41-H ) :   1.3321 B( 18-C , 22-C ) :   1.9106 B( 18-C , 29-H ) :   1.2735
B( 18-C , 30-H ) :  -0.1554 B( 18-C , 54-H ) :  -0.1653 B( 19-C , 21-O ) :   0.2076
B( 19-C , 22-C ) :   0.7191 B( 19-C , 23-H ) :   1.0530 B( 19-C , 24-O ) :   0.2222
B( 20-H , 22-C ) :   0.1008 B( 21-O , 27-H ) :   0.8773 B( 22-C , 23-H ) :  -0.1232
B( 22-C , 24-O ) :   0.2005 B( 22-C , 30-H ) :   1.1147 B( 24-O , 28-H ) :   0.8746
B( 24-O , 53-H ) :   0.1150 B( 25-C , 36-H ) :   1.1848 B( 25-C , 37-H ) :   1.0905
B( 25-C , 38-H ) :   1.1423 B( 26-C , 33-H ) :   1.1039 B( 26-C , 34-H ) :   1.1643
B( 26-C , 35-H ) :   1.1826 B( 31-C , 39-C ) :   0.9070 B( 31-C , 42-H ) :   1.0382
B( 31-C , 43-C ) :   0.5987 B( 31-C , 47-H ) :  -0.1122 B( 39-C , 40-O ) :   0.1163
B( 39-C , 43-C ) :   0.1110 B( 39-C , 44-H ) :   1.0506 B( 39-C , 45-H ) :   0.8584
B( 40-O , 41-H ) :   0.1395 B( 40-O , 49-H ) :   0.9350 B( 43-C , 46-H ) :   1.0249
B( 43-C , 47-H ) :   1.0535 B( 43-C , 48-H ) :   1.0077 B( 53-H , 54-H ) :   0.1276

MP2 TOTAL ENERGY:    -1209.434657185 Eh
FINAL SINGLE POINT ENERGY     -1209.434657184516

DIPOLE MOMENT
-------------
                                X             Y             Z
Electronic contribution:     -4.32707      -1.61010      -8.83575
Nuclear contribution   :      4.20086       2.44047      10.21602
                        -----------------------------------------
Total Dipole Moment    :     -0.12621       0.83038       1.38027
                        -----------------------------------------
Magnitude (a.u.)       :      1.61574
Magnitude (Debye)      :      4.10688

Rotational constants in cm-1:     0.013769     0.003430     0.003091
Rotational constants in MHz :   412.776406   102.843594    92.662659

                             ****ORCA TERMINATED NORMALLY****
TOTAL RUN TIME: 0 days 21 hours 58 minutes 33 seconds 679 msec
