                         Program Version 4.2.1 -  RELEASE  -
|  1> %pal
|  2>  nprocs 32
|  3> end
|  4> !RI-MP2 aug-cc-pVQZ aug-cc-pVQZ/C TightSCF
|  5> %maxcore 4500
|  6> *xyzfile 0 1  04_33R1.xyz
|  7>
|  8>
|  9>                          ****END OF INPUT****

CARTESIAN COORDINATES (ANGSTROEM)
---------------------------------
  H      3.116786   -0.788260    0.000560
  O      2.735639    0.093683    0.000440
  C      1.373199    0.017748    0.000224
  C      0.668712    1.215805    0.000100
  C     -0.716148    1.204908   -0.000127
  C     -1.376998   -0.007949   -0.000224
  C     -0.698956   -1.207093   -0.000104
  C      0.690067   -1.191393    0.000121
  H      1.238308   -2.127366    0.000215
  H     -1.285478    2.125134   -0.000227
  H      1.218927    2.147554    0.000183
  H     -1.250748   -2.137793   -0.000186
  F     -2.729130   -0.017877   -0.000445

 Total Charge           Charge          ....    0
 Multiplicity           Mult            ....    1
 Number of Electrons    NEL             ....   58
 Basis Dimension        Dim             ....  870

ORBITAL ENERGIES
----------------

  NO   OCC          E(Eh)            E(eV)
   0   2.0000     -26.300564      -715.6747
   1   2.0000     -20.594217      -560.3971
   2   2.0000     -11.318744      -307.9987
   3   2.0000     -11.307747      -307.6994
   4   2.0000     -11.250317      -306.1367
   5   2.0000     -11.248857      -306.0969
   6   2.0000     -11.247914      -306.0713
   7   2.0000     -11.242424      -305.9219
   8   2.0000      -1.618600       -44.0444
   9   2.0000      -1.413007       -38.4499
  10   2.0000      -1.166629       -31.7456
  11   2.0000      -1.040543       -28.3146
  12   2.0000      -1.016090       -27.6492
  13   2.0000      -0.874235       -23.7891
  14   2.0000      -0.842744       -22.9322
  15   2.0000      -0.751901       -20.4603
  16   2.0000      -0.743521       -20.2322
  17   2.0000      -0.707007       -19.2386
  18   2.0000      -0.689420       -18.7601
  19   2.0000      -0.643626       -17.5140
  20   2.0000      -0.626601       -17.0507
  21   2.0000      -0.610048       -16.6002
  22   2.0000      -0.599973       -16.3261
  23   2.0000      -0.584485       -15.9047
  24   2.0000      -0.559907       -15.2359
  25   2.0000      -0.509662       -13.8686
  26   2.0000      -0.493781       -13.4365
  27   2.0000      -0.359819        -9.7912
  28   2.0000      -0.321929        -8.7601
  29   0.0000       0.020875         0.5680
  30   0.0000       0.029812         0.8112
  31   0.0000       0.032650         0.8884
  32   0.0000       0.043228         1.1763
  33   0.0000       0.049670         1.3516

MULLIKEN ATOMIC CHARGES
-----------------------
   0 H :    0.354259
   1 O :   -0.789853
   2 C :    0.977765
   3 C :   -0.473411
   4 C :   -0.452783
   5 C :    0.892614
   6 C :   -0.444617
   7 C :   -0.588862
   8 H :    0.233605
   9 H :    0.352795
  10 H :    0.322648
  11 H :    0.390936
  12 F :   -0.775096
Sum of atomic charges:    0.0000000

LOEWDIN ATOMIC CHARGES
----------------------
   0 H :   -0.805283
   1 O :    1.272699
   2 C :   -0.445810
   3 C :    0.310597
   4 C :    0.290758
   5 C :   -0.695233
   6 C :    0.289801
   7 C :    0.318335
   8 H :   -0.321316
   9 H :   -0.326162
  10 H :   -0.322893
  11 H :   -0.326547
  12 F :    0.761053

  Mayer bond orders larger than 0.100000
B(  0-H ,  1-O ) :   0.8972 B(  1-O ,  3-C ) :   0.2705 B(  1-O ,  7-C ) :   0.2277
B(  2-C ,  3-C ) :   1.2657 B(  2-C ,  4-C ) :  -0.1434 B(  2-C ,  5-C ) :   0.1728
B(  2-C ,  6-C ) :  -0.1304 B(  2-C ,  7-C ) :   1.2940 B(  3-C ,  4-C ) :   1.2798
B(  3-C ,  5-C ) :  -0.1101 B(  3-C , 10-H ) :   0.9564 B(  4-C ,  5-C ) :   1.3143
B(  4-C ,  9-H ) :   0.9123 B(  5-C ,  6-C ) :   1.4087 B(  6-C ,  7-C ) :   1.2328
B(  6-C , 11-H ) :   0.8569 B(  7-C ,  8-H ) :   1.0684 B(  7-C , 11-H ) :  -0.1018

MP2 TOTAL ENERGY:     -406.125342469 Eh
FINAL SINGLE POINT ENERGY      -406.125342469325

DIPOLE MOMENT
-------------
                                X             Y             Z
Electronic contribution:     -4.97895       0.22042      -0.00082
Nuclear contribution   :      5.61260      -0.74003       0.00096
                        -----------------------------------------
Total Dipole Moment    :      0.63365      -0.51961       0.00014
                        -----------------------------------------
Magnitude (a.u.)       :      0.81945
Magnitude (Debye)      :      2.08288

Rotational constants in cm-1:     0.189716     0.048780     0.038803
Rotational constants in MHz :  5687.537655  1462.392584  1163.285880

                             ****ORCA TERMINATED NORMALLY****
TOTAL RUN TIME: 0 days 0 hours 15 minutes 58 seconds 774 msec
