                         Program Version 4.2.1 -  RELEASE  -
|  1> %pal
|  2>  nprocs 32
|  3> end
|  4> !RI-MP2 aug-cc-pVQZ aug-cc-pVQZ/C TightSCF MORead
|  5> %maxcore 4500
|  6> %moinp "05_39TS.gbw"
|  7> *xyzfile 1 1  05_39TS.xyz
|  8>
|  9>
| 10>                          ****END OF INPUT****

CARTESIAN COORDINATES (ANGSTROEM)
---------------------------------
  C     -1.160364    0.613105   -0.967050
  C     -1.385779   -0.695601    1.323210
  C     -2.905505   -0.616977    1.135290
  C     -3.376642    0.579042    0.312324
  C     -2.690882    0.557691   -1.051124
  H     -3.251262   -1.521604    0.634865
  H     -3.363425   -0.593579    2.126294
  H     -3.121790    1.505065    0.832774
  H     -2.995874   -0.349819   -1.572507
  H     -3.022072    1.408816   -1.649113
  N     -0.719525   -0.416108    0.018918
  O      0.404851   -0.970490   -0.175131
  C     -0.562760    0.257107   -2.325253
  H     -0.987800    0.926168   -3.073884
  H      0.519952    0.375483   -2.338602
  H     -0.806477   -0.768185   -2.604293
  C     -0.674305    2.009608   -0.547505
  H      0.406905    2.030692   -0.428459
  H     -0.938263    2.712312   -1.339084
  H     -1.131079    2.361800    0.374726
  C     -1.014697   -2.111883    1.758111
  H     -1.231479   -2.831885    0.968790
  H      0.036183   -2.196544    2.031042
  H     -1.614212   -2.371688    2.631019
  C     -0.879674    0.308652    2.370966
  H     -1.229892   -0.006933    3.354526
  H      0.211186    0.328464    2.399253
  H     -1.236084    1.321093    2.193921
  C      2.715500   -0.203016    0.409390
  H      2.802945   -0.597298    1.424296
  H      1.382666   -0.411008    0.261659
  C      2.797347    1.248743    0.267611
  C      2.538794    2.055177    1.380508
  C      3.105630    1.835888   -0.963345
  C      2.594326    3.433238    1.265127
  H      2.314894    1.600583    2.339022
  C      3.159722    3.213294   -1.070371
  H      3.314544    1.203506   -1.816093
  C      2.901953    4.012415    0.039935
  H      2.408870    4.057029    2.130151
  H      3.409496    3.670915   -2.019185
  O      3.232002   -0.933694   -0.564367
  C      3.715798   -2.313954   -0.312131
  H      2.949844    5.090554   -0.049433
  C      2.656787   -3.128841    0.412640
  H      1.715725   -3.123124   -0.136672
  H      3.003841   -4.159663    0.492138
  H      2.478844   -2.774028    1.429619
  C      5.003396   -2.198084    0.489280
  H      5.731538   -1.581542   -0.038556
  H      4.828232   -1.766405    1.477210
  H      5.433902   -3.189647    0.635320
  C      3.964757   -2.847103   -1.709409
  H      3.035425   -2.879805   -2.279151
  H      4.678579   -2.215241   -2.238635
  H      4.373010   -3.856876   -1.654104
  N     -4.828575    0.599136    0.185412
  C     -5.553508   -0.388112   -0.419601
  C     -7.046079   -0.182750   -0.454549
  H     -7.371904   -0.188475   -1.495028
  H     -7.523623   -1.028116    0.041425
  H     -7.373587    0.742916    0.018819
  O     -5.024289   -1.373303   -0.900652
  H     -5.324478    1.388947    0.562476

 Total Charge           Charge          ....    1
 Multiplicity           Mult            ....    1
 Number of Electrons    NEL             ....  206
 Basis Dimension        Dim             .... 3862

ORBITAL ENERGIES
----------------

  NO   OCC          E(Eh)            E(eV)
   0   2.0000     -20.801950      -566.0498
   1   2.0000     -20.717969      -563.7646
   2   2.0000     -20.595578      -560.4342
   3   2.0000     -15.797293      -429.8662
   4   2.0000     -15.673314      -426.4925
   5   2.0000     -11.477209      -312.3107
   6   2.0000     -11.432614      -311.0973
   7   2.0000     -11.415640      -310.6353
   8   2.0000     -11.401903      -310.2615
   9   2.0000     -11.398505      -310.1691
  10   2.0000     -11.376157      -309.5610
  11   2.0000     -11.372701      -309.4669
  12   2.0000     -11.367563      -309.3271
  13   2.0000     -11.360430      -309.1330
  14   2.0000     -11.358934      -309.0923
  15   2.0000     -11.352053      -308.9051
  16   2.0000     -11.350718      -308.8687
  17   2.0000     -11.337920      -308.5205
  18   2.0000     -11.328290      -308.2584
  19   2.0000     -11.328123      -308.2539
  20   2.0000     -11.327197      -308.2287
  21   2.0000     -11.326776      -308.2173
  22   2.0000     -11.325606      -308.1854
  23   2.0000     -11.324680      -308.1602
  24   2.0000     -11.322237      -308.0937
  25   2.0000     -11.316955      -307.9500
  26   2.0000     -11.309407      -307.7446
  27   2.0000      -1.639066       -44.6013
  28   2.0000      -1.552416       -42.2434
  29   2.0000      -1.467793       -39.9407
  30   2.0000      -1.331420       -36.2298
  31   2.0000      -1.298427       -35.3320
  32   2.0000      -1.288821       -35.0706
  33   2.0000      -1.223636       -33.2968
  34   2.0000      -1.217174       -33.1210
  35   2.0000      -1.167765       -31.7765
  36   2.0000      -1.155833       -31.4518
  37   2.0000      -1.143126       -31.1060
  38   2.0000      -1.112899       -30.2835
  39   2.0000      -1.073580       -29.2136
  40   2.0000      -1.066407       -29.0184
  41   2.0000      -1.062917       -28.9234
  42   2.0000      -1.056651       -28.7529
  43   2.0000      -1.051279       -28.6067
  44   2.0000      -1.042352       -28.3638
  45   2.0000      -1.038818       -28.2677
  46   2.0000      -0.960654       -26.1407
  47   2.0000      -0.959226       -26.1019
  48   2.0000      -0.942264       -25.6403
  49   2.0000      -0.935416       -25.4540
  50   2.0000      -0.910521       -24.7765
  51   2.0000      -0.890142       -24.2220
  52   2.0000      -0.865386       -23.5484
  53   2.0000      -0.839827       -22.8529
  54   2.0000      -0.813955       -22.1488
  55   2.0000      -0.808481       -21.9999
  56   2.0000      -0.803320       -21.8595
  57   2.0000      -0.797828       -21.7100
  58   2.0000      -0.788235       -21.4490
  59   2.0000      -0.782456       -21.2917
  60   2.0000      -0.760241       -20.6872
  61   2.0000      -0.745205       -20.2780
  62   2.0000      -0.741486       -20.1769
  63   2.0000      -0.736042       -20.0287
  64   2.0000      -0.727804       -19.8046
  65   2.0000      -0.725977       -19.7548
  66   2.0000      -0.713178       -19.4066
  67   2.0000      -0.706625       -19.2282
  68   2.0000      -0.705950       -19.2099
  69   2.0000      -0.703589       -19.1456
  70   2.0000      -0.697218       -18.9723
  71   2.0000      -0.691610       -18.8197
  72   2.0000      -0.685950       -18.6656
  73   2.0000      -0.684673       -18.6309
  74   2.0000      -0.682508       -18.5720
  75   2.0000      -0.674931       -18.3658
  76   2.0000      -0.668390       -18.1878
  77   2.0000      -0.653951       -17.7949
  78   2.0000      -0.648331       -17.6420
  79   2.0000      -0.646030       -17.5794
  80   2.0000      -0.643980       -17.5236
  81   2.0000      -0.639027       -17.3888
  82   2.0000      -0.636289       -17.3143
  83   2.0000      -0.633962       -17.2510
  84   2.0000      -0.629419       -17.1273
  85   2.0000      -0.627722       -17.0812
  86   2.0000      -0.625220       -17.0131
  87   2.0000      -0.623123       -16.9560
  88   2.0000      -0.617677       -16.8078
  89   2.0000      -0.615353       -16.7446
  90   2.0000      -0.605817       -16.4851
  91   2.0000      -0.596001       -16.2180
  92   2.0000      -0.594822       -16.1859
  93   2.0000      -0.585046       -15.9199
  94   2.0000      -0.583402       -15.8752
  95   2.0000      -0.583073       -15.8662
  96   2.0000      -0.571517       -15.5518
  97   2.0000      -0.565403       -15.3854
  98   2.0000      -0.503258       -13.6944
  99   2.0000      -0.493843       -13.4382
 100   2.0000      -0.482195       -13.1212
 101   2.0000      -0.462512       -12.5856
 102   2.0000      -0.426358       -11.6018
 103   0.0000      -0.137468        -3.7407
 104   0.0000      -0.057087        -1.5534
 105   0.0000      -0.049736        -1.3534
 106   0.0000      -0.046209        -1.2574
 107   0.0000      -0.042735        -1.1629

MULLIKEN ATOMIC CHARGES
-----------------------
   0 C :    1.611171
   1 C :    1.630098
   2 C :   -0.883188
   3 C :    1.694424
   4 C :   -0.865224
   5 H :    0.212269
   6 H :    0.062526
   7 H :    0.406352
   8 H :    0.248710
   9 H :    0.070479
  10 N :    1.877001
  11 O :   -1.851629
  12 C :   -1.465664
  13 H :    0.128388
  14 H :    0.486576
  15 H :    0.210295
  16 C :   -1.465758
  17 H :    0.251732
  18 H :    0.077633
  19 H :    0.241742
  20 C :   -1.452784
  21 H :    0.202399
  22 H :    0.298312
  23 H :    0.109775
  24 C :   -1.356800
  25 H :    0.055887
  26 H :    0.261082
  27 H :    0.259019
  28 C :    2.452663
  29 H :    0.207465
  30 H :    0.302802
  31 C :    0.397847
  32 C :   -0.534257
  33 C :   -0.533977
  34 C :   -0.470776
  35 H :    0.112547
  36 C :   -0.464887
  37 H :    0.290300
  38 C :   -0.305853
  39 H :    0.261564
  40 H :    0.186981
  41 O :   -1.258792
  42 C :    1.825012
  43 H :    0.253218
  44 C :   -1.160538
  45 H :    0.446169
  46 H :    0.199912
  47 H :    0.175840
  48 C :   -1.262613
  49 H :    0.235394
  50 H :    0.171440
  51 H :    0.260642
  52 C :   -1.210810
  53 H :    0.184823
  54 H :    0.212553
  55 H :    0.252680
  56 N :   -0.982385
  57 C :    0.908147
  58 C :   -0.929763
  59 H :    0.262157
  60 H :    0.261058
  61 H :    0.228272
  62 O :   -0.958780
  63 H :   -0.070878
Sum of atomic charges:    1.0000000

LOEWDIN ATOMIC CHARGES
----------------------
   0 C :   -0.352782
   1 C :   -0.359060
   2 C :    0.532575
   3 C :    0.025859
   4 C :    0.530988
   5 H :   -0.323799
   6 H :   -0.240690
   7 H :   -0.294184
   8 H :   -0.313861
   9 H :   -0.242595
  10 N :    0.206782
  11 O :    1.087185
  12 C :    0.924075
  13 H :   -0.257008
  14 H :   -0.279942
  15 H :   -0.255494
  16 C :    0.950753
  17 H :   -0.332000
  18 H :   -0.244625
  19 H :   -0.292092
  20 C :    0.919026
  21 H :   -0.253992
  22 H :   -0.289501
  23 H :   -0.256347
  24 C :    0.950747
  25 H :   -0.250904
  26 H :   -0.286759
  27 H :   -0.290592
  28 C :   -0.009336
  29 H :   -0.284132
  30 H :   -0.871105
  31 C :   -0.071120
  32 C :    0.354423
  33 C :    0.359648
  34 C :    0.381487
  35 H :   -0.302196
  36 C :    0.384257
  37 H :   -0.307602
  38 C :    0.376896
  39 H :   -0.304075
  40 H :   -0.303177
  41 O :    0.990595
  42 C :   -0.542373
  43 H :   -0.299571
  44 C :    0.915588
  45 H :   -0.291869
  46 H :   -0.254277
  47 H :   -0.286351
  48 C :    0.929361
  49 H :   -0.262318
  50 H :   -0.275391
  51 H :   -0.259561
  52 C :    0.913078
  53 H :   -0.267696
  54 H :   -0.268808
  55 H :   -0.263761
  56 N :    0.890058
  57 C :   -0.796155
  58 C :    0.915009
  59 H :   -0.289116
  60 H :   -0.289338
  61 H :   -0.304452
  62 O :    0.764320
  63 H :   -0.482704

  Mayer bond orders larger than 0.100000
B(  0-C ,  1-C ) :   0.5649 B(  0-C ,  4-C ) :  -0.1872 B(  0-C ,  8-H ) :  -0.1288
B(  0-C ,  9-H ) :  -0.1537 B(  0-C , 10-N ) :   1.0002 B(  0-C , 11-O ) :   0.2589
B(  0-C , 12-C ) :  -0.2131 B(  0-C , 13-H ) :  -0.3075 B(  0-C , 14-H ) :  -0.1615
B(  0-C , 15-H ) :  -0.3161 B(  0-C , 16-C ) :   0.2151 B(  0-C , 17-H ) :  -0.2404
B(  0-C , 19-H ) :  -0.1699 B(  0-C , 28-C ) :   0.2934 B(  0-C , 32-C ) :  -0.1623
B(  0-C , 41-O ) :  -0.1158 B(  0-C , 42-C ) :  -0.1027 B(  1-C ,  4-C ) :  -0.2458
B(  1-C ,  6-H ) :  -0.1228 B(  1-C , 10-N ) :   0.7180 B(  1-C , 11-O ) :   0.2393
B(  1-C , 12-C ) :  -0.1559 B(  1-C , 20-C ) :  -0.5505 B(  1-C , 21-H ) :  -0.3432
B(  1-C , 22-H ) :  -0.2130 B(  1-C , 23-H ) :  -0.2990 B(  1-C , 25-H ) :  -0.1360
B(  1-C , 26-H ) :  -0.2372 B(  1-C , 27-H ) :  -0.2850 B(  1-C , 28-C ) :   0.1757
B(  2-C ,  3-C ) :   0.6026 B(  2-C ,  4-C ) :  -0.1594 B(  2-C ,  5-H ) :   1.2468
B(  2-C ,  6-H ) :   1.1478 B(  2-C , 10-N ) :   0.1307 B(  2-C , 26-H ) :   0.1019
B(  2-C , 30-H ) :  -0.1245 B(  2-C , 56-N ) :   0.3703 B(  2-C , 57-C ) :   0.1098
B(  3-C ,  4-C ) :   0.7190 B(  3-C ,  6-H ) :  -0.1192 B(  3-C ,  7-H ) :   0.8199
B(  3-C , 28-C ) :  -0.2912 B(  3-C , 30-H ) :   0.3012 B(  3-C , 42-C ) :   0.1815
B(  3-C , 52-C ) :  -0.1026 B(  3-C , 56-N ) :  -1.4282 B(  3-C , 57-C ) :  -0.1632
B(  3-C , 62-O ) :   0.2119 B(  3-C , 63-H ) :  -0.4097 B(  4-C ,  8-H ) :   1.2263
B(  4-C ,  9-H ) :   1.2056 B(  4-C , 10-N ) :   0.1354 B(  4-C , 32-C ) :   0.1080
B(  4-C , 56-N ) :   0.2210 B(  5-H , 56-N ) :   0.1218 B(  5-H , 62-O ) :  -0.1239
B(  8-H , 56-N ) :   0.1046 B( 10-N , 11-O ) :   0.2873 B( 10-N , 17-H ) :   0.1833
B( 10-N , 24-C ) :   0.2029 B( 10-N , 26-H ) :   0.1440 B( 10-N , 28-C ) :   0.1246
B( 10-N , 30-H ) :  -0.1829 B( 10-N , 41-O ) :   0.1181 B( 11-O , 16-C ) :  -0.1353
B( 11-O , 28-C ) :  -0.2647 B( 11-O , 30-H ) :  -0.4365 B( 11-O , 31-C ) :   0.2164
B( 11-O , 42-C ) :   0.1028 B( 12-C , 13-H ) :   1.3112 B( 12-C , 14-H ) :   0.7940
B( 12-C , 15-H ) :   1.3103 B( 12-C , 17-H ) :  -0.1031 B( 16-C , 17-H ) :   0.9390
B( 16-C , 18-H ) :   1.1203 B( 16-C , 19-H ) :   1.1311 B( 16-C , 32-C ) :   0.1598
B( 16-C , 33-C ) :  -0.1476 B( 16-C , 34-C ) :  -0.1078 B( 17-H , 29-H ) :  -0.1116
B( 17-H , 30-H ) :   0.1118 B( 17-H , 34-C ) :   0.1502 B( 20-C , 21-H ) :   1.3139
B( 20-C , 22-H ) :   0.9530 B( 20-C , 23-H ) :   1.3575 B( 20-C , 24-C ) :   0.1498
B( 24-C , 25-H ) :   1.1783 B( 24-C , 26-H ) :   0.9670 B( 24-C , 27-H ) :   1.1768
B( 26-H , 27-H ) :   0.1092 B( 28-C , 29-H ) :   1.2144 B( 28-C , 30-H ) :   0.7140
B( 28-C , 31-C ) :  -1.5429 B( 28-C , 32-C ) :  -1.0978 B( 28-C , 33-C ) :  -0.7497
B( 28-C , 42-C ) :  -0.1154 B( 29-H , 30-H ) :  -0.1501 B( 29-H , 31-C ) :  -0.1821
B( 30-H , 31-C ) :   0.3385 B( 30-H , 33-C ) :   0.1060 B( 30-H , 44-C ) :  -0.2010
B( 31-C , 32-C ) :   1.3778 B( 31-C , 33-C ) :   1.3427 B( 31-C , 34-C ) :  -0.5749
B( 31-C , 36-C ) :  -0.5161 B( 31-C , 41-O ) :  -0.1209 B( 32-C , 34-C ) :   1.3846
B( 32-C , 35-H ) :   1.1912 B( 32-C , 38-C ) :  -0.1175 B( 32-C , 39-H ) :  -0.1219
B( 33-C , 36-C ) :   1.3246 B( 33-C , 37-H ) :   0.9512 B( 33-C , 40-H ) :  -0.1524
B( 34-C , 36-C ) :   0.1194 B( 34-C , 38-C ) :   1.1551 B( 34-C , 39-H ) :   1.1322
B( 34-C , 43-H ) :  -0.1544 B( 36-C , 38-C ) :   1.2053 B( 36-C , 40-H ) :   1.2175
B( 36-C , 43-H ) :  -0.1230 B( 38-C , 40-H ) :  -0.1012 B( 38-C , 43-H ) :   1.2084
B( 41-O , 42-C ) :   0.5493 B( 42-C , 44-C ) :   0.3290 B( 42-C , 47-H ) :  -0.2079
B( 42-C , 48-C ) :   0.1507 B( 42-C , 49-H ) :  -0.1912 B( 42-C , 50-H ) :  -0.1806
B( 42-C , 51-H ) :  -0.1573 B( 42-C , 53-H ) :  -0.2770 B( 42-C , 54-H ) :  -0.1986
B( 42-C , 55-H ) :  -0.1541 B( 44-C , 45-H ) :   0.8312 B( 44-C , 46-H ) :   1.1345
B( 44-C , 47-H ) :   1.1240 B( 45-H , 47-H ) :   0.1077 B( 48-C , 49-H ) :   1.0998
B( 48-C , 50-H ) :   1.1257 B( 48-C , 51-H ) :   1.0761 B( 48-C , 52-C ) :   0.1504
B( 52-C , 53-H ) :   1.1996 B( 52-C , 54-H ) :   1.1056 B( 52-C , 55-H ) :   1.0877
B( 56-N , 57-C ) :   1.0244 B( 56-N , 58-C ) :  -0.1585 B( 56-N , 63-H ) :   1.5144
B( 57-C , 58-C ) :   0.6997 B( 57-C , 61-H ) :  -0.1927 B( 57-C , 62-O ) :   0.8095
B( 58-C , 59-H ) :   1.0065 B( 58-C , 60-H ) :   1.0028 B( 58-C , 61-H ) :   1.0469

MP2 TOTAL ENERGY:    -1193.507934565 Eh
FINAL SINGLE POINT ENERGY     -1193.507934565409

DIPOLE MOMENT
-------------
                                X             Y             Z
Electronic contribution:     -1.40291       9.24935      -2.47900
Nuclear contribution   :      2.53187      -7.96750       3.70886
                        -----------------------------------------
Total Dipole Moment    :      1.12895       1.28185       1.22986
                        -----------------------------------------
Magnitude (a.u.)       :      2.10481
Magnitude (Debye)      :      5.35001

Rotational constants in cm-1:     0.009522     0.003639     0.003096
Rotational constants in MHz :   285.476408   109.092703    92.823367

                             ****ORCA TERMINATED NORMALLY****
TOTAL RUN TIME: 0 days 10 hours 53 minutes 42 seconds 164 msec
