                         Program Version 4.2.1 -  RELEASE  -
|  1> %pal
|  2>  nprocs 32
|  3> end
|  4> !RI-MP2 aug-cc-pVQZ aug-cc-pVQZ/C TightSCF
|  5> %maxcore 4500
|  6> *xyzfile 0 1  04_66P2.xyz
|  7>
|  8>
|  9>                          ****END OF INPUT****

CARTESIAN COORDINATES (ANGSTROEM)
---------------------------------
  H      1.179137   -1.223909   -1.682721
  C      0.778521   -1.205332   -0.666351
  N      1.276538    0.000010   -0.000020
  H      1.179195   -2.075910   -0.141563
  C     -0.778522   -1.205354   -0.666310
  C      0.778496    1.179745   -0.710695
  C      0.778542    0.025612    1.377005
  H     -1.179189   -1.223964   -1.682659
  H     -1.179143   -2.075932   -0.141484
  N     -1.276538   -0.000014    0.000023
  H      1.179133    2.069231   -0.218604
  H      1.179134    1.160566   -1.727045
  C     -0.778542    1.179722   -0.710684
  C     -0.778495    0.025615    1.377031
  H     -1.179199    2.069207   -0.218608
  H     -1.179193    1.160507   -1.727028
  H     -1.179126   -0.845286    1.901319
  H     -1.179138    0.915400    1.868571
  H      1.179206    0.915383    1.868553
  H      1.179186   -0.845303    1.901259

 Total Charge           Charge          ....    0
 Multiplicity           Mult            ....    1
 Number of Electrons    NEL             ....   62
 Basis Dimension        Dim             .... 1192

ORBITAL ENERGIES
----------------

  NO   OCC          E(Eh)            E(eV)
   0   2.0000     -15.541180      -422.8970
   1   2.0000     -15.541168      -422.8967
   2   2.0000     -11.242168      -305.9150
   3   2.0000     -11.242168      -305.9149
   4   2.0000     -11.242142      -305.9142
   5   2.0000     -11.241615      -305.8999
   6   2.0000     -11.241614      -305.8999
   7   2.0000     -11.241602      -305.8995
   8   2.0000      -1.275357       -34.7042
   9   2.0000      -1.177944       -32.0535
  10   2.0000      -1.017808       -27.6960
  11   2.0000      -1.017808       -27.6960
  12   2.0000      -0.862369       -23.4662
  13   2.0000      -0.862368       -23.4662
  14   2.0000      -0.858057       -23.3489
  15   2.0000      -0.710040       -19.3212
  16   2.0000      -0.674665       -18.3586
  17   2.0000      -0.674663       -18.3585
  18   2.0000      -0.672536       -18.3006
  19   2.0000      -0.567686       -15.4475
  20   2.0000      -0.567417       -15.4402
  21   2.0000      -0.567414       -15.4401
  22   2.0000      -0.540819       -14.7164
  23   2.0000      -0.540816       -14.7164
  24   2.0000      -0.524726       -14.2785
  25   2.0000      -0.524725       -14.2785
  26   2.0000      -0.466943       -12.7062
  27   2.0000      -0.453956       -12.3528
  28   2.0000      -0.453953       -12.3527
  29   2.0000      -0.418680       -11.3929
  30   2.0000      -0.313730        -8.5370
  31   0.0000       0.027368         0.7447
  32   0.0000       0.032463         0.8834
  33   0.0000       0.032463         0.8834
  34   0.0000       0.036526         0.9939
  35   0.0000       0.044613         1.2140

MULLIKEN ATOMIC CHARGES
-----------------------
   0 H :    0.307672
   1 C :   -0.394410
   2 N :   -0.663425
   3 H :    0.307878
   4 C :   -0.394404
   5 C :   -0.394371
   6 C :   -0.394358
   7 H :    0.307793
   8 H :    0.307752
   9 N :   -0.663428
  10 H :    0.307751
  11 H :    0.307806
  12 C :   -0.394372
  13 C :   -0.394386
  14 H :    0.307746
  15 H :    0.307775
  16 H :    0.307657
  17 H :    0.307857
  18 H :    0.307673
  19 H :    0.307794
Sum of atomic charges:    0.0000000

LOEWDIN ATOMIC CHARGES
----------------------
   0 H :   -0.277244
   1 C :    0.381499
   2 N :    0.518967
   3 H :   -0.277242
   4 C :    0.381498
   5 C :    0.381499
   6 C :    0.381490
   7 H :   -0.277243
   8 H :   -0.277243
   9 N :    0.518967
  10 H :   -0.277243
  11 H :   -0.277241
  12 C :    0.381500
  13 C :    0.381491
  14 H :   -0.277243
  15 H :   -0.277242
  16 H :   -0.277243
  17 H :   -0.277242
  18 H :   -0.277241
  19 H :   -0.277244

  Mayer bond orders larger than 0.100000
B(  0-H ,  1-C ) :   0.8972 B(  1-C ,  2-N ) :   0.9183 B(  1-C ,  3-H ) :   0.8970
B(  1-C ,  4-C ) :   1.0839 B(  2-N ,  5-C ) :   0.9183 B(  2-N ,  6-C ) :   0.9183
B(  4-C ,  7-H ) :   0.8971 B(  4-C ,  8-H ) :   0.8971 B(  4-C ,  9-N ) :   0.9183
B(  5-C , 10-H ) :   0.8971 B(  5-C , 11-H ) :   0.8970 B(  5-C , 12-C ) :   1.0840
B(  6-C , 13-C ) :   1.0839 B(  6-C , 18-H ) :   0.8972 B(  6-C , 19-H ) :   0.8971
B(  9-N , 12-C ) :   0.9183 B(  9-N , 13-C ) :   0.9183 B( 12-C , 14-H ) :   0.8971
B( 12-C , 15-H ) :   0.8970 B( 13-C , 16-H ) :   0.8972 B( 13-C , 17-H ) :   0.8970

MP2 TOTAL ENERGY:     -344.729286233 Eh
FINAL SINGLE POINT ENERGY      -344.729286232898

DIPOLE MOMENT
-------------
                                X             Y             Z
Electronic contribution:     -0.00000       0.00002      -0.00001
Nuclear contribution   :      0.00000      -0.00001      -0.00001
                        -----------------------------------------
Total Dipole Moment    :     -0.00000       0.00001      -0.00001
                        -----------------------------------------
Magnitude (a.u.)       :      0.00001
Magnitude (Debye)      :      0.00004

Rotational constants in cm-1:     0.089162     0.084002     0.084002
Rotational constants in MHz :  2673.015146  2518.326007  2518.315994

                             ****ORCA TERMINATED NORMALLY****
TOTAL RUN TIME: 0 days 0 hours 47 minutes 31 seconds 947 msec
