                         Program Version 4.2.1 -  RELEASE  -
|  1> %pal
|  2>  nprocs 32
|  3> end
|  4> !RI-MP2 aug-cc-pVQZ aug-cc-pVQZ/C TightSCF
|  5> %maxcore 4500
|  6> *xyzfile 1 1  10_17R.xyz
|  7>
|  8>
|  9>                          ****END OF INPUT****

CARTESIAN COORDINATES (ANGSTROEM)
---------------------------------
  C      0.955350    1.985904    0.442910
  N     -0.153710    1.690217   -0.061252
  N     -1.165461    1.505865   -0.678135
  C     -2.056843    0.486666   -0.309587
  C     -3.240204    0.448730   -1.045314
  C     -1.785098   -0.442085    0.701082
  C     -4.178718   -0.525378   -0.753435
  H     -3.402328    1.182539   -1.824343
  C     -2.726631   -1.409960    0.974428
  H     -0.848305   -0.416424    1.244339
  C     -3.920965   -1.447877    0.251807
  H     -5.106024   -0.568560   -1.309001
  H     -2.539380   -2.143721    1.747436
  H     -4.654072   -2.212565    0.477066
  C      2.187770    1.246163    0.000151
  H      2.959538    1.996686   -0.198204
  H      2.525698    0.693618    0.882855
  C      1.029322    3.028130    1.517164
  H      0.047217    3.406521    1.791706
  H      1.520200    2.607004    2.396274
  H      1.645843    3.854491    1.156121
  C      1.769800   -2.367657    1.380391
  C      2.287751   -2.352301    0.159463
  H      2.213705   -1.799864    2.192940
  H      0.917451   -2.989445    1.627164
  C      3.486780   -1.556279   -0.259459
  H      3.884896   -1.011890    0.601830
  H      4.280660   -2.240566   -0.572617
  H      1.827267   -2.963244   -0.615180
  C      3.193144   -0.602582   -1.427460
  C      1.993759    0.314542   -1.189673
  H      1.112533   -0.310796   -1.019375
  H      1.797617    0.905014   -2.088197
  H      4.085838   -0.008448   -1.641876
  H      2.994527   -1.189030   -2.328043

 Total Charge           Charge          ....    1
 Multiplicity           Mult            ....    1
 Number of Electrons    NEL             ....  116
 Basis Dimension        Dim             .... 2154

ORBITAL ENERGIES
----------------

  NO   OCC          E(Eh)            E(eV)
   0   2.0000     -15.858472      -431.5310
   1   2.0000     -15.855668      -431.4547
   2   2.0000     -11.510291      -313.2109
   3   2.0000     -11.422328      -310.8174
   4   2.0000     -11.396239      -310.1074
   5   2.0000     -11.393144      -310.0232
   6   2.0000     -11.390712      -309.9570
   7   2.0000     -11.389071      -309.9124
   8   2.0000     -11.381444      -309.7048
   9   2.0000     -11.371707      -309.4399
  10   2.0000     -11.367590      -309.3278
  11   2.0000     -11.355548      -309.0002
  12   2.0000     -11.337229      -308.5017
  13   2.0000     -11.337080      -308.4976
  14   2.0000     -11.331375      -308.3424
  15   2.0000     -11.323223      -308.1206
  16   2.0000      -1.611940       -43.8631
  17   2.0000      -1.373636       -37.3785
  18   2.0000      -1.299837       -35.3704
  19   2.0000      -1.224589       -33.3228
  20   2.0000      -1.193832       -32.4858
  21   2.0000      -1.168010       -31.7832
  22   2.0000      -1.165660       -31.7192
  23   2.0000      -1.136455       -30.9245
  24   2.0000      -1.103359       -30.0239
  25   2.0000      -1.033005       -28.1095
  26   2.0000      -1.020422       -27.7671
  27   2.0000      -0.981637       -26.7117
  28   2.0000      -0.929130       -25.2829
  29   2.0000      -0.905882       -24.6503
  30   2.0000      -0.863965       -23.5097
  31   2.0000      -0.857074       -23.3222
  32   2.0000      -0.844634       -22.9837
  33   2.0000      -0.824419       -22.4336
  34   2.0000      -0.818443       -22.2710
  35   2.0000      -0.790053       -21.4984
  36   2.0000      -0.759666       -20.6716
  37   2.0000      -0.752345       -20.4723
  38   2.0000      -0.746540       -20.3144
  39   2.0000      -0.738141       -20.0858
  40   2.0000      -0.732685       -19.9374
  41   2.0000      -0.722241       -19.6532
  42   2.0000      -0.719655       -19.5828
  43   2.0000      -0.712008       -19.3747
  44   2.0000      -0.687228       -18.7004
  45   2.0000      -0.670344       -18.2410
  46   2.0000      -0.660420       -17.9709
  47   2.0000      -0.655299       -17.8316
  48   2.0000      -0.641961       -17.4686
  49   2.0000      -0.633253       -17.2317
  50   2.0000      -0.620985       -16.8979
  51   2.0000      -0.602767       -16.4021
  52   2.0000      -0.587366       -15.9830
  53   2.0000      -0.578689       -15.7469
  54   2.0000      -0.569817       -15.5055
  55   2.0000      -0.483278       -13.1507
  56   2.0000      -0.482484       -13.1291
  57   2.0000      -0.468828       -12.7575
  58   0.0000      -0.110062        -2.9949
  59   0.0000      -0.068029        -1.8512
  60   0.0000      -0.055784        -1.5180
  61   0.0000      -0.054674        -1.4878
  62   0.0000      -0.049171        -1.3380

MULLIKEN ATOMIC CHARGES
-----------------------
   0 C :    0.712683
   1 N :    0.378600
   2 N :   -0.852536
   3 C :    0.328818
   4 C :   -0.572705
   5 C :   -0.302933
   6 C :   -0.400547
   7 H :    0.419045
   8 C :   -0.369479
   9 H :    0.592591
  10 C :   -0.271296
  11 H :    0.276398
  12 H :    0.290785
  13 H :    0.332995
  14 C :   -0.209955
  15 H :    0.426117
  16 H :    0.270540
  17 C :   -0.979955
  18 H :    0.263871
  19 H :    0.314188
  20 H :    0.349469
  21 C :   -0.939650
  22 C :   -0.337620
  23 H :    0.315907
  24 H :    0.402695
  25 C :   -0.292683
  26 H :    0.179708
  27 H :    0.373439
  28 H :    0.271046
  29 C :   -0.464348
  30 C :   -0.408465
  31 H :    0.156847
  32 H :    0.302936
  33 H :    0.201686
  34 H :    0.241807
Sum of atomic charges:    1.0000000

LOEWDIN ATOMIC CHARGES
----------------------
   0 C :   -0.151384
   1 N :    0.391644
   2 N :    0.496606
   3 C :   -0.319567
   4 C :    0.337191
   5 C :    0.334399
   6 C :    0.383880
   7 H :   -0.304586
   8 C :    0.382417
   9 H :   -0.323567
  10 C :    0.384591
  11 H :   -0.305391
  12 H :   -0.305662
  13 H :   -0.295931
  14 C :    0.537558
  15 H :   -0.243331
  16 H :   -0.295861
  17 C :    0.981083
  18 H :   -0.275477
  19 H :   -0.263947
  20 H :   -0.260723
  21 C :    0.803064
  22 C :    0.355787
  23 H :   -0.340720
  24 H :   -0.345111
  25 C :    0.499886
  26 H :   -0.305716
  27 H :   -0.261888
  28 H :   -0.301883
  29 C :    0.555750
  30 C :    0.521315
  31 H :   -0.311252
  32 H :   -0.243881
  33 H :   -0.251341
  34 H :   -0.257953

  Mayer bond orders larger than 0.100000
B(  0-C ,  1-N ) :   0.9386 B(  0-C ,  2-N ) :  -0.4365 B(  0-C , 14-C ) :   0.6030
B(  0-C , 17-C ) :   0.6999 B(  0-C , 18-H ) :  -0.1019 B(  0-C , 30-C ) :  -0.2791
B(  1-N ,  2-N ) :   0.6599 B(  2-N ,  3-C ) :   0.6487 B(  2-N ,  5-C ) :  -0.1533
B(  3-C ,  4-C ) :   1.1902 B(  3-C ,  5-C ) :   1.0354 B(  3-C ,  6-C ) :  -0.3548
B(  3-C ,  8-C ) :  -0.2691 B(  3-C ,  9-H ) :  -0.1066 B(  4-C ,  5-C ) :  -0.1319
B(  4-C ,  6-C ) :   1.4177 B(  4-C ,  7-H ) :   0.8074 B(  4-C ,  8-C ) :   0.1670
B(  4-C , 10-C ) :   0.1043 B(  4-C , 11-H ) :  -0.1199 B(  5-C ,  8-C ) :   1.1704
B(  5-C ,  9-H ) :   0.5874 B(  5-C , 10-C ) :  -0.1571 B(  6-C , 10-C ) :   1.1231
B(  6-C , 11-H ) :   1.1030 B(  6-C , 13-H ) :  -0.1030 B(  8-C ,  9-H ) :  -0.1318
B(  8-C , 10-C ) :   1.2180 B(  8-C , 12-H ) :   1.0310 B(  8-C , 13-H ) :  -0.1247
B( 10-C , 13-H ) :   1.0283 B( 14-C , 15-H ) :   0.8005 B( 14-C , 16-H ) :   0.8079
B( 14-C , 29-C ) :  -0.1273 B( 14-C , 30-C ) :   0.9386 B( 17-C , 18-H ) :   1.0729
B( 17-C , 19-H ) :   0.9106 B( 17-C , 20-H ) :   0.9143 B( 21-C , 22-C ) :   1.7653
B( 21-C , 23-H ) :   0.9101 B( 21-C , 24-H ) :   0.9051 B( 21-C , 25-C ) :  -0.1369
B( 22-C , 24-H ) :  -0.1122 B( 22-C , 25-C ) :   0.8361 B( 22-C , 28-H ) :   0.9679
B( 25-C , 26-H ) :   1.0188 B( 25-C , 27-H ) :   0.8710 B( 25-C , 29-C ) :   0.8855
B( 29-C , 30-C ) :   0.8042 B( 29-C , 33-H ) :   1.0153 B( 29-C , 34-H ) :   1.0260
B( 30-C , 31-H ) :   0.9631 B( 30-C , 32-H ) :   0.9038 B( 30-C , 34-H ) :  -0.1420

MP2 TOTAL ENERGY:     -652.925645411 Eh
FINAL SINGLE POINT ENERGY      -652.925645411032

DIPOLE MOMENT
-------------
                                X             Y             Z
Electronic contribution:    -15.69828       4.64619      -2.07133
Nuclear contribution   :     15.56790      -3.25532       2.56815
                        -----------------------------------------
Total Dipole Moment    :     -0.13037       1.39087       0.49682
                        -----------------------------------------
Magnitude (a.u.)       :      1.48269
Magnitude (Debye)      :      3.76869

Rotational constants in cm-1:     0.022786     0.010806     0.008730
Rotational constants in MHz :   683.117488   323.955681   261.713081

                             ****ORCA TERMINATED NORMALLY****
TOTAL RUN TIME: 0 days 4 hours 42 minutes 37 seconds 271 msec
