                         Program Version 4.2.1 -  RELEASE  -
|  1> %pal
|  2>  nprocs 32
|  3> end
|  4> !RI-MP2 aug-cc-pVQZ aug-cc-pVQZ/C TightSCF
|  5> %maxcore 4500
|  6> *xyzfile 0 1  10_71P.xyz
|  7>
|  8>
|  9>                          ****END OF INPUT****

CARTESIAN COORDINATES (ANGSTROEM)
---------------------------------
  C     -6.228579   -0.781604   -1.287598
  C     -5.197404   -1.374552   -0.335012
  C     -3.899083   -0.592046   -0.319907
  C     -2.753904   -1.222639    0.472423
  C     -1.515448   -0.287318    0.456261
  C     -0.284986   -0.850215   -0.221949
  C      0.902284   -0.664463    0.357879
  C      2.264981   -0.895316   -0.224033
  C      2.807917    0.347926   -1.011001
  C      2.772539    1.680477   -0.286989
  C      1.690825    2.448254   -0.131961
  C      0.367507    2.022579   -0.578461
  C     -0.751226    2.077894    0.138125
  C     -1.866440    1.131201   -0.156894
  C     -3.205113    1.590625    0.375548
  C     -3.145078   -1.570780    1.907911
  C      3.247195   -1.386552    0.852579
  C      4.610570   -1.699132    0.238521
  C      5.192326   -0.510718   -0.520438
  C      4.212236    0.030332   -1.553201
  C     -0.458235   -1.397525   -1.611321
  O     -3.409989    2.646301    0.903499
  O     -4.210291    0.704638    0.230608
  O      3.353358   -0.487860    1.945781
  O      5.518778    0.557867    0.386070
  H     -6.462407    0.246727   -1.009544
  H     -7.155377   -1.357632   -1.268952
  H     -5.859055   -0.778025   -2.316765
  H     -5.601822   -1.404634    0.678733
  H     -4.965915   -2.405974   -0.619561
  H     -3.573639   -0.447976   -1.356981
  H     -2.502695   -2.152393   -0.043268
  H      3.711530    2.025169    0.128935
  H      1.772396    3.368474    0.438411
  H     -3.493852   -0.686552    2.446239
  H     -2.279898   -1.969775    2.440788
  H     -3.934176   -2.322888    1.945704
  H      2.835375   -2.303202    1.282108
  H      4.507797   -2.540075   -0.454761
  H      5.298152   -2.017270    1.027781
  H      6.106842   -0.816773   -1.040155
  H      4.122543   -0.730280   -2.335347
  H      4.642600    0.918447   -2.020828
  H     -0.850988   -0.633309   -2.291178
  H     -1.165906   -2.229693   -1.636798
  H      0.479372   -1.754488   -2.033585
  H      3.906081    0.253764    1.670735
  H      6.251276    0.279324    0.943147
  H      2.152486    0.438511   -1.882082
  H      2.214152   -1.701180   -0.964433
  H     -1.241082   -0.084718    1.493294
  H     -1.978795    1.012581   -1.239296
  H      0.347096    1.441743   -1.495894
  H     -0.794754    2.613240    1.081004
  H      0.920520   -0.207291    1.341976

 Total Charge           Charge          ....    0
 Multiplicity           Mult            ....    1
 Number of Electrons    NEL             ....  188
 Basis Dimension        Dim             .... 3380

ORBITAL ENERGIES
----------------

  NO   OCC          E(Eh)            E(eV)
   0   2.0000     -20.587337      -560.2099
   1   2.0000     -20.573860      -559.8432
   2   2.0000     -20.542727      -558.9960
   3   2.0000     -20.526143      -558.5447
   4   2.0000     -11.365328      -309.2663
   5   2.0000     -11.295462      -307.3652
   6   2.0000     -11.294542      -307.3401
   7   2.0000     -11.279970      -306.9436
   8   2.0000     -11.252250      -306.1893
   9   2.0000     -11.246298      -306.0273
  10   2.0000     -11.242007      -305.9106
  11   2.0000     -11.239736      -305.8488
  12   2.0000     -11.236618      -305.7639
  13   2.0000     -11.233091      -305.6679
  14   2.0000     -11.232167      -305.6428
  15   2.0000     -11.231718      -305.6306
  16   2.0000     -11.230754      -305.6044
  17   2.0000     -11.228412      -305.5406
  18   2.0000     -11.226056      -305.4765
  19   2.0000     -11.225160      -305.4521
  20   2.0000     -11.222017      -305.3666
  21   2.0000     -11.221296      -305.3470
  22   2.0000     -11.218992      -305.2843
  23   2.0000     -11.218088      -305.2597
  24   2.0000     -11.214365      -305.1584
  25   2.0000      -1.450255       -39.4634
  26   2.0000      -1.383138       -37.6371
  27   2.0000      -1.354285       -36.8520
  28   2.0000      -1.353677       -36.8354
  29   2.0000      -1.153652       -31.3925
  30   2.0000      -1.129018       -30.7221
  31   2.0000      -1.099287       -29.9131
  32   2.0000      -1.086136       -29.5553
  33   2.0000      -1.064997       -28.9800
  34   2.0000      -1.040051       -28.3012
  35   2.0000      -1.014430       -27.6040
  36   2.0000      -1.008787       -27.4505
  37   2.0000      -0.969966       -26.3941
  38   2.0000      -0.945142       -25.7186
  39   2.0000      -0.938789       -25.5458
  40   2.0000      -0.893540       -24.3145
  41   2.0000      -0.870287       -23.6817
  42   2.0000      -0.848373       -23.0854
  43   2.0000      -0.826395       -22.4874
  44   2.0000      -0.819765       -22.3069
  45   2.0000      -0.799923       -21.7670
  46   2.0000      -0.773831       -21.0570
  47   2.0000      -0.740633       -20.1537
  48   2.0000      -0.731585       -19.9074
  49   2.0000      -0.724144       -19.7050
  50   2.0000      -0.718938       -19.5633
  51   2.0000      -0.693449       -18.8697
  52   2.0000      -0.682004       -18.5583
  53   2.0000      -0.676431       -18.4066
  54   2.0000      -0.663920       -18.0662
  55   2.0000      -0.647815       -17.6279
  56   2.0000      -0.642534       -17.4842
  57   2.0000      -0.631133       -17.1740
  58   2.0000      -0.625583       -17.0230
  59   2.0000      -0.612882       -16.6774
  60   2.0000      -0.609472       -16.5846
  61   2.0000      -0.601245       -16.3607
  62   2.0000      -0.598142       -16.2763
  63   2.0000      -0.588496       -16.0138
  64   2.0000      -0.583644       -15.8818
  65   2.0000      -0.581791       -15.8313
  66   2.0000      -0.576643       -15.6913
  67   2.0000      -0.570445       -15.5226
  68   2.0000      -0.565865       -15.3980
  69   2.0000      -0.558835       -15.2067
  70   2.0000      -0.548386       -14.9223
  71   2.0000      -0.545083       -14.8325
  72   2.0000      -0.533992       -14.5307
  73   2.0000      -0.531603       -14.4656
  74   2.0000      -0.527587       -14.3564
  75   2.0000      -0.515340       -14.0231
  76   2.0000      -0.515082       -14.0161
  77   2.0000      -0.511887       -13.9292
  78   2.0000      -0.500261       -13.6128
  79   2.0000      -0.497539       -13.5387
  80   2.0000      -0.494011       -13.4427
  81   2.0000      -0.490559       -13.3488
  82   2.0000      -0.486548       -13.2396
  83   2.0000      -0.473724       -12.8907
  84   2.0000      -0.473506       -12.8848
  85   2.0000      -0.462846       -12.5947
  86   2.0000      -0.459024       -12.4907
  87   2.0000      -0.435508       -11.8508
  88   2.0000      -0.432142       -11.7592
  89   2.0000      -0.428889       -11.6707
  90   2.0000      -0.412886       -11.2352
  91   2.0000      -0.398286       -10.8379
  92   2.0000      -0.343520        -9.3477
  93   2.0000      -0.304158        -8.2766
  94   0.0000      -0.251052        -6.8315
  95   0.0000       0.013125         0.3572
  96   0.0000       0.018991         0.5168
  97   0.0000       0.023781         0.6471
  98   0.0000       0.026302         0.7157

MULLIKEN ATOMIC CHARGES
-----------------------
   0 C :   -0.940629
   1 C :   -0.815517
   2 C :    1.501412
   3 C :   -0.152243
   4 C :    0.766787
   5 C :    1.123384
   6 C :   -0.675556
   7 C :    0.801802
   8 C :    1.201802
   9 C :   -0.817059
  10 C :   -0.604969
  11 C :   -0.518739
  12 C :   -0.232856
  13 C :   -0.287066
  14 C :    1.851713
  15 C :   -1.235991
  16 C :    0.639472
  17 C :   -1.023977
  18 C :    0.583380
  19 C :   -1.096166
  20 C :   -1.493535
  21 O :   -1.200764
  22 O :   -1.221525
  23 O :   -1.450517
  24 O :   -0.960663
  25 H :    0.237897
  26 H :    0.277457
  27 H :    0.196895
  28 H :    0.139475
  29 H :    0.120468
  30 H :    0.086137
  31 H :    0.216027
  32 H :    0.252303
  33 H :    0.168872
  34 H :    0.191486
  35 H :    0.209028
  36 H :    0.141840
  37 H :    0.294569
  38 H :    0.148078
  39 H :    0.122063
  40 H :    0.267406
  41 H :    0.064555
  42 H :    0.153445
  43 H :    0.122068
  44 H :    0.227092
  45 H :    0.257252
  46 H :    0.492529
  47 H :    0.283718
  48 H :    0.493073
  49 H :    0.285420
  50 H :    0.208978
  51 H :    0.300204
  52 H :    0.359058
  53 H :    0.113092
  54 H :   -0.172467
Sum of atomic charges:   -0.0000000

LOEWDIN ATOMIC CHARGES
----------------------
   0 C :    0.945222
   1 C :    0.504478
   2 C :   -0.208488
   3 C :    0.152962
   4 C :    0.150219
   5 C :    0.034722
   6 C :    0.401284
   7 C :    0.143175
   8 C :    0.154287
   9 C :    0.408332
  10 C :    0.414471
  11 C :    0.344131
  12 C :    0.385424
  13 C :    0.065474
  14 C :   -1.020066
  15 C :    0.957483
  16 C :   -0.176196
  17 C :    0.535183
  18 C :   -0.146303
  19 C :    0.534313
  20 C :    0.949684
  21 O :    0.707916
  22 O :    0.905774
  23 O :    1.339571
  24 O :    1.331998
  25 H :   -0.286078
  26 H :   -0.276649
  27 H :   -0.277309
  28 H :   -0.285696
  29 H :   -0.257471
  30 H :   -0.301692
  31 H :   -0.306441
  32 H :   -0.361431
  33 H :   -0.315285
  34 H :   -0.257464
  35 H :   -0.258697
  36 H :   -0.276455
  37 H :   -0.291226
  38 H :   -0.257802
  39 H :   -0.260956
  40 H :   -0.273522
  41 H :   -0.256720
  42 H :   -0.256497
  43 H :   -0.266104
  44 H :   -0.278288
  45 H :   -0.302225
  46 H :   -0.913863
  47 H :   -0.735213
  48 H :   -0.313322
  49 H :   -0.318925
  50 H :   -0.331289
  51 H :   -0.325072
  52 H :   -0.359282
  53 H :   -0.298912
  54 H :   -0.315163

  Mayer bond orders larger than 0.100000
B(  0-C ,  1-C ) :   0.9030 B(  0-C ,  2-C ) :  -0.1812 B(  0-C , 25-H ) :   0.9635
B(  0-C , 26-H ) :   1.0541 B(  0-C , 27-H ) :   0.9942 B(  1-C ,  2-C ) :  -0.2144
B(  1-C , 22-O ) :   0.1851 B(  1-C , 26-H ) :  -0.1364 B(  1-C , 28-H ) :   1.1677
B(  1-C , 29-H ) :   1.2063 B(  2-C ,  3-C ) :   0.8224 B(  2-C , 14-C ) :  -0.1112
B(  2-C , 22-O ) :  -0.5930 B(  2-C , 28-H ) :  -0.2611 B(  2-C , 29-H ) :  -0.1732
B(  2-C , 30-H ) :   1.0493 B(  3-C ,  4-C ) :   0.5046 B(  3-C , 13-C ) :   0.1334
B(  3-C , 15-C ) :   0.2934 B(  3-C , 22-O ) :   0.2869 B(  3-C , 31-H ) :   1.0411
B(  3-C , 34-H ) :  -0.2747 B(  3-C , 36-H ) :  -0.1980 B(  4-C ,  5-C ) :   0.4818
B(  4-C ,  6-C ) :  -0.3501 B(  4-C ,  7-C ) :   0.1542 B(  4-C , 13-C ) :   0.7590
B(  4-C , 15-C ) :  -0.3284 B(  4-C , 21-O ) :   0.1218 B(  4-C , 31-H ) :  -0.1190
B(  4-C , 50-H ) :   1.1467 B(  5-C ,  6-C ) :   0.8833 B(  5-C ,  7-C ) :  -0.3110
B(  5-C ,  8-C ) :   0.1104 B(  5-C , 11-C ) :  -0.1404 B(  5-C , 16-C ) :   0.1106
B(  5-C , 43-H ) :  -0.3286 B(  5-C , 44-H ) :  -0.3219 B(  5-C , 45-H ) :  -0.1600
B(  5-C , 50-H ) :  -0.1297 B(  5-C , 54-H ) :  -0.4485 B(  6-C ,  7-C ) :   0.2952
B(  6-C ,  8-C ) :   0.1374 B(  6-C , 12-C ) :   0.1002 B(  6-C , 16-C ) :  -0.3196
B(  6-C , 23-O ) :  -0.2439 B(  6-C , 49-H ) :  -0.1106 B(  6-C , 50-H ) :  -0.1722
B(  6-C , 54-H ) :   1.7865 B(  7-C ,  8-C ) :   0.8657 B(  7-C ,  9-C ) :  -0.1218
B(  7-C , 16-C ) :   0.7786 B(  7-C , 17-C ) :  -0.2212 B(  7-C , 19-C ) :   0.1824
B(  7-C , 20-C ) :  -0.2151 B(  7-C , 37-H ) :  -0.1528 B(  7-C , 38-H ) :  -0.1179
B(  7-C , 45-H ) :  -0.1044 B(  7-C , 49-H ) :   0.9545 B(  7-C , 54-H ) :  -0.1062
B(  8-C ,  9-C ) :   0.7646 B(  8-C , 10-C ) :  -0.1587 B(  8-C , 18-C ) :  -0.2344
B(  8-C , 19-C ) :  -0.3491 B(  8-C , 32-H ) :  -0.1369 B(  8-C , 41-H ) :  -0.3538
B(  8-C , 42-H ) :  -0.2010 B(  8-C , 48-H ) :   0.7458 B(  8-C , 52-H ) :  -0.1049
B(  9-C , 10-C ) :   1.6688 B(  9-C , 11-C ) :  -0.1498 B(  9-C , 19-C ) :  -0.1598
B(  9-C , 32-H ) :   1.1405 B(  9-C , 33-H ) :  -0.1813 B( 10-C , 11-C ) :   0.8939
B( 10-C , 12-C ) :  -0.4534 B( 10-C , 32-H ) :  -0.1873 B( 10-C , 33-H ) :   1.2368
B( 10-C , 48-H ) :  -0.1043 B( 11-C , 12-C ) :   1.8304 B( 11-C , 13-C ) :  -0.5701
B( 11-C , 33-H ) :  -0.1047 B( 11-C , 52-H ) :   1.0432 B( 12-C , 13-C ) :   0.2359
B( 12-C , 14-C ) :  -0.2254 B( 12-C , 51-H ) :  -0.1929 B( 12-C , 52-H ) :  -0.1019
B( 12-C , 53-H ) :   1.2273 B( 13-C , 14-C ) :   1.4107 B( 13-C , 21-O ) :   0.7189
B( 13-C , 22-O ) :   0.2395 B( 13-C , 51-H ) :   1.0516 B( 13-C , 53-H ) :  -0.1290
B( 14-C , 22-O ) :   0.9460 B( 14-C , 51-H ) :   0.1365 B( 15-C , 34-H ) :   1.1816
B( 15-C , 35-H ) :   1.1559 B( 15-C , 36-H ) :   1.2488 B( 16-C , 17-C ) :   0.8205
B( 16-C , 37-H ) :   1.1183 B( 16-C , 39-H ) :  -0.1420 B( 16-C , 48-H ) :   0.1023
B( 17-C , 18-C ) :   0.7954 B( 17-C , 23-O ) :   0.2820 B( 17-C , 24-O ) :   0.1682
B( 17-C , 37-H ) :  -0.1010 B( 17-C , 38-H ) :   1.1576 B( 17-C , 39-H ) :   1.1556
B( 18-C , 19-C ) :   1.0478 B( 18-C , 24-O ) :   0.3114 B( 18-C , 40-H ) :   0.9895
B( 19-C , 24-O ) :   0.1852 B( 19-C , 41-H ) :   1.4273 B( 19-C , 42-H ) :   1.2730
B( 19-C , 48-H ) :  -0.2125 B( 20-C , 43-H ) :   1.3162 B( 20-C , 44-H ) :   1.2322
B( 20-C , 45-H ) :   1.1631 B( 20-C , 49-H ) :  -0.1330 B( 21-O , 22-O ) :   0.2692
B( 22-O , 30-H ) :   0.1704 B( 23-O , 37-H ) :  -0.1007 B( 23-O , 46-H ) :   0.6600
B( 24-O , 47-H ) :   0.9360 B( 43-H , 44-H ) :   0.1451 B( 50-H , 51-H ) :   0.1186

MP2 TOTAL ENERGY:    -1117.326598717 Eh
FINAL SINGLE POINT ENERGY     -1117.326598716670

DIPOLE MOMENT
-------------
                                X             Y             Z
Electronic contribution:      4.29488      13.84735       5.82334
Nuclear contribution   :     -2.62149     -16.19545      -7.17018
                        -----------------------------------------
Total Dipole Moment    :      1.67338      -2.34809      -1.34684
                        -----------------------------------------
Magnitude (a.u.)       :      3.18241
Magnitude (Debye)      :      8.08904

Rotational constants in cm-1:     0.017444     0.003737     0.003475
Rotational constants in MHz :   522.958748   112.030982   104.182500

                             ****ORCA TERMINATED NORMALLY****
TOTAL RUN TIME: 1 days 14 hours 52 minutes 23 seconds 476 msec
