                         Program Version 4.2.1 -  RELEASE  -
|  1> %pal
|  2>  nprocs 32
|  3> end
|  4> !RI-MP2 aug-cc-pVQZ aug-cc-pVQZ/C TightSCF
|  5> %maxcore 4500
|  6> *xyzfile 0 2  01_23P.xyz
|  7>
|  8>
|  9>                          ****END OF INPUT****

CARTESIAN COORDINATES (ANGSTROEM)
---------------------------------
  C     -0.042444   -1.251477   -0.396078
  C     -0.815699    0.034990   -0.162494
  C      1.309069   -1.227454    0.314622
  C      2.131020   -0.021360   -0.135403
  C      1.394670    1.290083    0.154786
  C     -0.025006    1.264483   -0.304337
  C     -2.273639    0.059705   -0.521651
  C     -1.891084    0.014446    0.926393
  H      0.122611   -1.374216   -1.472794
  H     -0.638258   -2.107473   -0.067447
  H      1.854569   -2.153594    0.114821
  H      1.151286   -1.179176    1.398466
  H      2.318114   -0.099666   -1.211950
  H      3.106908   -0.016227    0.356951
  H      1.925579    2.135716   -0.290954
  H      1.418835    1.464573    1.244761
  H     -0.552641    2.203995   -0.435150
  H     -2.691552   -0.835923   -0.965823
  H     -2.679724    0.984785   -0.912715
  H     -2.031543   -0.913544    1.468046
  H     -2.025498    0.910249    1.518764

 Total Charge           Charge          ....    0
 Multiplicity           Mult            ....    2
 Number of Electrons    NEL             ....   61
 Basis Dimension        Dim             .... 1238

ORBITAL ENERGIES
----------------
                 SPIN UP ORBITALS
  NO   OCC          E(Eh)            E(eV)
   0   1.0000     -11.227475      -305.5151
   1   1.0000     -11.220322      -305.3205
   2   1.0000     -11.220258      -305.3187
   3   1.0000     -11.217917      -305.2550
   4   1.0000     -11.215274      -305.1831
   5   1.0000     -11.214833      -305.1711
   6   1.0000     -11.213307      -305.1296
   7   1.0000     -11.212200      -305.0995
   8   1.0000      -1.163928       -31.6721
   9   1.0000      -1.082547       -29.4576
  10   1.0000      -1.007926       -27.4270
  11   1.0000      -0.948493       -25.8098
  12   1.0000      -0.837384       -22.7864
  13   1.0000      -0.824414       -22.4334
  14   1.0000      -0.795989       -21.6600
  15   1.0000      -0.714634       -19.4462
  16   1.0000      -0.655797       -17.8451
  17   1.0000      -0.642493       -17.4831
  18   1.0000      -0.617565       -16.8048
  19   1.0000      -0.582150       -15.8411
  20   1.0000      -0.572197       -15.5703
  21   1.0000      -0.545238       -14.8367
  22   1.0000      -0.529071       -14.3968
  23   1.0000      -0.517340       -14.0775
  24   1.0000      -0.507482       -13.8093
  25   1.0000      -0.481424       -13.1002
  26   1.0000      -0.464584       -12.6420
  27   1.0000      -0.439874       -11.9696
  28   1.0000      -0.426028       -11.5928
  29   1.0000      -0.402839       -10.9618
  30   1.0000      -0.303497        -8.2586
  31   0.0000       0.026979         0.7341
  32   0.0000       0.029874         0.8129
  33   0.0000       0.030077         0.8184
  34   0.0000       0.032236         0.8772
  35   0.0000       0.042996         1.1700

                 SPIN DOWN ORBITALS
  NO   OCC          E(Eh)            E(eV)
   0   1.0000     -11.231226      -305.6172
   1   1.0000     -11.217731      -305.2500
   2   1.0000     -11.217341      -305.2394
   3   1.0000     -11.216382      -305.2133
   4   1.0000     -11.214749      -305.1688
   5   1.0000     -11.212831      -305.1166
   6   1.0000     -11.212198      -305.0994
   7   1.0000     -11.196724      -304.6784
   8   1.0000      -1.154385       -31.4124
   9   1.0000      -1.077243       -29.3133
  10   1.0000      -0.991134       -26.9701
  11   1.0000      -0.928026       -25.2529
  12   1.0000      -0.820110       -22.3163
  13   1.0000      -0.816345       -22.2139
  14   1.0000      -0.794459       -21.6183
  15   1.0000      -0.701321       -19.0839
  16   1.0000      -0.651075       -17.7166
  17   1.0000      -0.634451       -17.2643
  18   1.0000      -0.612727       -16.6732
  19   1.0000      -0.576891       -15.6980
  20   1.0000      -0.566550       -15.4166
  21   1.0000      -0.535875       -14.5819
  22   1.0000      -0.517108       -14.0712
  23   1.0000      -0.509253       -13.8575
  24   1.0000      -0.503867       -13.7109
  25   1.0000      -0.477554       -12.9949
  26   1.0000      -0.461213       -12.5502
  27   1.0000      -0.435422       -11.8484
  28   1.0000      -0.403224       -10.9723
  29   1.0000      -0.391764       -10.6605
  30   0.0000       0.026963         0.7337
  31   0.0000       0.029919         0.8141
  32   0.0000       0.030168         0.8209
  33   0.0000       0.032043         0.8719
  34   0.0000       0.043033         1.1710

MULLIKEN ATOMIC CHARGES AND SPIN POPULATIONS
--------------------------------------------
   0 C :   -0.360561    0.023242
   1 C :    0.675316   -0.286861
   2 C :   -0.424854   -0.016124
   3 C :   -0.565093    0.034350
   4 C :   -0.320548   -0.209565
   5 C :   -0.467444    1.314689
   6 C :   -0.797806    0.020165
   7 C :   -0.718829    0.138179
   8 H :    0.191034   -0.006168
   9 H :    0.263120   -0.001906
  10 H :    0.254940    0.001157
  11 H :    0.193805    0.003164
  12 H :    0.131477   -0.005170
  13 H :    0.267924   -0.004817
  14 H :    0.254424    0.007166
  15 H :    0.145198    0.108140
  16 H :    0.219993   -0.105158
  17 H :    0.291415    0.000926
  18 H :    0.260665   -0.006274
  19 H :    0.260118    0.004977
  20 H :    0.245706   -0.014113
Sum of atomic charges         :   -0.0000000

LOEWDIN ATOMIC CHARGES AND SPIN POPULATIONS
-------------------------------------------
   0 C :    0.518992    0.007151
   1 C :   -0.279782    0.112985
   2 C :    0.532487    0.001344
   3 C :    0.520335    0.013901
   4 C :    0.508457    0.128539
   5 C :    0.469948    0.440964
   6 C :    0.592809    0.019682
   7 C :    0.611612    0.049373
   8 H :   -0.254329    0.002953
   9 H :   -0.271705    0.000685
  10 H :   -0.256865    0.000211
  11 H :   -0.257336    0.000299
  12 H :   -0.265657    0.004812
  13 H :   -0.260905    0.002016
  14 H :   -0.281377    0.013596
  15 H :   -0.267694    0.030681
  16 H :   -0.290824    0.136168
  17 H :   -0.264221    0.002905
  18 H :   -0.270201    0.002402
  19 H :   -0.268294    0.014665
  20 H :   -0.265452    0.014669

  Mayer bond orders larger than 0.100000
B(  0-C ,  1-C ) :   0.5501 B(  0-C ,  2-C ) :   0.9971 B(  0-C ,  8-H ) :   0.9798
B(  0-C ,  9-H ) :   0.9475 B(  1-C ,  2-C ) :  -0.1937 B(  1-C ,  5-C ) :   0.6942
B(  1-C ,  6-C ) :   0.2929 B(  1-C ,  7-C ) :   0.4817 B(  1-C , 17-H ) :  -0.1275
B(  1-C , 18-H ) :  -0.1646 B(  2-C ,  3-C ) :   0.8914 B(  2-C , 10-H ) :   0.9451
B(  2-C , 11-H ) :   0.9622 B(  3-C ,  4-C ) :   0.9407 B(  3-C , 12-H ) :   1.0227
B(  3-C , 13-H ) :   0.9385 B(  4-C ,  5-C ) :   0.7387 B(  4-C , 14-H ) :   1.0139
B(  4-C , 15-H ) :   0.9377 B(  5-C , 14-H ) :  -0.1532 B(  5-C , 16-H ) :   1.0690
B(  6-C ,  7-C ) :   1.1710 B(  6-C , 17-H ) :   1.0052 B(  6-C , 18-H ) :   1.0705
B(  7-C , 19-H ) :   0.9729 B(  7-C , 20-H ) :   1.0031

MP2 TOTAL ENERGY:     -311.992627953 Eh
FINAL SINGLE POINT ENERGY      -311.992627953314

DIPOLE MOMENT
-------------
                                X             Y             Z
Electronic contribution:     -1.28713       0.98426      -0.69799
Nuclear contribution   :      1.34157      -1.02872       0.78162
                        -----------------------------------------
Total Dipole Moment    :      0.05445      -0.04446       0.08362
                        -----------------------------------------
Magnitude (a.u.)       :      0.10924
Magnitude (Debye)      :      0.27768

Rotational constants in cm-1:     0.123841     0.057475     0.046252
Rotational constants in MHz :  3712.669539  1723.053300  1386.601218

                             ****ORCA TERMINATED NORMALLY****
TOTAL RUN TIME: 0 days 1 hours 10 minutes 53 seconds 76 msec
