                         Program Version 4.2.1 -  RELEASE  -
|  1> %pal
|  2>  nprocs 32
|  3> end
|  4> !RI-MP2 aug-cc-pVQZ aug-cc-pVQZ/C TightSCF
|  5> %maxcore 4500
|  6> *xyzfile 0 2  04_64R.xyz
|  7>
|  8>
|  9>                          ****END OF INPUT****

CARTESIAN COORDINATES (ANGSTROEM)
---------------------------------
  N      0.628076    0.446540   -0.316830
  S      1.212651   -1.113952   -0.294771
  O     -0.110507   -1.926404   -0.636038
  C     -1.036608   -2.294683    0.425033
  C     -1.858162   -1.123698    0.920454
  H     -0.465154   -2.759311    1.228304
  H     -1.660178   -3.046444   -0.056660
  C     -2.644733   -0.414003   -0.174409
  H     -1.204893   -0.410415    1.430383
  H     -2.538243   -1.514112    1.685787
  C     -3.358683    0.833695    0.331959
  C      1.496071    1.537056    0.126535
  C      1.193346    1.713366    1.630355
  C      1.010068    2.766235   -0.645768
  C      2.996766    1.325242   -0.091293
  H      3.378798    0.490750    0.496812
  H      3.525616    2.227840    0.219314
  H      3.218843    1.137198   -1.141493
  H      0.126895    1.874395    1.793037
  H      1.735527    2.589708    1.990719
  H      1.512727    0.838274    2.194920
  H     -0.061078    2.910211   -0.500040
  H      1.199713    2.646926   -1.713403
  H      1.537053    3.656475   -0.297253
  O      1.639918   -1.457721    1.047265
  O      2.082573   -1.291419   -1.427354
  C     -4.133229    1.556624   -0.763396
  H     -2.616665    1.513929    0.764778
  H     -4.038133    0.564032    1.148166
  H     -3.467777    1.863583   -1.574462
  H     -4.629330    2.451195   -0.381145
  H     -4.901191    0.909291   -1.194930
  H     -1.960488   -0.134306   -0.978479
  H     -3.375874   -1.106410   -0.608004

 Total Charge           Charge          ....    0
 Multiplicity           Mult            ....    2
 Number of Electrons    NEL             ....  121
 Basis Dimension        Dim             .... 2044

ORBITAL ENERGIES
----------------
                 SPIN UP ORBITALS
  NO   OCC          E(Eh)            E(eV)
   0   1.0000     -92.229121     -2509.6820
   1   1.0000     -20.616779      -561.0111
   2   1.0000     -20.564091      -559.5774
   3   1.0000     -20.560271      -559.4734
   4   1.0000     -15.638527      -425.5460
   5   1.0000     -11.303716      -307.5897
   6   1.0000     -11.293908      -307.3229
   7   1.0000     -11.233796      -305.6871
   8   1.0000     -11.232275      -305.6457
   9   1.0000     -11.228615      -305.5462
  10   1.0000     -11.223192      -305.3986
  11   1.0000     -11.222817      -305.3884
  12   1.0000     -11.220145      -305.3157
  13   1.0000     -11.214435      -305.1603
  14   1.0000      -9.189805      -250.0673
  15   1.0000      -6.876423      -187.1170
  16   1.0000      -6.875219      -187.0842
  17   1.0000      -6.874643      -187.0685
  18   1.0000      -1.513503       -41.1845
  19   1.0000      -1.391272       -37.8584
  20   1.0000      -1.361555       -37.0498
  21   1.0000      -1.269631       -34.5484
  22   1.0000      -1.097183       -29.8559
  23   1.0000      -1.080817       -29.4105
  24   1.0000      -1.033326       -28.1182
  25   1.0000      -0.957245       -26.0480
  26   1.0000      -0.954781       -25.9809
  27   1.0000      -0.947879       -25.7931
  28   1.0000      -0.881618       -23.9900
  29   1.0000      -0.828227       -22.5372
  30   1.0000      -0.802732       -21.8434
  31   1.0000      -0.769966       -20.9518
  32   1.0000      -0.724590       -19.7171
  33   1.0000      -0.707930       -19.2638
  34   1.0000      -0.692564       -18.8456
  35   1.0000      -0.664284       -18.0761
  36   1.0000      -0.653006       -17.7692
  37   1.0000      -0.641839       -17.4653
  38   1.0000      -0.631552       -17.1854
  39   1.0000      -0.624775       -17.0010
  40   1.0000      -0.603285       -16.4162
  41   1.0000      -0.592680       -16.1277
  42   1.0000      -0.588402       -16.0112
  43   1.0000      -0.569731       -15.5032
  44   1.0000      -0.567265       -15.4361
  45   1.0000      -0.556353       -15.1391
  46   1.0000      -0.547007       -14.8848
  47   1.0000      -0.535543       -14.5729
  48   1.0000      -0.531474       -14.4621
  49   1.0000      -0.526972       -14.3397
  50   1.0000      -0.516240       -14.0476
  51   1.0000      -0.514100       -13.9894
  52   1.0000      -0.512884       -13.9563
  53   1.0000      -0.500900       -13.6302
  54   1.0000      -0.495463       -13.4822
  55   1.0000      -0.489853       -13.3296
  56   1.0000      -0.474261       -12.9053
  57   1.0000      -0.470532       -12.8038
  58   1.0000      -0.460437       -12.5291
  59   1.0000      -0.453312       -12.3353
  60   1.0000      -0.449987       -12.2448
  61   0.0000       0.020732         0.5641
  62   0.0000       0.024395         0.6638
  63   0.0000       0.028224         0.7680
  64   0.0000       0.029732         0.8090
  65   0.0000       0.037113         1.0099

                 SPIN DOWN ORBITALS
  NO   OCC          E(Eh)            E(eV)
   0   1.0000     -92.229763     -2509.6994
   1   1.0000     -20.617193      -561.0223
   2   1.0000     -20.562520      -559.5346
   3   1.0000     -20.558014      -559.4120
   4   1.0000     -15.607051      -424.6895
   5   1.0000     -11.303713      -307.5897
   6   1.0000     -11.296225      -307.3859
   7   1.0000     -11.233697      -305.6844
   8   1.0000     -11.230064      -305.5856
   9   1.0000     -11.228018      -305.5299
  10   1.0000     -11.222816      -305.3884
  11   1.0000     -11.222693      -305.3850
  12   1.0000     -11.220177      -305.3165
  13   1.0000     -11.214435      -305.1603
  14   1.0000      -9.190688      -250.0913
  15   1.0000      -6.877171      -187.1373
  16   1.0000      -6.876706      -187.1247
  17   1.0000      -6.875488      -187.0915
  18   1.0000      -1.509555       -41.0771
  19   1.0000      -1.389925       -37.8218
  20   1.0000      -1.356344       -36.9080
  21   1.0000      -1.197682       -32.5906
  22   1.0000      -1.096751       -29.8441
  23   1.0000      -1.057230       -28.7687
  24   1.0000      -1.030241       -28.0343
  25   1.0000      -0.953197       -25.9378
  26   1.0000      -0.950066       -25.8526
  27   1.0000      -0.945373       -25.7249
  28   1.0000      -0.876914       -23.8620
  29   1.0000      -0.825087       -22.4518
  30   1.0000      -0.801669       -21.8145
  31   1.0000      -0.765556       -20.8318
  32   1.0000      -0.719203       -19.5705
  33   1.0000      -0.696385       -18.9496
  34   1.0000      -0.685257       -18.6468
  35   1.0000      -0.655425       -17.8350
  36   1.0000      -0.642696       -17.4887
  37   1.0000      -0.626642       -17.0518
  38   1.0000      -0.625856       -17.0304
  39   1.0000      -0.616826       -16.7847
  40   1.0000      -0.598010       -16.2727
  41   1.0000      -0.587669       -15.9913
  42   1.0000      -0.573221       -15.5981
  43   1.0000      -0.566347       -15.4111
  44   1.0000      -0.560363       -15.2483
  45   1.0000      -0.554603       -15.0915
  46   1.0000      -0.541853       -14.7446
  47   1.0000      -0.530807       -14.4440
  48   1.0000      -0.520028       -14.1507
  49   1.0000      -0.513560       -13.9747
  50   1.0000      -0.509153       -13.8547
  51   1.0000      -0.508188       -13.8285
  52   1.0000      -0.498383       -13.5617
  53   1.0000      -0.493034       -13.4161
  54   1.0000      -0.488012       -13.2795
  55   1.0000      -0.484896       -13.1947
  56   1.0000      -0.472996       -12.8709
  57   1.0000      -0.470294       -12.7973
  58   1.0000      -0.459600       -12.5064
  59   1.0000      -0.430519       -11.7150
  60   0.0000       0.020735         0.5642
  61   0.0000       0.024306         0.6614
  62   0.0000       0.027779         0.7559
  63   0.0000       0.029600         0.8055
  64   0.0000       0.036931         1.0049

MULLIKEN ATOMIC CHARGES AND SPIN POPULATIONS
--------------------------------------------
   0 N :   -0.683854    1.083671
   1 S :    3.536075   -0.108745
   2 O :   -1.278413   -0.007824
   3 C :   -0.280333    0.000786
   4 C :   -0.622212   -0.001185
   5 H :    0.253974   -0.001328
   6 H :    0.335541   -0.000560
   7 C :   -0.147274   -0.007104
   8 H :    0.375718    0.008288
   9 H :    0.271175    0.001119
  10 C :   -0.688387    0.000664
  11 C :    1.767455   -0.166455
  12 C :   -1.197863    0.089666
  13 C :   -1.312244    0.020788
  14 C :   -1.061303    0.011435
  15 H :    0.254502   -0.003295
  16 H :    0.280756   -0.001672
  17 H :    0.182913   -0.000344
  18 H :    0.310248    0.003376
  19 H :    0.229789    0.009747
  20 H :    0.284103    0.006453
  21 H :    0.339889   -0.003159
  22 H :    0.210149   -0.002653
  23 H :    0.333190   -0.003337
  24 O :   -1.313365    0.029205
  25 O :   -1.442201    0.037619
  26 C :   -0.942295    0.000052
  27 H :    0.355034   -0.000209
  28 H :    0.255836   -0.000006
  29 H :    0.249635    0.000122
  30 H :    0.257201    0.000008
  31 H :    0.233608   -0.000008
  32 H :    0.312508    0.004773
  33 H :    0.340443    0.000111
Sum of atomic charges         :    0.0000000

LOEWDIN ATOMIC CHARGES AND SPIN POPULATIONS
-------------------------------------------
   0 N :    0.478802    0.634292
   1 S :   -0.742652    0.117545
   2 O :    0.636855   -0.006869
   3 C :    0.173156   -0.000355
   4 C :    0.491647    0.002474
   5 H :   -0.330539   -0.000254
   6 H :   -0.305989   -0.000197
   7 C :    0.494441   -0.000870
   8 H :   -0.312349    0.005514
   9 H :   -0.257322    0.000567
  10 C :    0.503203   -0.000284
  11 C :   -0.592378    0.122070
  12 C :    0.884331    0.030500
  13 C :    0.881065    0.007658
  14 C :    0.873710    0.003734
  15 H :   -0.311122    0.000073
  16 H :   -0.271328    0.000499
  17 H :   -0.288961    0.001588
  18 H :   -0.280076    0.007546
  19 H :   -0.268372    0.008818
  20 H :   -0.303346    0.005472
  21 H :   -0.282908   -0.000767
  22 H :   -0.268714    0.003548
  23 H :   -0.271823    0.000882
  24 O :    0.369703    0.024131
  25 O :    0.324969    0.034877
  26 C :    0.928980   -0.000046
  27 H :   -0.278030   -0.000096
  28 H :   -0.265073   -0.000010
  29 H :   -0.282567   -0.000005
  30 H :   -0.280838   -0.000002
  31 H :   -0.281648   -0.000004
  32 H :   -0.307211   -0.001912
  33 H :   -0.257616   -0.000116

  Mayer bond orders larger than 0.100000
B(  0-N ,  1-S ) :   0.9610 B(  0-N ,  2-O ) :  -0.1789 B(  0-N , 11-C ) :   0.1292
B(  0-N , 13-C ) :   0.1675 B(  1-S ,  2-O ) :   0.2569 B(  1-S , 24-O ) :   0.9294
B(  1-S , 25-O ) :   0.6425 B(  2-O ,  3-C ) :   0.6238 B(  3-C ,  4-C ) :   0.9915
B(  3-C ,  5-H ) :   1.0235 B(  3-C ,  6-H ) :   0.8845 B(  3-C ,  7-C ) :  -0.1731
B(  4-C ,  7-C ) :   0.8170 B(  4-C ,  8-H ) :   0.8087 B(  4-C ,  9-H ) :   0.9126
B(  7-C , 10-C ) :   0.8644 B(  7-C , 26-C ) :  -0.1165 B(  7-C , 32-H ) :   0.8549
B(  7-C , 33-H ) :   0.8295 B( 10-C , 26-C ) :   1.0107 B( 10-C , 27-H ) :   0.7731
B( 10-C , 28-H ) :   0.9007 B( 11-C , 12-C ) :   0.4884 B( 11-C , 13-C ) :   0.1257
B( 11-C , 14-C ) :   0.2177 B( 11-C , 15-H ) :  -0.1310 B( 11-C , 16-H ) :  -0.1054
B( 11-C , 17-H ) :  -0.1904 B( 11-C , 21-H ) :  -0.1588 B( 11-C , 22-H ) :  -0.1891
B( 12-C , 13-C ) :   0.1396 B( 12-C , 14-C ) :   0.1180 B( 12-C , 18-H ) :   0.9507
B( 12-C , 19-H ) :   1.0419 B( 12-C , 20-H ) :   0.9949 B( 13-C , 14-C ) :   0.1303
B( 13-C , 21-H ) :   0.9448 B( 13-C , 22-H ) :   1.1247 B( 13-C , 23-H ) :   0.9698
B( 14-C , 15-H ) :   1.0679 B( 14-C , 16-H ) :   0.9920 B( 14-C , 17-H ) :   1.1021
B( 26-C , 29-H ) :   0.9249 B( 26-C , 30-H ) :   1.0322 B( 26-C , 31-H ) :   0.9876

MP2 TOTAL ENERGY:    -1032.104492825 Eh
FINAL SINGLE POINT ENERGY     -1032.104492824554

DIPOLE MOMENT
-------------
                                X             Y             Z
Electronic contribution:     13.92657     -16.05446      -3.86623
Nuclear contribution   :    -14.98532      17.03520       4.59718
                        -----------------------------------------
Total Dipole Moment    :     -1.05874       0.98074       0.73095
                        -----------------------------------------
Magnitude (a.u.)       :      1.61774
Magnitude (Debye)      :      4.11197

Rotational constants in cm-1:     0.024585     0.015203     0.011274
Rotational constants in MHz :   737.025838   455.765136   337.981160

                             ****ORCA TERMINATED NORMALLY****
TOTAL RUN TIME: 0 days 7 hours 52 minutes 43 seconds 838 msec
