                         Program Version 4.2.1 -  RELEASE  -
|  1> %pal
|  2>  nprocs 32
|  3> end
|  4> !RI-MP2 aug-cc-pVQZ aug-cc-pVQZ/C TightSCF
|  5> %maxcore 4500
|  6> *xyzfile 0 1  03_7R1.xyz
|  7>
|  8>
|  9>                          ****END OF INPUT****

CARTESIAN COORDINATES (ANGSTROEM)
---------------------------------
  C     -2.271412    0.007798    0.000021
  C     -2.836664   -0.614559    1.265040
  C     -0.754924    0.012642    0.000002
  C     -2.836699   -0.614947   -1.264790
  H     -2.458578   -0.088276    2.141927
  H     -2.547793   -1.663733    1.341124
  H     -3.925773   -0.551725    1.254337
  C     -0.051628   -1.189656    0.000160
  C     -0.040762    1.203969   -0.000167
  H     -2.547839   -1.664147   -1.340558
  H     -2.458633   -0.088939   -2.141850
  H     -3.925807   -0.552101   -1.254078
  C      1.347622    1.200521   -0.000179
  C      2.023428   -0.006061   -0.000020
  C      1.333404   -1.207637    0.000151
  H     -0.582884   -2.134105    0.000295
  H      1.874913   -2.144137    0.000274
  H     -0.575128    2.143521   -0.000291
  H      1.900279    2.130626   -0.000311
  Cl     3.770859   -0.018455   -0.000033
  F     -2.703506    1.352705   -0.000180

 Total Charge           Charge          ....    0
 Multiplicity           Mult            ....    1
 Number of Electrons    NEL             ....   90
 Basis Dimension        Dim             .... 1344

ORBITAL ENERGIES
----------------

  NO   OCC          E(Eh)            E(eV)
   0   2.0000    -104.838719     -2852.8066
   1   2.0000     -26.272592      -714.9136
   2   2.0000     -11.330229      -308.3112
   3   2.0000     -11.301794      -307.5375
   4   2.0000     -11.252649      -306.2001
   5   2.0000     -11.251589      -306.1713
   6   2.0000     -11.250060      -306.1297
   7   2.0000     -11.249040      -306.1019
   8   2.0000     -11.244088      -305.9672
   9   2.0000     -11.229643      -305.5741
  10   2.0000     -11.229629      -305.5737
  11   2.0000     -10.564067      -287.4629
  12   2.0000      -8.031202      -218.5401
  13   2.0000      -8.029488      -218.4935
  14   2.0000      -8.029433      -218.4920
  15   2.0000      -1.585623       -43.1470
  16   2.0000      -1.196161       -32.5492
  17   2.0000      -1.135450       -30.8972
  18   2.0000      -1.080381       -29.3987
  19   2.0000      -1.035850       -28.1869
  20   2.0000      -0.993570       -27.0364
  21   2.0000      -0.961342       -26.1595
  22   2.0000      -0.859491       -23.3879
  23   2.0000      -0.847846       -23.0711
  24   2.0000      -0.790955       -21.5230
  25   2.0000      -0.730061       -19.8660
  26   2.0000      -0.681828       -18.5535
  27   2.0000      -0.679454       -18.4889
  28   2.0000      -0.652796       -17.7635
  29   2.0000      -0.642015       -17.4701
  30   2.0000      -0.633113       -17.2279
  31   2.0000      -0.607396       -16.5281
  32   2.0000      -0.590331       -16.0637
  33   2.0000      -0.576741       -15.6939
  34   2.0000      -0.558800       -15.2057
  35   2.0000      -0.547724       -14.9043
  36   2.0000      -0.543250       -14.7826
  37   2.0000      -0.543061       -14.7774
  38   2.0000      -0.516299       -14.0492
  39   2.0000      -0.501689       -13.6516
  40   2.0000      -0.483189       -13.1482
  41   2.0000      -0.464867       -12.6497
  42   2.0000      -0.455142       -12.3850
  43   2.0000      -0.355676        -9.6784
  44   2.0000      -0.334941        -9.1142
  45   0.0000       0.022186         0.6037
  46   0.0000       0.029979         0.8158
  47   0.0000       0.030106         0.8192
  48   0.0000       0.032316         0.8794
  49   0.0000       0.042827         1.1654

MULLIKEN ATOMIC CHARGES
-----------------------
   0 C :    1.551434
   1 C :   -0.985467
   2 C :    0.513652
   3 C :   -0.985485
   4 H :    0.290962
   5 H :    0.226388
   6 H :    0.314570
   7 C :   -0.442779
   8 C :   -0.746313
   9 H :    0.226393
  10 H :    0.290960
  11 H :    0.314560
  12 C :    0.003886
  13 C :   -0.426734
  14 C :    0.049482
  15 H :    0.215725
  16 H :    0.342790
  17 H :    0.173982
  18 H :    0.369129
  19 Cl:   -0.430085
  20 F :   -0.867049
Sum of atomic charges:    0.0000000

LOEWDIN ATOMIC CHARGES
----------------------
   0 C :   -0.853185
   1 C :    0.890784
   2 C :   -0.128166
   3 C :    0.890782
   4 H :   -0.272504
   5 H :   -0.286360
   6 H :   -0.279799
   7 C :    0.327034
   8 C :    0.334949
   9 H :   -0.286361
  10 H :   -0.272504
  11 H :   -0.279799
  12 C :    0.217194
  13 C :   -0.846519
  14 C :    0.220795
  15 H :   -0.316791
  16 H :   -0.350549
  17 H :   -0.350809
  18 H :   -0.351469
  19 Cl:    1.177330
  20 F :    0.815947

  Mayer bond orders larger than 0.100000
B(  0-C ,  1-C ) :   0.7129 B(  0-C ,  2-C ) :   0.6812 B(  0-C ,  3-C ) :   0.7129
B(  0-C ,  7-C ) :  -0.1126 B(  0-C ,  8-C ) :  -0.2433 B(  0-C , 20-F ) :  -0.3189
B(  1-C ,  2-C ) :  -0.1071 B(  1-C ,  3-C ) :   0.1022 B(  1-C ,  4-H ) :   0.9649
B(  1-C ,  5-H ) :   1.0025 B(  1-C ,  6-H ) :   0.9548 B(  1-C , 20-F ) :   0.1106
B(  2-C ,  3-C ) :  -0.1072 B(  2-C ,  7-C ) :   0.7418 B(  2-C ,  8-C ) :   0.8093
B(  2-C , 12-C ) :  -0.3627 B(  2-C , 13-C ) :  -0.2679 B(  2-C , 14-C ) :  -0.3484
B(  2-C , 20-F ) :   0.2692 B(  3-C ,  9-H ) :   1.0025 B(  3-C , 10-H ) :   0.9649
B(  3-C , 11-H ) :   0.9548 B(  3-C , 20-F ) :   0.1106 B(  7-C ,  8-C ) :   0.1741
B(  7-C , 13-C ) :   0.1674 B(  7-C , 14-C ) :   1.3734 B(  7-C , 15-H ) :   1.0655
B(  7-C , 16-H ) :  -0.1033 B(  8-C , 12-C ) :   1.4222 B(  8-C , 13-C ) :   0.2366
B(  8-C , 14-C ) :   0.1124 B(  8-C , 17-H ) :   1.0576 B(  8-C , 18-H ) :  -0.1207
B( 12-C , 13-C ) :   1.0153 B( 12-C , 17-H ) :  -0.1010 B( 12-C , 18-H ) :   0.9304
B( 12-C , 19-Cl) :  -0.2248 B( 13-C , 14-C ) :   0.9006 B( 13-C , 19-Cl) :   1.1646
B( 14-C , 16-H ) :   0.9711 B( 14-C , 19-Cl) :  -0.2527 B( 17-H , 20-F ) :   0.1352

MP2 TOTAL ENERGY:     -907.842008455 Eh
FINAL SINGLE POINT ENERGY      -907.842008454878

DIPOLE MOMENT
-------------
                                X             Y             Z
Electronic contribution:     16.94156       5.08132      -0.00095
Nuclear contribution   :    -17.59694      -5.79891       0.00107
                        -----------------------------------------
Total Dipole Moment    :     -0.65539      -0.71759       0.00012
                        -----------------------------------------
Magnitude (a.u.)       :      0.97183
Magnitude (Debye)      :      2.47021

Rotational constants in cm-1:     0.087945     0.015124     0.014079
Rotational constants in MHz :  2636.519371   453.397267   422.072867

                             ****ORCA TERMINATED NORMALLY****
TOTAL RUN TIME: 0 days 1 hours 9 minutes 39 seconds 832 msec
