                         Program Version 4.2.1 -  RELEASE  -
|  1> %pal
|  2>  nprocs 32
|  3> end
|  4> !RI-MP2 aug-cc-pVQZ aug-cc-pVQZ/C TightSCF
|  5> %maxcore 4500
|  6> *xyzfile 0 1  02_10TS.xyz
|  7>
|  8>
|  9>                          ****END OF INPUT****

CARTESIAN COORDINATES (ANGSTROEM)
---------------------------------
  C     -0.577330   -1.859458    0.499727
  C     -1.546128   -1.101542   -0.121963
  C     -0.326905    1.079853    0.252651
  C      1.019420    0.840730   -0.035867
  C      1.244971   -0.973738   -0.871540
  C      0.756412   -1.844034    0.100012
  C      2.051033    0.854919    1.079984
  H      1.768383    0.091925    1.814720
  C      2.702670   -1.009014   -1.267954
  H      2.920037   -1.960720   -1.765302
  H      2.889825   -0.228101   -2.012686
  C      3.666010   -0.809425   -0.096088
  C      3.461370    0.553113    0.563628
  H      3.736215    1.335502   -0.157013
  H      4.164745    0.649262    1.397062
  H     -1.365363   -0.766513   -1.134401
  H     -0.671767    1.079278    1.279084
  C     -1.184502    1.691359   -0.749968
  O     -0.925342    1.639734   -1.945999
  H      1.348316    1.311592   -0.960651
  H      0.568329   -0.696111   -1.672979
  H      3.464388   -1.582212    0.654792
  C      5.112025   -0.972861   -0.554173
  H      5.281035   -1.960769   -0.989294
  H      5.808502   -0.847970    0.278299
  H      5.364323   -0.226888   -1.313853
  C     -2.936218   -1.013883    0.320797
  C     -3.852796   -0.584459   -0.559379
  H     -3.491259   -0.316211   -1.549244
  C     -5.323080   -0.417581   -0.362022
  H     -5.658598   -0.679041    0.640140
  H     -5.876074   -1.039481   -1.072455
  H     -5.619280    0.617220   -0.560301
  C     -3.245263   -1.416532    1.736237
  H     -4.269309   -1.184454    2.019481
  H     -2.577680   -0.905643    2.435080
  H     -3.097623   -2.490385    1.880314
  C     -2.409736    2.424147   -0.257548
  H     -3.120854    2.544671   -1.073581
  H     -2.879927    1.905752    0.578027
  H     -2.106178    3.416201    0.090380
  C      2.055509    2.214951    1.785967
  H      1.082704    2.443738    2.222653
  H      2.298603    3.014482    1.080538
  H      2.802460    2.232138    2.583807
  H     -0.829832   -2.406391    1.401292
  H      1.463838   -2.408010    0.699072

 Total Charge           Charge          ....    0
 Multiplicity           Mult            ....    1
 Number of Electrons    NEL             ....  144
 Basis Dimension        Dim             .... 2808

ORBITAL ENERGIES
----------------

  NO   OCC          E(Eh)            E(eV)
   0   2.0000     -20.504358      -557.9520
   1   2.0000     -11.302798      -307.5648
   2   2.0000     -11.251503      -306.1690
   3   2.0000     -11.243265      -305.9448
   4   2.0000     -11.237851      -305.7975
   5   2.0000     -11.235259      -305.7269
   6   2.0000     -11.234885      -305.7168
   7   2.0000     -11.231613      -305.6277
   8   2.0000     -11.228787      -305.5508
   9   2.0000     -11.226000      -305.4750
  10   2.0000     -11.224513      -305.4345
  11   2.0000     -11.224433      -305.4324
  12   2.0000     -11.220950      -305.3376
  13   2.0000     -11.220184      -305.3167
  14   2.0000     -11.215333      -305.1847
  15   2.0000     -11.212920      -305.1191
  16   2.0000     -11.211342      -305.0761
  17   2.0000     -11.210376      -305.0499
  18   2.0000     -11.208176      -304.9900
  19   2.0000      -1.350310       -36.7438
  20   2.0000      -1.142095       -31.0780
  21   2.0000      -1.121607       -30.5205
  22   2.0000      -1.080968       -29.4146
  23   2.0000      -1.070913       -29.1410
  24   2.0000      -1.023535       -27.8518
  25   2.0000      -1.012734       -27.5579
  26   2.0000      -0.984201       -26.7815
  27   2.0000      -0.969623       -26.3848
  28   2.0000      -0.935208       -25.4483
  29   2.0000      -0.923124       -25.1195
  30   2.0000      -0.895732       -24.3741
  31   2.0000      -0.859723       -23.3942
  32   2.0000      -0.829289       -22.5661
  33   2.0000      -0.781474       -21.2650
  34   2.0000      -0.774139       -21.0654
  35   2.0000      -0.731485       -19.9047
  36   2.0000      -0.710247       -19.3268
  37   2.0000      -0.702748       -19.1228
  38   2.0000      -0.677234       -18.4285
  39   2.0000      -0.651734       -17.7346
  40   2.0000      -0.637719       -17.3532
  41   2.0000      -0.635056       -17.2808
  42   2.0000      -0.619720       -16.8634
  43   2.0000      -0.612931       -16.6787
  44   2.0000      -0.596685       -16.2366
  45   2.0000      -0.588810       -16.0223
  46   2.0000      -0.584858       -15.9148
  47   2.0000      -0.575820       -15.6689
  48   2.0000      -0.572210       -15.5706
  49   2.0000      -0.564187       -15.3523
  50   2.0000      -0.563167       -15.3246
  51   2.0000      -0.550776       -14.9874
  52   2.0000      -0.542627       -14.7656
  53   2.0000      -0.538911       -14.6645
  54   2.0000      -0.536246       -14.5920
  55   2.0000      -0.530331       -14.4310
  56   2.0000      -0.525300       -14.2941
  57   2.0000      -0.522385       -14.2148
  58   2.0000      -0.515243       -14.0205
  59   2.0000      -0.506768       -13.7899
  60   2.0000      -0.497035       -13.5250
  61   2.0000      -0.486950       -13.2506
  62   2.0000      -0.482146       -13.1199
  63   2.0000      -0.473598       -12.8872
  64   2.0000      -0.462542       -12.5864
  65   2.0000      -0.450584       -12.2610
  66   2.0000      -0.447625       -12.1805
  67   2.0000      -0.439147       -11.9498
  68   2.0000      -0.391606       -10.6561
  69   2.0000      -0.379894       -10.3374
  70   2.0000      -0.314947        -8.5701
  71   2.0000      -0.265573        -7.2266
  72   0.0000       0.019258         0.5240
  73   0.0000       0.023149         0.6299
  74   0.0000       0.026558         0.7227
  75   0.0000       0.027956         0.7607
  76   0.0000       0.034126         0.9286

MULLIKEN ATOMIC CHARGES
-----------------------
   0 C :   -0.018632
   1 C :    0.046909
   2 C :   -1.120512
   3 C :    1.318506
   4 C :    0.460833
   5 C :   -0.276657
   6 C :    0.496928
   7 H :    0.095932
   8 C :   -0.659035
   9 H :    0.098514
  10 H :    0.072571
  11 C :    0.311215
  12 C :   -0.376195
  13 H :    0.151290
  14 H :    0.158485
  15 H :    0.092344
  16 H :    0.007023
  17 C :    1.255941
  18 O :   -1.202288
  19 H :    0.248484
  20 H :    0.370067
  21 H :    0.136029
  22 C :   -1.099048
  23 H :    0.197327
  24 H :    0.198852
  25 H :    0.171534
  26 C :    0.342554
  27 C :   -0.535427
  28 H :    0.236348
  29 C :   -0.929859
  30 H :    0.252309
  31 H :    0.322597
  32 H :    0.211321
  33 C :   -1.053206
  34 H :    0.334129
  35 H :    0.151090
  36 H :    0.285299
  37 C :   -1.096573
  38 H :    0.265702
  39 H :    0.203952
  40 H :    0.300420
  41 C :   -1.244107
  42 H :    0.235716
  43 H :    0.193325
  44 H :    0.263559
  45 H :    0.093498
  46 H :    0.030940
Sum of atomic charges:    0.0000000

LOEWDIN ATOMIC CHARGES
----------------------
   0 C :    0.392039
   1 C :    0.298389
   2 C :    0.282817
   3 C :    0.229728
   4 C :    0.277717
   5 C :    0.397587
   6 C :    0.135354
   7 H :   -0.269777
   8 C :    0.534535
   9 H :   -0.252823
  10 H :   -0.261950
  11 C :    0.128047
  12 C :    0.522836
  13 H :   -0.257145
  14 H :   -0.260839
  15 H :   -0.406583
  16 H :   -0.315046
  17 C :   -0.712553
  18 O :    0.757408
  19 H :   -0.321397
  20 H :   -0.327083
  21 H :   -0.283386
  22 C :    0.940191
  23 H :   -0.269348
  24 H :   -0.269660
  25 H :   -0.269046
  26 C :   -0.021002
  27 C :    0.385832
  28 H :   -0.319592
  29 C :    0.924565
  30 H :   -0.327596
  31 H :   -0.280570
  32 H :   -0.282437
  33 C :    0.901188
  34 H :   -0.321634
  35 H :   -0.275711
  36 H :   -0.274738
  37 C :    0.883234
  38 H :   -0.306364
  39 H :   -0.316994
  40 H :   -0.276171
  41 C :    0.944541
  42 H :   -0.283646
  43 H :   -0.261592
  44 H :   -0.267819
  45 H :   -0.336231
  46 H :   -0.307273

  Mayer bond orders larger than 0.100000
B(  0-C ,  1-C ) :   1.4121 B(  0-C ,  4-C ) :  -0.5234 B(  0-C ,  5-C ) :   0.6674
B(  0-C , 26-C ) :  -0.5072 B(  0-C , 45-H ) :   1.1827 B(  0-C , 46-H ) :  -0.2647
B(  1-C ,  2-C ) :   0.1340 B(  1-C ,  5-C ) :  -0.5028 B(  1-C , 15-H ) :   1.3239
B(  1-C , 26-C ) :   0.4162 B(  1-C , 27-C ) :  -0.4588 B(  2-C ,  3-C ) :   0.1453
B(  2-C ,  5-C ) :   0.2449 B(  2-C , 16-H ) :   1.2326 B(  2-C , 17-C ) :   1.0237
B(  2-C , 18-O ) :   0.3325 B(  2-C , 19-H ) :  -0.1786 B(  2-C , 37-C ) :  -0.1919
B(  3-C ,  4-C ) :   0.2496 B(  3-C ,  5-C ) :  -0.1550 B(  3-C ,  6-C ) :   0.9535
B(  3-C ,  7-H ) :   0.1465 B(  3-C , 11-C ) :   0.1885 B(  3-C , 12-C ) :  -0.1740
B(  3-C , 17-C ) :  -0.2141 B(  3-C , 19-H ) :   0.9495 B(  3-C , 41-C ) :  -0.1169
B(  4-C ,  5-C ) :   1.0389 B(  4-C ,  8-C ) :   0.3898 B(  4-C ,  9-H ) :  -0.1327
B(  4-C , 10-H ) :  -0.3011 B(  4-C , 11-C ) :  -0.1092 B(  4-C , 15-H ) :  -0.1460
B(  4-C , 18-O ) :   0.1407 B(  4-C , 20-H ) :   1.1276 B(  5-C ,  8-C ) :  -0.3692
B(  5-C , 45-H ) :  -0.1934 B(  5-C , 46-H ) :   1.3872 B(  6-C ,  7-H ) :   1.0484
B(  6-C , 11-C ) :  -0.1235 B(  6-C , 12-C ) :   0.4325 B(  6-C , 13-H ) :  -0.1022
B(  6-C , 14-H ) :  -0.1740 B(  6-C , 41-C ) :   0.3180 B(  6-C , 42-H ) :  -0.1700
B(  6-C , 43-H ) :  -0.2171 B(  6-C , 44-H ) :  -0.1334 B(  8-C ,  9-H ) :   1.1957
B(  8-C , 10-H ) :   1.4110 B(  8-C , 11-C ) :   0.5750 B(  8-C , 20-H ) :  -0.1431
B(  9-H , 11-C ) :  -0.1046 B( 11-C , 12-C ) :   0.4959 B( 11-C , 14-H ) :  -0.1354
B( 11-C , 21-H ) :   1.0609 B( 11-C , 22-C ) :   0.3692 B( 11-C , 23-H ) :  -0.1468
B( 11-C , 24-H ) :  -0.1677 B( 11-C , 25-H ) :  -0.1899 B( 12-C , 13-H ) :   1.0988
B( 12-C , 14-H ) :   1.1835 B( 12-C , 41-C ) :   0.2209 B( 17-C , 18-O ) :   0.2717
B( 17-C , 37-C ) :   0.7534 B( 17-C , 39-H ) :  -0.1142 B( 22-C , 23-H ) :   1.1283
B( 22-C , 24-H ) :   1.1441 B( 22-C , 25-H ) :   1.1212 B( 26-C , 27-C ) :   1.4119
B( 26-C , 28-H ) :  -0.1186 B( 26-C , 29-C ) :  -0.1289 B( 26-C , 33-C ) :   0.5365
B( 26-C , 35-H ) :  -0.1429 B( 26-C , 36-H ) :  -0.1522 B( 27-C , 28-H ) :   1.0751
B( 27-C , 29-C ) :   0.6771 B( 27-C , 31-H ) :  -0.1829 B( 27-C , 32-H ) :  -0.1499
B( 29-C , 30-H ) :   0.9746 B( 29-C , 31-H ) :   1.0150 B( 29-C , 32-H ) :   1.0771
B( 33-C , 34-H ) :   0.9653 B( 33-C , 35-H ) :   1.1214 B( 33-C , 36-H ) :   1.0445
B( 37-C , 38-H ) :   1.0719 B( 37-C , 39-H ) :   0.9867 B( 37-C , 40-H ) :   0.9542
B( 41-C , 42-H ) :   1.1055 B( 41-C , 43-H ) :   1.1410 B( 41-C , 44-H ) :   1.0684

MP2 TOTAL ENERGY:     -776.517661331 Eh
FINAL SINGLE POINT ENERGY      -776.517661331274

DIPOLE MOMENT
-------------
                                X             Y             Z
Electronic contribution:     -3.65086      -1.49471      -5.75824
Nuclear contribution   :      3.51357       1.00599       7.02253
                        -----------------------------------------
Total Dipole Moment    :     -0.13729      -0.48872       1.26429
                        -----------------------------------------
Magnitude (a.u.)       :      1.36240
Magnitude (Debye)      :      3.46293

Rotational constants in cm-1:     0.021996     0.007221     0.006532
Rotational constants in MHz :   659.410562   216.466133   195.834295

                             ****ORCA TERMINATED NORMALLY****
TOTAL RUN TIME: 0 days 11 hours 53 minutes 27 seconds 912 msec
