                         Program Version 4.2.1 -  RELEASE  -
|  1> %pal
|  2>  nprocs 32
|  3> end
|  4> !RI-MP2 aug-cc-pVQZ aug-cc-pVQZ/C TightSCF
|  5> %maxcore 4500
|  6> *xyzfile 1 1  08_12R1.xyz
|  7>
|  8>
|  9>                          ****END OF INPUT****

CARTESIAN COORDINATES (ANGSTROEM)
---------------------------------
  S      1.773104    0.183507   -0.455634
  C      2.888563    1.603461   -0.452918
  H      2.272999    2.490724   -0.313340
  H      3.369713    1.647962   -1.428834
  H      3.632096    1.517136    0.337723
  C      1.216423    0.164168    1.291627
  C      2.943483   -1.188589   -0.505042
  C     -0.294617    0.140671    1.357148
  H      1.601337    1.075177    1.746364
  H      1.662097   -0.704159    1.773956
  C     -0.941010   -1.158291    0.846465
  C     -2.223423   -0.656262    0.136020
  C     -2.179158    0.882126    0.271312
  O     -0.781998    1.176480    0.537158
  N     -2.681574    1.541257   -0.863702
  H     -2.752506    1.191084    1.151411
  O     -2.145007   -1.074630   -1.210148
  H     -3.123198   -1.054653    0.606907
  O     -0.059488   -1.807595   -0.049439
  H     -1.173004   -1.835494    1.670281
  H     -0.563478   -1.999235   -0.856979
  H     -3.002151   -0.978798   -1.636820
  H     -0.583227    0.306869    2.404421
  H     -2.835692    2.530332   -0.729008
  H     -2.131442    1.369449   -1.695206
  H      2.356332   -2.092309   -0.360496
  H      3.699440   -1.074471    0.269789
  H      3.402418   -1.192269   -1.492348

 Total Charge           Charge          ....    1
 Multiplicity           Mult            ....    1
 Number of Electrons    NEL             ....  104
 Basis Dimension        Dim             .... 1700

ORBITAL ENERGIES
----------------

  NO   OCC          E(Eh)            E(eV)
   0   2.0000     -92.201478     -2508.9298
   1   2.0000     -20.694757      -563.1330
   2   2.0000     -20.689494      -562.9897
   3   2.0000     -20.688778      -562.9703
   4   2.0000     -15.662073      -426.1867
   5   2.0000     -11.434654      -311.1528
   6   2.0000     -11.430390      -311.0367
   7   2.0000     -11.429679      -311.0174
   8   2.0000     -11.421184      -310.7862
   9   2.0000     -11.418736      -310.7196
  10   2.0000     -11.418150      -310.7037
  11   2.0000     -11.415522      -310.6321
  12   2.0000      -9.199238      -250.3240
  13   2.0000      -6.880277      -187.2219
  14   2.0000      -6.880092      -187.2168
  15   2.0000      -6.879145      -187.1910
  16   2.0000      -1.541689       -41.9515
  17   2.0000      -1.508827       -41.0573
  18   2.0000      -1.486024       -40.4368
  19   2.0000      -1.314797       -35.7774
  20   2.0000      -1.297510       -35.3070
  21   2.0000      -1.188464       -32.3397
  22   2.0000      -1.152238       -31.3540
  23   2.0000      -1.131717       -30.7956
  24   2.0000      -1.058810       -28.8117
  25   2.0000      -0.993235       -27.0273
  26   2.0000      -0.950940       -25.8764
  27   2.0000      -0.932239       -25.3675
  28   2.0000      -0.865779       -23.5591
  29   2.0000      -0.858439       -23.3593
  30   2.0000      -0.826007       -22.4768
  31   2.0000      -0.810268       -22.0485
  32   2.0000      -0.806355       -21.9420
  33   2.0000      -0.787658       -21.4333
  34   2.0000      -0.777153       -21.1474
  35   2.0000      -0.769568       -20.9410
  36   2.0000      -0.750872       -20.4323
  37   2.0000      -0.744284       -20.2530
  38   2.0000      -0.720828       -19.6147
  39   2.0000      -0.717162       -19.5150
  40   2.0000      -0.710315       -19.3286
  41   2.0000      -0.685967       -18.6661
  42   2.0000      -0.680338       -18.5129
  43   2.0000      -0.676501       -18.4085
  44   2.0000      -0.670141       -18.2355
  45   2.0000      -0.646207       -17.5842
  46   2.0000      -0.616463       -16.7748
  47   2.0000      -0.606043       -16.4913
  48   2.0000      -0.598320       -16.2811
  49   2.0000      -0.568511       -15.4700
  50   2.0000      -0.555817       -15.1246
  51   2.0000      -0.526849       -14.3363
  52   0.0000      -0.071824        -1.9544
  53   0.0000      -0.062813        -1.7092
  54   0.0000      -0.057152        -1.5552
  55   0.0000      -0.056756        -1.5444
  56   0.0000      -0.043270        -1.1774

MULLIKEN ATOMIC CHARGES
-----------------------
   0 S :    0.566939
   1 C :   -1.051045
   2 H :    0.428177
   3 H :    0.396262
   4 H :    0.326838
   5 C :   -0.736370
   6 C :   -1.090336
   7 C :    0.431547
   8 H :    0.287473
   9 H :    0.359113
  10 C :    0.305808
  11 C :    0.237041
  12 C :    0.510406
  13 O :   -0.975703
  14 N :   -0.962047
  15 H :    0.410579
  16 O :   -0.912387
  17 H :    0.301192
  18 O :   -1.107288
  19 H :    0.469892
  20 H :    0.393222
  21 H :    0.309746
  22 H :    0.413426
  23 H :    0.166767
  24 H :    0.301405
  25 H :    0.482403
  26 H :    0.339658
  27 H :    0.397283
Sum of atomic charges:    1.0000000

LOEWDIN ATOMIC CHARGES
----------------------
   0 S :    1.447412
   1 C :    0.797792
   2 H :   -0.319055
   3 H :   -0.319364
   4 H :   -0.311191
   5 C :    0.375187
   6 C :    0.799892
   7 C :   -0.306452
   8 H :   -0.319667
   9 H :   -0.304024
  10 C :   -0.178619
  11 C :   -0.153376
  12 C :   -0.342933
  13 O :    0.903242
  14 N :    1.288571
  15 H :   -0.291228
  16 O :    1.345370
  17 H :   -0.263372
  18 O :    1.284127
  19 H :   -0.270675
  20 H :   -0.917078
  21 H :   -0.717188
  22 H :   -0.266277
  23 H :   -0.472035
  24 H :   -0.507445
  25 H :   -0.359898
  26 H :   -0.307779
  27 H :   -0.313934

  Mayer bond orders larger than 0.100000
B(  0-S ,  1-C ) :   1.0840 B(  0-S ,  5-C ) :   0.8204 B(  0-S ,  6-C ) :   0.9304
B(  1-C ,  2-H ) :   0.8232 B(  1-C ,  3-H ) :   0.8536 B(  1-C ,  4-H ) :   0.8555
B(  5-C ,  7-C ) :   0.8944 B(  5-C ,  8-H ) :   0.9946 B(  5-C ,  9-H ) :   0.8569
B(  5-C , 13-O ) :   0.1784 B(  5-C , 18-O ) :   0.1042 B(  6-C , 25-H ) :   0.7869
B(  6-C , 26-H ) :   0.8648 B(  6-C , 27-H ) :   0.8386 B(  7-C , 10-C ) :   0.9105
B(  7-C , 12-C ) :  -0.2166 B(  7-C , 13-O ) :   0.5037 B(  7-C , 22-H ) :   0.8339
B( 10-C , 11-C ) :   1.0069 B( 10-C , 18-O ) :   0.4457 B( 10-C , 19-H ) :   0.8446
B( 11-C , 12-C ) :   0.9271 B( 11-C , 14-N ) :   0.1797 B( 11-C , 16-O ) :   0.4061
B( 11-C , 17-H ) :   0.9326 B( 12-C , 13-O ) :   0.8432 B( 12-C , 14-N ) :   0.3209
B( 12-C , 15-H ) :   0.8973 B( 12-C , 16-O ) :   0.1422 B( 13-O , 14-N ) :   0.1011
B( 14-N , 15-H ) :  -0.1009 B( 14-N , 23-H ) :   1.0467 B( 14-N , 24-H ) :   0.8826
B( 16-O , 21-H ) :   0.9553 B( 18-O , 19-H ) :  -0.1098 B( 18-O , 20-H ) :   0.8517

MP2 TOTAL ENERGY:     -953.464793614 Eh
FINAL SINGLE POINT ENERGY      -953.464793613521

DIPOLE MOMENT
-------------
                                X             Y             Z
Electronic contribution:     -3.83703      -0.84511      -1.23704
Nuclear contribution   :      5.80035       1.19154       1.46721
                        -----------------------------------------
Total Dipole Moment    :      1.96332       0.34642       0.23017
                        -----------------------------------------
Magnitude (a.u.)       :      2.00689
Magnitude (Debye)      :      5.10111

Rotational constants in cm-1:     0.044784     0.019302     0.017057
Rotational constants in MHz :  1342.597816   578.669242   511.355265

                             ****ORCA TERMINATED NORMALLY****
TOTAL RUN TIME: 0 days 2 hours 9 minutes 40 seconds 98 msec
