                         Program Version 4.2.1 -  RELEASE  -
|  1> %pal
|  2>  nprocs 32
|  3> end
|  4> !RI-MP2 aug-cc-pVQZ aug-cc-pVQZ/C TightSCF
|  5> %maxcore 4500
|  6> *xyzfile 0 1  04_34R1.xyz
|  7>
|  8>
|  9>                          ****END OF INPUT****

CARTESIAN COORDINATES (ANGSTROEM)
---------------------------------
  H      2.678927    0.770316   -0.000135
  O      2.294480   -0.110390   -0.000149
  C      0.933382   -0.025002   -0.000060
  C      0.263252    1.191959   -0.000035
  C     -1.125183    1.212599    0.000055
  C     -1.847008    0.028519    0.000117
  C     -1.165541   -1.183312    0.000091
  C      0.219056   -1.216941    0.000004
  H      0.762898   -2.152825   -0.000016
  H     -1.641865    2.164822    0.000075
  H      0.824467    2.120922   -0.000087
  H     -2.929281    0.047838    0.000186
  H     -1.718726   -2.114887    0.000139

 Total Charge           Charge          ....    0
 Multiplicity           Mult            ....    1
 Number of Electrons    NEL             ....   50
 Basis Dimension        Dim             ....  836

ORBITAL ENERGIES
----------------

  NO   OCC          E(Eh)            E(eV)
   0   2.0000     -20.588895      -560.2523
   1   2.0000     -11.301700      -307.5349
   2   2.0000     -11.240538      -305.8706
   3   2.0000     -11.238633      -305.8187
   4   2.0000     -11.232155      -305.6425
   5   2.0000     -11.226164      -305.4795
   6   2.0000     -11.225118      -305.4510
   7   2.0000      -1.407587       -38.3024
   8   2.0000      -1.151281       -31.3279
   9   2.0000      -1.022560       -27.8253
  10   2.0000      -1.007399       -27.4127
  11   2.0000      -0.849110       -23.1055
  12   2.0000      -0.825005       -22.4495
  13   2.0000      -0.736668       -20.0458
  14   2.0000      -0.686909       -18.6917
  15   2.0000      -0.653963       -17.7952
  16   2.0000      -0.611562       -16.6414
  17   2.0000      -0.593241       -16.1429
  18   2.0000      -0.592740       -16.1293
  19   2.0000      -0.569933       -15.5087
  20   2.0000      -0.518001       -14.0955
  21   2.0000      -0.494827       -13.4649
  22   2.0000      -0.486339       -13.2339
  23   2.0000      -0.344718        -9.3802
  24   2.0000      -0.317294        -8.6340
  25   0.0000       0.023297         0.6339
  26   0.0000       0.028932         0.7873
  27   0.0000       0.031710         0.8629
  28   0.0000       0.042125         1.1463
  29   0.0000       0.044537         1.2119

MULLIKEN ATOMIC CHARGES
-----------------------
   0 H :    0.356143
   1 O :   -0.795664
   2 C :    0.979199
   3 C :   -0.532189
   4 C :   -0.332471
   5 C :   -0.323404
   6 C :   -0.396523
   7 C :   -0.436835
   8 H :    0.380566
   9 H :    0.284240
  10 H :    0.268636
  11 H :    0.298696
  12 H :    0.249605
Sum of atomic charges:    0.0000000

LOEWDIN ATOMIC CHARGES
----------------------
   0 H :   -0.806780
   1 O :    1.274145
   2 C :   -0.448928
   3 C :    0.322683
   4 C :    0.320843
   5 C :    0.325705
   6 C :    0.320623
   7 C :    0.314887
   8 H :   -0.327287
   9 H :   -0.320507
  10 H :   -0.325187
  11 H :   -0.329771
  12 H :   -0.320426

  Mayer bond orders larger than 0.100000
B(  0-H ,  1-O ) :   0.8942 B(  1-O ,  2-C ) :   0.1137 B(  1-O ,  3-C ) :   0.2062
B(  1-O ,  7-C ) :   0.2663 B(  2-C ,  3-C ) :   1.2783 B(  2-C ,  4-C ) :  -0.1452
B(  2-C ,  6-C ) :  -0.1893 B(  2-C ,  7-C ) :   1.2670 B(  3-C ,  4-C ) :   1.2506
B(  3-C ,  9-H ) :  -0.1042 B(  3-C , 10-H ) :   1.0183 B(  4-C ,  5-C ) :   1.1901
B(  4-C ,  9-H ) :   1.0390 B(  5-C ,  6-C ) :   1.1745 B(  5-C , 11-H ) :   1.0322
B(  6-C ,  7-C ) :   1.3016 B(  6-C , 12-H ) :   1.1055 B(  7-C ,  8-H ) :   0.8806
B(  7-C , 12-H ) :  -0.1046

MP2 TOTAL ENERGY:     -306.962700990 Eh
FINAL SINGLE POINT ENERGY      -306.962700990098

DIPOLE MOMENT
-------------
                                X             Y             Z
Electronic contribution:      1.92279      -0.30531      -0.00013
Nuclear contribution   :     -1.98299       0.83259       0.00016
                        -----------------------------------------
Total Dipole Moment    :     -0.06020       0.52728       0.00003
                        -----------------------------------------
Magnitude (a.u.)       :      0.53071
Magnitude (Debye)      :      1.34895

Rotational constants in cm-1:     0.190410     0.088052     0.060209
Rotational constants in MHz :  5708.341433  2639.743150  1805.031447

                             ****ORCA TERMINATED NORMALLY****
TOTAL RUN TIME: 0 days 0 hours 13 minutes 53 seconds 367 msec
