                         Program Version 4.2.1 -  RELEASE  -
|  1> %pal
|  2>  nprocs 32
|  3> end
|  4> !RI-MP2 aug-cc-pVQZ aug-cc-pVQZ/C TightSCF
|  5> %maxcore 4500
|  6> *xyzfile 0 1  04_60P2.xyz
|  7>
|  8>
|  9>                          ****END OF INPUT****

CARTESIAN COORDINATES (ANGSTROEM)
---------------------------------
  C     -0.026229    1.224163   -0.003523
  C     -1.408339    1.194841   -0.009139
  C     -2.099813   -0.016837   -0.009300
  C     -1.365318   -1.200245   -0.009546
  C      0.019896   -1.181292   -0.004151
  C      0.697173    0.034245   -0.000294
  H      0.513510    2.162478   -0.004473
  H      0.580413   -2.106295   -0.005665
  H     -1.886386   -2.150813   -0.016084
  H     -1.964039    2.125823   -0.015338
  C     -3.602393   -0.039885    0.013708
  C      2.174894    0.112390    0.002812
  O      2.813764    1.133129    0.004269
  O      2.770951   -1.098746    0.004475
  H      3.724655   -0.940859    0.007046
  H     -3.991444   -0.992446   -0.347351
  H     -4.020048    0.757146   -0.603556
  H     -3.973600    0.105622    1.032064

 Total Charge           Charge          ....    0
 Multiplicity           Mult            ....    1
 Number of Electrons    NEL             ....   72
 Basis Dimension        Dim             .... 1168

ORBITAL ENERGIES
----------------

  NO   OCC          E(Eh)            E(eV)
   0   2.0000     -20.607632      -560.7622
   1   2.0000     -20.540393      -558.9325
   2   2.0000     -11.383842      -309.7701
   3   2.0000     -11.259454      -306.3853
   4   2.0000     -11.251199      -306.1607
   5   2.0000     -11.248387      -306.0842
   6   2.0000     -11.246375      -306.0294
   7   2.0000     -11.237909      -305.7991
   8   2.0000     -11.237153      -305.7785
   9   2.0000     -11.233960      -305.6916
  10   2.0000      -1.465131       -39.8683
  11   2.0000      -1.358636       -36.9704
  12   2.0000      -1.174616       -31.9629
  13   2.0000      -1.073179       -29.2027
  14   2.0000      -1.029345       -28.0099
  15   2.0000      -0.967584       -26.3293
  16   2.0000      -0.872109       -23.7313
  17   2.0000      -0.844486       -22.9796
  18   2.0000      -0.793937       -21.6041
  19   2.0000      -0.726158       -19.7598
  20   2.0000      -0.703899       -19.1541
  21   2.0000      -0.651318       -17.7233
  22   2.0000      -0.646471       -17.5914
  23   2.0000      -0.634361       -17.2618
  24   2.0000      -0.629830       -17.1385
  25   2.0000      -0.600012       -16.3271
  26   2.0000      -0.588680       -16.0188
  27   2.0000      -0.578129       -15.7317
  28   2.0000      -0.551658       -15.0114
  29   2.0000      -0.516350       -14.0506
  30   2.0000      -0.508980       -13.8501
  31   2.0000      -0.499009       -13.5787
  32   2.0000      -0.481279       -13.0963
  33   2.0000      -0.454061       -12.3556
  34   2.0000      -0.349835        -9.5195
  35   2.0000      -0.343411        -9.3447
  36   0.0000       0.022349         0.6081
  37   0.0000       0.027234         0.7411
  38   0.0000       0.030590         0.8324
  39   0.0000       0.037892         1.0311
  40   0.0000       0.039123         1.0646

MULLIKEN ATOMIC CHARGES
-----------------------
   0 C :   -0.108028
   1 C :   -0.288092
   2 C :    0.355364
   3 C :   -0.335386
   4 C :   -0.186436
   5 C :   -0.762942
   6 H :    0.240850
   7 H :    0.253762
   8 H :    0.223884
   9 H :    0.266529
  10 C :   -0.824968
  11 C :    1.617146
  12 O :   -0.822819
  13 O :   -0.677007
  14 H :    0.316869
  15 H :    0.223624
  16 H :    0.216895
  17 H :    0.290755
Sum of atomic charges:   -0.0000000

LOEWDIN ATOMIC CHARGES
----------------------
   0 C :    0.326240
   1 C :    0.363494
   2 C :   -0.069503
   3 C :    0.362610
   4 C :    0.334795
   5 C :   -0.156699
   6 H :   -0.330207
   7 H :   -0.336530
   8 H :   -0.318157
   9 H :   -0.314173
  10 C :    0.913166
  11 C :   -1.053024
  12 O :    0.708664
  13 O :    1.246821
  14 H :   -0.811346
  15 H :   -0.300392
  16 H :   -0.291295
  17 H :   -0.274466

  Mayer bond orders larger than 0.100000
B(  0-C ,  1-C ) :   1.2937 B(  0-C ,  2-C ) :  -0.1272 B(  0-C ,  3-C ) :   0.1285
B(  0-C ,  5-C ) :   1.0383 B(  0-C ,  6-H ) :   1.0079 B(  0-C ,  9-H ) :  -0.1297
B(  0-C , 11-C ) :  -0.3455 B(  0-C , 12-O ) :  -0.1555 B(  1-C ,  2-C ) :   0.9847
B(  1-C ,  4-C ) :   0.1324 B(  1-C ,  5-C ) :  -0.2317 B(  1-C ,  6-H ) :  -0.1214
B(  1-C ,  9-H ) :   1.0252 B(  2-C ,  3-C ) :   1.0073 B(  2-C ,  4-C ) :  -0.1632
B(  2-C , 10-C ) :   0.7508 B(  2-C , 15-H ) :  -0.1030 B(  2-C , 16-H ) :  -0.1083
B(  3-C ,  4-C ) :   1.2353 B(  3-C ,  5-C ) :  -0.1945 B(  3-C ,  7-H ) :  -0.1193
B(  3-C ,  8-H ) :   1.0806 B(  4-C ,  5-C ) :   1.0054 B(  4-C ,  7-H ) :   1.0184
B(  4-C ,  8-H ) :  -0.1731 B(  4-C , 11-C ) :  -0.2577 B(  5-C , 11-C ) :   1.3456
B(  5-C , 12-O ) :   0.6119 B(  5-C , 13-O ) :   0.2378 B( 10-C , 15-H ) :   1.0404
B( 10-C , 16-H ) :   1.0436 B( 10-C , 17-H ) :   0.9429 B( 11-C , 12-O ) :   1.0152
B( 11-C , 13-O ) :   0.7068 B( 13-O , 14-H ) :   0.9333

MP2 TOTAL ENERGY:     -459.420179760 Eh
FINAL SINGLE POINT ENERGY      -459.420179760439

DIPOLE MOMENT
-------------
                                X             Y             Z
Electronic contribution:      9.92360       0.41882      -0.03408
Nuclear contribution   :    -10.85435      -1.03172       0.04646
                        -----------------------------------------
Total Dipole Moment    :     -0.93075      -0.61290       0.01238
                        -----------------------------------------
Magnitude (a.u.)       :      1.11449
Magnitude (Debye)      :      2.83282

Rotational constants in cm-1:     0.128023     0.026411     0.021984
Rotational constants in MHz :  3838.042265   791.796385   659.070036

                             ****ORCA TERMINATED NORMALLY****
TOTAL RUN TIME: 0 days 0 hours 44 minutes 52 seconds 99 msec
