                         Program Version 4.2.1 -  RELEASE  -
|  1> %pal
|  2>  nprocs 32
|  3> end
|  4> !RI-MP2 aug-cc-pVQZ aug-cc-pVQZ/C TightSCF
|  5> %maxcore 4500
|  6> *xyzfile 1 1  05_12TS.xyz
|  7>
|  8>
|  9>                          ****END OF INPUT****

CARTESIAN COORDINATES (ANGSTROEM)
---------------------------------
  C      0.339672   -0.703234   -0.578206
  C      0.667074    1.846389    0.093706
  C      2.148944    1.659494   -0.250837
  C      2.639021    0.242446   -0.018370
  C      1.835550   -0.708524   -0.897352
  H      2.303452    1.925523   -1.301984
  H      2.720634    2.368729    0.351323
  H      2.506412   -0.040089    1.027218
  H      1.985096   -0.430944   -1.945213
  H      2.205719   -1.725376   -0.766466
  N     -0.124296    0.709368   -0.468565
  O     -1.366470    0.908612   -0.604078
  C     -0.438368   -1.364607   -1.715239
  H     -0.032013   -2.363415   -1.877977
  H     -1.497241   -1.456200   -1.479566
  H     -0.334299   -0.796500   -2.640588
  C      0.050918   -1.439362    0.741899
  H     -1.007112   -1.379412    0.993171
  H      0.310438   -2.490804    0.612630
  H      0.637394   -1.060139    1.576236
  C      0.153148    3.138025   -0.539302
  H     -0.865588    3.365155   -0.230047
  H      0.796342    3.960589   -0.224648
  H      0.180400    3.076776   -1.627867
  C      0.447796    1.890782    1.614154
  H      0.892351    2.806785    2.005094
  H     -0.615819    1.915554    1.855898
  H      0.903433    1.047998    2.129999
  C     -4.560597   -1.207746   -1.043315
  C     -4.186617   -2.032827   -0.025217
  C     -3.782547   -1.675269    1.292362
  C     -4.657935    0.212722   -1.032107
  C     -3.408755   -0.454136    1.752535
  C     -4.150473    1.084684   -0.123320
  C     -3.292812    0.779785    1.003959
  H     -4.906103   -1.690117   -1.951048
  H     -4.271895   -3.097595   -0.212977
  H     -3.750962   -2.489953    2.007787
  H     -5.205497    0.647599   -1.861203
  H     -3.112234   -0.395133    2.794480
  H     -4.338468    2.138340   -0.297239
  H     -3.111856    1.643276    1.641675
  H     -2.136422    0.746355    0.387386
  N      4.059649    0.137638   -0.276817
  C      4.773771   -0.899775    0.254343
  C      6.242700   -0.939800   -0.071408
  H      6.805501   -0.915483    0.862085
  H      6.466359   -1.886872   -0.563071
  H      6.569456   -0.117501   -0.708214
  O      4.231889   -1.733610    0.955397
  H      4.508746    0.789518   -0.899460

 Total Charge           Charge          ....    1
 Multiplicity           Mult            ....    1
 Number of Electrons    NEL             ....  166
 Basis Dimension        Dim             .... 3094

ORBITAL ENERGIES
----------------

  NO   OCC          E(Eh)            E(eV)
   0   2.0000     -20.798644      -565.9599
   1   2.0000     -20.597446      -560.4850
   2   2.0000     -15.813308      -430.3020
   3   2.0000     -15.673993      -426.5110
   4   2.0000     -11.432481      -311.0936
   5   2.0000     -11.413750      -310.5839
   6   2.0000     -11.412904      -310.5609
   7   2.0000     -11.405792      -310.3674
   8   2.0000     -11.392949      -310.0179
   9   2.0000     -11.392562      -310.0074
  10   2.0000     -11.389347      -309.9199
  11   2.0000     -11.389120      -309.9137
  12   2.0000     -11.387280      -309.8636
  13   2.0000     -11.385881      -309.8256
  14   2.0000     -11.373424      -309.4866
  15   2.0000     -11.347377      -308.7778
  16   2.0000     -11.342851      -308.6547
  17   2.0000     -11.334919      -308.4388
  18   2.0000     -11.334226      -308.4200
  19   2.0000     -11.333036      -308.3876
  20   2.0000     -11.330283      -308.3127
  21   2.0000     -11.310737      -307.7808
  22   2.0000      -1.642360       -44.6909
  23   2.0000      -1.469329       -39.9825
  24   2.0000      -1.336509       -36.3683
  25   2.0000      -1.304512       -35.4976
  26   2.0000      -1.288352       -35.0578
  27   2.0000      -1.232733       -33.5444
  28   2.0000      -1.203643       -32.7528
  29   2.0000      -1.200505       -32.6674
  30   2.0000      -1.160712       -31.5846
  31   2.0000      -1.115712       -30.3601
  32   2.0000      -1.077469       -29.3194
  33   2.0000      -1.070059       -29.1178
  34   2.0000      -1.057888       -28.7866
  35   2.0000      -1.057051       -28.7638
  36   2.0000      -1.053149       -28.6576
  37   2.0000      -1.027993       -27.9731
  38   2.0000      -0.956616       -26.0309
  39   2.0000      -0.951191       -25.8832
  40   2.0000      -0.908872       -24.7317
  41   2.0000      -0.885444       -24.0942
  42   2.0000      -0.869677       -23.6651
  43   2.0000      -0.859620       -23.3914
  44   2.0000      -0.852178       -23.1889
  45   2.0000      -0.814316       -22.1587
  46   2.0000      -0.810396       -22.0520
  47   2.0000      -0.804463       -21.8906
  48   2.0000      -0.778297       -21.1785
  49   2.0000      -0.765396       -20.8275
  50   2.0000      -0.761357       -20.7176
  51   2.0000      -0.760600       -20.6970
  52   2.0000      -0.737484       -20.0680
  53   2.0000      -0.725975       -19.7548
  54   2.0000      -0.712387       -19.3850
  55   2.0000      -0.711991       -19.3743
  56   2.0000      -0.700910       -19.0727
  57   2.0000      -0.700302       -19.0562
  58   2.0000      -0.692161       -18.8347
  59   2.0000      -0.689471       -18.7615
  60   2.0000      -0.685647       -18.6574
  61   2.0000      -0.684732       -18.6325
  62   2.0000      -0.668469       -18.1900
  63   2.0000      -0.658824       -17.9275
  64   2.0000      -0.654684       -17.8149
  65   2.0000      -0.651568       -17.7301
  66   2.0000      -0.644829       -17.5467
  67   2.0000      -0.642208       -17.4754
  68   2.0000      -0.640384       -17.4257
  69   2.0000      -0.633534       -17.2393
  70   2.0000      -0.630273       -17.1506
  71   2.0000      -0.623459       -16.9652
  72   2.0000      -0.614662       -16.7258
  73   2.0000      -0.601011       -16.3543
  74   2.0000      -0.600122       -16.3301
  75   2.0000      -0.592853       -16.1324
  76   2.0000      -0.577293       -15.7089
  77   2.0000      -0.572798       -15.5866
  78   2.0000      -0.545376       -14.8404
  79   2.0000      -0.516688       -14.0598
  80   2.0000      -0.508492       -13.8368
  81   2.0000      -0.484015       -13.1707
  82   2.0000      -0.403616       -10.9829
  83   0.0000      -0.154152        -4.1947
  84   0.0000      -0.080122        -2.1802
  85   0.0000      -0.060997        -1.6598
  86   0.0000      -0.051904        -1.4124
  87   0.0000      -0.050987        -1.3874

MULLIKEN ATOMIC CHARGES
-----------------------
   0 C :    1.575434
   1 C :    1.083611
   2 C :   -0.780857
   3 C :    1.717937
   4 C :   -1.091725
   5 H :    0.177066
   6 H :    0.124524
   7 H :    0.166258
   8 H :    0.278154
   9 H :    0.208442
  10 N :    1.674754
  11 O :   -1.349642
  12 C :   -1.436280
  13 H :    0.186210
  14 H :    0.436679
  15 H :    0.225109
  16 C :   -1.680392
  17 H :    0.610425
  18 H :    0.150197
  19 H :    0.256201
  20 C :   -1.200600
  21 H :    0.243997
  22 H :    0.231936
  23 H :    0.236621
  24 C :   -1.300111
  25 H :    0.130155
  26 H :    0.290369
  27 H :    0.251090
  28 C :   -0.371949
  29 C :   -0.377026
  30 C :   -0.211310
  31 C :   -0.071976
  32 C :   -0.313120
  33 C :   -0.443567
  34 C :    0.151465
  35 H :    0.314593
  36 H :    0.214132
  37 H :    0.323287
  38 H :    0.322755
  39 H :    0.222415
  40 H :    0.242284
  41 H :    0.327534
  42 H :    0.353342
  43 N :   -1.076593
  44 C :    1.007122
  45 C :   -0.905563
  46 H :    0.289677
  47 H :    0.286294
  48 H :    0.211775
  49 O :   -0.930097
  50 H :    0.018962
Sum of atomic charges:    1.0000000

LOEWDIN ATOMIC CHARGES
----------------------
   0 C :   -0.363407
   1 C :   -0.365913
   2 C :    0.535830
   3 C :   -0.021192
   4 C :    0.533921
   5 H :   -0.253890
   6 H :   -0.242152
   7 H :   -0.339582
   8 H :   -0.250185
   9 H :   -0.269460
  10 N :    0.185252
  11 O :    1.051466
  12 C :    0.924273
  13 H :   -0.254708
  14 H :   -0.299195
  15 H :   -0.254329
  16 C :    0.957170
  17 H :   -0.314770
  18 H :   -0.243796
  19 H :   -0.281240
  20 C :    0.924042
  21 H :   -0.276061
  22 H :   -0.258615
  23 H :   -0.256316
  24 C :    0.953741
  25 H :   -0.249559
  26 H :   -0.282820
  27 H :   -0.284533
  28 C :    0.398097
  29 C :    0.396871
  30 C :    0.402543
  31 C :    0.417125
  32 C :    0.433286
  33 C :    0.426834
  34 C :    0.395672
  35 H :   -0.315678
  36 H :   -0.314856
  37 H :   -0.309430
  38 H :   -0.311762
  39 H :   -0.290681
  40 H :   -0.287275
  41 H :   -0.264164
  42 H :   -0.846584
  43 N :    0.878964
  44 C :   -0.806346
  45 C :    0.914204
  46 H :   -0.290138
  47 H :   -0.289899
  48 H :   -0.304303
  49 O :    0.742553
  50 H :   -0.479002

  Mayer bond orders larger than 0.100000
B(  0-C ,  1-C ) :   0.2658 B(  0-C ,  4-C ) :   0.1312 B(  0-C ,  8-H ) :  -0.1040
B(  0-C , 10-N ) :   0.7987 B(  0-C , 13-H ) :  -0.2075 B(  0-C , 14-H ) :  -0.2373
B(  0-C , 15-H ) :  -0.2689 B(  0-C , 16-C ) :   0.2999 B(  0-C , 17-H ) :  -0.1017
B(  0-C , 19-H ) :  -0.2209 B(  1-C ,  2-C ) :   0.5596 B(  1-C , 10-N ) :   0.8217
B(  1-C , 21-H ) :  -0.2090 B(  1-C , 22-H ) :  -0.2024 B(  1-C , 23-H ) :  -0.2398
B(  1-C , 24-C ) :   0.3286 B(  1-C , 26-H ) :  -0.1580 B(  1-C , 27-H ) :  -0.2276
B(  2-C ,  3-C ) :   0.3294 B(  2-C ,  4-C ) :  -0.1269 B(  2-C ,  5-H ) :   1.1869
B(  2-C ,  6-H ) :   1.1541 B(  3-C ,  4-C ) :   0.8317 B(  3-C ,  5-H ) :  -0.1391
B(  3-C ,  6-H ) :  -0.1392 B(  3-C ,  7-H ) :   1.0388 B(  3-C , 43-N ) :  -1.0313
B(  3-C , 50-H ) :  -0.4143 B(  4-C ,  8-H ) :   1.0720 B(  4-C ,  9-H ) :   1.0884
B(  4-C , 43-N ) :   0.5479 B(  9-H , 49-O ) :  -0.1179 B( 10-N , 20-C ) :  -0.1067
B( 10-N , 34-C ) :   0.1786 B( 11-O , 34-C ) :  -0.1259 B( 12-C , 13-H ) :   1.1757
B( 12-C , 14-H ) :   0.9116 B( 12-C , 15-H ) :   1.2282 B( 12-C , 16-C ) :   0.1261
B( 16-C , 17-H ) :   0.6222 B( 16-C , 18-H ) :   1.1343 B( 16-C , 19-H ) :   1.1946
B( 20-C , 21-H ) :   1.0937 B( 20-C , 22-H ) :   1.1235 B( 20-C , 23-H ) :   1.1829
B( 20-C , 24-C ) :   0.1433 B( 24-C , 25-H ) :   1.1257 B( 24-C , 26-H ) :   1.0215
B( 24-C , 27-H ) :   1.1339 B( 28-C , 29-C ) :   1.5968 B( 28-C , 31-C ) :   0.9987
B( 28-C , 32-C ) :   0.1142 B( 28-C , 35-H ) :   1.0135 B( 29-C , 30-C ) :   1.0084
B( 29-C , 33-C ) :   0.1054 B( 29-C , 36-H ) :   1.1189 B( 30-C , 32-C ) :   1.3179
B( 30-C , 34-C ) :  -0.1224 B( 30-C , 37-H ) :   1.0275 B( 31-C , 33-C ) :   1.3573
B( 31-C , 38-H ) :   0.9735 B( 32-C , 33-C ) :   0.2029 B( 32-C , 34-C ) :   0.9300
B( 32-C , 37-H ) :  -0.1477 B( 32-C , 39-H ) :   1.1033 B( 33-C , 34-C ) :   1.0033
B( 33-C , 40-H ) :   1.1118 B( 34-C , 41-H ) :   1.0114 B( 34-C , 42-H ) :   0.3002
B( 43-N , 44-C ) :   1.1131 B( 43-N , 49-O ) :   0.1725 B( 43-N , 50-H ) :   1.4092
B( 44-C , 45-C ) :   0.7249 B( 44-C , 48-H ) :  -0.1585 B( 44-C , 49-O ) :   0.9567
B( 45-C , 46-H ) :   0.9752 B( 45-C , 47-H ) :   0.9515 B( 45-C , 48-H ) :   1.0481

MP2 TOTAL ENERGY:     -961.372173438 Eh
FINAL SINGLE POINT ENERGY      -961.372173437588

DIPOLE MOMENT
-------------
                                X             Y             Z
Electronic contribution:     -7.10402      -3.10342      -0.18011
Nuclear contribution   :      4.79993       4.19834      -0.35058
                        -----------------------------------------
Total Dipole Moment    :     -2.30409       1.09492      -0.53070
                        -----------------------------------------
Magnitude (a.u.)       :      2.60564
Magnitude (Debye)      :      6.62300

Rotational constants in cm-1:     0.018797     0.004900     0.004451
Rotational constants in MHz :   563.526239   146.885188   133.444846

                             ****ORCA TERMINATED NORMALLY****
TOTAL RUN TIME: 0 days 20 hours 58 minutes 12 seconds 522 msec
