                         Program Version 4.2.1 -  RELEASE  -
|  1> %pal
|  2>  nprocs 32
|  3> end
|  4> !RI-MP2 aug-cc-pVQZ aug-cc-pVQZ/C TightSCF
|  5> %maxcore 4500
|  6> *xyzfile 0 1  10_45R.xyz
|  7>
|  8>
|  9>                          ****END OF INPUT****

CARTESIAN COORDINATES (ANGSTROEM)
---------------------------------
  C     -0.186364   -2.313925    0.550362
  H      0.219319   -3.039342    1.276711
  C     -1.135519   -1.374489    1.252034
  C      0.250298    0.604772    0.750372
  H      0.428642    1.231100   -0.121498
  H      0.364916    1.233402    1.637137
  C      1.336526   -0.490507    0.763081
  H      1.449037   -0.870772    1.794777
  N      0.876321   -1.568292   -0.107116
  C     -2.245297    0.588958    0.208580
  C     -1.819920   -1.738088    2.328713
  C     -3.472099   -0.225986    0.012499
  C     -3.554038   -1.237835   -0.842523
  C     -1.142597    0.006241    0.703024
  C     -4.772105   -2.077853   -1.059291
  H     -5.079988   -2.070534   -2.108936
  H     -4.577724   -3.121797   -0.793620
  H     -5.610415   -1.726560   -0.454757
  C      1.924940   -2.433052   -0.604296
  H      2.484326   -2.910635    0.221364
  H      1.458388   -3.234470   -1.182381
  C      2.675654    0.080638    0.348834
  C      3.397464   -0.438170   -0.724675
  C      2.871788   -1.631579   -1.476789
  H      2.333745   -1.302723   -2.371206
  H      3.704327   -2.257181   -1.808250
  H     -0.731834   -2.879849   -0.213158
  C      4.616200    0.142714   -1.071787
  H      5.175476   -0.268945   -1.905397
  C      3.202437    1.155233    1.065629
  H      2.655795    1.548634    1.915192
  C      5.123203    1.220848   -0.368133
  H      6.072701    1.658401   -0.652035
  C      4.412506    1.726731    0.713698
  H      4.803600    2.561194    1.283167
  C     -2.337866    2.041944   -0.302973
  C     -1.596226    3.051300    0.587473
  H     -0.514726    2.968896    0.522854
  H     -1.885383    2.930555    1.634300
  H     -1.860067    4.067100    0.282523
  C     -3.804958    2.503139   -0.348482
  H     -4.409681    1.880426   -1.007899
  H     -3.848781    3.528499   -0.722055
  H     -4.260018    2.492199    0.645401
  C     -1.789047    2.087647   -1.738274
  H     -2.351504    1.408890   -2.383295
  H     -0.739066    1.795558   -1.781386
  H     -1.878367    3.097635   -2.148625
  H     -1.731940   -2.736899    2.742585
  H     -2.501173   -1.053338    2.817888
  H     -2.671207   -1.496058   -1.423580
  H     -4.362513    0.052580    0.571539

 Total Charge           Charge          ....    0
 Multiplicity           Mult            ....    1
 Number of Electrons    NEL             ....  168
 Basis Dimension        Dim             .... 3174

ORBITAL ENERGIES
----------------

  NO   OCC          E(Eh)            E(eV)
   0   2.0000     -15.543603      -422.9629
   1   2.0000     -11.258561      -306.3610
   2   2.0000     -11.250165      -306.1326
   3   2.0000     -11.248275      -306.0811
   4   2.0000     -11.234895      -305.7170
   5   2.0000     -11.233884      -305.6895
   6   2.0000     -11.232658      -305.6562
   7   2.0000     -11.231219      -305.6170
   8   2.0000     -11.228066      -305.5312
   9   2.0000     -11.227280      -305.5098
  10   2.0000     -11.226396      -305.4858
  11   2.0000     -11.226059      -305.4766
  12   2.0000     -11.225693      -305.4666
  13   2.0000     -11.224037      -305.4216
  14   2.0000     -11.223192      -305.3986
  15   2.0000     -11.220096      -305.3143
  16   2.0000     -11.217307      -305.2384
  17   2.0000     -11.214892      -305.1727
  18   2.0000     -11.213867      -305.1448
  19   2.0000     -11.207572      -304.9735
  20   2.0000     -11.204480      -304.8894
  21   2.0000     -11.204211      -304.8821
  22   2.0000     -11.203474      -304.8620
  23   2.0000      -1.252911       -34.0934
  24   2.0000      -1.156507       -31.4702
  25   2.0000      -1.135553       -30.9000
  26   2.0000      -1.089396       -29.6440
  27   2.0000      -1.065229       -28.9863
  28   2.0000      -1.057229       -28.7687
  29   2.0000      -1.049667       -28.5629
  30   2.0000      -1.006039       -27.3757
  31   2.0000      -0.992581       -27.0095
  32   2.0000      -0.962136       -26.1810
  33   2.0000      -0.930276       -25.3141
  34   2.0000      -0.926875       -25.2216
  35   2.0000      -0.916477       -24.9386
  36   2.0000      -0.895081       -24.3564
  37   2.0000      -0.858061       -23.3490
  38   2.0000      -0.834280       -22.7019
  39   2.0000      -0.819321       -22.2949
  40   2.0000      -0.805340       -21.9144
  41   2.0000      -0.754448       -20.5296
  42   2.0000      -0.751415       -20.4471
  43   2.0000      -0.733293       -19.9539
  44   2.0000      -0.691810       -18.8251
  45   2.0000      -0.675433       -18.3795
  46   2.0000      -0.666619       -18.1396
  47   2.0000      -0.653558       -17.7842
  48   2.0000      -0.641925       -17.4677
  49   2.0000      -0.631055       -17.1719
  50   2.0000      -0.625071       -17.0091
  51   2.0000      -0.607238       -16.5238
  52   2.0000      -0.603210       -16.4142
  53   2.0000      -0.597847       -16.2682
  54   2.0000      -0.594733       -16.1835
  55   2.0000      -0.583270       -15.8716
  56   2.0000      -0.581123       -15.8132
  57   2.0000      -0.574882       -15.6433
  58   2.0000      -0.563083       -15.3223
  59   2.0000      -0.561424       -15.2771
  60   2.0000      -0.552409       -15.0318
  61   2.0000      -0.547005       -14.8848
  62   2.0000      -0.538605       -14.6562
  63   2.0000      -0.531623       -14.4662
  64   2.0000      -0.526109       -14.3161
  65   2.0000      -0.521829       -14.1997
  66   2.0000      -0.518971       -14.1219
  67   2.0000      -0.515637       -14.0312
  68   2.0000      -0.512783       -13.9535
  69   2.0000      -0.505272       -13.7492
  70   2.0000      -0.496410       -13.5080
  71   2.0000      -0.488013       -13.2795
  72   2.0000      -0.477797       -13.0015
  73   2.0000      -0.467130       -12.7113
  74   2.0000      -0.462707       -12.5909
  75   2.0000      -0.456824       -12.4308
  76   2.0000      -0.442063       -12.0291
  77   2.0000      -0.430111       -11.7039
  78   2.0000      -0.373988       -10.1767
  79   2.0000      -0.360584        -9.8120
  80   2.0000      -0.355863        -9.6835
  81   2.0000      -0.327999        -8.9253
  82   2.0000      -0.319935        -8.7059
  83   2.0000      -0.301047        -8.1919
  84   0.0000       0.020970         0.5706
  85   0.0000       0.024360         0.6629
  86   0.0000       0.024949         0.6789
  87   0.0000       0.027498         0.7483
  88   0.0000       0.032298         0.8789

MULLIKEN ATOMIC CHARGES
-----------------------
   0 C :   -0.230135
   1 H :    0.187526
   2 C :   -0.078509
   3 C :   -0.275504
   4 H :    0.386660
   5 H :    0.193845
   6 C :    1.121867
   7 H :    0.302551
   8 N :   -0.137272
   9 C :    0.418040
  10 C :   -1.046813
  11 C :   -0.330146
  12 C :   -0.441991
  13 C :    0.601649
  14 C :   -0.959916
  15 H :    0.275440
  16 H :    0.276738
  17 H :    0.224353
  18 C :   -0.983441
  19 H :    0.286513
  20 H :    0.202491
  21 C :    0.764870
  22 C :    0.197546
  23 C :   -0.725220
  24 H :    0.219421
  25 H :    0.175097
  26 H :    0.401994
  27 C :   -0.669011
  28 H :    0.209592
  29 C :   -0.844189
  30 H :    0.096742
  31 C :   -0.453936
  32 H :    0.261279
  33 C :   -0.478655
  34 H :    0.192161
  35 C :    2.204410
  36 C :   -1.396507
  37 H :    0.290741
  38 H :    0.123742
  39 H :    0.184638
  40 C :   -1.342556
  41 H :    0.193167
  42 H :    0.190055
  43 H :    0.204054
  44 C :   -1.295025
  45 H :    0.150142
  46 H :    0.258712
  47 H :    0.165031
  48 H :    0.143224
  49 H :    0.128011
  50 H :    0.172496
  51 H :    0.284026
Sum of atomic charges:    0.0000000

LOEWDIN ATOMIC CHARGES
----------------------
   0 C :    0.330300
   1 H :   -0.268083
   2 C :   -0.091932
   3 C :    0.517068
   4 H :   -0.320378
   5 H :   -0.265029
   6 C :   -0.035996
   7 H :   -0.257577
   8 N :    0.534586
   9 C :   -0.031942
  10 C :    0.825123
  11 C :    0.299313
  12 C :    0.388834
  13 C :   -0.017583
  14 C :    0.909964
  15 H :   -0.291876
  16 H :   -0.290605
  17 H :   -0.309961
  18 C :    0.355070
  19 H :   -0.239656
  20 H :   -0.271637
  21 C :   -0.030920
  22 C :   -0.036542
  23 C :    0.524905
  24 H :   -0.255567
  25 H :   -0.274407
  26 H :   -0.269217
  27 C :    0.358992
  28 H :   -0.312864
  29 C :    0.361663
  30 H :   -0.311859
  31 C :    0.349419
  32 H :   -0.320744
  33 C :    0.357018
  34 H :   -0.319411
  35 C :   -0.271316
  36 C :    0.916872
  37 H :   -0.324389
  38 H :   -0.249350
  39 H :   -0.271345
  40 C :    0.887841
  41 H :   -0.288127
  42 H :   -0.273551
  43 H :   -0.256569
  44 C :    0.927592
  45 H :   -0.263110
  46 H :   -0.282157
  47 H :   -0.260584
  48 H :   -0.326769
  49 H :   -0.328957
  50 H :   -0.306547
  51 H :   -0.318003

  Mayer bond orders larger than 0.100000
B(  0-C ,  1-H ) :   1.1150 B(  0-C ,  2-C ) :   0.7199 B(  0-C ,  8-N ) :   0.9083
B(  0-C , 10-C ) :  -0.1972 B(  0-C , 13-C ) :  -0.1971 B(  0-C , 26-H ) :   0.8238
B(  1-H ,  2-C ) :  -0.1474 B(  2-C ,  3-C ) :   0.1587 B(  2-C ,  8-N ) :   0.2032
B(  2-C ,  9-C ) :  -0.6987 B(  2-C , 10-C ) :   1.7569 B(  2-C , 11-C ) :   0.1357
B(  2-C , 13-C ) :   0.2809 B(  2-C , 21-C ) :   0.1264 B(  2-C , 48-H ) :  -0.1960
B(  2-C , 49-H ) :  -0.1974 B(  3-C ,  4-H ) :   1.0151 B(  3-C ,  5-H ) :   0.8029
B(  3-C ,  6-C ) :   1.0358 B(  3-C ,  7-H ) :   0.1027 B(  3-C ,  9-C ) :  -0.1519
B(  3-C , 13-C ) :   0.4694 B(  3-C , 29-C ) :   0.1495 B(  4-H , 21-C ) :  -0.2064
B(  4-H , 29-C ) :  -0.1689 B(  6-C ,  7-H ) :   0.9060 B(  6-C ,  8-N ) :   0.8190
B(  6-C ,  9-C ) :  -0.1484 B(  6-C , 18-C ) :  -0.2035 B(  6-C , 21-C ) :  -0.1797
B(  6-C , 22-C ) :  -0.3580 B(  6-C , 29-C ) :  -0.7452 B(  7-H ,  8-N ) :  -0.1026
B(  8-N , 18-C ) :   0.7188 B(  8-N , 19-H ) :  -0.1315 B(  8-N , 20-H ) :  -0.1028
B(  8-N , 21-C ) :  -0.1626 B(  9-C , 10-C ) :   0.1042 B(  9-C , 11-C ) :   0.9320
B(  9-C , 12-C ) :  -0.5697 B(  9-C , 13-C ) :   1.4315 B(  9-C , 35-C ) :   0.6431
B(  9-C , 40-C ) :  -0.1208 B( 10-C , 13-C ) :  -0.6861 B( 10-C , 48-H ) :   1.2785
B( 10-C , 49-H ) :   1.3414 B( 11-C , 12-C ) :   1.6297 B( 11-C , 13-C ) :  -0.1781
B( 11-C , 35-C ) :  -0.1131 B( 11-C , 50-H ) :   0.1354 B( 11-C , 51-H ) :   0.9382
B( 12-C , 13-C ) :   0.2580 B( 12-C , 14-C ) :   0.5926 B( 12-C , 15-H ) :  -0.1751
B( 12-C , 16-H ) :  -0.1421 B( 12-C , 17-H ) :  -0.1092 B( 12-C , 35-C ) :  -0.1531
B( 12-C , 50-H ) :   1.0413 B( 13-C , 21-C ) :  -0.1141 B( 13-C , 48-H ) :  -0.1115
B( 14-C , 15-H ) :   1.0518 B( 14-C , 16-H ) :   1.0267 B( 14-C , 17-H ) :   1.0192
B( 18-C , 19-H ) :   0.9769 B( 18-C , 20-H ) :   1.0656 B( 18-C , 21-C ) :   0.1053
B( 18-C , 23-C ) :   1.1946 B( 18-C , 25-H ) :  -0.1085 B( 21-C , 22-C ) :   0.8821
B( 21-C , 23-C ) :  -0.1460 B( 21-C , 27-C ) :  -0.5915 B( 21-C , 29-C ) :   1.0894
B( 21-C , 31-C ) :   0.1077 B( 21-C , 33-C ) :  -0.2688 B( 22-C , 23-C ) :   0.3609
B( 22-C , 25-H ) :  -0.1878 B( 22-C , 27-C ) :   1.0961 B( 22-C , 28-H ) :  -0.1104
B( 22-C , 31-C ) :  -0.3205 B( 23-C , 24-H ) :   1.0351 B( 23-C , 25-H ) :   1.1751
B( 27-C , 28-H ) :   1.0858 B( 27-C , 29-C ) :   0.1353 B( 27-C , 31-C ) :   1.3424
B( 27-C , 32-H ) :  -0.1924 B( 27-C , 33-C ) :   0.1677 B( 29-C , 30-H ) :   1.2952
B( 29-C , 33-C ) :   1.1613 B( 29-C , 34-H ) :  -0.2050 B( 31-C , 32-H ) :   1.1497
B( 31-C , 33-C ) :   1.2084 B( 32-H , 33-C ) :  -0.1348 B( 33-C , 34-H ) :   1.2413
B( 35-C , 36-C ) :  -0.1088 B( 35-C , 37-H ) :  -0.1742 B( 35-C , 38-H ) :  -0.3065
B( 35-C , 39-H ) :  -0.1714 B( 35-C , 40-C ) :  -0.1711 B( 35-C , 41-H ) :  -0.2031
B( 35-C , 42-H ) :  -0.1500 B( 35-C , 43-H ) :  -0.2558 B( 35-C , 45-H ) :  -0.2201
B( 35-C , 46-H ) :  -0.1059 B( 35-C , 47-H ) :  -0.1790 B( 36-C , 37-H ) :   1.0193
B( 36-C , 38-H ) :   1.2951 B( 36-C , 39-H ) :   1.1967 B( 36-C , 40-C ) :   0.2159
B( 36-C , 44-C ) :   0.1307 B( 40-C , 41-H ) :   1.1400 B( 40-C , 42-H ) :   1.2141
B( 40-C , 43-H ) :   1.2060 B( 40-C , 44-C ) :   0.1431 B( 44-C , 45-H ) :   1.2361
B( 44-C , 46-H ) :   1.0229 B( 44-C , 47-H ) :   1.1828

MP2 TOTAL ENERGY:     -908.824350000 Eh
FINAL SINGLE POINT ENERGY      -908.824349999843

DIPOLE MOMENT
-------------
                                X             Y             Z
Electronic contribution:     18.36882      -3.81424       3.76445
Nuclear contribution   :    -18.32567       3.56762      -3.83083
                        -----------------------------------------
Total Dipole Moment    :      0.04315      -0.24663      -0.06638
                        -----------------------------------------
Magnitude (a.u.)       :      0.25902
Magnitude (Debye)      :      0.65839

Rotational constants in cm-1:     0.014290     0.005687     0.004799
Rotational constants in MHz :   428.402588   170.478988   143.880561

                             ****ORCA TERMINATED NORMALLY****
TOTAL RUN TIME: 0 days 16 hours 37 minutes 27 seconds 832 msec
