                         Program Version 4.2.1 -  RELEASE  -
|  1> %pal
|  2>  nprocs 32
|  3> end
|  4> !RI-MP2 aug-cc-pVQZ aug-cc-pVQZ/C TightSCF
|  5> %maxcore 4500
|  6> *xyzfile 0 2  01_11P.xyz
|  7>
|  8>
|  9>                          ****END OF INPUT****

CARTESIAN COORDINATES (ANGSTROEM)
---------------------------------
  C      0.315530    1.493620   -0.127760
  C      1.567469    0.688041   -0.021934
  C      1.316513   -0.745123    0.452037
  C      0.236834   -1.432832   -0.384109
  C     -1.056964   -0.647292   -0.445550
  C     -0.988153    0.858736   -0.323657
  C     -1.621987   -0.000283    0.776217
  H      0.387247    2.571006   -0.216141
  H      2.287854    1.185008    0.635743
  H      2.058144    0.644258   -1.009255
  H      1.023505   -0.737116    1.505901
  H      2.242927   -1.321680    0.396139
  H      0.042018   -2.435653    0.008295
  H      0.611416   -1.563019   -1.405742
  H     -1.782067   -1.030850   -1.155147
  H     -1.704879    1.431421   -0.902274
  H     -2.698632    0.050061    0.880241
  H     -1.082989   -0.082642    1.710780

 Total Charge           Charge          ....    0
 Multiplicity           Mult            ....    2
 Number of Electrons    NEL             ....   53
 Basis Dimension        Dim             .... 1066

ORBITAL ENERGIES
----------------
                 SPIN UP ORBITALS
  NO   OCC          E(Eh)            E(eV)
   0   1.0000     -11.224250      -305.4274
   1   1.0000     -11.221308      -305.3473
   2   1.0000     -11.218039      -305.2584
   3   1.0000     -11.217948      -305.2559
   4   1.0000     -11.217024      -305.2307
   5   1.0000     -11.215701      -305.1948
   6   1.0000     -11.215076      -305.1777
   7   1.0000      -1.163067       -31.6487
   8   1.0000      -1.056537       -28.7498
   9   1.0000      -1.005786       -27.3688
  10   1.0000      -0.889739       -24.2110
  11   1.0000      -0.829809       -22.5803
  12   1.0000      -0.786299       -21.3963
  13   1.0000      -0.708381       -19.2760
  14   1.0000      -0.682173       -18.5629
  15   1.0000      -0.617744       -16.8097
  16   1.0000      -0.606277       -16.4976
  17   1.0000      -0.579586       -15.7713
  18   1.0000      -0.568578       -15.4718
  19   1.0000      -0.543790       -14.7973
  20   1.0000      -0.510787       -13.8992
  21   1.0000      -0.488578       -13.2949
  22   1.0000      -0.471644       -12.8341
  23   1.0000      -0.454747       -12.3743
  24   1.0000      -0.433841       -11.8054
  25   1.0000      -0.398223       -10.8362
  26   1.0000      -0.296057        -8.0561
  27   0.0000       0.026275         0.7150
  28   0.0000       0.030331         0.8253
  29   0.0000       0.031616         0.8603
  30   0.0000       0.033128         0.9015
  31   0.0000       0.045017         1.2250

                 SPIN DOWN ORBITALS
  NO   OCC          E(Eh)            E(eV)
   0   1.0000     -11.225621      -305.4647
   1   1.0000     -11.222973      -305.3926
   2   1.0000     -11.218701      -305.2764
   3   1.0000     -11.217171      -305.2347
   4   1.0000     -11.214740      -305.1686
   5   1.0000     -11.214089      -305.1509
   6   1.0000     -11.194312      -304.6127
   7   1.0000      -1.153779       -31.3959
   8   1.0000      -1.050017       -28.5724
   9   1.0000      -0.978612       -26.6294
  10   1.0000      -0.868738       -23.6396
  11   1.0000      -0.828368       -22.5410
  12   1.0000      -0.772304       -21.0155
  13   1.0000      -0.696635       -18.9564
  14   1.0000      -0.673458       -18.3257
  15   1.0000      -0.611595       -16.6423
  16   1.0000      -0.600775       -16.3479
  17   1.0000      -0.575277       -15.6541
  18   1.0000      -0.549025       -14.9397
  19   1.0000      -0.536915       -14.6102
  20   1.0000      -0.504632       -13.7317
  21   1.0000      -0.480039       -13.0625
  22   1.0000      -0.465885       -12.6774
  23   1.0000      -0.449050       -12.2193
  24   1.0000      -0.404433       -11.0052
  25   1.0000      -0.392178       -10.6717
  26   0.0000       0.026217         0.7134
  27   0.0000       0.030351         0.8259
  28   0.0000       0.031723         0.8632
  29   0.0000       0.032918         0.8957
  30   0.0000       0.045099         1.2272

MULLIKEN ATOMIC CHARGES AND SPIN POPULATIONS
--------------------------------------------
   0 C :   -0.310601    1.223197
   1 C :   -0.516915   -0.192096
   2 C :   -0.389121    0.030018
   3 C :   -0.487197   -0.008360
   4 C :   -0.032399    0.043425
   5 C :   -0.495939   -0.271304
   6 C :   -0.772850    0.153538
   7 H :    0.348769   -0.098230
   8 H :    0.258725    0.029617
   9 H :    0.171281    0.090696
  10 H :    0.181081   -0.000620
  11 H :    0.256176   -0.005971
  12 H :    0.241163    0.003605
  13 H :    0.159488   -0.001095
  14 H :    0.425864    0.000471
  15 H :    0.305682    0.022800
  16 H :    0.356001   -0.001245
  17 H :    0.300790   -0.018445
Sum of atomic charges         :   -0.0000000

LOEWDIN ATOMIC CHARGES AND SPIN POPULATIONS
-------------------------------------------
   0 C :    0.477098    0.437552
   1 C :    0.500420    0.130480
   2 C :    0.511833    0.008830
   3 C :    0.541758    0.003447
   4 C :    0.177936    0.023220
   5 C :    0.168892    0.116103
   6 C :    0.621542    0.050431
   7 H :   -0.301089    0.136709
   8 H :   -0.280590    0.016604
   9 H :   -0.272532    0.032078
  10 H :   -0.280148    0.002771
  11 H :   -0.259885    0.001457
  12 H :   -0.259565    0.000807
  13 H :   -0.266326    0.000090
  14 H :   -0.253784    0.005122
  15 H :   -0.277499    0.005695
  16 H :   -0.262065    0.013587
  17 H :   -0.285997    0.015016

  Mayer bond orders larger than 0.100000
B(  0-C ,  1-C ) :   0.8193 B(  0-C ,  5-C ) :   0.8676 B(  0-C ,  7-H ) :   0.9266
B(  1-C ,  2-C ) :   0.9130 B(  1-C ,  8-H ) :   0.9644 B(  1-C ,  9-H ) :   0.9576
B(  2-C ,  3-C ) :   0.9107 B(  2-C , 10-H ) :   0.9661 B(  2-C , 11-H ) :   0.9446
B(  3-C ,  4-C ) :   0.5727 B(  3-C , 12-H ) :   0.9616 B(  3-C , 13-H ) :   1.0253
B(  4-C ,  5-C ) :   0.7976 B(  4-C ,  6-C ) :   0.9385 B(  4-C , 14-H ) :   0.7723
B(  5-C ,  6-C ) :   0.9981 B(  5-C , 15-H ) :   0.9466 B(  6-C , 16-H ) :   0.8974
B(  6-C , 17-H ) :   0.9120

MP2 TOTAL ENERGY:     -272.752577302 Eh
FINAL SINGLE POINT ENERGY      -272.752577301958

DIPOLE MOMENT
-------------
                                X             Y             Z
Electronic contribution:     -1.42869       1.25659      -0.53614
Nuclear contribution   :      1.44817      -1.34844       0.46915
                        -----------------------------------------
Total Dipole Moment    :      0.01948      -0.09186      -0.06699
                        -----------------------------------------
Magnitude (a.u.)       :      0.11535
Magnitude (Debye)      :      0.29319

Rotational constants in cm-1:     0.132539     0.101002     0.070283
Rotational constants in MHz :  3973.431737  3027.971008  2107.016827

                             ****ORCA TERMINATED NORMALLY****
TOTAL RUN TIME: 0 days 0 hours 49 minutes 38 seconds 70 msec
