                         Program Version 4.2.1 -  RELEASE  -
|  1> %pal
|  2>  nprocs 32
|  3> end
|  4> !RI-MP2 aug-cc-pVQZ aug-cc-pVQZ/C TightSCF
|  5> %maxcore 4500
|  6> *xyzfile 0 2  04_16TS.xyz
|  7>
|  8>
|  9>                          ****END OF INPUT****

CARTESIAN COORDINATES (ANGSTROEM)
---------------------------------
  N      0.672592   -1.572215   -0.493794
  H      0.262715   -2.499578   -0.399269
  C     -0.227289   -0.523804   -0.172736
  H      0.279385    0.036233    0.941748
  C     -0.251339    0.603497   -1.198354
  C     -1.536663   -1.158507    0.261943
  H      0.761890    0.792219   -1.542127
  H     -0.840388    0.285219   -2.062413
  S     -0.982402    2.187475   -0.660679
  O     -1.625829   -2.374745    0.320239
  H     -0.003188    2.499953    0.208864
  N     -2.539739   -0.322496    0.574005
  H     -3.407855   -0.725197    0.889325
  H     -2.420712    0.681433    0.530460
  C      2.012310   -1.454618   -0.621932
  H      2.502339   -2.412047   -0.847459
  O      2.646834   -0.419643   -0.516303
  O      0.950518    0.518858    1.790105
  O      1.695061    1.503174    1.161227
  H      2.339476    0.984586    0.634588

 Total Charge           Charge          ....    0
 Multiplicity           Mult            ....    2
 Number of Electrons    NEL             ....   95
 Basis Dimension        Dim             .... 1298

ORBITAL ENERGIES
----------------
                 SPIN UP ORBITALS
  NO   OCC          E(Eh)            E(eV)
   0   1.0000     -91.967380     -2502.5596
   1   1.0000     -20.656910      -562.1031
   2   1.0000     -20.624227      -561.2138
   3   1.0000     -20.559706      -559.4580
   4   1.0000     -20.547223      -559.1184
   5   1.0000     -15.620677      -425.0602
   6   1.0000     -15.599827      -424.4929
   7   1.0000     -11.383796      -309.7688
   8   1.0000     -11.380539      -309.6802
   9   1.0000     -11.333315      -308.3952
  10   1.0000     -11.291206      -307.2493
  11   1.0000      -8.970449      -244.0983
  12   1.0000      -6.652071      -181.0121
  13   1.0000      -6.651227      -180.9891
  14   1.0000      -6.650317      -180.9643
  15   1.0000      -1.514928       -41.2233
  16   1.0000      -1.425762       -38.7970
  17   1.0000      -1.415182       -38.5091
  18   1.0000      -1.283822       -34.9346
  19   1.0000      -1.239341       -33.7242
  20   1.0000      -1.199125       -32.6298
  21   1.0000      -1.100059       -29.9341
  22   1.0000      -1.005336       -27.3566
  23   1.0000      -0.891636       -24.2626
  24   1.0000      -0.864385       -23.5211
  25   1.0000      -0.820289       -22.3212
  26   1.0000      -0.788435       -21.4544
  27   1.0000      -0.769402       -20.9365
  28   1.0000      -0.742212       -20.1966
  29   1.0000      -0.713557       -19.4169
  30   1.0000      -0.679794       -18.4981
  31   1.0000      -0.669897       -18.2288
  32   1.0000      -0.649889       -17.6844
  33   1.0000      -0.647405       -17.6168
  34   1.0000      -0.632953       -17.2235
  35   1.0000      -0.622526       -16.9398
  36   1.0000      -0.602241       -16.3878
  37   1.0000      -0.593203       -16.1419
  38   1.0000      -0.564466       -15.3599
  39   1.0000      -0.532537       -14.4911
  40   1.0000      -0.498300       -13.5594
  41   1.0000      -0.489734       -13.3263
  42   1.0000      -0.477909       -13.0046
  43   1.0000      -0.463575       -12.6145
  44   1.0000      -0.460783       -12.5386
  45   1.0000      -0.443745       -12.0749
  46   1.0000      -0.391237       -10.6461
  47   1.0000      -0.380913       -10.3652
  48   0.0000       0.020904         0.5688
  49   0.0000       0.025840         0.7032
  50   0.0000       0.033480         0.9111
  51   0.0000       0.038618         1.0508
  52   0.0000       0.048829         1.3287

                 SPIN DOWN ORBITALS
  NO   OCC          E(Eh)            E(eV)
   0   1.0000     -91.967314     -2502.5578
   1   1.0000     -20.628592      -561.3325
   2   1.0000     -20.623154      -561.1845
   3   1.0000     -20.557946      -559.4101
   4   1.0000     -20.545036      -559.0589
   5   1.0000     -15.621011      -425.0693
   6   1.0000     -15.599493      -424.4838
   7   1.0000     -11.383860      -309.7706
   8   1.0000     -11.382094      -309.7225
   9   1.0000     -11.316193      -307.9293
  10   1.0000     -11.292395      -307.2817
  11   1.0000      -8.970362      -244.0960
  12   1.0000      -6.651920      -181.0080
  13   1.0000      -6.651043      -180.9841
  14   1.0000      -6.650321      -180.9644
  15   1.0000      -1.474391       -40.1202
  16   1.0000      -1.421256       -38.6744
  17   1.0000      -1.411234       -38.4016
  18   1.0000      -1.275071       -34.6964
  19   1.0000      -1.237428       -33.6721
  20   1.0000      -1.144242       -31.1364
  21   1.0000      -1.087705       -29.5980
  22   1.0000      -0.988112       -26.8879
  23   1.0000      -0.889773       -24.2120
  24   1.0000      -0.862217       -23.4621
  25   1.0000      -0.792029       -21.5522
  26   1.0000      -0.783388       -21.3171
  27   1.0000      -0.747980       -20.3536
  28   1.0000      -0.731546       -19.9064
  29   1.0000      -0.684904       -18.6372
  30   1.0000      -0.670084       -18.2339
  31   1.0000      -0.656882       -17.8747
  32   1.0000      -0.644167       -17.5287
  33   1.0000      -0.619632       -16.8610
  34   1.0000      -0.616793       -16.7838
  35   1.0000      -0.602576       -16.3969
  36   1.0000      -0.584798       -15.9132
  37   1.0000      -0.580622       -15.7995
  38   1.0000      -0.551865       -15.0170
  39   1.0000      -0.501125       -13.6363
  40   1.0000      -0.483111       -13.1461
  41   1.0000      -0.470560       -12.8046
  42   1.0000      -0.465120       -12.6566
  43   1.0000      -0.455414       -12.3924
  44   1.0000      -0.433808       -11.8045
  45   1.0000      -0.414036       -11.2665
  46   1.0000      -0.380791       -10.3618
  47   0.0000       0.017749         0.4830
  48   0.0000       0.025794         0.7019
  49   0.0000       0.026168         0.7121
  50   0.0000       0.034424         0.9367
  51   0.0000       0.038674         1.0524

MULLIKEN ATOMIC CHARGES AND SPIN POPULATIONS
--------------------------------------------
   0 N :   -0.621266   -0.015275
   1 H :    0.237626    0.009414
   2 C :    0.646369    0.717804
   3 H :    0.719222   -0.365498
   4 C :   -0.786874   -0.070253
   5 C :    1.146718   -0.046427
   6 H :    0.321257    0.000426
   7 H :    0.289513    0.037532
   8 S :   -0.228815    0.005456
   9 O :   -0.957832    0.050552
  10 H :    0.059484    0.002680
  11 N :   -0.774724    0.011286
  12 H :    0.160225   -0.001635
  13 H :    0.437130   -0.001111
  14 C :    0.273421   -0.009810
  15 H :    0.455678   -0.001551
  16 O :   -0.786845    0.036939
  17 O :   -0.471254    0.663893
  18 O :   -0.521026   -0.026228
  19 H :    0.401993    0.001806
Sum of atomic charges         :   -0.0000000

LOEWDIN ATOMIC CHARGES AND SPIN POPULATIONS
-------------------------------------------
   0 N :    0.814957    0.051760
   1 H :   -0.625128    0.006566
   2 C :   -0.259650    0.224094
   3 H :   -1.054877    0.072891
   4 C :    0.150896    0.043672
   5 C :   -0.797574    0.037965
   6 H :   -0.409272    0.002162
   7 H :   -0.353092    0.013428
   8 S :    1.689223   -0.000670
   9 O :    0.765225    0.032109
  10 H :   -0.819179   -0.001212
  11 N :    1.238488    0.002472
  12 H :   -0.473919    0.000503
  13 H :   -0.651717    0.000451
  14 C :   -0.321023    0.008658
  15 H :   -0.335717    0.001233
  16 O :    0.811022    0.026406
  17 O :    0.829559    0.435516
  18 O :    0.912427    0.045971
  19 H :   -1.110649   -0.003974

  Mayer bond orders larger than 0.100000
B(  0-N ,  1-H ) :   1.1131 B(  0-N ,  2-C ) :   0.3689 B(  0-N , 14-C ) :   1.1260
B(  0-N , 15-H ) :  -0.1220 B(  0-N , 16-O ) :   0.1183 B(  2-C ,  3-H ) :   0.2904
B(  2-C ,  4-C ) :   0.7711 B(  2-C ,  5-C ) :   1.2240 B(  2-C ,  8-S ) :  -0.1060
B(  2-C ,  9-O ) :   0.3609 B(  3-H , 18-O ) :  -0.1020 B(  4-C ,  6-H ) :   0.9282
B(  4-C ,  7-H ) :   0.9291 B(  4-C ,  8-S ) :   0.8873 B(  5-C ,  9-O ) :   0.7364
B(  5-C , 11-N ) :   1.2115 B(  8-S , 10-H ) :   1.0633 B(  9-O , 11-N ) :   0.1702
B( 11-N , 12-H ) :   1.0860 B( 11-N , 13-H ) :   0.8064 B( 14-C , 15-H ) :   0.8595
B( 14-C , 16-O ) :   1.4574 B( 17-O , 18-O ) :   0.8881 B( 18-O , 19-H ) :   0.7684

MP2 TOTAL ENERGY:     -965.090811030 Eh
FINAL SINGLE POINT ENERGY      -965.090811030364

DIPOLE MOMENT
-------------
                                X             Y             Z
Electronic contribution:     -0.12935       0.00440       0.78818
Nuclear contribution   :     -0.44232      -0.44113      -1.55781
                        -----------------------------------------
Total Dipole Moment    :     -0.57167      -0.43672      -0.76964
                        -----------------------------------------
Magnitude (a.u.)       :      1.05350
Magnitude (Debye)      :      2.67780

Rotational constants in cm-1:     0.031990     0.028784     0.019947
Rotational constants in MHz :   959.035997   862.932050   598.003732

                             ****ORCA TERMINATED NORMALLY****
TOTAL RUN TIME: 0 days 1 hours 54 minutes 19 seconds 184 msec
