                         Program Version 4.2.1 -  RELEASE  -
|  1> %pal
|  2>  nprocs 32
|  3> end
|  4> !RI-MP2 aug-cc-pVQZ aug-cc-pVQZ/C TightSCF
|  5> %maxcore 4500
|  6> *xyzfile 1 1  10_29TS.xyz
|  7>
|  8>
|  9>                          ****END OF INPUT****

CARTESIAN COORDINATES (ANGSTROEM)
---------------------------------
  C      0.338483    3.556363    0.706999
  C      0.973427    2.163155    0.891644
  C      0.155652    2.045517   -1.158196
  C     -0.196022    3.491202   -0.755463
  H     -0.448628    3.744611    1.438665
  H      1.091480    4.334560    0.831358
  H     -1.264878    3.684167   -0.831017
  H      0.321859    4.196261   -1.406314
  C      1.525802    1.870094   -0.503038
  H      1.956068    0.881425   -0.614628
  H      2.234890    2.628186   -0.830634
  H      1.643092    2.040085    1.738436
  H      0.036455    1.786047   -2.206321
  N     -0.698289    1.196152   -0.301579
  N     -0.111998    1.150296    0.954867
  C      0.137201   -1.357458    0.720959
  C      1.518205   -1.405484    0.292655
  C      1.887981   -1.631333   -1.040061
  C      2.528366   -1.225883    1.247489
  C      3.222320   -1.658073   -1.404210
  H      1.133036   -1.798237   -1.797265
  C      3.861636   -1.251931    0.882431
  H      2.254069   -1.061572    2.283497
  C      4.211367   -1.464005   -0.446485
  H      3.496247   -1.840036   -2.435721
  H      4.631538   -1.114160    1.631013
  H      5.255046   -1.490072   -0.733993
  H     -0.016097   -1.368134    1.794247
  C     -1.610300    0.269249   -0.654509
  H     -1.713211    0.244222   -1.737332
  C     -0.981653   -1.514542   -0.097613
  H     -0.790783   -1.916956   -1.088082
  H     -0.786363    1.331002    1.694986
  C     -2.957608    0.152274    0.070188
  C     -2.281843   -1.960226    0.571336
  C     -2.777918   -0.716781    1.314772
  H     -2.069560   -0.334532    2.050509
  H     -3.727685   -0.887514    1.823653
  C     -3.874434   -0.732755   -0.791524
  C     -3.376728   -2.171736   -0.486635
  H     -3.825922   -0.476601   -1.850899
  H     -4.910439   -0.600362   -0.479868
  H     -2.994061   -2.683854   -1.370674
  H     -4.180238   -2.788461   -0.084514
  H     -3.354975    1.154102    0.242569
  H     -2.122520   -2.835200    1.200885

 Total Charge           Charge          ....    1
 Multiplicity           Mult            ....    1
 Number of Electrons    NEL             ....  152
 Basis Dimension        Dim             .... 2830

ORBITAL ENERGIES
----------------

  NO   OCC          E(Eh)            E(eV)
   0   2.0000     -15.739611      -428.2966
   1   2.0000     -15.736819      -428.2206
   2   2.0000     -11.444857      -311.4304
   3   2.0000     -11.425253      -310.8969
   4   2.0000     -11.398479      -310.1684
   5   2.0000     -11.390605      -309.9541
   6   2.0000     -11.369061      -309.3679
   7   2.0000     -11.366415      -309.2959
   8   2.0000     -11.366135      -309.2882
   9   2.0000     -11.362062      -309.1774
  10   2.0000     -11.360422      -309.1328
  11   2.0000     -11.359770      -309.1150
  12   2.0000     -11.352429      -308.9153
  13   2.0000     -11.352051      -308.9050
  14   2.0000     -11.350276      -308.8567
  15   2.0000     -11.342112      -308.6346
  16   2.0000     -11.342049      -308.6328
  17   2.0000     -11.341126      -308.6077
  18   2.0000     -11.340242      -308.5837
  19   2.0000     -11.334378      -308.4241
  20   2.0000     -11.330116      -308.3081
  21   2.0000      -1.495758       -40.7017
  22   2.0000      -1.307262       -35.5724
  23   2.0000      -1.290947       -35.1284
  24   2.0000      -1.258135       -34.2356
  25   2.0000      -1.237120       -33.6637
  26   2.0000      -1.208071       -32.8733
  27   2.0000      -1.145505       -31.1708
  28   2.0000      -1.136376       -30.9224
  29   2.0000      -1.116446       -30.3800
  30   2.0000      -1.092226       -29.7210
  31   2.0000      -1.079994       -29.3881
  32   2.0000      -1.058243       -28.7963
  33   2.0000      -1.000591       -27.2275
  34   2.0000      -0.968387       -26.3512
  35   2.0000      -0.953167       -25.9370
  36   2.0000      -0.941858       -25.6293
  37   2.0000      -0.916488       -24.9389
  38   2.0000      -0.892686       -24.2912
  39   2.0000      -0.892539       -24.2872
  40   2.0000      -0.874549       -23.7977
  41   2.0000      -0.842089       -22.9144
  42   2.0000      -0.829611       -22.5749
  43   2.0000      -0.812815       -22.1178
  44   2.0000      -0.802332       -21.8326
  45   2.0000      -0.785003       -21.3610
  46   2.0000      -0.778275       -21.1779
  47   2.0000      -0.762387       -20.7456
  48   2.0000      -0.761202       -20.7133
  49   2.0000      -0.738888       -20.1062
  50   2.0000      -0.722581       -19.6624
  51   2.0000      -0.720357       -19.6019
  52   2.0000      -0.712716       -19.3940
  53   2.0000      -0.700593       -19.0641
  54   2.0000      -0.688919       -18.7464
  55   2.0000      -0.680913       -18.5286
  56   2.0000      -0.665817       -18.1178
  57   2.0000      -0.650730       -17.7073
  58   2.0000      -0.645390       -17.5620
  59   2.0000      -0.641539       -17.4572
  60   2.0000      -0.633576       -17.2405
  61   2.0000      -0.627702       -17.0806
  62   2.0000      -0.618678       -16.8351
  63   2.0000      -0.616951       -16.7881
  64   2.0000      -0.612754       -16.6739
  65   2.0000      -0.609661       -16.5897
  66   2.0000      -0.598089       -16.2748
  67   2.0000      -0.591188       -16.0870
  68   2.0000      -0.587838       -15.9959
  69   2.0000      -0.578635       -15.7455
  70   2.0000      -0.577005       -15.7011
  71   2.0000      -0.572733       -15.5849
  72   2.0000      -0.520535       -14.1645
  73   2.0000      -0.495849       -13.4927
  74   2.0000      -0.463846       -12.6219
  75   2.0000      -0.418365       -11.3843
  76   0.0000      -0.098459        -2.6792
  77   0.0000      -0.061578        -1.6756
  78   0.0000      -0.056486        -1.5371
  79   0.0000      -0.049898        -1.3578
  80   0.0000      -0.048403        -1.3171

MULLIKEN ATOMIC CHARGES
-----------------------
   0 C :   -0.711344
   1 C :    0.130262
   2 C :    0.061799
   3 C :   -0.816217
   4 H :    0.199623
   5 H :    0.228015
   6 H :    0.265847
   7 H :    0.206198
   8 C :   -1.418259
   9 H :    1.146351
  10 H :   -0.016155
  11 H :    0.366621
  12 H :    0.176734
  13 N :   -0.008215
  14 N :   -0.139652
  15 C :    0.399832
  16 C :    0.846411
  17 C :   -0.590357
  18 C :   -0.776061
  19 C :   -0.526969
  20 H :    0.269741
  21 C :   -0.438520
  22 H :    0.236899
  23 C :   -0.299531
  24 H :    0.206502
  25 H :    0.241401
  26 H :    0.334274
  27 H :    0.187152
  28 C :    0.780106
  29 H :    0.282820
  30 C :    0.341624
  31 H :    0.191375
  32 H :    0.115258
  33 C :    0.008563
  34 C :   -0.042298
  35 C :   -0.890170
  36 H :    0.322871
  37 H :    0.126333
  38 C :   -0.794948
  39 C :   -0.814827
  40 H :    0.218780
  41 H :    0.178839
  42 H :    0.231469
  43 H :    0.159742
  44 H :    0.375051
  45 H :    0.447031
Sum of atomic charges:    1.0000000

LOEWDIN ATOMIC CHARGES
----------------------
   0 C :    0.591711
   1 C :    0.048252
   2 C :    0.060817
   3 C :    0.586885
   4 H :   -0.248752
   5 H :   -0.244476
   6 H :   -0.247484
   7 H :   -0.246064
   8 C :    0.554731
   9 H :   -0.323923
  10 H :   -0.228164
  11 H :   -0.224503
  12 H :   -0.224001
  13 N :    0.383482
  14 N :    0.804255
  15 C :    0.402050
  16 C :   -0.062667
  17 C :    0.358467
  18 C :    0.358473
  19 C :    0.390710
  20 H :   -0.313791
  21 C :    0.387573
  22 H :   -0.294740
  23 C :    0.381868
  24 H :   -0.302714
  25 H :   -0.304665
  26 H :   -0.297897
  27 H :   -0.283985
  28 C :    0.184803
  29 H :   -0.275538
  30 C :    0.298816
  31 H :   -0.312410
  32 H :   -0.469620
  33 C :    0.176171
  34 C :    0.148134
  35 C :    0.554625
  36 H :   -0.276184
  37 H :   -0.223372
  38 C :    0.578337
  39 C :    0.587831
  40 H :   -0.250294
  41 H :   -0.241484
  42 H :   -0.248770
  43 H :   -0.241361
  44 H :   -0.224307
  45 H :   -0.226823

  Mayer bond orders larger than 0.100000
B(  0-C ,  1-C ) :   0.5554 B(  0-C ,  2-C ) :  -0.1897 B(  0-C ,  3-C ) :   1.1658
B(  0-C ,  4-H ) :   1.0589 B(  0-C ,  5-H ) :   1.0709 B(  1-C ,  3-C ) :  -0.2294
B(  1-C ,  8-C ) :   0.9016 B(  1-C , 11-H ) :   0.8966 B(  1-C , 14-N ) :   0.7992
B(  2-C ,  3-C ) :   0.5485 B(  2-C ,  8-C ) :   0.9359 B(  2-C , 12-H ) :   1.0958
B(  2-C , 13-N ) :   0.7704 B(  3-C ,  6-H ) :   1.0194 B(  3-C ,  7-H ) :   1.0701
B(  8-C ,  9-H ) :  -0.1313 B(  8-C , 10-H ) :   1.4917 B(  9-H , 10-H ) :  -0.3711
B( 13-N , 14-N ) :   0.5031 B( 13-N , 15-C ) :   0.1309 B( 13-N , 16-C ) :   0.1076
B( 13-N , 28-C ) :   1.3162 B( 13-N , 33-C ) :   0.1633 B( 13-N , 35-C ) :   0.1376
B( 14-N , 15-C ) :   0.1803 B( 14-N , 28-C ) :   0.1709 B( 14-N , 32-H ) :   1.1498
B( 14-N , 33-C ) :   0.1046 B( 15-C , 16-C ) :   0.1383 B( 15-C , 17-C ) :  -0.5425
B( 15-C , 18-C ) :  -0.9768 B( 15-C , 27-H ) :   1.1757 B( 15-C , 28-C ) :   0.1781
B( 15-C , 30-C ) :   0.5338 B( 15-C , 31-H ) :  -0.1316 B( 15-C , 34-C ) :  -0.2966
B( 15-C , 45-H ) :  -0.1064 B( 16-C , 17-C ) :   1.1825 B( 16-C , 18-C ) :   1.2755
B( 16-C , 19-C ) :  -0.5611 B( 16-C , 21-C ) :  -0.6067 B( 16-C , 22-H ) :  -0.1272
B( 16-C , 27-H ) :  -0.1808 B( 16-C , 30-C ) :  -0.4240 B( 17-C , 19-C ) :   1.3741
B( 17-C , 20-H ) :   1.0548 B( 17-C , 21-C ) :   0.1534 B( 17-C , 24-H ) :  -0.1086
B( 18-C , 21-C ) :   1.4426 B( 18-C , 22-H ) :   1.0748 B( 18-C , 23-C ) :   0.1218
B( 18-C , 25-H ) :  -0.1413 B( 18-C , 30-C ) :   0.1625 B( 19-C , 23-C ) :   1.2227
B( 19-C , 24-H ) :   1.1681 B( 19-C , 26-H ) :  -0.1155 B( 21-C , 23-C ) :   1.1569
B( 21-C , 25-H ) :   1.1642 B( 23-C , 26-H ) :   1.0571 B( 28-C , 29-H ) :   0.8434
B( 28-C , 30-C ) :   0.2927 B( 28-C , 33-C ) :   0.5149 B( 28-C , 35-C ) :  -0.2073
B( 28-C , 38-C ) :  -0.1101 B( 30-C , 31-H ) :   1.1012 B( 30-C , 34-C ) :   0.8016
B( 30-C , 35-C ) :  -0.1611 B( 30-C , 39-C ) :  -0.2431 B( 33-C , 35-C ) :   0.8051
B( 33-C , 38-C ) :   0.6041 B( 33-C , 39-C ) :  -0.1329 B( 33-C , 44-H ) :   0.9241
B( 34-C , 35-C ) :   1.0951 B( 34-C , 38-C ) :  -0.1710 B( 34-C , 39-C ) :   0.7370
B( 34-C , 45-H ) :   0.8092 B( 35-C , 36-H ) :   0.9520 B( 35-C , 37-H ) :   1.1224
B( 38-C , 39-C ) :   1.0816 B( 38-C , 40-H ) :   1.0875 B( 38-C , 41-H ) :   1.1137
B( 39-C , 42-H ) :   1.0706 B( 39-C , 43-H ) :   1.1394

MP2 TOTAL ENERGY:     -846.755140231 Eh
FINAL SINGLE POINT ENERGY      -846.755140231136

DIPOLE MOMENT
-------------
                                X             Y             Z
Electronic contribution:      8.35911      -4.49521       0.81928
Nuclear contribution   :     -8.32798       4.94466      -0.74905
                        -----------------------------------------
Total Dipole Moment    :      0.03114       0.44945       0.07024
                        -----------------------------------------
Magnitude (a.u.)       :      0.45597
Magnitude (Debye)      :      1.15898

Rotational constants in cm-1:     0.014603     0.009644     0.006888
Rotational constants in MHz :   437.776061   289.107161   206.511449

                             ****ORCA TERMINATED NORMALLY****
TOTAL RUN TIME: 0 days 21 hours 58 minutes 11 seconds 109 msec
