                         Program Version 4.2.1 -  RELEASE  -
|  1> %pal
|  2>  nprocs 32
|  3> end
|  4> !RI-MP2 aug-cc-pVQZ aug-cc-pVQZ/C TightSCF
|  5> %maxcore 4500
|  6> *xyzfile 0 2  04_54P1.xyz
|  7>
|  8>
|  9>                          ****END OF INPUT****

CARTESIAN COORDINATES (ANGSTROEM)
---------------------------------
  N      2.045430    0.366433   -0.644858
  C      1.493374    1.607900   -0.134752
  C     -0.031121    1.553443   -0.073780
  H      1.912990    1.786198    0.855923
  H      1.771919    2.421948   -0.799672
  O     -0.731428    2.140129   -0.874958
  N     -0.520803    0.772717    0.924958
  H      0.153895    0.198331    1.422600
  C     -1.892429    0.356255    0.885048
  C     -2.119286   -0.769544   -0.104920
  H     -2.218181    0.021820    1.871060
  H     -2.526548    1.194065    0.593851
  O     -1.270874   -1.311201   -0.755977
  O     -3.418962   -1.105612   -0.160746
  H     -3.511084   -1.820639   -0.805853
  C      2.190439   -0.730852    0.154817
  C      2.676076   -1.933317   -0.487362
  O      1.931604   -0.689435    1.358551
  H      2.070985    0.239943   -1.643921
  H      2.876935   -1.978457   -1.549517
  H      2.811666   -2.811606    0.125562

 Total Charge           Charge          ....    0
 Multiplicity           Mult            ....    2
 Number of Electrons    NEL             ....   91
 Basis Dimension        Dim             .... 1374

ORBITAL ENERGIES
----------------
                 SPIN UP ORBITALS
  NO   OCC          E(Eh)            E(eV)
   0   1.0000     -20.616661      -561.0079
   1   1.0000     -20.553278      -559.2831
   2   1.0000     -20.539400      -558.9055
   3   1.0000     -20.522502      -558.4457
   4   1.0000     -15.600841      -424.5205
   5   1.0000     -15.578086      -423.9013
   6   1.0000     -11.388339      -309.8924
   7   1.0000     -11.363774      -309.2240
   8   1.0000     -11.347845      -308.7905
   9   1.0000     -11.285029      -307.0813
  10   1.0000     -11.282019      -306.9993
  11   1.0000     -11.274832      -306.8038
  12   1.0000      -1.475241       -40.1433
  13   1.0000      -1.406105       -38.2621
  14   1.0000      -1.389106       -37.7995
  15   1.0000      -1.371293       -37.3148
  16   1.0000      -1.253313       -34.1044
  17   1.0000      -1.236939       -33.6588
  18   1.0000      -1.058438       -28.8016
  19   1.0000      -1.016969       -27.6731
  20   1.0000      -0.959683       -26.1143
  21   1.0000      -0.845067       -22.9954
  22   1.0000      -0.807745       -21.9799
  23   1.0000      -0.784892       -21.3580
  24   1.0000      -0.733328       -19.9549
  25   1.0000      -0.720530       -19.6066
  26   1.0000      -0.713977       -19.4283
  27   1.0000      -0.700589       -19.0640
  28   1.0000      -0.678036       -18.4503
  29   1.0000      -0.656339       -17.8599
  30   1.0000      -0.650322       -17.6962
  31   1.0000      -0.618031       -16.8175
  32   1.0000      -0.614437       -16.7197
  33   1.0000      -0.601009       -16.3543
  34   1.0000      -0.594797       -16.1853
  35   1.0000      -0.589722       -16.0472
  36   1.0000      -0.566704       -15.4208
  37   1.0000      -0.550047       -14.9675
  38   1.0000      -0.537968       -14.6388
  39   1.0000      -0.492166       -13.3925
  40   1.0000      -0.470216       -12.7952
  41   1.0000      -0.465464       -12.6659
  42   1.0000      -0.454413       -12.3652
  43   1.0000      -0.429704       -11.6928
  44   1.0000      -0.401800       -10.9335
  45   1.0000      -0.394187       -10.7264
  46   0.0000       0.021218         0.5774
  47   0.0000       0.027460         0.7472
  48   0.0000       0.032183         0.8757
  49   0.0000       0.034072         0.9272
  50   0.0000       0.042315         1.1515

                 SPIN DOWN ORBITALS
  NO   OCC          E(Eh)            E(eV)
   0   1.0000     -20.616661      -561.0079
   1   1.0000     -20.553275      -559.2831
   2   1.0000     -20.531489      -558.6902
   3   1.0000     -20.522559      -558.4472
   4   1.0000     -15.599347      -424.4798
   5   1.0000     -15.578036      -423.8999
   6   1.0000     -11.388335      -309.8924
   7   1.0000     -11.368262      -309.3461
   8   1.0000     -11.347699      -308.7866
   9   1.0000     -11.285040      -307.0816
  10   1.0000     -11.282208      -307.0045
  11   1.0000     -11.253056      -306.2112
  12   1.0000      -1.475238       -40.1433
  13   1.0000      -1.395406       -37.9709
  14   1.0000      -1.386284       -37.7227
  15   1.0000      -1.371291       -37.3147
  16   1.0000      -1.247861       -33.9560
  17   1.0000      -1.235592       -33.6222
  18   1.0000      -1.038175       -28.2502
  19   1.0000      -0.994426       -27.0597
  20   1.0000      -0.929490       -25.2927
  21   1.0000      -0.843436       -22.9511
  22   1.0000      -0.803007       -21.8509
  23   1.0000      -0.784364       -21.3436
  24   1.0000      -0.729756       -19.8577
  25   1.0000      -0.715092       -19.4586
  26   1.0000      -0.712792       -19.3960
  27   1.0000      -0.696754       -18.9597
  28   1.0000      -0.672686       -18.3047
  29   1.0000      -0.654860       -17.8196
  30   1.0000      -0.649531       -17.6746
  31   1.0000      -0.611771       -16.6471
  32   1.0000      -0.607314       -16.5258
  33   1.0000      -0.596104       -16.2208
  34   1.0000      -0.586748       -15.9662
  35   1.0000      -0.566485       -15.4148
  36   1.0000      -0.564015       -15.3476
  37   1.0000      -0.547629       -14.9017
  38   1.0000      -0.537109       -14.6155
  39   1.0000      -0.492140       -13.3918
  40   1.0000      -0.467217       -12.7136
  41   1.0000      -0.450481       -12.2582
  42   1.0000      -0.442642       -12.0449
  43   1.0000      -0.404580       -11.0092
  44   1.0000      -0.386193       -10.5089
  45   0.0000       0.021450         0.5837
  46   0.0000       0.026988         0.7344
  47   0.0000       0.032229         0.8770
  48   0.0000       0.033546         0.9128
  49   0.0000       0.040406         1.0995

MULLIKEN ATOMIC CHARGES AND SPIN POPULATIONS
--------------------------------------------
   0 N :   -0.411125    0.034262
   1 C :   -0.399252   -0.006966
   2 C :    1.022021    0.004261
   3 H :    0.345633    0.000612
   4 H :    0.375919    0.001188
   5 O :   -0.897881   -0.001315
   6 N :   -0.735887    0.001282
   7 H :    0.403310   -0.000968
   8 C :   -0.424868   -0.000614
   9 C :    1.042033    0.001277
  10 H :    0.375743    0.000056
  11 H :    0.352730    0.000089
  12 O :   -0.865975   -0.001825
  13 O :   -0.739818    0.000023
  14 H :    0.371409    0.000031
  15 C :    0.744233   -0.209700
  16 C :   -0.741508    1.136817
  17 O :   -0.877342    0.180026
  18 H :    0.277916   -0.000948
  19 H :    0.395483   -0.065613
  20 H :    0.387227   -0.071975
Sum of atomic charges         :    0.0000000

LOEWDIN ATOMIC CHARGES AND SPIN POPULATIONS
-------------------------------------------
   0 N :    0.824870    0.019507
   1 C :    0.350793    0.000742
   2 C :   -0.836580    0.000721
   3 H :   -0.306624   -0.000306
   4 H :   -0.307163   -0.000139
   5 O :    0.727934   -0.000606
   6 N :    0.805930    0.000536
   7 H :   -0.675821    0.000004
   8 C :    0.304668    0.000002
   9 C :   -1.020823    0.000049
  10 H :   -0.283731   -0.000012
  11 H :   -0.323126    0.000022
  12 O :    0.721198    0.000553
  13 O :    1.259969    0.000010
  14 H :   -0.807264    0.000005
  15 C :   -0.851351    0.139663
  16 C :    0.828469    0.426536
  17 O :    0.767422    0.118579
  18 H :   -0.489944    0.003620
  19 H :   -0.337973    0.146987
  20 H :   -0.350853    0.143526

  Mayer bond orders larger than 0.100000
B(  0-N ,  1-C ) :   0.8675 B(  0-N , 15-C ) :   1.1088 B(  0-N , 16-C ) :  -0.1327
B(  0-N , 17-O ) :   0.1371 B(  0-N , 18-H ) :   0.9192 B(  1-C ,  2-C ) :   0.9376
B(  1-C ,  3-H ) :   0.9306 B(  1-C ,  4-H ) :   0.8873 B(  1-C ,  5-O ) :   0.1695
B(  2-C ,  5-O ) :   0.9310 B(  2-C ,  6-N ) :   1.1619 B(  5-O ,  6-N ) :   0.1957
B(  6-N ,  7-H ) :   0.8167 B(  6-N ,  8-C ) :   1.0087 B(  8-C ,  9-C ) :   1.1643
B(  8-C , 10-H ) :   0.8095 B(  8-C , 11-H ) :   0.8407 B(  8-C , 12-O ) :   0.1510
B(  9-C , 12-O ) :   1.3739 B(  9-C , 13-O ) :   0.8010 B( 13-O , 14-H ) :   0.9013
B( 15-C , 16-C ) :   1.0152 B( 15-C , 17-O ) :   1.1074 B( 16-C , 17-O ) :   0.1536
B( 16-C , 19-H ) :   0.8984 B( 16-C , 20-H ) :   0.9102

MP2 TOTAL ENERGY:     -643.562016868 Eh
FINAL SINGLE POINT ENERGY      -643.562016868403

DIPOLE MOMENT
-------------
                                X             Y             Z
Electronic contribution:     -2.80335      -0.03362      -0.36340
Nuclear contribution   :      3.25380      -0.74713       0.06401
                        -----------------------------------------
Total Dipole Moment    :      0.45046      -0.78075      -0.29939
                        -----------------------------------------
Magnitude (a.u.)       :      0.94980
Magnitude (Debye)      :      2.41420

Rotational constants in cm-1:     0.044463     0.022260     0.017810
Rotational constants in MHz :  1332.959568   667.323662   533.919489

                             ****ORCA TERMINATED NORMALLY****
TOTAL RUN TIME: 0 days 1 hours 58 minutes 50 seconds 822 msec
