                         Program Version 4.2.1 -  RELEASE  -
|  1> %pal
|  2>  nprocs 32
|  3> end
|  4> !RI-MP2 aug-cc-pVQZ aug-cc-pVQZ/C TightSCF
|  5> %maxcore 4500
|  6> *xyzfile 0 1  10_9P.xyz
|  7>
|  8>
|  9>                          ****END OF INPUT****

CARTESIAN COORDINATES (ANGSTROEM)
---------------------------------
  C      1.081389    0.012764    0.055468
  C     -0.079504   -0.835662   -0.403916
  N      0.480627    1.286297    0.410334
  N     -0.755558    1.249127    0.240840
  N     -1.163799    0.089363   -0.328855
  C     -2.549982   -0.287952   -0.212234
  H     -3.147244    0.621479   -0.181542
  H     -2.845154   -0.876976   -1.081985
  H     -2.741055   -0.874178    0.694514
  C      0.606364   -1.142635    0.899991
  H      1.251563   -2.011249    0.912828
  H      0.087107   -0.928412    1.826569
  C      2.458157    0.075455   -0.531338
  H      2.471785    0.705875   -1.422104
  H      3.154536    0.496784    0.196112
  H      2.808577   -0.921324   -0.804104
  H     -0.067551   -1.517335   -1.244351

 Total Charge           Charge          ....    0
 Multiplicity           Mult            ....    1
 Number of Electrons    NEL             ....   60
 Basis Dimension        Dim             .... 1054

ORBITAL ENERGIES
----------------

  NO   OCC          E(Eh)            E(eV)
   0   2.0000     -15.654237      -425.9734
   1   2.0000     -15.603260      -424.5863
   2   2.0000     -15.589586      -424.2142
   3   2.0000     -11.274926      -306.8063
   4   2.0000     -11.271491      -306.7129
   5   2.0000     -11.265781      -306.5575
   6   2.0000     -11.236001      -305.7471
   7   2.0000     -11.225313      -305.4563
   8   2.0000      -1.429572       -38.9006
   9   2.0000      -1.207300       -32.8523
  10   2.0000      -1.163234       -31.6532
  11   2.0000      -0.993523       -27.0351
  12   2.0000      -0.951588       -25.8940
  13   2.0000      -0.900483       -24.5034
  14   2.0000      -0.823586       -22.4109
  15   2.0000      -0.767733       -20.8911
  16   2.0000      -0.700168       -19.0525
  17   2.0000      -0.658816       -17.9273
  18   2.0000      -0.636818       -17.3287
  19   2.0000      -0.605318       -16.4715
  20   2.0000      -0.585512       -15.9326
  21   2.0000      -0.578308       -15.7366
  22   2.0000      -0.559951       -15.2370
  23   2.0000      -0.555679       -15.1208
  24   2.0000      -0.530405       -14.4331
  25   2.0000      -0.518634       -14.1128
  26   2.0000      -0.480252       -13.0683
  27   2.0000      -0.427329       -11.6282
  28   2.0000      -0.392378       -10.6772
  29   2.0000      -0.335873        -9.1396
  30   0.0000       0.021666         0.5896
  31   0.0000       0.029589         0.8051
  32   0.0000       0.030892         0.8406
  33   0.0000       0.035295         0.9604
  34   0.0000       0.046435         1.2636

MULLIKEN ATOMIC CHARGES
-----------------------
   0 C :    0.518718
   1 C :   -0.175923
   2 N :   -0.340355
   3 N :   -0.273910
   4 N :   -0.184445
   5 C :   -0.895750
   6 H :    0.329993
   7 H :    0.328121
   8 H :    0.316968
   9 C :   -0.796763
  10 H :    0.280434
  11 H :    0.351161
  12 C :   -0.729375
  13 H :    0.228376
  14 H :    0.257913
  15 H :    0.225267
  16 H :    0.559570
Sum of atomic charges:   -0.0000000

LOEWDIN ATOMIC CHARGES
----------------------
   0 C :   -0.544104
   1 C :   -0.030094
   2 N :    0.377231
   3 N :    0.231763
   4 N :    0.196372
   5 C :    0.761924
   6 H :   -0.313552
   7 H :   -0.293348
   8 H :   -0.278292
   9 C :    0.597433
  10 H :   -0.271996
  11 H :   -0.269527
  12 C :    0.928933
  13 H :   -0.280659
  14 H :   -0.281119
  15 H :   -0.289965
  16 H :   -0.241000

  Mayer bond orders larger than 0.100000
B(  0-C ,  1-C ) :   0.7632 B(  0-C ,  2-N ) :   0.4609 B(  0-C ,  3-N ) :  -0.1005
B(  0-C ,  9-C ) :   0.9373 B(  0-C , 12-C ) :   0.4863 B(  0-C , 13-H ) :  -0.1378
B(  1-C ,  4-N ) :   0.9395 B(  1-C ,  9-C ) :   0.9945 B(  1-C , 16-H ) :   0.6547
B(  2-N ,  3-N ) :   1.4156 B(  3-N ,  4-N ) :   0.7903 B(  4-N ,  5-C ) :   0.7962
B(  5-C ,  6-H ) :   0.9323 B(  5-C ,  7-H ) :   0.9440 B(  5-C ,  8-H ) :   0.9151
B(  9-C , 10-H ) :   0.9418 B(  9-C , 11-H ) :   0.8600 B( 12-C , 13-H ) :   1.0480
B( 12-C , 14-H ) :   1.0086 B( 12-C , 15-H ) :   1.0301

MP2 TOTAL ENERGY:     -359.518344291 Eh
FINAL SINGLE POINT ENERGY      -359.518344291162

DIPOLE MOMENT
-------------
                                X             Y             Z
Electronic contribution:     -1.14013       3.98682       0.74765
Nuclear contribution   :      0.97745      -5.36305      -1.11741
                        -----------------------------------------
Total Dipole Moment    :     -0.16268      -1.37623      -0.36976
                        -----------------------------------------
Magnitude (a.u.)       :      1.43429
Magnitude (Debye)      :      3.64568

Rotational constants in cm-1:     0.151411     0.059918     0.050812
Rotational constants in MHz :  4539.184375  1796.299968  1523.318736

                             ****ORCA TERMINATED NORMALLY****
TOTAL RUN TIME: 0 days 0 hours 37 minutes 11 seconds 778 msec
