                         Program Version 4.2.1 -  RELEASE  -
|  1> %pal
|  2>  nprocs 32
|  3> end
|  4> !RI-MP2 aug-cc-pVQZ aug-cc-pVQZ/C TightSCF
|  5> %maxcore 4500
|  6> *xyzfile 0 2  03_32P1.xyz
|  7>
|  8>
|  9>                          ****END OF INPUT****

CARTESIAN COORDINATES (ANGSTROEM)
---------------------------------
  C      2.973499    0.197347   -0.128648
  C      2.459417   -1.086304    0.427740
  C      2.073901    1.385320   -0.140769
  C      1.031987   -1.390878   -0.044918
  C      0.136972   -0.182339    0.151627
  C      0.654842    1.030583   -0.604181
  O     -1.172956   -0.549710   -0.334091
  C     -2.230507    0.101969    0.174438
  C     -3.509305   -0.382929   -0.443837
  O     -2.146337    0.959491    1.014092
  H      2.455596   -1.033330    1.530275
  H      3.123190   -1.915401    0.173047
  H      2.485072    2.179822   -0.767263
  H      2.008487    1.809337    0.875918
  H      0.620881   -2.245050    0.497660
  H      1.038749   -1.650005   -1.107700
  H      0.043085    0.058171    1.213654
  H     -0.017833    1.875710   -0.449909
  H      0.661037    0.792956   -1.672406
  H     -3.596612   -1.463066   -0.321696
  H     -3.499259   -0.173279   -1.514650
  H     -4.352384    0.118869    0.023785
  H      4.039493    0.330404   -0.269451

 Total Charge           Charge          ....    0
 Multiplicity           Mult            ....    2
 Number of Electrons    NEL             ....   77
 Basis Dimension        Dim             .... 1398

ORBITAL ENERGIES
----------------
                 SPIN UP ORBITALS
  NO   OCC          E(Eh)            E(eV)
   0   1.0000     -20.591322      -560.3184
   1   1.0000     -20.535448      -558.7980
   2   1.0000     -11.373877      -309.4989
   3   1.0000     -11.283508      -307.0399
   4   1.0000     -11.235994      -305.7470
   5   1.0000     -11.228297      -305.5375
   6   1.0000     -11.225292      -305.4557
   7   1.0000     -11.223310      -305.4018
   8   1.0000     -11.223168      -305.3979
   9   1.0000     -11.219615      -305.3012
  10   1.0000      -1.456146       -39.6237
  11   1.0000      -1.355614       -36.8881
  12   1.0000      -1.130352       -30.7584
  13   1.0000      -1.038214       -28.2512
  14   1.0000      -1.016818       -27.6690
  15   1.0000      -0.991939       -26.9920
  16   1.0000      -0.856393       -23.3036
  17   1.0000      -0.846528       -23.0352
  18   1.0000      -0.769661       -20.9435
  19   1.0000      -0.758665       -20.6443
  20   1.0000      -0.688595       -18.7376
  21   1.0000      -0.678041       -18.4504
  22   1.0000      -0.657842       -17.9008
  23   1.0000      -0.641254       -17.4494
  24   1.0000      -0.609057       -16.5733
  25   1.0000      -0.603040       -16.4095
  26   1.0000      -0.582233       -15.8434
  27   1.0000      -0.575580       -15.6623
  28   1.0000      -0.550616       -14.9830
  29   1.0000      -0.545070       -14.8321
  30   1.0000      -0.540763       -14.7149
  31   1.0000      -0.518443       -14.1076
  32   1.0000      -0.494125       -13.4458
  33   1.0000      -0.487926       -13.2772
  34   1.0000      -0.476249       -12.9594
  35   1.0000      -0.462237       -12.5781
  36   1.0000      -0.443006       -12.0548
  37   1.0000      -0.431588       -11.7441
  38   1.0000      -0.332211        -9.0399
  39   0.0000       0.024328         0.6620
  40   0.0000       0.026615         0.7242
  41   0.0000       0.029794         0.8107
  42   0.0000       0.033872         0.9217
  43   0.0000       0.040736         1.1085

                 SPIN DOWN ORBITALS
  NO   OCC          E(Eh)            E(eV)
   0   1.0000     -20.591261      -560.3167
   1   1.0000     -20.535446      -558.7979
   2   1.0000     -11.373875      -309.4989
   3   1.0000     -11.283700      -307.0451
   4   1.0000     -11.235991      -305.7469
   5   1.0000     -11.228370      -305.5395
   6   1.0000     -11.226376      -305.4852
   7   1.0000     -11.222278      -305.3737
   8   1.0000     -11.218704      -305.2765
   9   1.0000     -11.204306      -304.8847
  10   1.0000      -1.456074       -39.6218
  11   1.0000      -1.355561       -36.8867
  12   1.0000      -1.118007       -30.4225
  13   1.0000      -1.027355       -27.9557
  14   1.0000      -1.015646       -27.6371
  15   1.0000      -0.974604       -26.5203
  16   1.0000      -0.852119       -23.1873
  17   1.0000      -0.831956       -22.6387
  18   1.0000      -0.768627       -20.9154
  19   1.0000      -0.732242       -19.9253
  20   1.0000      -0.687140       -18.6980
  21   1.0000      -0.674804       -18.3623
  22   1.0000      -0.655775       -17.8446
  23   1.0000      -0.635604       -17.2957
  24   1.0000      -0.603556       -16.4236
  25   1.0000      -0.590970       -16.0811
  26   1.0000      -0.576242       -15.6803
  27   1.0000      -0.572228       -15.5711
  28   1.0000      -0.544279       -14.8106
  29   1.0000      -0.540018       -14.6946
  30   1.0000      -0.532822       -14.4988
  31   1.0000      -0.515104       -14.0167
  32   1.0000      -0.487272       -13.2593
  33   1.0000      -0.484039       -13.1714
  34   1.0000      -0.473038       -12.8720
  35   1.0000      -0.458603       -12.4792
  36   1.0000      -0.441790       -12.0217
  37   1.0000      -0.429992       -11.7007
  38   0.0000       0.024166         0.6576
  39   0.0000       0.026719         0.7271
  40   0.0000       0.029851         0.8123
  41   0.0000       0.034022         0.9258
  42   0.0000       0.040515         1.1025

MULLIKEN ATOMIC CHARGES AND SPIN POPULATIONS
--------------------------------------------
   0 C :   -0.464866    1.240080
   1 C :   -0.459343   -0.204925
   2 C :   -0.427561   -0.211950
   3 C :   -0.705601    0.033575
   4 C :    1.045232   -0.004601
   5 C :   -0.705723    0.037285
   6 O :   -0.808892   -0.003031
   7 C :    0.889902    0.001299
   8 C :   -0.729151    0.000422
   9 O :   -0.820459   -0.000199
  10 H :    0.131265    0.103623
  11 H :    0.263050    0.007608
  12 H :    0.263402    0.007514
  13 H :    0.144510    0.104915
  14 H :    0.279957   -0.003902
  15 H :    0.173592    0.001057
  16 H :    0.190906    0.001131
  17 H :    0.293214   -0.004311
  18 H :    0.215050   -0.002009
  19 H :    0.278258    0.000002
  20 H :    0.266608    0.000130
  21 H :    0.309026    0.000050
  22 H :    0.377622   -0.103761
Sum of atomic charges         :    0.0000000

LOEWDIN ATOMIC CHARGES AND SPIN POPULATIONS
-------------------------------------------
   0 C :    0.477370    0.455787
   1 C :    0.505577    0.130922
   2 C :    0.509510    0.130864
   3 C :    0.505526    0.016885
   4 C :   -0.246690    0.002758
   5 C :    0.509752    0.016911
   6 O :    0.892946    0.000701
   7 C :   -1.059719    0.000355
   8 C :    0.873114    0.000075
   9 O :    0.731334    0.000081
  10 H :   -0.267510    0.030635
  11 H :   -0.282597    0.011434
  12 H :   -0.281465    0.011333
  13 H :   -0.264984    0.030325
  14 H :   -0.259867    0.002773
  15 H :   -0.266661    0.005879
  16 H :   -0.324637    0.000858
  17 H :   -0.275339    0.002821
  18 H :   -0.263544    0.005958
  19 H :   -0.300684    0.000023
  20 H :   -0.297892    0.000024
  21 H :   -0.320881    0.000024
  22 H :   -0.292659    0.142573

  Mayer bond orders larger than 0.100000
B(  0-C ,  1-C ) :   0.8279 B(  0-C ,  2-C ) :   0.8072 B(  0-C , 22-H ) :   0.8869
B(  1-C ,  3-C ) :   1.0257 B(  1-C ,  4-C ) :  -0.1866 B(  1-C , 10-H ) :   0.9831
B(  1-C , 11-H ) :   0.9860 B(  2-C ,  5-C ) :   0.9732 B(  2-C , 12-H ) :   0.9723
B(  2-C , 13-H ) :   0.9676 B(  3-C ,  4-C ) :   0.5557 B(  3-C ,  5-C ) :   0.1068
B(  3-C ,  6-O ) :   0.1167 B(  3-C , 14-H ) :   0.9188 B(  3-C , 15-H ) :   1.0134
B(  4-C ,  5-C ) :   0.7969 B(  4-C ,  6-O ) :   0.1375 B(  4-C , 16-H ) :   0.9586
B(  5-C ,  6-O ) :   0.1536 B(  5-C , 17-H ) :   0.8970 B(  5-C , 18-H ) :   0.9404
B(  6-O ,  7-C ) :   1.0069 B(  6-O ,  8-C ) :  -0.1026 B(  7-C ,  8-C ) :   0.8318
B(  7-C ,  9-O ) :   1.3265 B(  8-C , 19-H ) :   0.9384 B(  8-C , 20-H ) :   0.9393
B(  8-C , 21-H ) :   0.9857

MP2 TOTAL ENERGY:     -462.337161368 Eh
FINAL SINGLE POINT ENERGY      -462.337161367969

DIPOLE MOMENT
-------------
                                X             Y             Z
Electronic contribution:     -4.80388       0.80091       1.32367
Nuclear contribution   :      5.07731      -1.34011      -1.82110
                        -----------------------------------------
Total Dipole Moment    :      0.27343      -0.53920      -0.49744
                        -----------------------------------------
Magnitude (a.u.)       :      0.78291
Magnitude (Debye)      :      1.98999

Rotational constants in cm-1:     0.103367     0.024740     0.022070
Rotational constants in MHz :  3098.859737   741.671928   661.645564

                             ****ORCA TERMINATED NORMALLY****
TOTAL RUN TIME: 0 days 1 hours 32 minutes 48 seconds 223 msec
