                         Program Version 4.2.1 -  RELEASE  -
|  1> %pal
|  2>  nprocs 32
|  3> end
|  4> !RI-MP2 aug-cc-pVQZ aug-cc-pVQZ/C TightSCF
|  5> %maxcore 4500
|  6> *xyzfile 0 1  02_40R1.xyz
|  7>
|  8>
|  9>                          ****END OF INPUT****

CARTESIAN COORDINATES (ANGSTROEM)
---------------------------------
  C      0.328236    0.031571   -0.684939
  C      0.204217    1.317206    0.079176
  C     -0.652414   -0.860385   -0.763571
  C     -1.948867   -0.656596   -0.083147
  O     -2.776958   -1.679638   -0.321638
  O     -2.238327    0.292913    0.599845
  O      0.687654    1.475449    1.174116
  O     -0.406519    2.259253   -0.614997
  C     -0.613594    3.504239    0.068240
  C     -4.063263   -1.596579    0.301328
  S      1.927449   -0.221347   -1.429420
  C      2.620581   -1.553613   -0.380608
  C      3.006648   -1.140877    1.033076
  O      1.903045   -0.981061    1.887698
  H     -1.094591    4.155098   -0.655855
  H      0.339147    3.919839    0.393326
  H     -1.258291    3.339888    0.930731
  H     -3.954534   -1.539296    1.383988
  H     -4.586288   -2.504354    0.014272
  H     -4.597910   -0.715337   -0.052326
  H      3.508163   -1.870881   -0.933398
  H      1.918411   -2.386831   -0.354745
  H      3.626222   -0.237647    0.999186
  H      3.615762   -1.945961    1.455200
  H      1.525629   -0.093355    1.783256
  H     -0.521318   -1.784741   -1.310440

 Total Charge           Charge          ....    0
 Multiplicity           Mult            ....    1
 Number of Electrons    NEL             ....  116
 Basis Dimension        Dim             .... 1676

ORBITAL ENERGIES
----------------

  NO   OCC          E(Eh)            E(eV)
   0   2.0000     -91.971404     -2502.6691
   1   2.0000     -20.614286      -560.9432
   2   2.0000     -20.613727      -560.9280
   3   2.0000     -20.556243      -559.3638
   4   2.0000     -20.552375      -559.2585
   5   2.0000     -20.534085      -558.7609
   6   2.0000     -11.402001      -310.2642
   7   2.0000     -11.393612      -310.0359
   8   2.0000     -11.307547      -307.6940
   9   2.0000     -11.291989      -307.2706
  10   2.0000     -11.288796      -307.1837
  11   2.0000     -11.276611      -306.8522
  12   2.0000     -11.268999      -306.6450
  13   2.0000     -11.268761      -306.6386
  14   2.0000      -8.973320      -244.1765
  15   2.0000      -6.654930      -181.0899
  16   2.0000      -6.653790      -181.0588
  17   2.0000      -6.653028      -181.0381
  18   2.0000      -1.483381       -40.3649
  19   2.0000      -1.476143       -40.1679
  20   2.0000      -1.378964       -37.5235
  21   2.0000      -1.373738       -37.3813
  22   2.0000      -1.346254       -36.6334
  23   2.0000      -1.140349       -31.0305
  24   2.0000      -1.060078       -28.8462
  25   2.0000      -1.012272       -27.5453
  26   2.0000      -0.982799       -26.7433
  27   2.0000      -0.944839       -25.7104
  28   2.0000      -0.877128       -23.8679
  29   2.0000      -0.819982       -22.3129
  30   2.0000      -0.805434       -21.9170
  31   2.0000      -0.770872       -20.9765
  32   2.0000      -0.742021       -20.1914
  33   2.0000      -0.706091       -19.2137
  34   2.0000      -0.701959       -19.1013
  35   2.0000      -0.687691       -18.7130
  36   2.0000      -0.686530       -18.6814
  37   2.0000      -0.682231       -18.5644
  38   2.0000      -0.644534       -17.5387
  39   2.0000      -0.639424       -17.3996
  40   2.0000      -0.622110       -16.9285
  41   2.0000      -0.603149       -16.4125
  42   2.0000      -0.585247       -15.9254
  43   2.0000      -0.576582       -15.6896
  44   2.0000      -0.570141       -15.5143
  45   2.0000      -0.561070       -15.2675
  46   2.0000      -0.542360       -14.7584
  47   2.0000      -0.539647       -14.6845
  48   2.0000      -0.526821       -14.3355
  49   2.0000      -0.511889       -13.9292
  50   2.0000      -0.483312       -13.1516
  51   2.0000      -0.480461       -13.0740
  52   2.0000      -0.470470       -12.8021
  53   2.0000      -0.463292       -12.6068
  54   2.0000      -0.455019       -12.3817
  55   2.0000      -0.444333       -12.0909
  56   2.0000      -0.405934       -11.0460
  57   2.0000      -0.358638        -9.7590
  58   0.0000       0.022546         0.6135
  59   0.0000       0.026553         0.7225
  60   0.0000       0.028313         0.7704
  61   0.0000       0.035565         0.9678
  62   0.0000       0.039932         1.0866

MULLIKEN ATOMIC CHARGES
-----------------------
   0 C :   -0.243732
   1 C :    1.951433
   2 C :   -0.655413
   3 C :    1.528271
   4 O :   -0.818689
   5 O :   -0.913019
   6 O :   -0.933203
   7 O :   -0.802732
   8 C :   -0.893951
   9 C :   -0.798256
  10 S :   -0.055190
  11 C :   -0.632379
  12 C :   -0.098807
  13 O :   -0.934592
  14 H :    0.469756
  15 H :    0.352318
  16 H :    0.348693
  17 H :    0.328163
  18 H :    0.472986
  19 H :    0.339339
  20 H :    0.345715
  21 H :    0.294626
  22 H :    0.223673
  23 H :    0.378083
  24 H :    0.334757
  25 H :    0.412149
Sum of atomic charges:   -0.0000000

LOEWDIN ATOMIC CHARGES
----------------------
   0 C :   -0.564084
   1 C :   -1.237014
   2 C :    0.203078
   3 C :   -1.105053
   4 O :    0.843962
   5 O :    0.739138
   6 O :    0.824136
   7 O :    0.852359
   8 C :    0.601443
   9 C :    0.585140
  10 S :    1.365235
  11 C :    0.177934
  12 C :    0.107133
  13 O :    1.280871
  14 H :   -0.316026
  15 H :   -0.314290
  16 H :   -0.307152
  17 H :   -0.314227
  18 H :   -0.321203
  19 H :   -0.313211
  20 H :   -0.377747
  21 H :   -0.363597
  22 H :   -0.311748
  23 H :   -0.319782
  24 H :   -1.049374
  25 H :   -0.365921

  Mayer bond orders larger than 0.100000
B(  0-C ,  1-C ) :   0.9399 B(  0-C ,  2-C ) :   1.7089 B(  0-C ,  3-C ) :  -0.1202
B(  0-C ,  6-O ) :   0.2626 B(  0-C ,  7-O ) :   0.1035 B(  0-C , 10-S ) :   0.8947
B(  0-C , 11-C ) :  -0.1223 B(  1-C ,  2-C ) :  -0.1356 B(  1-C ,  6-O ) :   0.7729
B(  1-C ,  7-O ) :   0.7185 B(  1-C ,  8-C ) :  -0.1767 B(  2-C ,  3-C ) :   1.1565
B(  2-C ,  4-O ) :   0.1877 B(  2-C ,  5-O ) :   0.1833 B(  2-C , 10-S ) :  -0.3340
B(  2-C , 25-H ) :   0.8193 B(  3-C ,  4-O ) :   0.6848 B(  3-C ,  5-O ) :   1.1271
B(  3-C ,  9-C ) :  -0.1514 B(  4-O ,  5-O ) :   0.1549 B(  4-O ,  9-C ) :   0.8809
B(  6-O ,  7-O ) :   0.1436 B(  7-O ,  8-C ) :   0.9621 B(  8-C , 14-H ) :   0.8012
B(  8-C , 15-H ) :   0.8893 B(  8-C , 16-H ) :   0.8872 B(  9-C , 17-H ) :   0.9113
B(  9-C , 18-H ) :   0.7896 B(  9-C , 19-H ) :   0.8929 B( 10-S , 11-C ) :   0.9646
B( 11-C , 12-C ) :   1.0252 B( 11-C , 20-H ) :   0.8488 B( 11-C , 21-H ) :   0.8495
B( 12-C , 13-O ) :   0.7249 B( 12-C , 22-H ) :   0.9271 B( 12-C , 23-H ) :   0.8001
B( 13-O , 24-H ) :   0.7803

MP2 TOTAL ENERGY:    -1084.955673036 Eh
FINAL SINGLE POINT ENERGY     -1084.955673036375

DIPOLE MOMENT
-------------
                                X             Y             Z
Electronic contribution:      1.11387       1.37919      -4.55655
Nuclear contribution   :     -1.56657      -1.61751       3.69980
                        -----------------------------------------
Total Dipole Moment    :     -0.45270      -0.23832      -0.85675
                        -----------------------------------------
Magnitude (a.u.)       :      0.99788
Magnitude (Debye)      :      2.53640

Rotational constants in cm-1:     0.023870     0.014754     0.011619
Rotational constants in MHz :   715.603847   442.324529   348.318913

                             ****ORCA TERMINATED NORMALLY****
TOTAL RUN TIME: 0 days 1 hours 54 minutes 51 seconds 396 msec
