                         Program Version 4.2.1 -  RELEASE  -
|  1> %pal
|  2>  nprocs 32
|  3> end
|  4> !RI-MP2 aug-cc-pVQZ aug-cc-pVQZ/C TightSCF
|  5> %maxcore 4500
|  6> *xyzfile 0 1  10_35P.xyz
|  7>
|  8>
|  9>                          ****END OF INPUT****

CARTESIAN COORDINATES (ANGSTROEM)
---------------------------------
  C     -1.036896    1.530876   -0.632977
  H     -0.967504    1.803168   -1.707128
  C     -2.028280    0.421520   -0.476746
  C     -0.209983   -1.154071    0.104602
  H      0.012768   -1.227563    1.174228
  H     -0.011060   -2.138592   -0.326905
  C      0.714554   -0.111191   -0.524935
  H      0.607853   -0.186889   -1.625270
  N      0.265310    1.204892   -0.084877
  C     -2.670479   -1.855415    0.043461
  C     -3.470037    0.705585   -0.807398
  C     -3.969652   -1.563233    0.097032
  C     -4.441897   -0.132011    0.031050
  C     -1.655071   -0.808581   -0.115571
  C     -4.602262    0.426056    1.451178
  H     -4.994948    1.446083    1.425726
  H     -5.289735   -0.187185    2.037633
  H     -3.639865    0.439999    1.967473
  C      1.233991    2.254980   -0.327534
  H      1.522683    2.301281   -1.393997
  H      0.771841    3.212459   -0.077081
  C      2.172397   -0.368854   -0.194170
  C      2.997487    0.630344    0.320825
  C      2.458269    2.019280    0.535083
  H      2.180289    2.152815    1.584979
  H      3.232317    2.756314    0.306127
  H     -1.409810    2.422309   -0.117278
  C      4.329139    0.337341    0.609802
  H      4.964137    1.121731    1.008235
  C      2.712945   -1.632201   -0.435152
  H      2.088930   -2.408977   -0.860939
  C      4.851148   -0.924535    0.387637
  H      5.889113   -1.133195    0.617215
  C      4.036692   -1.914979   -0.146786
  H      4.433521   -2.904063   -0.341309
  H     -3.629517    0.489627   -1.872411
  H     -3.691535    1.768877   -0.672826
  H     -5.420788   -0.102929   -0.455894
  H     -4.705729   -2.343139    0.261177
  H     -2.332529   -2.881846    0.145978

 Total Charge           Charge          ....    0
 Multiplicity           Mult            ....    1
 Number of Electrons    NEL             ....  136
 Basis Dimension        Dim             .... 2486

ORBITAL ENERGIES
----------------

  NO   OCC          E(Eh)            E(eV)
   0   2.0000     -15.542945      -422.9450
   1   2.0000     -11.257915      -306.3434
   2   2.0000     -11.250751      -306.1485
   3   2.0000     -11.246993      -306.0462
   4   2.0000     -11.232452      -305.6506
   5   2.0000     -11.231229      -305.6173
   6   2.0000     -11.228967      -305.5557
   7   2.0000     -11.226593      -305.4911
   8   2.0000     -11.225894      -305.4721
   9   2.0000     -11.224828      -305.4431
  10   2.0000     -11.224074      -305.4226
  11   2.0000     -11.221901      -305.3635
  12   2.0000     -11.221780      -305.3602
  13   2.0000     -11.221624      -305.3559
  14   2.0000     -11.221204      -305.3445
  15   2.0000     -11.219448      -305.2967
  16   2.0000     -11.219304      -305.2928
  17   2.0000     -11.217814      -305.2522
  18   2.0000     -11.209422      -305.0239
  19   2.0000      -1.251534       -34.0560
  20   2.0000      -1.155653       -31.4469
  21   2.0000      -1.141519       -31.0623
  22   2.0000      -1.076601       -29.2958
  23   2.0000      -1.056696       -28.7542
  24   2.0000      -1.039187       -28.2777
  25   2.0000      -1.017564       -27.6893
  26   2.0000      -0.991662       -26.9845
  27   2.0000      -0.968925       -26.3658
  28   2.0000      -0.927654       -25.2427
  29   2.0000      -0.881105       -23.9761
  30   2.0000      -0.860385       -23.4123
  31   2.0000      -0.841095       -22.8874
  32   2.0000      -0.819017       -22.2866
  33   2.0000      -0.809381       -22.0244
  34   2.0000      -0.763746       -20.7826
  35   2.0000      -0.741529       -20.1780
  36   2.0000      -0.693137       -18.8612
  37   2.0000      -0.675523       -18.3819
  38   2.0000      -0.662617       -18.0307
  39   2.0000      -0.650527       -17.7017
  40   2.0000      -0.640659       -17.4332
  41   2.0000      -0.624678       -16.9984
  42   2.0000      -0.616953       -16.7881
  43   2.0000      -0.608844       -16.5675
  44   2.0000      -0.594677       -16.1820
  45   2.0000      -0.593349       -16.1458
  46   2.0000      -0.584311       -15.8999
  47   2.0000      -0.570582       -15.5263
  48   2.0000      -0.562877       -15.3166
  49   2.0000      -0.558555       -15.1991
  50   2.0000      -0.546363       -14.8673
  51   2.0000      -0.534213       -14.5367
  52   2.0000      -0.532671       -14.4947
  53   2.0000      -0.521609       -14.1937
  54   2.0000      -0.513719       -13.9790
  55   2.0000      -0.504406       -13.7256
  56   2.0000      -0.498829       -13.5738
  57   2.0000      -0.485305       -13.2058
  58   2.0000      -0.477656       -12.9977
  59   2.0000      -0.472745       -12.8640
  60   2.0000      -0.460887       -12.5414
  61   2.0000      -0.448965       -12.2170
  62   2.0000      -0.427622       -11.6362
  63   2.0000      -0.404281       -11.0011
  64   2.0000      -0.358863        -9.7651
  65   2.0000      -0.326532        -8.8854
  66   2.0000      -0.319565        -8.6958
  67   2.0000      -0.291600        -7.9348
  68   0.0000       0.022404         0.6096
  69   0.0000       0.025016         0.6807
  70   0.0000       0.025366         0.6902
  71   0.0000       0.029899         0.8136
  72   0.0000       0.033137         0.9017

MULLIKEN ATOMIC CHARGES
-----------------------
   0 C :   -0.286857
   1 H :    0.181170
   2 C :    0.661597
   3 C :   -0.240089
   4 H :    0.304055
   5 H :    0.158908
   6 C :    1.252089
   7 H :    0.188256
   8 N :   -0.215958
   9 C :   -0.890930
  10 C :   -0.736762
  11 C :   -0.400375
  12 C :    0.015370
  13 C :    0.416436
  14 C :   -1.037510
  15 H :    0.219635
  16 H :    0.278256
  17 H :    0.165472
  18 C :   -0.681676
  19 H :    0.236624
  20 H :    0.212099
  21 C :    0.522029
  22 C :    0.345708
  23 C :   -0.693408
  24 H :    0.207505
  25 H :    0.181133
  26 H :    0.093751
  27 C :   -0.699798
  28 H :    0.228989
  29 C :   -0.862497
  30 H :    0.115267
  31 C :   -0.409838
  32 H :    0.260937
  33 C :   -0.439074
  34 H :    0.208742
  35 H :    0.295758
  36 H :    0.178584
  37 H :    0.240160
  38 H :    0.269981
  39 H :    0.156260
Sum of atomic charges:   -0.0000000

LOEWDIN ATOMIC CHARGES
----------------------
   0 C :    0.348673
   1 H :   -0.241367
   2 C :    0.003522
   3 C :    0.510024
   4 H :   -0.241731
   5 H :   -0.297524
   6 C :   -0.054952
   7 H :   -0.252899
   8 N :    0.533382
   9 C :    0.392511
  10 C :    0.507166
  11 C :    0.392867
  12 C :    0.089491
  13 C :   -0.012813
  14 C :    0.930357
  15 H :   -0.270631
  16 H :   -0.269994
  17 H :   -0.275864
  18 C :    0.351286
  19 H :   -0.238891
  20 H :   -0.276076
  21 C :   -0.027553
  22 C :   -0.038936
  23 C :    0.523797
  24 H :   -0.255800
  25 H :   -0.274171
  26 H :   -0.281863
  27 C :    0.357033
  28 H :   -0.313053
  29 C :    0.358434
  30 H :   -0.322313
  31 C :    0.348689
  32 H :   -0.320813
  33 C :    0.356130
  34 H :   -0.319897
  35 H :   -0.248128
  36 H :   -0.276997
  37 H :   -0.277563
  38 H :   -0.296764
  39 H :   -0.316766

  Mayer bond orders larger than 0.100000
B(  0-C ,  1-H ) :   1.0983 B(  0-C ,  2-C ) :   0.3445 B(  0-C ,  8-N ) :   1.0067
B(  0-C , 13-C ) :  -0.2868 B(  0-C , 26-H ) :   1.2009 B(  1-H ,  2-C ) :  -0.1110
B(  1-H ,  8-N ) :  -0.1224 B(  2-C ,  3-C ) :  -0.2824 B(  2-C ,  9-C ) :  -0.2653
B(  2-C , 10-C ) :   0.2824 B(  2-C , 12-C ) :  -0.2262 B(  2-C , 13-C ) :   1.4931
B(  2-C , 26-H ) :  -0.2122 B(  2-C , 36-H ) :  -0.2081 B(  3-C ,  4-H ) :   0.9034
B(  3-C ,  5-H ) :   1.1336 B(  3-C ,  6-C ) :   0.7388 B(  3-C ,  9-C ) :  -0.2645
B(  3-C , 13-C ) :   0.1523 B(  3-C , 29-C ) :   0.1640 B(  6-C ,  7-H ) :   1.0752
B(  6-C ,  8-N ) :   0.5203 B(  6-C , 13-C ) :  -0.1463 B(  6-C , 22-C ) :  -0.4946
B(  6-C , 29-C ) :  -0.7189 B(  8-N , 18-C ) :   0.7778 B(  8-N , 19-H ) :  -0.1038
B(  9-C , 11-C ) :   1.7565 B(  9-C , 13-C ) :   0.4698 B(  9-C , 38-H ) :  -0.1778
B(  9-C , 39-H ) :   1.1420 B( 10-C , 12-C ) :   1.0671 B( 10-C , 13-C ) :  -0.1437
B( 10-C , 35-H ) :   0.8844 B( 10-C , 36-H ) :   1.1071 B( 11-C , 12-C ) :   0.7826
B( 11-C , 13-C ) :  -0.4237 B( 11-C , 38-H ) :   1.1083 B( 12-C , 14-C ) :   0.7257
B( 12-C , 37-H ) :   1.0090 B( 13-C , 39-H ) :  -0.1101 B( 14-C , 15-H ) :   1.0209
B( 14-C , 16-H ) :   1.0041 B( 14-C , 17-H ) :   0.9988 B( 18-C , 19-H ) :   0.9931
B( 18-C , 20-H ) :   1.0228 B( 18-C , 23-C ) :   1.1502 B( 18-C , 25-H ) :  -0.1017
B( 21-C , 22-C ) :   1.1067 B( 21-C , 23-C ) :  -0.1338 B( 21-C , 27-C ) :  -0.5484
B( 21-C , 29-C ) :   0.9943 B( 21-C , 30-H ) :  -0.1372 B( 21-C , 33-C ) :  -0.3724
B( 22-C , 23-C ) :   0.3970 B( 22-C , 25-H ) :  -0.1721 B( 22-C , 27-C ) :   1.0440
B( 22-C , 28-H ) :  -0.1009 B( 22-C , 31-C ) :  -0.2445 B( 23-C , 24-H ) :   1.0474
B( 23-C , 25-H ) :   1.1548 B( 27-C , 28-H ) :   1.0621 B( 27-C , 29-C ) :   0.1817
B( 27-C , 31-C ) :   1.2729 B( 27-C , 32-H ) :  -0.1947 B( 27-C , 33-C ) :   0.1283
B( 29-C , 30-H ) :   1.2345 B( 29-C , 33-C ) :   1.2369 B( 29-C , 34-H ) :  -0.1896
B( 31-C , 32-H ) :   1.1526 B( 31-C , 33-C ) :   1.1774 B( 32-H , 33-C ) :  -0.1288
B( 33-C , 34-H ) :   1.2008

MP2 TOTAL ENERGY:     -751.922684669 Eh
FINAL SINGLE POINT ENERGY      -751.922684669385

DIPOLE MOMENT
-------------
                                X             Y             Z
Electronic contribution:     10.37320      -4.17652      -1.31479
Nuclear contribution   :    -10.55517       4.47828       1.09457
                        -----------------------------------------
Total Dipole Moment    :     -0.18196       0.30176      -0.22022
                        -----------------------------------------
Magnitude (a.u.)       :      0.41553
Magnitude (Debye)      :      1.05619

Rotational constants in cm-1:     0.032058     0.007008     0.006118
Rotational constants in MHz :   961.078494   210.082000   183.424634

                             ****ORCA TERMINATED NORMALLY****
TOTAL RUN TIME: 0 days 7 hours 58 minutes 28 seconds 312 msec
