                         Program Version 4.2.1 -  RELEASE  -
|  1> %pal
|  2>  nprocs 32
|  3> end
|  4> !RI-MP2 aug-cc-pVQZ aug-cc-pVQZ/C TightSCF
|  5> %maxcore 4500
|  6> *xyzfile 0 1  04_55P2.xyz
|  7>
|  8>
|  9>                          ****END OF INPUT****

CARTESIAN COORDINATES (ANGSTROEM)
---------------------------------
  C      0.043124   -1.210067   -0.003995
  C     -1.340816   -1.198961   -0.010162
  C     -2.052742    0.000000   -0.010247
  C     -1.340817    1.198961   -0.010154
  C      0.043124    1.210067   -0.003988
  C      0.714884    0.000000   -0.000037
  H      0.604753   -2.133289   -0.005262
  H      0.604753    2.133289   -0.005250
  H     -1.878688    2.139620   -0.017112
  H     -1.878689   -2.139619   -0.017126
  C     -3.554866   -0.000000    0.014359
  N      2.185685    0.000000    0.003283
  O      2.751072    1.076743    0.004933
  O      2.751072   -1.076743    0.004952
  H     -3.960114    0.884345   -0.478537
  H     -3.920203   -0.000006    1.045115
  H     -3.960113   -0.884340   -0.478547

 Total Charge           Charge          ....    0
 Multiplicity           Mult            ....    1
 Number of Electrons    NEL             ....   72
 Basis Dimension        Dim             .... 1122

ORBITAL ENERGIES
----------------

  NO   OCC          E(Eh)            E(eV)
   0   2.0000     -20.594666      -560.4093
   1   2.0000     -20.594614      -560.4079
   2   2.0000     -15.848193      -431.2513
   3   2.0000     -11.301056      -307.5174
   4   2.0000     -11.275898      -306.8328
   5   2.0000     -11.269845      -306.6681
   6   2.0000     -11.269801      -306.6669
   7   2.0000     -11.255539      -306.2788
   8   2.0000     -11.255493      -306.2775
   9   2.0000     -11.245213      -305.9978
  10   2.0000      -1.608862       -43.7794
  11   2.0000      -1.399979       -38.0954
  12   2.0000      -1.201206       -32.6865
  13   2.0000      -1.107395       -30.1337
  14   2.0000      -1.050213       -28.5777
  15   2.0000      -1.007241       -27.4084
  16   2.0000      -0.914902       -24.8957
  17   2.0000      -0.866037       -23.5661
  18   2.0000      -0.814898       -22.1745
  19   2.0000      -0.779988       -21.2245
  20   2.0000      -0.727897       -19.8071
  21   2.0000      -0.720631       -19.6094
  22   2.0000      -0.674417       -18.3518
  23   2.0000      -0.668757       -18.1978
  24   2.0000      -0.643101       -17.4997
  25   2.0000      -0.621151       -16.9024
  26   2.0000      -0.601024       -16.3547
  27   2.0000      -0.565976       -15.4010
  28   2.0000      -0.538604       -14.6562
  29   2.0000      -0.524543       -14.2735
  30   2.0000      -0.520892       -14.1742
  31   2.0000      -0.491725       -13.3805
  32   2.0000      -0.490767       -13.3545
  33   2.0000      -0.453288       -12.3346
  34   2.0000      -0.368035       -10.0147
  35   2.0000      -0.364309        -9.9134
  36   0.0000       0.018308         0.4982
  37   0.0000       0.025316         0.6889
  38   0.0000       0.030718         0.8359
  39   0.0000       0.032099         0.8735
  40   0.0000       0.043318         1.1787

MULLIKEN ATOMIC CHARGES
-----------------------
   0 C :   -0.219246
   1 C :   -0.235037
   2 C :    0.452615
   3 C :   -0.234821
   4 C :   -0.219118
   5 C :   -0.175262
   6 H :    0.324530
   7 H :    0.324505
   8 H :    0.233538
   9 H :    0.233524
  10 C :   -0.793610
  11 N :    0.785158
  12 O :   -0.615292
  13 O :   -0.615299
  14 H :    0.228153
  15 H :    0.297501
  16 H :    0.228162
Sum of atomic charges:   -0.0000000

LOEWDIN ATOMIC CHARGES
----------------------
   0 C :    0.327883
   1 C :    0.365584
   2 C :   -0.063962
   3 C :    0.365585
   4 C :    0.327884
   5 C :   -0.305379
   6 H :   -0.345290
   7 H :   -0.345290
   8 H :   -0.313541
   9 H :   -0.313541
  10 C :    0.917927
  11 N :   -0.848097
  12 O :    0.545491
  13 O :    0.545491
  14 H :   -0.294230
  15 H :   -0.272284
  16 H :   -0.294230

  Mayer bond orders larger than 0.100000
B(  0-C ,  1-C ) :   1.3235 B(  0-C ,  2-C ) :  -0.1502 B(  0-C ,  3-C ) :   0.1225
B(  0-C ,  5-C ) :   1.2047 B(  0-C ,  6-H ) :   0.9152 B(  0-C ,  9-H ) :  -0.1360
B(  0-C , 11-N ) :  -0.1056 B(  1-C ,  2-C ) :   0.9606 B(  1-C ,  3-C ) :  -0.1248
B(  1-C ,  4-C ) :   0.1224 B(  1-C ,  5-C ) :  -0.2036 B(  1-C ,  6-H ) :  -0.1046
B(  1-C ,  9-H ) :   1.0624 B(  2-C ,  3-C ) :   0.9605 B(  2-C ,  4-C ) :  -0.1502
B(  2-C , 10-C ) :   0.7657 B(  2-C , 14-H ) :  -0.1027 B(  2-C , 16-H ) :  -0.1027
B(  3-C ,  4-C ) :   1.3234 B(  3-C ,  5-C ) :  -0.2036 B(  3-C ,  7-H ) :  -0.1046
B(  3-C ,  8-H ) :   1.0624 B(  4-C ,  5-C ) :   1.2046 B(  4-C ,  7-H ) :   0.9152
B(  4-C ,  8-H ) :  -0.1360 B(  4-C , 11-N ) :  -0.1056 B(  5-C ,  6-H ) :  -0.1039
B(  5-C ,  7-H ) :  -0.1039 B(  5-C , 11-N ) :   0.7918 B(  5-C , 12-O ) :   0.2639
B(  5-C , 13-O ) :   0.2640 B( 10-C , 14-H ) :   1.0278 B( 10-C , 15-H ) :   0.9236
B( 10-C , 16-H ) :   1.0278 B( 11-N , 12-O ) :   1.1810 B( 11-N , 13-O ) :   1.1809

MP2 TOTAL ENERGY:     -475.343436687 Eh
FINAL SINGLE POINT ENERGY      -475.343436687388

DIPOLE MOMENT
-------------
                                X             Y             Z
Electronic contribution:     11.82115       0.00000      -0.03280
Nuclear contribution   :    -14.08902      -0.00000       0.04285
                        -----------------------------------------
Total Dipole Moment    :     -2.26788       0.00000       0.01005
                        -----------------------------------------
Magnitude (a.u.)       :      2.26790
Magnitude (Debye)      :      5.76454

Rotational constants in cm-1:     0.131336     0.027370     0.022746
Rotational constants in MHz :  3937.350228   820.537485   681.907191

                             ****ORCA TERMINATED NORMALLY****
TOTAL RUN TIME: 0 days 0 hours 39 minutes 28 seconds 128 msec
