                         Program Version 4.2.1 -  RELEASE  -
|  1> %pal
|  2>  nprocs 32
|  3> end
|  4> !RI-MP2 aug-cc-pVQZ aug-cc-pVQZ/C TightSCF
|  5> %maxcore 4500
|  6> *xyzfile 0 1  05_30R1.xyz
|  7>
|  8>
|  9>                          ****END OF INPUT****

CARTESIAN COORDINATES (ANGSTROEM)
---------------------------------
  C     -0.524953   -0.831728    1.155461
  C      0.774665   -0.383581    0.526598
  C      1.603155   -1.290275   -0.122880
  C      1.168608    0.949562    0.611689
  C      2.811947   -0.879277   -0.671695
  H      1.299486   -2.328655   -0.204966
  C      2.370063    1.364473    0.059020
  H      0.516845    1.659433    1.107050
  C      3.197358    0.449797   -0.582601
  H      3.447804   -1.597174   -1.175982
  H      2.665581    2.404622    0.129781
  O     -1.590279    0.068389    0.939808
  C     -2.062483    0.139920   -0.406284
  H     -1.198663    0.126950   -1.082546
  H      4.136432    0.774648   -1.014133
  C     -2.775002    1.470637   -0.538818
  H     -2.090608    2.292254   -0.324094
  H     -3.169329    1.598910   -1.548962
  H     -3.606254    1.522053    0.167998
  C     -2.973959   -1.035821   -0.727398
  H     -2.460159   -1.991708   -0.611452
  H     -3.841536   -1.029321   -0.063751
  H     -3.325160   -0.973861   -1.759849
  H     -0.775184   -1.839661    0.803416
  H     -0.413415   -0.887832    2.240480

 Total Charge           Charge          ....    0
 Multiplicity           Mult            ....    1
 Number of Electrons    NEL             ....   82
 Basis Dimension        Dim             .... 1524

ORBITAL ENERGIES
----------------

  NO   OCC          E(Eh)            E(eV)
   0   2.0000     -20.547692      -559.1311
   1   2.0000     -11.276837      -306.8583
   2   2.0000     -11.273529      -306.7683
   3   2.0000     -11.235596      -305.7361
   4   2.0000     -11.233892      -305.6897
   5   2.0000     -11.233069      -305.6674
   6   2.0000     -11.231537      -305.6257
   7   2.0000     -11.230798      -305.6056
   8   2.0000     -11.227724      -305.5219
   9   2.0000     -11.211295      -305.0749
  10   2.0000     -11.207964      -304.9842
  11   2.0000      -1.371970       -37.3332
  12   2.0000      -1.156893       -31.4807
  13   2.0000      -1.061088       -28.8737
  14   2.0000      -1.027541       -27.9608
  15   2.0000      -1.015706       -27.6388
  16   2.0000      -0.939074       -25.5535
  17   2.0000      -0.913254       -24.8509
  18   2.0000      -0.829478       -22.5712
  19   2.0000      -0.814299       -22.1582
  20   2.0000      -0.777991       -21.1702
  21   2.0000      -0.701004       -19.0753
  22   2.0000      -0.677776       -18.4432
  23   2.0000      -0.648012       -17.6333
  24   2.0000      -0.641884       -17.4666
  25   2.0000      -0.616561       -16.7775
  26   2.0000      -0.614354       -16.7174
  27   2.0000      -0.586661       -15.9638
  28   2.0000      -0.586034       -15.9468
  29   2.0000      -0.549562       -14.9543
  30   2.0000      -0.542526       -14.7629
  31   2.0000      -0.535074       -14.5601
  32   2.0000      -0.518186       -14.1006
  33   2.0000      -0.508341       -13.8326
  34   2.0000      -0.493672       -13.4335
  35   2.0000      -0.489699       -13.3254
  36   2.0000      -0.482896       -13.1403
  37   2.0000      -0.454490       -12.3673
  38   2.0000      -0.418146       -11.3783
  39   2.0000      -0.338729        -9.2173
  40   2.0000      -0.331188        -9.0121
  41   0.0000       0.023742         0.6461
  42   0.0000       0.027757         0.7553
  43   0.0000       0.029661         0.8071
  44   0.0000       0.032894         0.8951
  45   0.0000       0.039406         1.0723

MULLIKEN ATOMIC CHARGES
-----------------------
   0 C :   -0.048253
   1 C :    0.647438
   2 C :   -0.645545
   3 C :   -0.549746
   4 C :   -0.330799
   5 H :    0.242455
   6 C :   -0.307654
   7 H :    0.342243
   8 C :   -0.371022
   9 H :    0.242499
  10 H :    0.212391
  11 O :   -0.961221
  12 C :    0.655024
  13 H :    0.303777
  14 H :    0.323541
  15 C :   -0.951736
  16 H :    0.269851
  17 H :    0.264040
  18 H :    0.230318
  19 C :   -1.013429
  20 H :    0.252874
  21 H :    0.224473
  22 H :    0.295860
  23 H :    0.175241
  24 H :    0.497377
Sum of atomic charges:   -0.0000000

LOEWDIN ATOMIC CHARGES
----------------------
   0 C :    0.146474
   1 C :   -0.098304
   2 C :    0.344688
   3 C :    0.337431
   4 C :    0.342863
   5 H :   -0.314431
   6 C :    0.347383
   7 H :   -0.314257
   8 C :    0.334591
   9 H :   -0.320597
  10 H :   -0.319337
  11 O :    0.915449
  12 C :   -0.260066
  13 H :   -0.309263
  14 H :   -0.323238
  15 C :    0.901359
  16 H :   -0.282780
  17 H :   -0.279874
  18 H :   -0.283067
  19 C :    0.919948
  20 H :   -0.295390
  21 H :   -0.277214
  22 H :   -0.276191
  23 H :   -0.335936
  24 H :   -0.300241

  Mayer bond orders larger than 0.100000
B(  0-C ,  1-C ) :   0.7389 B(  0-C ,  2-C ) :  -0.1172 B(  0-C ,  3-C ) :  -0.1446
B(  0-C , 11-O ) :   0.6841 B(  0-C , 23-H ) :   1.1636 B(  0-C , 24-H ) :   0.6809
B(  1-C ,  2-C ) :   0.8680 B(  1-C ,  3-C ) :   0.9477 B(  1-C ,  4-C ) :  -0.3994
B(  1-C ,  6-C ) :  -0.3402 B(  1-C , 23-H ) :  -0.1450 B(  2-C ,  4-C ) :   1.3576
B(  2-C ,  5-H ) :   1.0323 B(  2-C ,  6-C ) :   0.1654 B(  2-C ,  9-H ) :  -0.1485
B(  3-C ,  4-C ) :   0.1312 B(  3-C ,  6-C ) :   1.3803 B(  3-C ,  7-H ) :   0.9165
B(  3-C , 10-H ) :  -0.1266 B(  4-C ,  8-C ) :   1.1788 B(  4-C ,  9-H ) :   1.1363
B(  6-C ,  8-C ) :   1.1413 B(  6-C , 10-H ) :   1.1558 B(  8-C , 14-H ) :   1.0215
B( 11-O , 12-C ) :   0.5298 B( 12-C , 13-H ) :   0.8154 B( 12-C , 15-C ) :   0.5909
B( 12-C , 17-H ) :  -0.1007 B( 12-C , 19-C ) :   0.6800 B( 15-C , 16-H ) :   0.9848
B( 15-C , 17-H ) :   1.0260 B( 15-C , 18-H ) :   0.9844 B( 15-C , 19-C ) :   0.1556
B( 19-C , 20-H ) :   0.9728 B( 19-C , 21-H ) :   0.9997 B( 19-C , 22-H ) :   0.9630

MP2 TOTAL ENERGY:     -463.895738013 Eh
FINAL SINGLE POINT ENERGY      -463.895738013196

DIPOLE MOMENT
-------------
                                X             Y             Z
Electronic contribution:      9.19743       0.04023       2.99642
Nuclear contribution   :     -9.06171      -0.27502      -3.40581
                        -----------------------------------------
Total Dipole Moment    :      0.13572      -0.23479      -0.40939
                        -----------------------------------------
Magnitude (a.u.)       :      0.49107
Magnitude (Debye)      :      1.24820

Rotational constants in cm-1:     0.073952     0.020831     0.019048
Rotational constants in MHz :  2217.036044   624.489203   571.035447

                             ****ORCA TERMINATED NORMALLY****
TOTAL RUN TIME: 0 days 1 hours 27 minutes 2 seconds 553 msec
