                         Program Version 4.2.1 -  RELEASE  -
|  1> %pal
|  2>  nprocs 32
|  3> end
|  4> !RI-MP2 aug-cc-pVQZ aug-cc-pVQZ/C TightSCF
|  5> %maxcore 4500
|  6> *xyzfile 0 1  10_57R2.xyz
|  7>
|  8>
|  9>                          ****END OF INPUT****

CARTESIAN COORDINATES (ANGSTROEM)
---------------------------------
  C     -0.967813   -1.169443   -0.000021
  C     -0.967813    1.169443   -0.000043
  C     -0.077178    0.000000   -0.000008
  C     -2.242492    0.731283   -0.000066
  C     -2.242492   -0.731283   -0.000046
  C      1.269950    0.000000    0.000029
  C      2.084660   -1.257389    0.000064
  C      2.084660    1.257389    0.000055
  H      1.478471    2.159348   -0.000122
  H      2.738664    1.280590   -0.877134
  H      2.738364    1.280737    0.877466
  H      1.478471   -2.159349    0.000100
  H      2.738522   -1.280634    0.877358
  H      2.738505   -1.280692   -0.877242
  H     -3.129631    1.349182   -0.000092
  H     -0.650318    2.200366   -0.000046
  H     -0.650318   -2.200366   -0.000008
  H     -3.129631   -1.349182   -0.000058

 Total Charge           Charge          ....    0
 Multiplicity           Mult            ....    1
 Number of Electrons    NEL             ....   58
 Basis Dimension        Dim             .... 1100

ORBITAL ENERGIES
----------------

  NO   OCC          E(Eh)            E(eV)
   0   2.0000     -11.262174      -306.4593
   1   2.0000     -11.228990      -305.5563
   2   2.0000     -11.228967      -305.5557
   3   2.0000     -11.223679      -305.4118
   4   2.0000     -11.217776      -305.2512
   5   2.0000     -11.217027      -305.2308
   6   2.0000     -11.214563      -305.1638
   7   2.0000     -11.214541      -305.1632
   8   2.0000      -1.159166       -31.5425
   9   2.0000      -1.086847       -29.5746
  10   2.0000      -0.967644       -26.3309
  11   2.0000      -0.945132       -25.7183
  12   2.0000      -0.942882       -25.6571
  13   2.0000      -0.807420       -21.9710
  14   2.0000      -0.728431       -19.8216
  15   2.0000      -0.708924       -19.2908
  16   2.0000      -0.671554       -18.2739
  17   2.0000      -0.605588       -16.4789
  18   2.0000      -0.587207       -15.9787
  19   2.0000      -0.585819       -15.9409
  20   2.0000      -0.557797       -15.1784
  21   2.0000      -0.546758       -14.8781
  22   2.0000      -0.525847       -14.3090
  23   2.0000      -0.524081       -14.2610
  24   2.0000      -0.503013       -13.6877
  25   2.0000      -0.489109       -13.3093
  26   2.0000      -0.472459       -12.8563
  27   2.0000      -0.321887        -8.7590
  28   2.0000      -0.299020        -8.1368
  29   0.0000       0.024092         0.6556
  30   0.0000       0.029380         0.7995
  31   0.0000       0.030190         0.8215
  32   0.0000       0.038082         1.0363
  33   0.0000       0.039785         1.0826

MULLIKEN ATOMIC CHARGES
-----------------------
   0 C :   -0.677097
   1 C :   -0.677077
   2 C :    0.387520
   3 C :   -0.376420
   4 C :   -0.376334
   5 C :    0.603928
   6 C :   -0.822608
   7 C :   -0.822645
   8 H :    0.336119
   9 H :    0.235606
  10 H :    0.235635
  11 H :    0.336101
  12 H :    0.235617
  13 H :    0.235647
  14 H :    0.353675
  15 H :    0.219319
  16 H :    0.219341
  17 H :    0.353674
Sum of atomic charges:   -0.0000000

LOEWDIN ATOMIC CHARGES
----------------------
   0 C :    0.327849
   1 C :    0.327849
   2 C :   -0.114502
   3 C :    0.340579
   4 C :    0.340579
   5 C :   -0.003602
   6 C :    0.911186
   7 C :    0.911186
   8 H :   -0.330417
   9 H :   -0.273437
  10 H :   -0.273427
  11 H :   -0.330416
  12 H :   -0.273433
  13 H :   -0.273432
  14 H :   -0.317671
  15 H :   -0.325611
  16 H :   -0.325611
  17 H :   -0.317671

  Mayer bond orders larger than 0.100000
B(  0-C ,  1-C ) :   0.2226 B(  0-C ,  2-C ) :   0.8061 B(  0-C ,  4-C ) :   1.5278
B(  0-C ,  5-C ) :  -0.3116 B(  0-C , 16-H ) :   1.0855 B(  1-C ,  2-C ) :   0.8061
B(  1-C ,  3-C ) :   1.5278 B(  1-C ,  5-C ) :  -0.3116 B(  1-C , 15-H ) :   1.0855
B(  2-C ,  3-C ) :  -0.4204 B(  2-C ,  4-C ) :  -0.4204 B(  2-C ,  5-C ) :   0.8911
B(  3-C ,  4-C ) :   1.0685 B(  3-C , 14-H ) :   1.0119 B(  4-C , 17-H ) :   1.0119
B(  5-C ,  6-C ) :   0.6581 B(  5-C ,  7-C ) :   0.6580 B(  6-C , 11-H ) :   0.9766
B(  6-C , 12-H ) :   1.0104 B(  6-C , 13-H ) :   1.0103 B(  7-C ,  8-H ) :   0.9766
B(  7-C ,  9-H ) :   1.0104 B(  7-C , 10-H ) :   1.0103

MP2 TOTAL ENERGY:     -310.237294709 Eh
FINAL SINGLE POINT ENERGY      -310.237294709415

DIPOLE MOMENT
-------------
                                X             Y             Z
Electronic contribution:     -5.81159       0.00000      -0.00020
Nuclear contribution   :      6.51622       0.00000       0.00023
                        -----------------------------------------
Total Dipole Moment    :      0.70463       0.00000       0.00003
                        -----------------------------------------
Magnitude (a.u.)       :      0.70463
Magnitude (Debye)      :      1.79103

Rotational constants in cm-1:     0.145043     0.051852     0.038742
Rotational constants in MHz :  4348.288988  1554.486809  1161.448595

                             ****ORCA TERMINATED NORMALLY****
TOTAL RUN TIME: 0 days 0 hours 34 minutes 42 seconds 760 msec
