                         Program Version 4.2.1 -  RELEASE  -
|  1> %pal
|  2>  nprocs 32
|  3> end
|  4> !RI-MP2 aug-cc-pVQZ aug-cc-pVQZ/C TightSCF
|  5> %maxcore 4500
|  6> *xyzfile 0 1  05_14R1.xyz
|  7>
|  8>
|  9>                          ****END OF INPUT****

CARTESIAN COORDINATES (ANGSTROEM)
---------------------------------
  C     -2.721867    0.785741    0.000030
  C     -1.612120    0.125600   -0.000024
  C     -2.856780   -0.711865    0.000009
  H     -3.255387    1.718791    0.000028
  C     -0.169873    0.062585   -0.000019
  C      0.598125    1.230163   -0.000044
  C      0.473581   -1.174443    0.000017
  C      1.980005    1.157336   -0.000027
  H      0.099493    2.192018   -0.000075
  C      1.858887   -1.245010    0.000036
  H     -0.124648   -2.077546    0.000032
  C      2.614196   -0.080809    0.000013
  H      2.568306    2.067029   -0.000046
  H      2.349875   -2.210624    0.000066
  H      3.696104   -0.135432    0.000027
  H     -3.159347   -1.225009   -0.913226
  H     -3.159316   -1.225017    0.913250

 Total Charge           Charge          ....    0
 Multiplicity           Mult            ....    1
 Number of Electrons    NEL             ....   62
 Basis Dimension        Dim             .... 1088

ORBITAL ENERGIES
----------------

  NO   OCC          E(Eh)            E(eV)
   0   2.0000     -11.250963      -306.1543
   1   2.0000     -11.245061      -305.9937
   2   2.0000     -11.240116      -305.8591
   3   2.0000     -11.239794      -305.8503
   4   2.0000     -11.239197      -305.8341
   5   2.0000     -11.237453      -305.7866
   6   2.0000     -11.236890      -305.7713
   7   2.0000     -11.235915      -305.7448
   8   2.0000     -11.233284      -305.6732
   9   2.0000      -1.178661       -32.0730
  10   2.0000      -1.148245       -31.2453
  11   2.0000      -1.031842       -28.0778
  12   2.0000      -1.023058       -27.8388
  13   2.0000      -0.862102       -23.4590
  14   2.0000      -0.838769       -22.8241
  15   2.0000      -0.808769       -22.0077
  16   2.0000      -0.750572       -20.4241
  17   2.0000      -0.706550       -19.2262
  18   2.0000      -0.663982       -18.0679
  19   2.0000      -0.635653       -17.2970
  20   2.0000      -0.612403       -16.6643
  21   2.0000      -0.599551       -16.3146
  22   2.0000      -0.593610       -16.1530
  23   2.0000      -0.521495       -14.1906
  24   2.0000      -0.516053       -14.0425
  25   2.0000      -0.508454       -13.8357
  26   2.0000      -0.478083       -13.0093
  27   2.0000      -0.417027       -11.3479
  28   2.0000      -0.396541       -10.7904
  29   2.0000      -0.344335        -9.3698
  30   2.0000      -0.305832        -8.3221
  31   0.0000       0.024377         0.6633
  32   0.0000       0.027312         0.7432
  33   0.0000       0.029002         0.7892
  34   0.0000       0.038949         1.0599
  35   0.0000       0.040466         1.1011

MULLIKEN ATOMIC CHARGES
-----------------------
   0 C :   -0.794116
   1 C :    0.233748
   2 C :   -0.694268
   3 H :    0.425372
   4 C :    0.273500
   5 C :   -0.236480
   6 C :   -0.198096
   7 C :   -0.394021
   8 H :    0.375357
   9 C :   -0.379990
  10 H :    0.356834
  11 C :   -0.384139
  12 H :    0.238579
  13 H :    0.224963
  14 H :    0.296677
  15 H :    0.328046
  16 H :    0.328035
Sum of atomic charges:   -0.0000000

LOEWDIN ATOMIC CHARGES
----------------------
   0 C :    0.463538
   1 C :   -0.067472
   2 C :    0.530954
   3 H :   -0.306136
   4 C :   -0.097575
   5 C :    0.332102
   6 C :    0.330678
   7 C :    0.344995
   8 H :   -0.310288
   9 C :    0.346647
  10 H :   -0.314402
  11 C :    0.337648
  12 H :   -0.320749
  13 H :   -0.320541
  14 H :   -0.320858
  15 H :   -0.314272
  16 H :   -0.314272

  Mayer bond orders larger than 0.100000
B(  0-C ,  1-C ) :   1.6808 B(  0-C ,  2-C ) :   1.1655 B(  0-C ,  3-H ) :   0.8412
B(  0-C ,  4-C ) :  -0.2835 B(  1-C ,  2-C ) :   0.4994 B(  1-C ,  4-C ) :   0.7193
B(  1-C ,  5-C ) :  -0.3265 B(  1-C ,  6-C ) :  -0.4303 B(  1-C , 15-H ) :  -0.1093
B(  1-C , 16-H ) :  -0.1093 B(  2-C , 15-H ) :   0.9312 B(  2-C , 16-H ) :   0.9312
B(  4-C ,  5-C ) :   1.0191 B(  4-C ,  6-C ) :   1.0412 B(  4-C ,  7-C ) :  -0.3803
B(  4-C ,  9-C ) :  -0.3297 B(  5-C ,  7-C ) :   1.3002 B(  5-C ,  8-H ) :   0.8896
B(  5-C ,  9-C ) :   0.1241 B(  5-C , 12-H ) :  -0.1144 B(  6-C ,  7-C ) :   0.1495
B(  6-C ,  9-C ) :   1.2551 B(  6-C , 10-H ) :   0.9065 B(  6-C , 13-H ) :  -0.1264
B(  7-C , 11-C ) :   1.2198 B(  7-C , 12-H ) :   1.1396 B(  9-C , 11-C ) :   1.2195
B(  9-C , 13-H ) :   1.1622 B( 11-C , 14-H ) :   1.0292

MP2 TOTAL ENERGY:     -347.035084102 Eh
FINAL SINGLE POINT ENERGY      -347.035084101784

DIPOLE MOMENT
-------------
                                X             Y             Z
Electronic contribution:      1.28818       1.05263      -0.00005
Nuclear contribution   :     -0.98727      -0.89793       0.00006
                        -----------------------------------------
Total Dipole Moment    :      0.30091       0.15470       0.00000
                        -----------------------------------------
Magnitude (a.u.)       :      0.33835
Magnitude (Debye)      :      0.86001

Rotational constants in cm-1:     0.154128     0.037071     0.030063
Rotational constants in MHz :  4620.636930  1111.359179   901.253549

                             ****ORCA TERMINATED NORMALLY****
TOTAL RUN TIME: 0 days 0 hours 35 minutes 54 seconds 921 msec
