                         Program Version 4.2.1 -  RELEASE  -
|  1> %pal
|  2>  nprocs 32
|  3> end
|  4> !RI-MP2 aug-cc-pVQZ aug-cc-pVQZ/C TightSCF
|  5> %maxcore 4500
|  6> *xyzfile 0 2  03_37R2.xyz
|  7>
|  8>
|  9>                          ****END OF INPUT****

CARTESIAN COORDINATES (ANGSTROEM)
---------------------------------
  C      1.208589   -0.665674    0.000003
  C      2.522557    0.009474    0.000000
  C     -0.024261    0.087678   -0.000002
  O     -0.105105    1.298480   -0.000014
  O     -1.108656   -0.718224    0.000007
  C     -2.371068   -0.052799    0.000003
  H      3.112218   -0.282435    0.876438
  H      2.401693    1.091824   -0.000055
  H      3.112264   -0.282527   -0.876375
  H     -3.119405   -0.841049    0.000010
  H     -2.474114    0.573072   -0.886896
  H     -2.474112    0.573087    0.886890
  H      1.136635   -1.746102    0.000015

 Total Charge           Charge          ....    0
 Multiplicity           Mult            ....    2
 Number of Electrons    NEL             ....   47
 Basis Dimension        Dim             ....  802

ORBITAL ENERGIES
----------------
                 SPIN UP ORBITALS
  NO   OCC          E(Eh)            E(eV)
   0   1.0000     -20.594008      -560.3914
   1   1.0000     -20.548419      -559.1509
   2   1.0000     -11.366791      -309.3061
   3   1.0000     -11.280164      -306.9489
   4   1.0000     -11.265325      -306.5451
   5   1.0000     -11.228168      -305.5340
   6   1.0000      -1.458669       -39.6924
   7   1.0000      -1.363628       -37.1062
   8   1.0000      -1.086423       -29.5631
   9   1.0000      -0.977338       -26.5947
  10   1.0000      -0.888136       -24.1674
  11   1.0000      -0.763837       -20.7851
  12   1.0000      -0.712066       -19.3763
  13   1.0000      -0.675652       -18.3854
  14   1.0000      -0.673443       -18.3253
  15   1.0000      -0.614584       -16.7237
  16   1.0000      -0.601623       -16.3710
  17   1.0000      -0.559651       -15.2289
  18   1.0000      -0.558482       -15.1971
  19   1.0000      -0.535046       -14.5593
  20   1.0000      -0.525235       -14.2924
  21   1.0000      -0.479181       -13.0392
  22   1.0000      -0.464311       -12.6346
  23   1.0000      -0.378035       -10.2869
  24   0.0000       0.024863         0.6766
  25   0.0000       0.030320         0.8251
  26   0.0000       0.036311         0.9881
  27   0.0000       0.039224         1.0673
  28   0.0000       0.049198         1.3388

                 SPIN DOWN ORBITALS
  NO   OCC          E(Eh)            E(eV)
   0   1.0000     -20.593666      -560.3822
   1   1.0000     -20.536903      -558.8375
   2   1.0000     -11.372434      -309.4597
   3   1.0000     -11.280256      -306.9514
   4   1.0000     -11.244035      -305.9657
   5   1.0000     -11.230841      -305.6067
   6   1.0000      -1.452622       -39.5279
   7   1.0000      -1.344436       -36.5840
   8   1.0000      -1.041322       -28.3358
   9   1.0000      -0.976950       -26.5842
  10   1.0000      -0.865537       -23.5525
  11   1.0000      -0.755125       -20.5480
  12   1.0000      -0.700213       -19.0538
  13   1.0000      -0.665398       -18.1064
  14   1.0000      -0.664496       -18.0819
  15   1.0000      -0.608020       -16.5451
  16   1.0000      -0.564363       -15.3571
  17   1.0000      -0.549947       -14.9648
  18   1.0000      -0.532793       -14.4980
  19   1.0000      -0.532052       -14.4779
  20   1.0000      -0.522545       -14.2192
  21   1.0000      -0.450741       -12.2653
  22   1.0000      -0.436917       -11.8891
  23   0.0000       0.025088         0.6827
  24   0.0000       0.030352         0.8259
  25   0.0000       0.036423         0.9911
  26   0.0000       0.038822         1.0564
  27   0.0000       0.049266         1.3406

MULLIKEN ATOMIC CHARGES AND SPIN POPULATIONS
--------------------------------------------
   0 C :   -0.516273    1.061487
   1 C :   -0.662048   -0.150287
   2 C :    1.047910   -0.216661
   3 O :   -0.728149    0.260843
   4 O :   -0.692601    0.012376
   5 C :   -0.666366   -0.003544
   6 H :    0.241375    0.051050
   7 H :    0.275956    0.002241
   8 H :    0.241372    0.051045
   9 H :    0.435455    0.000224
  10 H :    0.291461    0.000251
  11 H :    0.291461    0.000251
  12 H :    0.440445   -0.069275
Sum of atomic charges         :   -0.0000000

LOEWDIN ATOMIC CHARGES AND SPIN POPULATIONS
-------------------------------------------
   0 C :    0.355189    0.401594
   1 C :    0.874892    0.127289
   2 C :   -1.105869    0.122049
   3 O :    0.713343    0.172647
   4 O :    0.819206    0.000169
   5 C :    0.560214   -0.003219
   6 H :   -0.293623    0.023094
   7 H :   -0.337936    0.004087
   8 H :   -0.293625    0.023092
   9 H :   -0.326038   -0.000188
  10 H :   -0.318545   -0.000792
  11 H :   -0.318546   -0.000792
  12 H :   -0.328661    0.130970

  Mayer bond orders larger than 0.100000
B(  0-C ,  1-C ) :   0.8695 B(  0-C ,  2-C ) :   1.0692 B(  0-C ,  3-O ) :   0.1390
B(  0-C , 12-H ) :   0.7706 B(  1-C ,  2-C ) :  -0.1283 B(  1-C ,  6-H ) :   0.9708
B(  1-C ,  7-H ) :   0.9321 B(  1-C ,  8-H ) :   0.9708 B(  2-C ,  3-O ) :   1.2927
B(  2-C ,  4-O ) :   0.9459 B(  4-O ,  5-C ) :   0.8507 B(  5-C ,  9-H ) :   0.8208
B(  5-C , 10-H ) :   0.9161 B(  5-C , 11-H ) :   0.9161

MP2 TOTAL ENERGY:     -306.579655824 Eh
FINAL SINGLE POINT ENERGY      -306.579655823957

DIPOLE MOMENT
-------------
                                X             Y             Z
Electronic contribution:     -1.62047       0.19932      -0.00002
Nuclear contribution   :      1.69859      -0.91715       0.00003
                        -----------------------------------------
Total Dipole Moment    :      0.07811      -0.71783       0.00001
                        -----------------------------------------
Magnitude (a.u.)       :      0.72207
Magnitude (Debye)      :      1.83536

Rotational constants in cm-1:     0.339848     0.072272     0.060949
Rotational constants in MHz : 10188.383718  2166.664706  1827.196599

                             ****ORCA TERMINATED NORMALLY****
TOTAL RUN TIME: 0 days 0 hours 18 minutes 59 seconds 278 msec
