                         Program Version 4.2.1 -  RELEASE  -
|  1> %pal
|  2>  nprocs 32
|  3> end
|  4> !RI-MP2 aug-cc-pVQZ aug-cc-pVQZ/C TightSCF
|  5> %maxcore 4500
|  6> *xyzfile 0 1  10_84R.xyz
|  7>
|  8>
|  9>                          ****END OF INPUT****

CARTESIAN COORDINATES (ANGSTROEM)
---------------------------------
  C      1.002846    0.011981   -1.280772
  C      0.323375    0.310550    0.038218
  C      0.758060   -0.189105    1.190095
  C      1.984300   -1.080234    1.211899
  C      3.194218   -0.191707    0.934949
  C      3.345184   -0.059941   -0.377872
  C      2.270721   -0.850172   -1.101449
  H      0.304962   -0.523909   -1.932040
  H      1.249952    0.950437   -1.789669
  H      2.589316   -1.239562   -2.069225
  C      1.964502   -1.938724   -0.061947
  H      4.060779    0.581506   -0.876301
  H      3.755254    0.322023    1.704561
  C     -0.886338    1.245769   -0.036636
  H      2.762344   -2.682468   -0.037865
  H      1.007114   -2.437499   -0.223547
  H      2.044274   -1.648715    2.139182
  C     -1.974117    0.718718   -1.032965
  C     -1.512824    1.425844    1.280772
  C     -0.444300    2.567539   -0.519910
  N     -2.023187    1.558703    2.297599
  N     -0.090628    3.572271   -0.942842
  C     -2.395357   -0.634235   -0.710355
  C     -2.717661   -1.749067   -0.417368
  C     -3.114607   -3.100648   -0.052141
  H     -2.315523   -3.601806    0.497631
  H     -4.003332   -3.086168    0.581274
  H     -3.339046   -3.694296   -0.940280
  H      0.268700    0.054854    2.125644
  H     -2.822066    1.406003   -1.010825
  H     -1.554031    0.763366   -2.038936

 Total Charge           Charge          ....    0
 Multiplicity           Mult            ....    1
 Number of Electrons    NEL             ....  118
 Basis Dimension        Dim             .... 2004

ORBITAL ENERGIES
----------------

  NO   OCC          E(Eh)            E(eV)
   0   2.0000     -15.586844      -424.1396
   1   2.0000     -15.584577      -424.0779
   2   2.0000     -11.351582      -308.8922
   3   2.0000     -11.294703      -307.3445
   4   2.0000     -11.289865      -307.2128
   5   2.0000     -11.288142      -307.1660
   6   2.0000     -11.264326      -306.5179
   7   2.0000     -11.258092      -306.3483
   8   2.0000     -11.248620      -306.0905
   9   2.0000     -11.247917      -306.0714
  10   2.0000     -11.247308      -306.0548
  11   2.0000     -11.245474      -306.0049
  12   2.0000     -11.243666      -305.9557
  13   2.0000     -11.235146      -305.7239
  14   2.0000     -11.234070      -305.6946
  15   2.0000     -11.231447      -305.6232
  16   2.0000     -11.230070      -305.5857
  17   2.0000      -1.256665       -34.1956
  18   2.0000      -1.235917       -33.6310
  19   2.0000      -1.195717       -32.5371
  20   2.0000      -1.156453       -31.4687
  21   2.0000      -1.083539       -29.4846
  22   2.0000      -1.052623       -28.6433
  23   2.0000      -1.034667       -28.1547
  24   2.0000      -1.001854       -27.2618
  25   2.0000      -0.974246       -26.5106
  26   2.0000      -0.933156       -25.3925
  27   2.0000      -0.888324       -24.1725
  28   2.0000      -0.832570       -22.6554
  29   2.0000      -0.787494       -21.4288
  30   2.0000      -0.736554       -20.0427
  31   2.0000      -0.733657       -19.9638
  32   2.0000      -0.725019       -19.7288
  33   2.0000      -0.681791       -18.5525
  34   2.0000      -0.663989       -18.0681
  35   2.0000      -0.657289       -17.8857
  36   2.0000      -0.632483       -17.2108
  37   2.0000      -0.625408       -17.0182
  38   2.0000      -0.603012       -16.4088
  39   2.0000      -0.601607       -16.3706
  40   2.0000      -0.598886       -16.2965
  41   2.0000      -0.591702       -16.1010
  42   2.0000      -0.581178       -15.8147
  43   2.0000      -0.575908       -15.6713
  44   2.0000      -0.564124       -15.3506
  45   2.0000      -0.560103       -15.2412
  46   2.0000      -0.543493       -14.7892
  47   2.0000      -0.516101       -14.0438
  48   2.0000      -0.500680       -13.6242
  49   2.0000      -0.493563       -13.4305
  50   2.0000      -0.491086       -13.3631
  51   2.0000      -0.482159       -13.1202
  52   2.0000      -0.478020       -13.0076
  53   2.0000      -0.468481       -12.7480
  54   2.0000      -0.464206       -12.6317
  55   2.0000      -0.392295       -10.6749
  56   2.0000      -0.391022       -10.6402
  57   2.0000      -0.378932       -10.3113
  58   2.0000      -0.346955        -9.4411
  59   0.0000       0.016042         0.4365
  60   0.0000       0.023654         0.6437
  61   0.0000       0.024262         0.6602
  62   0.0000       0.029811         0.8112
  63   0.0000       0.034596         0.9414

MULLIKEN ATOMIC CHARGES
-----------------------
   0 C :   -0.208892
   1 C :    0.699666
   2 C :   -0.587966
   3 C :    0.112942
   4 C :   -0.557061
   5 C :   -0.578742
   6 C :   -0.100258
   7 H :    0.224904
   8 H :    0.350741
   9 H :    0.260174
  10 C :   -0.967048
  11 H :    0.274330
  12 H :    0.359311
  13 C :   -0.121960
  14 H :    0.257996
  15 H :    0.449574
  16 H :    0.283558
  17 C :   -0.149898
  18 C :    0.948670
  19 C :    0.759223
  20 N :   -1.044973
  21 N :   -1.007665
  22 C :   -0.419255
  23 C :   -0.103480
  24 C :   -0.648795
  25 H :    0.239038
  26 H :    0.219741
  27 H :    0.224333
  28 H :    0.230339
  29 H :    0.350249
  30 H :    0.251203
Sum of atomic charges:   -0.0000000

LOEWDIN ATOMIC CHARGES
----------------------
   0 C :    0.517133
   1 C :   -0.058698
   2 C :    0.411594
   3 C :    0.113900
   4 C :    0.416055
   5 C :    0.413223
   6 C :    0.123807
   7 H :   -0.275661
   8 H :   -0.266029
   9 H :   -0.245160
  10 C :    0.507480
  11 H :   -0.278113
  12 H :   -0.277884
  13 C :   -0.455648
  14 H :   -0.245211
  15 H :   -0.245633
  16 H :   -0.258069
  17 C :    0.404177
  18 C :   -0.344079
  19 C :   -0.307226
  20 N :    0.507223
  21 N :    0.485345
  22 C :    0.166773
  23 C :    0.194361
  24 C :    0.854494
  25 H :   -0.314762
  26 H :   -0.312588
  27 H :   -0.314125
  28 H :   -0.327913
  29 H :   -0.281970
  30 H :   -0.306797

  Mayer bond orders larger than 0.100000
B(  0-C ,  1-C ) :   0.2716 B(  0-C ,  2-C ) :  -0.2057 B(  0-C ,  6-C ) :   0.8389
B(  0-C ,  7-H ) :   0.9615 B(  0-C ,  8-H ) :   0.8992 B(  1-C ,  2-C ) :   1.4343
B(  1-C ,  3-C ) :  -0.2986 B(  1-C ,  6-C ) :  -0.1028 B(  1-C , 10-C ) :  -0.1228
B(  1-C , 13-C ) :   0.3929 B(  1-C , 17-C ) :  -0.1104 B(  1-C , 18-C ) :  -0.2976
B(  1-C , 19-C ) :  -0.2418 B(  1-C , 20-N ) :  -0.1142 B(  2-C ,  3-C ) :   0.8274
B(  2-C ,  5-C ) :  -0.1012 B(  2-C ,  6-C ) :   0.1173 B(  2-C , 13-C ) :  -0.2923
B(  2-C , 16-H ) :  -0.1780 B(  2-C , 18-C ) :   0.1259 B(  2-C , 19-C ) :  -0.1254
B(  2-C , 28-H ) :   0.9251 B(  3-C ,  4-C ) :   0.8500 B(  3-C ,  5-C ) :  -0.2057
B(  3-C , 10-C ) :   0.9515 B(  3-C , 16-H ) :   1.0430 B(  4-C ,  5-C ) :   1.5806
B(  4-C ,  6-C ) :  -0.1414 B(  4-C , 12-H ) :   0.9813 B(  5-C ,  6-C ) :   0.8932
B(  5-C , 11-H ) :   1.0998 B(  6-C ,  9-H ) :   1.0242 B(  6-C , 10-C ) :   0.8646
B( 10-C , 14-H ) :   0.9954 B( 10-C , 15-H ) :   0.7615 B( 13-C , 17-C ) :   0.8190
B( 13-C , 18-C ) :   1.3349 B( 13-C , 19-C ) :   1.4287 B( 13-C , 20-N ) :   0.3974
B( 13-C , 21-N ) :   0.2368 B( 17-C , 22-C ) :   0.5484 B( 17-C , 23-C ) :  -0.1633
B( 17-C , 29-H ) :   0.9842 B( 17-C , 30-H ) :   0.9907 B( 18-C , 20-N ) :   1.6354
B( 19-C , 21-N ) :   1.8172 B( 22-C , 23-C ) :   2.9530 B( 22-C , 29-H ) :  -0.1464
B( 23-C , 24-C ) :   0.6790 B( 23-C , 25-H ) :  -0.1493 B( 23-C , 27-H ) :  -0.1170
B( 24-C , 25-H ) :   1.0216 B( 24-C , 26-H ) :   1.0277 B( 24-C , 27-H ) :   1.0361

MP2 TOTAL ENERGY:     -688.181715557 Eh
FINAL SINGLE POINT ENERGY      -688.181715557413

DIPOLE MOMENT
-------------
                                X             Y             Z
Electronic contribution:     -3.64613      12.64988       3.09398
Nuclear contribution   :      3.98409     -14.76093      -3.85066
                        -----------------------------------------
Total Dipole Moment    :      0.33796      -2.11105      -0.75668
                        -----------------------------------------
Magnitude (a.u.)       :      2.26789
Magnitude (Debye)      :      5.76451

Rotational constants in cm-1:     0.019443     0.014177     0.010728
Rotational constants in MHz :   582.890715   425.017607   321.616144

                             ****ORCA TERMINATED NORMALLY****
TOTAL RUN TIME: 0 days 4 hours 15 minutes 13 seconds 383 msec
