                         Program Version 4.2.1 -  RELEASE  -
|  1> %pal
|  2>  nprocs 32
|  3> end
|  4> !RI-MP2 aug-cc-pVQZ aug-cc-pVQZ/C TightSCF
|  5> %maxcore 4500
|  6> *xyzfile 0 1  08_8R2.xyz
|  7>
|  8>
|  9>                          ****END OF INPUT****

CARTESIAN COORDINATES (ANGSTROEM)
---------------------------------
  N     -1.960562    0.013542    0.000007
  C     -0.723191   -0.726092   -0.000052
  C      0.539861    0.111644   -0.000002
  H     -0.679366   -1.385850   -0.870549
  H     -0.679364   -1.385983    0.870341
  O      0.584111    1.310901    0.000020
  O      1.643727   -0.659690    0.000008
  H      2.412694   -0.072509    0.000026
  H     -2.026327    0.613421   -0.813304
  H     -2.026430    0.613122    0.813530

 Total Charge           Charge          ....    0
 Multiplicity           Mult            ....    1
 Number of Electrons    NEL             ....   40
 Basis Dimension        Dim             ....  630

ORBITAL ENERGIES
----------------

  NO   OCC          E(Eh)            E(eV)
   0   2.0000     -20.616038      -560.9909
   1   2.0000     -20.553070      -559.2775
   2   2.0000     -15.551405      -423.1752
   3   2.0000     -11.385234      -309.8080
   4   2.0000     -11.278063      -306.8917
   5   2.0000      -1.473565       -40.0977
   6   2.0000      -1.369978       -37.2790
   7   2.0000      -1.197842       -32.5949
   8   2.0000      -0.979787       -26.6614
   9   2.0000      -0.819356       -22.2958
  10   2.0000      -0.711464       -19.3599
  11   2.0000      -0.701968       -19.1015
  12   2.0000      -0.697788       -18.9878
  13   2.0000      -0.633000       -17.2248
  14   2.0000      -0.604651       -16.4534
  15   2.0000      -0.589878       -16.0514
  16   2.0000      -0.536955       -14.6113
  17   2.0000      -0.491826       -13.3833
  18   2.0000      -0.468899       -12.7594
  19   2.0000      -0.411780       -11.2051
  20   0.0000       0.024603         0.6695
  21   0.0000       0.034436         0.9370
  22   0.0000       0.037092         1.0093
  23   0.0000       0.041751         1.1361
  24   0.0000       0.061075         1.6619

MULLIKEN ATOMIC CHARGES
-----------------------
   0 N :   -0.668273
   1 C :   -0.344628
   2 C :    0.900193
   3 H :    0.321265
   4 H :    0.321242
   5 O :   -0.739191
   6 O :   -0.669722
   7 H :    0.344438
   8 H :    0.267342
   9 H :    0.267333
Sum of atomic charges:   -0.0000000

LOEWDIN ATOMIC CHARGES
----------------------
   0 N :    1.260783
   1 C :    0.281216
   2 C :   -1.030629
   3 H :   -0.307850
   4 H :   -0.307854
   5 O :    0.697562
   6 O :    1.247302
   7 H :   -0.813693
   8 H :   -0.513425
   9 H :   -0.513412

  Mayer bond orders larger than 0.100000
B(  0-N ,  1-C ) :   0.9778 B(  0-N ,  8-H ) :   0.8908 B(  0-N ,  9-H ) :   0.8908
B(  1-C ,  2-C ) :   1.0412 B(  1-C ,  3-H ) :   0.8744 B(  1-C ,  4-H ) :   0.8744
B(  1-C ,  5-O ) :   0.1030 B(  2-C ,  5-O ) :   1.4904 B(  2-C ,  6-O ) :   0.9205
B(  6-O ,  7-H ) :   0.9002

MP2 TOTAL ENERGY:     -284.062028007 Eh
FINAL SINGLE POINT ENERGY      -284.062028006802

DIPOLE MOMENT
-------------
                                X             Y             Z
Electronic contribution:      3.32105       1.25384       0.00003
Nuclear contribution   :     -2.97740      -1.60865       0.00005
                        -----------------------------------------
Total Dipole Moment    :      0.34365      -0.35481       0.00008
                        -----------------------------------------
Magnitude (a.u.)       :      0.49395
Magnitude (Debye)      :      1.25551

Rotational constants in cm-1:     0.348315     0.129539     0.097550
Rotational constants in MHz : 10442.207251  3883.492915  2924.474616

                             ****ORCA TERMINATED NORMALLY****
TOTAL RUN TIME: 0 days 0 hours 4 minutes 49 seconds 777 msec
