                         Program Version 4.2.1 -  RELEASE  -
|  1> %pal
|  2>  nprocs 32
|  3> end
|  4> !RI-MP2 aug-cc-pVQZ aug-cc-pVQZ/C TightSCF
|  5> %maxcore 4500
|  6> *xyzfile 0 1  05_33R1.xyz
|  7>
|  8>
|  9>                          ****END OF INPUT****

CARTESIAN COORDINATES (ANGSTROEM)
---------------------------------
  C      4.151345   -0.102292   -0.832365
  O      5.053894    0.392530    0.139913
  C      4.828942   -0.124243    1.431980
  H      4.912160   -1.219259    1.438389
  H      3.841972    0.153058    1.817735
  C      2.756932    0.409572   -0.649084
  H      2.647932    1.491771   -0.633290
  C      1.682132   -0.367206   -0.512244
  H      1.807614   -1.448520   -0.518559
  H      5.597365    0.294051    2.080254
  C      0.327142    0.127148   -0.355703
  H      0.208394    1.206648   -0.351220
  C     -0.736676   -0.671360   -0.220737
  H     -0.569244   -1.745840   -0.234828
  C     -2.135003   -0.266361   -0.053536
  C     -2.542831    1.070536    0.000770
  C     -3.113752   -1.256316    0.058191
  C     -3.877631    1.398925    0.159284
  H     -1.810850    1.864109   -0.081003
  C     -4.452088   -0.929138    0.217204
  H     -2.816406   -2.298397    0.018735
  C     -4.840210    0.401232    0.268314
  H     -4.171952    2.440923    0.198767
  H     -5.192388   -1.715643    0.301217
  H     -5.884111    0.662013    0.392425
  H      4.153830   -1.201604   -0.829901
  H      4.554725    0.233473   -1.790472

 Total Charge           Charge          ....    0
 Multiplicity           Mult            ....    1
 Number of Electrons    NEL             ....   94
 Basis Dimension        Dim             .... 1684

ORBITAL ENERGIES
----------------

  NO   OCC          E(Eh)            E(eV)
   0   2.0000     -20.552664      -559.2664
   1   2.0000     -11.278266      -306.8972
   2   2.0000     -11.264675      -306.5274
   3   2.0000     -11.246380      -306.0295
   4   2.0000     -11.240474      -305.8689
   5   2.0000     -11.239093      -305.8313
   6   2.0000     -11.237756      -305.7949
   7   2.0000     -11.236671      -305.7654
   8   2.0000     -11.236301      -305.7553
   9   2.0000     -11.235069      -305.7218
  10   2.0000     -11.234834      -305.7154
  11   2.0000     -11.234125      -305.6961
  12   2.0000     -11.231474      -305.6239
  13   2.0000      -1.373291       -37.3691
  14   2.0000      -1.164815       -31.6962
  15   2.0000      -1.108938       -30.1757
  16   2.0000      -1.060181       -28.8490
  17   2.0000      -1.020583       -27.7715
  18   2.0000      -1.004306       -27.3286
  19   2.0000      -0.953618       -25.9493
  20   2.0000      -0.886769       -24.1302
  21   2.0000      -0.843151       -22.9433
  22   2.0000      -0.828095       -22.5336
  23   2.0000      -0.776891       -21.1403
  24   2.0000      -0.761558       -20.7230
  25   2.0000      -0.706656       -19.2291
  26   2.0000      -0.670567       -18.2471
  27   2.0000      -0.659106       -17.9352
  28   2.0000      -0.653883       -17.7931
  29   2.0000      -0.642468       -17.4824
  30   2.0000      -0.627123       -17.0649
  31   2.0000      -0.612340       -16.6626
  32   2.0000      -0.591131       -16.0855
  33   2.0000      -0.585622       -15.9356
  34   2.0000      -0.569166       -15.4878
  35   2.0000      -0.538988       -14.6666
  36   2.0000      -0.527665       -14.3585
  37   2.0000      -0.520092       -14.1524
  38   2.0000      -0.510190       -13.8830
  39   2.0000      -0.500266       -13.6129
  40   2.0000      -0.490070       -13.3355
  41   2.0000      -0.473720       -12.8906
  42   2.0000      -0.451990       -12.2993
  43   2.0000      -0.425136       -11.5685
  44   2.0000      -0.372490       -10.1360
  45   2.0000      -0.342549        -9.3212
  46   2.0000      -0.287773        -7.8307
  47   0.0000       0.023199         0.6313
  48   0.0000       0.025361         0.6901
  49   0.0000       0.027407         0.7458
  50   0.0000       0.034654         0.9430
  51   0.0000       0.035541         0.9671

MULLIKEN ATOMIC CHARGES
-----------------------
   0 C :    0.035148
   1 O :   -0.867610
   2 C :   -0.647526
   3 H :    0.225055
   4 H :    0.297314
   5 C :   -0.392742
   6 H :    0.298727
   7 C :   -0.357497
   8 H :    0.271059
   9 H :    0.472768
  10 C :   -0.157712
  11 H :    0.347584
  12 C :   -0.119234
  13 H :    0.201612
  14 C :    0.537741
  15 C :   -0.430220
  16 C :   -0.522884
  17 C :   -0.265856
  18 H :    0.123253
  19 C :   -0.269833
  20 H :    0.194198
  21 C :   -0.401249
  22 H :    0.238964
  23 H :    0.255046
  24 H :    0.325497
  25 H :    0.168576
  26 H :    0.439821
Sum of atomic charges:    0.0000000

LOEWDIN ATOMIC CHARGES
----------------------
   0 C :    0.121804
   1 O :    0.869513
   2 C :    0.552701
   3 H :   -0.306391
   4 H :   -0.317761
   5 C :    0.357641
   6 H :   -0.314125
   7 C :    0.353988
   8 H :   -0.336477
   9 H :   -0.324954
  10 C :    0.359705
  11 H :   -0.356372
  12 C :    0.365393
  13 H :   -0.349862
  14 C :   -0.093550
  15 C :    0.334790
  16 C :    0.329924
  17 C :    0.347333
  18 H :   -0.338826
  19 C :    0.343349
  20 H :   -0.322948
  21 C :    0.337056
  22 H :   -0.319448
  23 H :   -0.320406
  24 H :   -0.322379
  25 H :   -0.328923
  26 H :   -0.320776

  Mayer bond orders larger than 0.100000
B(  0-C ,  1-O ) :   0.6992 B(  0-C ,  5-C ) :   1.0372 B(  0-C ,  7-C ) :  -0.1729
B(  0-C , 25-H ) :   1.0323 B(  0-C , 26-H ) :   0.7693 B(  1-O ,  2-C ) :   0.8731
B(  2-C ,  3-H ) :   0.9562 B(  2-C ,  4-H ) :   0.8763 B(  2-C ,  9-H ) :   0.7916
B(  5-C ,  6-H ) :   0.8972 B(  5-C ,  7-C ) :   1.5336 B(  5-C , 10-C ) :  -0.4399
B(  7-C ,  8-H ) :   0.9371 B(  7-C , 10-C ) :   0.9170 B(  7-C , 12-C ) :  -0.8016
B( 10-C , 11-H ) :   0.9251 B( 10-C , 12-C ) :   1.2751 B( 10-C , 14-C ) :  -0.5875
B( 10-C , 15-C ) :  -0.2378 B( 11-H , 15-C ) :  -0.1335 B( 12-C , 13-H ) :   1.0344
B( 12-C , 14-C ) :   0.8571 B( 12-C , 15-C ) :  -0.3006 B( 12-C , 16-C ) :  -0.5156
B( 13-H , 14-C ) :  -0.1996 B( 14-C , 15-C ) :   1.2067 B( 14-C , 16-C ) :   0.9749
B( 14-C , 17-C ) :  -0.3641 B( 14-C , 19-C ) :  -0.4092 B( 14-C , 20-H ) :  -0.1207
B( 15-C , 16-C ) :   0.1618 B( 15-C , 17-C ) :   1.1436 B( 15-C , 18-H ) :   1.1069
B( 15-C , 19-C ) :   0.1277 B( 15-C , 22-H ) :  -0.1279 B( 16-C , 17-C ) :   0.1033
B( 16-C , 19-C ) :   1.2225 B( 16-C , 20-H ) :   1.0782 B( 16-C , 21-C ) :   0.1142
B( 16-C , 23-H ) :  -0.1564 B( 17-C , 21-C ) :   1.1670 B( 17-C , 22-H ) :   1.1210
B( 19-C , 21-C ) :   1.1525 B( 19-C , 23-H ) :   1.1469 B( 21-C , 22-H ) :  -0.1068
B( 21-C , 23-H ) :  -0.1079 B( 21-C , 24-H ) :   0.9960

MP2 TOTAL ENERGY:     -539.923751804 Eh
FINAL SINGLE POINT ENERGY      -539.923751804413

DIPOLE MOMENT
-------------
                                X             Y             Z
Electronic contribution:     -7.95960       0.97094      -1.70441
Nuclear contribution   :      7.45567      -1.29386       1.83431
                        -----------------------------------------
Total Dipole Moment    :     -0.50393      -0.32292       0.12990
                        -----------------------------------------
Magnitude (a.u.)       :      0.61245
Magnitude (Debye)      :      1.55672

Rotational constants in cm-1:     0.098106     0.007498     0.007330
Rotational constants in MHz :  2941.150094   224.772894   219.746105

                             ****ORCA TERMINATED NORMALLY****
TOTAL RUN TIME: 0 days 1 hours 36 minutes 48 seconds 811 msec
