                         Program Version 4.2.1 -  RELEASE  -
|  1> %pal
|  2>  nprocs 32
|  3> end
|  4> !RI-MP2 aug-cc-pVQZ aug-cc-pVQZ/C TightSCF
|  5> %maxcore 4500
|  6> *xyzfile 1 1  05_21P1.xyz
|  7>
|  8>
|  9>                          ****END OF INPUT****

CARTESIAN COORDINATES (ANGSTROEM)
---------------------------------
  C     -3.801159    0.455886   -0.000036
  C     -2.530765   -0.101321   -0.000010
  C     -3.683913   -0.872361   -0.000050
  H     -4.436696    1.327287   -0.000007
  H     -4.157615   -1.841297   -0.000082
  C     -1.142975    0.025334   -0.000001
  C     -0.539168    1.306274    0.000026
  C     -0.325022   -1.122481   -0.000020
  C      0.818573    1.425851    0.000029
  H     -1.160715    2.193390    0.000043
  C      1.041302   -1.010528   -0.000017
  H     -0.781115   -2.105188   -0.000041
  C      1.627144    0.269517    0.000010
  H      1.308028    2.390401    0.000049
  H      1.654632   -1.899200   -0.000036
  O      2.926685    0.487852    0.000014
  C      3.849457   -0.607418    0.000040
  H      4.835047   -0.152904    0.000096
  H      3.722012   -1.213923    0.897942
  H      3.722099   -1.213890   -0.897896

 Total Charge           Charge          ....    1
 Multiplicity           Mult            ....    1
 Number of Electrons    NEL             ....   76
 Basis Dimension        Dim             .... 1294

ORBITAL ENERGIES
----------------

  NO   OCC          E(Eh)            E(eV)
   0   2.0000     -20.727710      -564.0297
   1   2.0000     -11.497254      -312.8562
   2   2.0000     -11.485634      -312.5400
   3   2.0000     -11.483947      -312.4941
   4   2.0000     -11.470320      -312.1233
   5   2.0000     -11.412040      -310.5374
   6   2.0000     -11.405097      -310.3485
   7   2.0000     -11.402216      -310.2701
   8   2.0000     -11.398410      -310.1665
   9   2.0000     -11.374087      -309.5046
  10   2.0000     -11.368842      -309.3619
  11   2.0000      -1.565739       -42.6059
  12   2.0000      -1.439679       -39.1757
  13   2.0000      -1.313068       -35.7304
  14   2.0000      -1.194795       -32.5120
  15   2.0000      -1.182850       -32.1870
  16   2.0000      -1.097290       -29.8588
  17   2.0000      -1.016967       -27.6731
  18   2.0000      -1.003582       -27.3089
  19   2.0000      -0.979567       -26.6554
  20   2.0000      -0.949274       -25.8310
  21   2.0000      -0.898717       -24.4553
  22   2.0000      -0.856889       -23.3171
  23   2.0000      -0.826799       -22.4983
  24   2.0000      -0.789085       -21.4721
  25   2.0000      -0.774607       -21.0781
  26   2.0000      -0.751621       -20.4526
  27   2.0000      -0.746451       -20.3120
  28   2.0000      -0.730664       -19.8824
  29   2.0000      -0.725644       -19.7458
  30   2.0000      -0.694080       -18.8869
  31   2.0000      -0.688652       -18.7392
  32   2.0000      -0.664320       -18.0771
  33   2.0000      -0.657530       -17.8923
  34   2.0000      -0.621013       -16.8986
  35   2.0000      -0.611750       -16.6466
  36   2.0000      -0.501401       -13.6438
  37   2.0000      -0.467544       -12.7225
  38   0.0000      -0.097096        -2.6421
  39   0.0000      -0.076346        -2.0775
  40   0.0000      -0.073561        -2.0017
  41   0.0000      -0.065120        -1.7720
  42   0.0000      -0.057898        -1.5755

MULLIKEN ATOMIC CHARGES
-----------------------
   0 C :   -0.531191
   1 C :   -0.209496
   2 C :   -0.529031
   3 H :    0.562522
   4 H :    0.569921
   5 C :    0.749923
   6 C :   -0.181230
   7 C :   -0.202445
   8 C :   -0.545075
   9 H :    0.329455
  10 C :   -0.482957
  11 H :    0.312759
  12 C :    1.151377
  13 H :    0.218885
  14 H :    0.192674
  15 O :   -0.760105
  16 C :   -0.691868
  17 H :    0.518101
  18 H :    0.263894
  19 H :    0.263888
Sum of atomic charges:    1.0000000

LOEWDIN ATOMIC CHARGES
----------------------
   0 C :    0.557348
   1 C :   -0.003930
   2 C :    0.556883
   3 H :   -0.247050
   4 H :   -0.247491
   5 C :   -0.088601
   6 C :    0.355333
   7 C :    0.362483
   8 C :    0.375020
   9 H :   -0.292415
  10 C :    0.384420
  11 H :   -0.289200
  12 C :   -0.436433
  13 H :   -0.311538
  14 H :   -0.343862
  15 O :    0.911582
  16 C :    0.645396
  17 H :   -0.300971
  18 H :   -0.293488
  19 H :   -0.293484

  Mayer bond orders larger than 0.100000
B(  0-C ,  1-C ) :   1.3112 B(  0-C ,  2-C ) :   1.6431 B(  0-C ,  3-H ) :   0.6868
B(  0-C ,  5-C ) :  -0.3779 B(  1-C ,  2-C ) :   1.3316 B(  1-C ,  5-C ) :   0.6941
B(  1-C ,  6-C ) :  -0.4192 B(  1-C ,  7-C ) :  -0.3723 B(  2-C ,  4-H ) :   0.6696
B(  2-C ,  5-C ) :  -0.4327 B(  5-C ,  6-C ) :   0.8834 B(  5-C ,  7-C ) :   0.9488
B(  5-C ,  8-C ) :  -0.2667 B(  5-C ,  9-H ) :  -0.1148 B(  5-C , 10-C ) :  -0.4542
B(  6-C ,  8-C ) :   1.4088 B(  6-C ,  9-H ) :   0.9882 B(  6-C , 12-C ) :  -0.1927
B(  7-C ,  8-C ) :   0.1118 B(  7-C , 10-C ) :   1.0185 B(  7-C , 11-H ) :   0.9939
B(  7-C , 12-C ) :  -0.1040 B(  7-C , 14-H ) :  -0.1385 B(  8-C ,  9-H ) :  -0.1455
B(  8-C , 12-C ) :   1.1075 B(  8-C , 13-H ) :   1.0734 B(  8-C , 15-O ) :   0.2814
B( 10-C , 11-H ) :  -0.1676 B( 10-C , 12-C ) :   1.3462 B( 10-C , 14-H ) :   1.1541
B( 10-C , 15-O ) :   0.1542 B( 10-C , 16-C ) :   0.1571 B( 12-C , 15-O ) :   0.1125
B( 12-C , 16-C ) :  -0.1882 B( 15-O , 16-C ) :   0.8828 B( 16-C , 17-H ) :   0.7331
B( 16-C , 18-H ) :   0.9137 B( 16-C , 19-H ) :   0.9137

MP2 TOTAL ENERGY:     -460.557551686 Eh
FINAL SINGLE POINT ENERGY      -460.557551685678

DIPOLE MOMENT
-------------
                                X             Y             Z
Electronic contribution:     -7.52937       1.79033      -0.00009
Nuclear contribution   :      4.73318      -2.49780       0.00007
                        -----------------------------------------
Total Dipole Moment    :     -2.79620      -0.70747      -0.00002
                        -----------------------------------------
Magnitude (a.u.)       :      2.88431
Magnitude (Debye)      :      7.33133

Rotational constants in cm-1:     0.138664     0.018760     0.016577
Rotational constants in MHz :  4157.037339   562.399337   496.963688

                             ****ORCA TERMINATED NORMALLY****
TOTAL RUN TIME: 0 days 0 hours 54 minutes 0 seconds 453 msec
