                         Program Version 4.2.1 -  RELEASE  -
|  1> %pal
|  2>  nprocs 32
|  3> end
|  4> !RI-MP2 aug-cc-pVQZ aug-cc-pVQZ/C TightSCF
|  5> %maxcore 4500
|  6> *xyzfile 0 1  10_50TS.xyz
|  7>
|  8>
|  9>                          ****END OF INPUT****

CARTESIAN COORDINATES (ANGSTROEM)
---------------------------------
  C      0.109888    1.098459   -0.134340
  C     -0.109888    0.677811    1.203209
  C      0.109888   -0.677811    1.203209
  C     -0.109888   -1.098459   -0.134340
  H      0.482292   -1.307624    2.007045
  H     -0.482292    1.307624    2.007045
  C      1.458803    1.100491   -0.816885
  H      2.140282    0.377946   -0.369992
  H      1.377094    0.888627   -1.886124
  H      1.908891    2.097282   -0.727388
  C     -1.458803   -1.100491   -0.816885
  H     -2.140282   -0.377946   -0.369992
  H     -1.377094   -0.888627   -1.886124
  H     -1.908891   -2.097282   -0.727388
  H      0.535702   -1.888841   -0.535445
  H     -0.535702    1.888841   -0.535445

 Total Charge           Charge          ....    0
 Multiplicity           Mult            ....    1
 Number of Electrons    NEL             ....   46
 Basis Dimension        Dim             ....  940

ORBITAL ENERGIES
----------------

  NO   OCC          E(Eh)            E(eV)
   0   2.0000     -11.247928      -306.0717
   1   2.0000     -11.247859      -306.0698
   2   2.0000     -11.220401      -305.3226
   3   2.0000     -11.219057      -305.2861
   4   2.0000     -11.217164      -305.2345
   5   2.0000     -11.217163      -305.2345
   6   2.0000      -1.126989       -30.6669
   7   2.0000      -1.008593       -27.4452
   8   2.0000      -0.965619       -26.2758
   9   2.0000      -0.876337       -23.8464
  10   2.0000      -0.788038       -21.4436
  11   2.0000      -0.698501       -19.0072
  12   2.0000      -0.670293       -18.2396
  13   2.0000      -0.611069       -16.6280
  14   2.0000      -0.580508       -15.7964
  15   2.0000      -0.558814       -15.2061
  16   2.0000      -0.546080       -14.8596
  17   2.0000      -0.538140       -14.6435
  18   2.0000      -0.519274       -14.1302
  19   2.0000      -0.494640       -13.4598
  20   2.0000      -0.492940       -13.4136
  21   2.0000      -0.336269        -9.1504
  22   2.0000      -0.293412        -7.9841
  23   0.0000       0.026322         0.7163
  24   0.0000       0.030910         0.8411
  25   0.0000       0.032323         0.8796
  26   0.0000       0.033887         0.9221
  27   0.0000       0.046525         1.2660

MULLIKEN ATOMIC CHARGES
-----------------------
   0 C :   -0.171826
   1 C :   -0.477526
   2 C :   -0.477526
   3 C :   -0.171826
   4 H :    0.419719
   5 H :    0.419718
   6 C :   -0.827620
   7 H :    0.231655
   8 H :    0.219997
   9 H :    0.332220
  10 C :   -0.827620
  11 H :    0.231655
  12 H :    0.219997
  13 H :    0.332220
  14 H :    0.273382
  15 H :    0.273381
Sum of atomic charges:    0.0000000

LOEWDIN ATOMIC CHARGES
----------------------
   0 C :    0.259891
   1 C :    0.317415
   2 C :    0.317415
   3 C :    0.259891
   4 H :   -0.295780
   5 H :   -0.295780
   6 C :    0.887668
   7 H :   -0.318397
   8 H :   -0.286328
   9 H :   -0.285337
  10 C :    0.887668
  11 H :   -0.318397
  12 H :   -0.286328
  13 H :   -0.285337
  14 H :   -0.279131
  15 H :   -0.279131

  Mayer bond orders larger than 0.100000
B(  0-C ,  1-C ) :   1.3237 B(  0-C ,  3-C ) :   0.5080 B(  0-C ,  6-C ) :   0.7692
B(  0-C , 15-H ) :   0.9073 B(  1-C ,  2-C ) :   1.5105 B(  1-C ,  5-H ) :   0.8247
B(  2-C ,  3-C ) :   1.3237 B(  2-C ,  4-H ) :   0.8247 B(  3-C , 10-C ) :   0.7692
B(  3-C , 14-H ) :   0.9073 B(  6-C ,  7-H ) :   0.9945 B(  6-C ,  8-H ) :   1.0049
B(  6-C ,  9-H ) :   0.8997 B( 10-C , 11-H ) :   0.9945 B( 10-C , 12-H ) :   1.0049
B( 10-C , 13-H ) :   0.8997

MP2 TOTAL ENERGY:     -234.080292547 Eh
FINAL SINGLE POINT ENERGY      -234.080292547448

DIPOLE MOMENT
-------------
                                X             Y             Z
Electronic contribution:     -0.00000       0.00000       3.03001
Nuclear contribution   :      0.00000      -0.00000      -3.18008
                        -----------------------------------------
Total Dipole Moment    :     -0.00000       0.00000      -0.15007
                        -----------------------------------------
Magnitude (a.u.)       :      0.15007
Magnitude (Debye)      :      0.38145

Rotational constants in cm-1:     0.167124     0.103008     0.084511
Rotational constants in MHz :  5010.249479  3088.090485  2533.575095

                             ****ORCA TERMINATED NORMALLY****
TOTAL RUN TIME: 0 days 0 hours 18 minutes 49 seconds 292 msec
