                         Program Version 4.2.1 -  RELEASE  -
|  1> %pal
|  2>  nprocs 32
|  3> end
|  4> !RI-MP2 aug-cc-pVQZ aug-cc-pVQZ/C TightSCF
|  5> %maxcore 4500
|  6> *xyzfile 0 2  04_23TS.xyz
|  7>
|  8>
|  9>                          ****END OF INPUT****

CARTESIAN COORDINATES (ANGSTROEM)
---------------------------------
  C     -3.004320    0.142878   -0.901164
  S     -2.451784   -1.204219    0.179547
  C     -0.637181   -1.092869   -0.007046
  C     -0.023472    0.139194    0.599017
  C     -0.223678    0.379372    2.069364
  C      0.046968    1.310895   -0.306924
  O      0.186615    2.479789    0.344314
  O      0.032753    1.246748   -1.513604
  S      2.817922   -0.587394    0.448067
  C      2.743281   -0.951640   -1.330480
  H     -2.805901    1.122272   -0.467422
  H     -2.532724    0.073699   -1.879983
  H     -4.081468    0.023595   -1.011736
  H     -0.068187   -0.547131    2.624409
  H     -1.245183    0.714457    2.266534
  H      0.460162    1.139817    2.442747
  H     -0.260199   -1.979800    0.504067
  H     -0.385717   -1.166937   -1.063602
  H      2.269007   -0.135349   -1.873181
  H      3.772519   -1.047497   -1.676791
  H      2.219414   -1.885621   -1.526330
  H      1.340963   -0.193517    0.563358
  H      0.294566    3.168535   -0.326168

 Total Charge           Charge          ....    0
 Multiplicity           Mult            ....    2
 Number of Electrons    NEL             ....   97
 Basis Dimension        Dim             .... 1406

ORBITAL ENERGIES
----------------
                 SPIN UP ORBITALS
  NO   OCC          E(Eh)            E(eV)
   0   1.0000     -91.952781     -2502.1624
   1   1.0000     -91.951221     -2502.1199
   2   1.0000     -20.621386      -561.1364
   3   1.0000     -20.560846      -559.4891
   4   1.0000     -11.395610      -310.0903
   5   1.0000     -11.290870      -307.2402
   6   1.0000     -11.269452      -306.6574
   7   1.0000     -11.252978      -306.2091
   8   1.0000     -11.252093      -306.1850
   9   1.0000     -11.234338      -305.7019
  10   1.0000      -8.954863      -243.6742
  11   1.0000      -8.952972      -243.6228
  12   1.0000      -6.645086      -180.8220
  13   1.0000      -6.635234      -180.5539
  14   1.0000      -6.633663      -180.5111
  15   1.0000      -6.633632      -180.5103
  16   1.0000      -6.632595      -180.4821
  17   1.0000      -6.632556      -180.4810
  18   1.0000      -1.481511       -40.3140
  19   1.0000      -1.378490       -37.5106
  20   1.0000      -1.140574       -31.0366
  21   1.0000      -1.049453       -28.5571
  22   1.0000      -1.035070       -28.1657
  23   1.0000      -0.961291       -26.1581
  24   1.0000      -0.924589       -25.1593
  25   1.0000      -0.865829       -23.5604
  26   1.0000      -0.838686       -22.8218
  27   1.0000      -0.773698       -21.0534
  28   1.0000      -0.721349       -19.6289
  29   1.0000      -0.702298       -19.1105
  30   1.0000      -0.686001       -18.6670
  31   1.0000      -0.623923       -16.9778
  32   1.0000      -0.619533       -16.8584
  33   1.0000      -0.599692       -16.3185
  34   1.0000      -0.593092       -16.1388
  35   1.0000      -0.590207       -16.0604
  36   1.0000      -0.587900       -15.9976
  37   1.0000      -0.582432       -15.8488
  38   1.0000      -0.563956       -15.3460
  39   1.0000      -0.536231       -14.5916
  40   1.0000      -0.530234       -14.4284
  41   1.0000      -0.511254       -13.9119
  42   1.0000      -0.501021       -13.6335
  43   1.0000      -0.479078       -13.0364
  44   1.0000      -0.467435       -12.7195
  45   1.0000      -0.443578       -12.0704
  46   1.0000      -0.360054        -9.7976
  47   1.0000      -0.354681        -9.6513
  48   1.0000      -0.340732        -9.2718
  49   0.0000       0.022686         0.6173
  50   0.0000       0.028922         0.7870
  51   0.0000       0.030448         0.8285
  52   0.0000       0.031571         0.8591
  53   0.0000       0.042146         1.1469

                 SPIN DOWN ORBITALS
  NO   OCC          E(Eh)            E(eV)
   0   1.0000     -91.950611     -2502.1033
   1   1.0000     -91.947284     -2502.0128
   2   1.0000     -20.621707      -561.1452
   3   1.0000     -20.555121      -559.3333
   4   1.0000     -11.398638      -310.1727
   5   1.0000     -11.273390      -306.7645
   6   1.0000     -11.271631      -306.7167
   7   1.0000     -11.253029      -306.2105
   8   1.0000     -11.252532      -306.1970
   9   1.0000     -11.236014      -305.7475
  10   1.0000      -8.952287      -243.6041
  11   1.0000      -8.948815      -243.5096
  12   1.0000      -6.633728      -180.5129
  13   1.0000      -6.632452      -180.4782
  14   1.0000      -6.631909      -180.4634
  15   1.0000      -6.630923      -180.4366
  16   1.0000      -6.629306      -180.3926
  17   1.0000      -6.620312      -180.1478
  18   1.0000      -1.479184       -40.2506
  19   1.0000      -1.369642       -37.2699
  20   1.0000      -1.114258       -30.3205
  21   1.0000      -1.039644       -28.2901
  22   1.0000      -1.015878       -27.6434
  23   1.0000      -0.961691       -26.1689
  24   1.0000      -0.917779       -24.9740
  25   1.0000      -0.842951       -22.9379
  26   1.0000      -0.826096       -22.4792
  27   1.0000      -0.764824       -20.8119
  28   1.0000      -0.717696       -19.5295
  29   1.0000      -0.685703       -18.6589
  30   1.0000      -0.660668       -17.9777
  31   1.0000      -0.622149       -16.9295
  32   1.0000      -0.605459       -16.4754
  33   1.0000      -0.592129       -16.1127
  34   1.0000      -0.588734       -16.0203
  35   1.0000      -0.588003       -16.0004
  36   1.0000      -0.586823       -15.9683
  37   1.0000      -0.573836       -15.6149
  38   1.0000      -0.561597       -15.2818
  39   1.0000      -0.527471       -14.3532
  40   1.0000      -0.517536       -14.0829
  41   1.0000      -0.494834       -13.4651
  42   1.0000      -0.482879       -13.1398
  43   1.0000      -0.468223       -12.7410
  44   1.0000      -0.452914       -12.3244
  45   1.0000      -0.427398       -11.6301
  46   1.0000      -0.350283        -9.5317
  47   1.0000      -0.346283        -9.4228
  48   0.0000       0.019017         0.5175
  49   0.0000       0.022762         0.6194
  50   0.0000       0.028971         0.7883
  51   0.0000       0.030584         0.8322
  52   0.0000       0.031672         0.8618

MULLIKEN ATOMIC CHARGES AND SPIN POPULATIONS
--------------------------------------------
   0 C :   -1.003656   -0.004670
   1 S :   -0.101849    0.061707
   2 C :   -0.458254   -0.081994
   3 C :    0.620214    0.722248
   4 C :   -1.039017   -0.050224
   5 C :    1.681280   -0.120912
   6 O :   -0.883145   -0.003207
   7 O :   -0.961495    0.132199
   8 S :    0.045023    0.605099
   9 C :   -1.012700   -0.052110
  10 H :    0.238757    0.002103
  11 H :    0.279755   -0.000637
  12 H :    0.399909    0.000039
  13 H :    0.262905    0.008353
  14 H :    0.213113    0.043380
  15 H :    0.253790    0.011113
  16 H :    0.265781    0.015298
  17 H :    0.221513    0.010968
  18 H :    0.319283    0.007506
  19 H :    0.415448    0.008570
  20 H :    0.234675    0.001248
  21 H :   -0.310767   -0.316822
  22 H :    0.319440    0.000744
Sum of atomic charges         :   -0.0000000

LOEWDIN ATOMIC CHARGES AND SPIN POPULATIONS
-------------------------------------------
   0 C :    0.556234    0.005939
   1 S :    1.356428    0.031564
   2 C :    0.114868    0.044512
   3 C :   -0.236246    0.247570
   4 C :    0.875145    0.055803
   5 C :   -1.076247    0.048401
   6 O :    1.281018   -0.008218
   7 O :    0.758261    0.084550
   8 S :    1.526792    0.299070
   9 C :    0.509505    0.069133
  10 H :   -0.371212   -0.000297
  11 H :   -0.371374   -0.000286
  12 H :   -0.386703    0.001312
  13 H :   -0.273052    0.002314
  14 H :   -0.282645    0.014589
  15 H :   -0.292713    0.002651
  16 H :   -0.371595    0.000732
  17 H :   -0.391116   -0.001386
  18 H :   -0.399522    0.002174
  19 H :   -0.395982    0.016181
  20 H :   -0.374185    0.002030
  21 H :   -0.962367    0.083755
  22 H :   -0.793292   -0.002092

  Mayer bond orders larger than 0.100000
B(  0-C ,  1-S ) :   1.0361 B(  0-C ,  2-C ) :  -0.1557 B(  0-C , 10-H ) :   0.9392
B(  0-C , 11-H ) :   0.9067 B(  0-C , 12-H ) :   0.8590 B(  1-S ,  2-C ) :   0.7535
B(  2-C ,  3-C ) :   0.5654 B(  2-C , 16-H ) :   0.9555 B(  2-C , 17-H ) :   1.0355
B(  3-C ,  4-C ) :   0.3944 B(  3-C ,  5-C ) :   1.0976 B(  3-C ,  8-S ) :  -0.2138
B(  3-C , 13-H ) :  -0.1156 B(  3-C , 14-H ) :  -0.1463 B(  3-C , 15-H ) :  -0.1475
B(  3-C , 17-H ) :  -0.1175 B(  4-C , 13-H ) :   1.0600 B(  4-C , 14-H ) :   1.0486
B(  4-C , 15-H ) :   1.0574 B(  5-C ,  6-O ) :   0.3543 B(  5-C ,  7-O ) :   1.1017
B(  6-O ,  7-O ) :   0.1758 B(  6-O , 22-H ) :   0.9755 B(  8-S ,  9-C ) :   1.0504
B(  8-S , 21-H ) :   0.7892 B(  9-C , 18-H ) :   0.8790 B(  9-C , 19-H ) :   0.8431
B(  9-C , 20-H ) :   0.9272

MP2 TOTAL ENERGY:    -1181.729965674 Eh
FINAL SINGLE POINT ENERGY     -1181.729965674158

DIPOLE MOMENT
-------------
                                X             Y             Z
Electronic contribution:      0.81793       1.10491       1.28731
Nuclear contribution   :     -1.03562      -0.60237      -1.46903
                        -----------------------------------------
Total Dipole Moment    :     -0.21769       0.50253      -0.18172
                        -----------------------------------------
Magnitude (a.u.)       :      0.57702
Magnitude (Debye)      :      1.46667

Rotational constants in cm-1:     0.040178     0.019180     0.017474
Rotational constants in MHz :  1204.491748   574.990174   523.847708

                             ****ORCA TERMINATED NORMALLY****
TOTAL RUN TIME: 0 days 2 hours 40 minutes 37 seconds 14 msec
