                         Program Version 4.2.1 -  RELEASE  -
|  1> %pal
|  2>  nprocs 32
|  3> end
|  4> !RI-MP2 aug-cc-pVQZ aug-cc-pVQZ/C TightSCF
|  5> %maxcore 4500
|  6> *xyzfile 0 1  10_46P.xyz
|  7>
|  8>
|  9>                          ****END OF INPUT****

CARTESIAN COORDINATES (ANGSTROEM)
---------------------------------
  C      0.026208   -2.360955   -0.416424
  H     -0.087820   -3.031802   -1.275827
  H      0.145935   -3.015624    0.471946
  C     -1.229110   -1.561383   -0.262985
  C      0.085750    0.480065    0.114398
  H      0.356261    1.111413   -0.735513
  H     -0.015703    1.138785    0.976433
  C      1.240375   -0.486184    0.382338
  H      1.083566   -0.933818    1.384231
  N      1.196633   -1.538116   -0.622738
  C     -2.535062    0.489333   -0.054373
  C     -2.518241   -2.330146   -0.290425
  C     -3.609763   -0.214454    0.320022
  C     -3.543066   -1.686078    0.640246
  C     -1.226145   -0.233554   -0.103024
  C     -3.226850   -1.928620    2.120413
  H     -3.220127   -2.998060    2.348609
  H     -2.249997   -1.515640    2.379953
  H     -3.972820   -1.451201    2.759157
  C      2.573450    0.236596    0.415228
  C      2.413599   -2.321638   -0.690772
  H      2.249054   -3.152668   -1.380304
  H      2.668692   -2.758250    0.292732
  C      3.547742   -1.443281   -1.181616
  H      3.353104   -1.165436   -2.221969
  C      3.663708   -0.204003   -0.334367
  H      4.491414   -1.994438   -1.162314
  C      4.865491    0.499272   -0.272907
  H      5.709191    0.148061   -0.857783
  C      2.724611    1.357494    1.232019
  H      1.892704    1.693889    1.839413
  C      5.000290    1.622215    0.524045
  H      5.942784    2.155173    0.559845
  C      3.921812    2.049667    1.288307
  H      4.015037    2.918252    1.928992
  C     -2.657607    1.945882   -0.529314
  C     -1.877113    2.937997    0.354484
  H     -0.800513    2.869379    0.220965
  H     -2.106167    2.783202    1.411602
  H     -2.167137    3.959495    0.096186
  C     -4.117744    2.416531   -0.529858
  H     -4.538768    2.437496    0.477785
  H     -4.749238    1.783633   -1.155511
  H     -4.166163    3.432111   -0.928282
  C     -2.150219    2.031026   -1.979491
  H     -1.114718    1.706433   -2.076278
  H     -2.214654    3.060522   -2.341765
  H     -2.757897    1.401515   -2.633383
  H     -2.340337   -3.371836   -0.003836
  H     -2.911320   -2.348671   -1.315602
  H     -4.522696   -2.125316    0.430502
  H     -4.580789    0.255514    0.393508

 Total Charge           Charge          ....    0
 Multiplicity           Mult            ....    1
 Number of Electrons    NEL             ....  168
 Basis Dimension        Dim             .... 3174

ORBITAL ENERGIES
----------------

  NO   OCC          E(Eh)            E(eV)
   0   2.0000     -15.542410      -422.9305
   1   2.0000     -11.256772      -306.3123
   2   2.0000     -11.249702      -306.1200
   3   2.0000     -11.246986      -306.0461
   4   2.0000     -11.235935      -305.7453
   5   2.0000     -11.232756      -305.6588
   6   2.0000     -11.231527      -305.6254
   7   2.0000     -11.226925      -305.5002
   8   2.0000     -11.226204      -305.4805
   9   2.0000     -11.225185      -305.4528
  10   2.0000     -11.224567      -305.4360
  11   2.0000     -11.224433      -305.4324
  12   2.0000     -11.223325      -305.4022
  13   2.0000     -11.221912      -305.3638
  14   2.0000     -11.220717      -305.3312
  15   2.0000     -11.219062      -305.2862
  16   2.0000     -11.217747      -305.2504
  17   2.0000     -11.217579      -305.2458
  18   2.0000     -11.208399      -304.9960
  19   2.0000     -11.207128      -304.9615
  20   2.0000     -11.205947      -304.9293
  21   2.0000     -11.204868      -304.9000
  22   2.0000     -11.204410      -304.8875
  23   2.0000      -1.253247       -34.1026
  24   2.0000      -1.156600       -31.4727
  25   2.0000      -1.147398       -31.2223
  26   2.0000      -1.096114       -29.8268
  27   2.0000      -1.075348       -29.2617
  28   2.0000      -1.053989       -28.6805
  29   2.0000      -1.036387       -28.2015
  30   2.0000      -1.003086       -27.2954
  31   2.0000      -0.990585       -26.9552
  32   2.0000      -0.969382       -26.3782
  33   2.0000      -0.928204       -25.2577
  34   2.0000      -0.927932       -25.2503
  35   2.0000      -0.923069       -25.1180
  36   2.0000      -0.879656       -23.9367
  37   2.0000      -0.860158       -23.4061
  38   2.0000      -0.841477       -22.8977
  39   2.0000      -0.825802       -22.4712
  40   2.0000      -0.808980       -22.0135
  41   2.0000      -0.766759       -20.8646
  42   2.0000      -0.750725       -20.4283
  43   2.0000      -0.726345       -19.7649
  44   2.0000      -0.691742       -18.8232
  45   2.0000      -0.669100       -18.2071
  46   2.0000      -0.658086       -17.9074
  47   2.0000      -0.652854       -17.7651
  48   2.0000      -0.636022       -17.3070
  49   2.0000      -0.630642       -17.1606
  50   2.0000      -0.623693       -16.9716
  51   2.0000      -0.611650       -16.6438
  52   2.0000      -0.602229       -16.3875
  53   2.0000      -0.599360       -16.3094
  54   2.0000      -0.593061       -16.1380
  55   2.0000      -0.586541       -15.9606
  56   2.0000      -0.581702       -15.8289
  57   2.0000      -0.578991       -15.7551
  58   2.0000      -0.565861       -15.3979
  59   2.0000      -0.557819       -15.1790
  60   2.0000      -0.545477       -14.8432
  61   2.0000      -0.543036       -14.7767
  62   2.0000      -0.535499       -14.5717
  63   2.0000      -0.529542       -14.4096
  64   2.0000      -0.524914       -14.2836
  65   2.0000      -0.520377       -14.1602
  66   2.0000      -0.515294       -14.0219
  67   2.0000      -0.509059       -13.8522
  68   2.0000      -0.505774       -13.7628
  69   2.0000      -0.494943       -13.4681
  70   2.0000      -0.492080       -13.3902
  71   2.0000      -0.483860       -13.1665
  72   2.0000      -0.476883       -12.9767
  73   2.0000      -0.468597       -12.7512
  74   2.0000      -0.466599       -12.6968
  75   2.0000      -0.462273       -12.5791
  76   2.0000      -0.447875       -12.1873
  77   2.0000      -0.435999       -11.8641
  78   2.0000      -0.418178       -11.3792
  79   2.0000      -0.382244       -10.4014
  80   2.0000      -0.359703        -9.7880
  81   2.0000      -0.326952        -8.8968
  82   2.0000      -0.319738        -8.7005
  83   2.0000      -0.291332        -7.9275
  84   0.0000       0.021005         0.5716
  85   0.0000       0.024408         0.6642
  86   0.0000       0.024772         0.6741
  87   0.0000       0.028030         0.7627
  88   0.0000       0.032076         0.8728

MULLIKEN ATOMIC CHARGES
-----------------------
   0 C :   -0.441736
   1 H :    0.027843
   2 H :    0.127130
   3 C :    0.469541
   4 C :   -0.005908
   5 H :    0.442618
   6 H :   -0.050518
   7 C :    1.695126
   8 H :    0.197336
   9 N :   -0.163111
  10 C :   -0.204704
  11 C :   -1.116010
  12 C :   -0.554666
  13 C :    0.057777
  14 C :    1.392611
  15 C :   -1.126679
  16 H :    0.245233
  17 H :    0.129028
  18 H :    0.232232
  19 C :    0.492198
  20 C :   -0.877023
  21 H :    0.228253
  22 H :    0.240828
  23 C :   -0.702107
  24 H :    0.185256
  25 C :    0.134638
  26 H :    0.203710
  27 C :   -0.682971
  28 H :    0.224570
  29 C :   -0.783179
  30 H :    0.133120
  31 C :   -0.432355
  32 H :    0.268991
  33 C :   -0.547679
  34 H :    0.198871
  35 C :    1.997999
  36 C :   -1.375355
  37 H :    0.234816
  38 H :    0.162414
  39 H :    0.172210
  40 C :   -1.300928
  41 H :    0.204827
  42 H :    0.182116
  43 H :    0.161203
  44 C :   -1.383112
  45 H :    0.289686
  46 H :    0.181547
  47 H :    0.121427
  48 H :    0.141709
  49 H :    0.223491
  50 H :    0.203851
  51 H :    0.143836
Sum of atomic charges:    0.0000000

LOEWDIN ATOMIC CHARGES
----------------------
   0 C :    0.345573
   1 H :   -0.271853
   2 H :   -0.244705
   3 C :    0.004210
   4 C :    0.511830
   5 H :   -0.272688
   6 H :   -0.326190
   7 C :   -0.041425
   8 H :   -0.251500
   9 N :    0.540185
  10 C :    0.016615
  11 C :    0.510855
  12 C :    0.398539
  13 C :    0.113412
  14 C :    0.035087
  15 C :    0.941416
  16 H :   -0.268212
  17 H :   -0.280878
  18 H :   -0.267132
  19 C :   -0.020209
  20 C :    0.355067
  21 H :   -0.273459
  22 H :   -0.239050
  23 C :    0.524629
  24 H :   -0.255922
  25 C :   -0.036628
  26 H :   -0.274005
  27 C :    0.357654
  28 H :   -0.312829
  29 C :    0.363222
  30 H :   -0.318706
  31 C :    0.349231
  32 H :   -0.320681
  33 C :    0.357518
  34 H :   -0.319469
  35 C :   -0.268766
  36 C :    0.925181
  37 H :   -0.321453
  38 H :   -0.246061
  39 H :   -0.271784
  40 C :    0.879245
  41 H :   -0.264425
  42 H :   -0.272614
  43 H :   -0.273356
  44 C :    0.926303
  45 H :   -0.298598
  46 H :   -0.260960
  47 H :   -0.254490
  48 H :   -0.269828
  49 H :   -0.242985
  50 H :   -0.273609
  51 H :   -0.341302

  Mayer bond orders larger than 0.100000
B(  0-C ,  1-H ) :   1.3919 B(  0-C ,  2-H ) :   1.2122 B(  0-C ,  7-C ) :  -0.1242
B(  0-C ,  9-N ) :   1.0777 B(  0-C , 14-C ) :  -0.2691 B(  1-H ,  2-H ) :   0.1137
B(  1-H ,  3-C ) :  -0.4342 B(  2-H ,  3-C ) :  -0.1938 B(  2-H ,  9-N ) :  -0.1322
B(  3-C ,  7-C ) :   0.2002 B(  3-C ,  9-N ) :   0.1293 B(  3-C , 10-C ) :  -0.1347
B(  3-C , 12-C ) :   0.1425 B(  3-C , 13-C ) :  -0.1747 B(  3-C , 14-C ) :   0.8692
B(  3-C , 48-H ) :  -0.2378 B(  3-C , 49-H ) :  -0.1970 B(  4-C ,  5-H ) :   1.0130
B(  4-C ,  6-H ) :   0.8620 B(  4-C ,  7-C ) :   0.9626 B(  4-C ,  8-H ) :   0.1804
B(  4-C , 14-C ) :  -0.5957 B(  5-H , 14-C ) :  -0.1354 B(  5-H , 19-C ) :  -0.1601
B(  6-H , 10-C ) :   0.1908 B(  6-H , 14-C ) :   0.1716 B(  7-C ,  8-H ) :   0.8519
B(  7-C ,  9-N ) :   0.5526 B(  7-C , 14-C ) :  -0.2443 B(  7-C , 19-C ) :  -0.3694
B(  7-C , 20-C ) :  -0.1564 B(  7-C , 23-C ) :   0.1126 B(  7-C , 25-C ) :  -0.4924
B(  7-C , 29-C ) :  -0.8565 B(  8-H , 29-C ) :   0.1056 B(  9-N , 20-C ) :   0.6363
B(  9-N , 22-H ) :  -0.1537 B( 10-C , 12-C ) :   1.3901 B( 10-C , 13-C ) :  -0.3649
B( 10-C , 14-C ) :   0.3381 B( 10-C , 35-C ) :   0.5998 B( 10-C , 36-C ) :  -0.2139
B( 10-C , 40-C ) :   0.1115 B( 11-C , 13-C ) :   1.0749 B( 11-C , 48-H ) :   1.2371
B( 11-C , 49-H ) :   1.1250 B( 12-C , 13-C ) :   0.7048 B( 12-C , 14-C ) :  -0.6223
B( 12-C , 35-C ) :  -0.2091 B( 12-C , 40-C ) :  -0.1836 B( 12-C , 50-H ) :  -0.1647
B( 12-C , 51-H ) :   1.1291 B( 13-C , 15-C ) :   0.6564 B( 13-C , 17-H ) :  -0.1143
B( 13-C , 50-H ) :   1.1112 B( 14-C , 35-C ) :  -0.1516 B( 15-C , 16-H ) :   1.0532
B( 15-C , 17-H ) :   1.0543 B( 15-C , 18-H ) :   1.0942 B( 19-C , 20-C ) :   0.1100
B( 19-C , 23-C ) :  -0.1777 B( 19-C , 25-C ) :   1.0128 B( 19-C , 27-C ) :  -0.6257
B( 19-C , 29-C ) :   1.1253 B( 19-C , 30-H ) :  -0.1465 B( 19-C , 33-C ) :  -0.2716
B( 20-C , 21-H ) :   1.0189 B( 20-C , 22-H ) :   1.0281 B( 20-C , 23-C ) :   1.1598
B( 20-C , 26-H ) :  -0.1133 B( 23-C , 24-H ) :   1.0901 B( 23-C , 25-C ) :   0.3651
B( 23-C , 26-H ) :   1.1613 B( 25-C , 26-H ) :  -0.2184 B( 25-C , 27-C ) :   1.1066
B( 25-C , 28-H ) :  -0.1078 B( 25-C , 31-C ) :  -0.2766 B( 27-C , 28-H ) :   1.0691
B( 27-C , 29-C ) :   0.1462 B( 27-C , 31-C ) :   1.2973 B( 27-C , 32-H ) :  -0.1966
B( 27-C , 33-C ) :   0.1755 B( 29-C , 30-H ) :   1.2578 B( 29-C , 33-C ) :   1.2151
B( 29-C , 34-H ) :  -0.1828 B( 31-C , 32-H ) :   1.1461 B( 31-C , 33-C ) :   1.2134
B( 32-H , 33-C ) :  -0.1467 B( 33-C , 34-H ) :   1.2106 B( 35-C , 37-H ) :  -0.1418
B( 35-C , 38-H ) :  -0.2213 B( 35-C , 39-H ) :  -0.1441 B( 35-C , 40-C ) :  -0.2556
B( 35-C , 41-H ) :  -0.2596 B( 35-C , 42-H ) :  -0.2499 B( 35-C , 43-H ) :  -0.1890
B( 35-C , 44-C ) :   0.1322 B( 35-C , 46-H ) :  -0.1639 B( 35-C , 47-H ) :  -0.2325
B( 36-C , 37-H ) :   1.0486 B( 36-C , 38-H ) :   1.2301 B( 36-C , 39-H ) :   1.2037
B( 36-C , 40-C ) :   0.1900 B( 36-C , 44-C ) :   0.1697 B( 40-C , 41-H ) :   1.2079
B( 40-C , 42-H ) :   1.2050 B( 40-C , 43-H ) :   1.2344 B( 40-C , 44-C ) :   0.1563
B( 44-C , 45-H ) :   0.9650 B( 44-C , 46-H ) :   1.1940 B( 44-C , 47-H ) :   1.2684

MP2 TOTAL ENERGY:     -908.874201996 Eh
FINAL SINGLE POINT ENERGY      -908.874201995591

DIPOLE MOMENT
-------------
                                X             Y             Z
Electronic contribution:     16.98609      -3.38718       0.18476
Nuclear contribution   :    -17.03595       3.06104      -0.12330
                        -----------------------------------------
Total Dipole Moment    :     -0.04986      -0.32614       0.06146
                        -----------------------------------------
Magnitude (a.u.)       :      0.33560
Magnitude (Debye)      :      0.85304

Rotational constants in cm-1:     0.014374     0.005750     0.004701
Rotational constants in MHz :   430.919704   172.383992   140.939789

                             ****ORCA TERMINATED NORMALLY****
TOTAL RUN TIME: 0 days 16 hours 35 minutes 57 seconds 824 msec
