                         Program Version 4.2.1 -  RELEASE  -
|  1> %pal
|  2>  nprocs 32
|  3> end
|  4> !RI-MP2 aug-cc-pVQZ aug-cc-pVQZ/C TightSCF
|  5> %maxcore 4500
|  6> *xyzfile 0 1  10_83R.xyz
|  7>
|  8>
|  9>                          ****END OF INPUT****

CARTESIAN COORDINATES (ANGSTROEM)
---------------------------------
  C     -0.803576   -0.065099   -1.282417
  C     -0.064266   -0.094736    0.038004
  C     -0.655202    0.203459    1.190143
  C     -2.124900    0.573830    1.211291
  C     -2.914635   -0.701941    0.929761
  C     -3.003754   -0.876790   -0.383719
  C     -2.302094    0.260108   -1.103189
  H     -0.356779    0.695911   -1.930498
  H     -0.681831   -1.025542   -1.795729
  H     -2.742064    0.504960   -2.070699
  C     -2.425734    1.381159   -0.060504
  H     -3.428059   -1.737316   -0.885118
  H     -3.244780   -1.389879    1.697027
  C      1.404618   -0.520650   -0.033378
  H     -3.443870    1.772205   -0.036002
  H     -1.724839    2.202757   -0.218262
  H     -2.393269    1.076123    2.139759
  C      2.228775    0.367793   -1.023992
  C      2.049693   -0.467458    1.286433
  C      1.479209   -1.910059   -0.524186
  N      2.571052   -0.411511    2.304717
  N      1.519397   -2.972573   -0.951586
  C      2.139340    1.781815   -0.700221
  C      2.055922    2.941645   -0.425025
  H     -0.112166    0.154089    2.126608
  H      3.269016    0.037660   -1.004316
  H      1.853613    0.185789   -2.031956
  H      1.991507    3.973373   -0.176734

 Total Charge           Charge          ....    0
 Multiplicity           Mult            ....    1
 Number of Electrons    NEL             ....  110
 Basis Dimension        Dim             .... 1832

ORBITAL ENERGIES
----------------

  NO   OCC          E(Eh)            E(eV)
   0   2.0000     -15.590688      -424.2442
   1   2.0000     -15.588529      -424.1854
   2   2.0000     -11.357244      -309.0463
   3   2.0000     -11.302317      -307.5517
   4   2.0000     -11.293486      -307.3114
   5   2.0000     -11.291584      -307.2596
   6   2.0000     -11.267104      -306.5935
   7   2.0000     -11.255093      -306.2667
   8   2.0000     -11.251504      -306.1690
   9   2.0000     -11.250088      -306.1305
  10   2.0000     -11.249917      -306.1258
  11   2.0000     -11.247204      -306.0520
  12   2.0000     -11.246218      -306.0251
  13   2.0000     -11.236736      -305.7671
  14   2.0000     -11.232493      -305.6517
  15   2.0000     -11.231649      -305.6287
  16   2.0000      -1.260687       -34.3050
  17   2.0000      -1.239591       -33.7310
  18   2.0000      -1.198228       -32.6054
  19   2.0000      -1.161201       -31.5979
  20   2.0000      -1.080660       -29.4063
  21   2.0000      -1.041059       -28.3287
  22   2.0000      -1.036901       -28.2155
  23   2.0000      -0.981654       -26.7122
  24   2.0000      -0.960219       -26.1289
  25   2.0000      -0.891583       -24.2612
  26   2.0000      -0.835166       -22.7260
  27   2.0000      -0.793570       -21.5941
  28   2.0000      -0.746328       -20.3086
  29   2.0000      -0.736366       -20.0375
  30   2.0000      -0.733241       -19.9525
  31   2.0000      -0.727291       -19.7906
  32   2.0000      -0.670719       -18.2512
  33   2.0000      -0.664553       -18.0834
  34   2.0000      -0.653889       -17.7932
  35   2.0000      -0.634283       -17.2597
  36   2.0000      -0.603562       -16.4238
  37   2.0000      -0.598834       -16.2951
  38   2.0000      -0.584401       -15.9024
  39   2.0000      -0.579235       -15.7618
  40   2.0000      -0.567187       -15.4339
  41   2.0000      -0.563034       -15.3209
  42   2.0000      -0.545438       -14.8421
  43   2.0000      -0.517836       -14.0910
  44   2.0000      -0.503466       -13.7000
  45   2.0000      -0.497304       -13.5323
  46   2.0000      -0.494109       -13.4454
  47   2.0000      -0.484586       -13.1862
  48   2.0000      -0.481338       -13.0979
  49   2.0000      -0.472551       -12.8588
  50   2.0000      -0.466375       -12.6907
  51   2.0000      -0.415150       -11.2968
  52   2.0000      -0.414357       -11.2752
  53   2.0000      -0.381771       -10.3885
  54   2.0000      -0.349226        -9.5029
  55   0.0000       0.016872         0.4591
  56   0.0000       0.024071         0.6550
  57   0.0000       0.024655         0.6709
  58   0.0000       0.029611         0.8058
  59   0.0000       0.034823         0.9476

MULLIKEN ATOMIC CHARGES
-----------------------
   0 C :   -0.140774
   1 C :    0.644244
   2 C :   -0.594986
   3 C :    0.091958
   4 C :   -0.553004
   5 C :   -0.577619
   6 C :   -0.082646
   7 H :    0.225883
   8 H :    0.324532
   9 H :    0.253536
  10 C :   -0.867207
  11 H :    0.267856
  12 H :    0.361316
  13 C :   -0.025407
  14 H :    0.272819
  15 H :    0.313024
  16 H :    0.298158
  17 C :   -0.044109
  18 C :    0.926739
  19 C :    0.756392
  20 N :   -1.019289
  21 N :   -0.985016
  22 C :    0.217607
  23 C :   -1.168117
  24 H :    0.220175
  25 H :    0.430412
  26 H :    0.285142
  27 H :    0.168381
Sum of atomic charges:    0.0000000

LOEWDIN ATOMIC CHARGES
----------------------
   0 C :    0.515473
   1 C :   -0.059896
   2 C :    0.410945
   3 C :    0.114727
   4 C :    0.416108
   5 C :    0.413320
   6 C :    0.123370
   7 H :   -0.274699
   8 H :   -0.267157
   9 H :   -0.245139
  10 C :    0.508476
  11 H :   -0.277984
  12 H :   -0.277732
  13 C :   -0.457680
  14 H :   -0.245265
  15 H :   -0.244627
  16 H :   -0.257616
  17 C :    0.397811
  18 C :   -0.344427
  19 C :   -0.307106
  20 N :    0.507773
  21 N :    0.487086
  22 C :    0.109872
  23 C :    0.610793
  24 H :   -0.327386
  25 H :   -0.282019
  26 H :   -0.306841
  27 H :   -0.440182

  Mayer bond orders larger than 0.100000
B(  0-C ,  1-C ) :   0.2334 B(  0-C ,  2-C ) :  -0.1953 B(  0-C ,  6-C ) :   0.8463
B(  0-C ,  7-H ) :   0.9604 B(  0-C ,  8-H ) :   0.9072 B(  1-C ,  2-C ) :   1.3351
B(  1-C ,  3-C ) :  -0.2810 B(  1-C , 10-C ) :  -0.1384 B(  1-C , 13-C ) :   0.2695
B(  1-C , 18-C ) :  -0.3013 B(  1-C , 19-C ) :  -0.2387 B(  1-C , 23-C ) :   0.1005
B(  2-C ,  3-C ) :   0.8078 B(  2-C ,  6-C ) :   0.1096 B(  2-C , 13-C ) :  -0.2844
B(  2-C , 16-H ) :  -0.1863 B(  2-C , 18-C ) :   0.1196 B(  2-C , 19-C ) :  -0.1098
B(  2-C , 24-H ) :   0.9857 B(  3-C ,  4-C ) :   0.8615 B(  3-C ,  5-C ) :  -0.1960
B(  3-C , 10-C ) :   0.9385 B(  3-C , 16-H ) :   1.0363 B(  4-C ,  5-C ) :   1.5763
B(  4-C ,  6-C ) :  -0.1400 B(  4-C , 12-H ) :   0.9752 B(  5-C ,  6-C ) :   0.8667
B(  5-C , 11-H ) :   1.1103 B(  6-C ,  9-H ) :   1.0305 B(  6-C , 10-C ) :   0.8467
B( 10-C , 14-H ) :   0.9612 B( 10-C , 15-H ) :   0.9266 B( 13-C , 17-C ) :   0.8010
B( 13-C , 18-C ) :   1.3170 B( 13-C , 19-C ) :   1.3683 B( 13-C , 20-N ) :   0.3525
B( 13-C , 21-N ) :   0.2185 B( 17-C , 19-C ) :   0.1282 B( 17-C , 22-C ) :   0.6122
B( 17-C , 23-C ) :  -0.5497 B( 17-C , 25-H ) :   0.8742 B( 17-C , 26-H ) :   0.9364
B( 18-C , 20-N ) :   1.6794 B( 19-C , 21-N ) :   1.8631 B( 22-C , 23-C ) :   1.9997
B( 22-C , 25-H ) :  -0.1224 B( 22-C , 27-H ) :  -0.4443 B( 23-C , 27-H ) :   1.5838

MP2 TOTAL ENERGY:     -648.935498536 Eh
FINAL SINGLE POINT ENERGY      -648.935498535514

DIPOLE MOMENT
-------------
                                X             Y             Z
Electronic contribution:      9.79051      -4.90051       3.33336
Nuclear contribution   :    -10.90107       6.37852      -4.14436
                        -----------------------------------------
Total Dipole Moment    :     -1.11056       1.47801      -0.81099
                        -----------------------------------------
Magnitude (a.u.)       :      2.01881
Magnitude (Debye)      :      5.13140

Rotational constants in cm-1:     0.026497     0.015142     0.013309
Rotational constants in MHz :   794.357919   453.946243   398.996530

                             ****ORCA TERMINATED NORMALLY****
TOTAL RUN TIME: 0 days 3 hours 29 minutes 43 seconds 147 msec
