                         Program Version 4.2.1 -  RELEASE  -
|  1> %pal
|  2>  nprocs 32
|  3> end
|  4> !RI-MP2 aug-cc-pVQZ aug-cc-pVQZ/C TightSCF
|  5> %maxcore 4500
|  6> *xyzfile 0 1  06_18P2.xyz
|  7>
|  8>
|  9>                          ****END OF INPUT****

CARTESIAN COORDINATES (ANGSTROEM)
---------------------------------
  C     -1.748497    0.320986   -0.223238
  H     -2.119374    1.285921    0.130324
  H     -1.790560    0.328740   -1.315670
  H     -2.437920   -0.449322    0.130276
  C      0.596270   -1.674722   -0.223222
  H     -0.053836   -2.478420    0.130451
  H      0.610421   -1.715033   -1.315658
  H      1.608159   -1.886534    0.130143
  C      1.152249    1.353724   -0.223227
  H      2.173314    1.192472    0.130439
  H      1.180099    1.386195   -1.315663
  H      0.829822    2.335963    0.130184
  Si    -0.000016    0.000004    0.379564
  H     -0.000033    0.000023    1.869410

 Total Charge           Charge          ....    0
 Multiplicity           Mult            ....    1
 Number of Electrons    NEL             ....   42
 Basis Dimension        Dim             ....  784

ORBITAL ENERGIES
----------------

  NO   OCC          E(Eh)            E(eV)
   0   2.0000     -68.747072     -1870.7029
   1   2.0000     -11.195782      -304.6527
   2   2.0000     -11.195781      -304.6527
   3   2.0000     -11.195770      -304.6524
   4   2.0000      -6.096273      -165.8880
   5   2.0000      -4.202890      -114.3665
   6   2.0000      -4.202523      -114.3565
   7   2.0000      -4.202523      -114.3565
   8   2.0000      -0.964848       -26.2549
   9   2.0000      -0.922407       -25.1000
  10   2.0000      -0.922405       -25.0999
  11   2.0000      -0.644995       -17.5512
  12   2.0000      -0.572247       -15.5716
  13   2.0000      -0.559860       -15.2346
  14   2.0000      -0.559858       -15.2345
  15   2.0000      -0.540345       -14.7035
  16   2.0000      -0.540343       -14.7035
  17   2.0000      -0.529583       -14.4107
  18   2.0000      -0.440457       -11.9855
  19   2.0000      -0.430916       -11.7258
  20   2.0000      -0.430913       -11.7257
  21   0.0000       0.022704         0.6178
  22   0.0000       0.035161         0.9568
  23   0.0000       0.035161         0.9568
  24   0.0000       0.035835         0.9751
  25   0.0000       0.051516         1.4018

MULLIKEN ATOMIC CHARGES
-----------------------
   0 C :   -1.148334
   1 H :    0.280392
   2 H :    0.240691
   3 H :    0.280403
   4 C :   -1.148331
   5 H :    0.280408
   6 H :    0.240685
   7 H :    0.280414
   8 C :   -1.148323
   9 H :    0.280389
  10 H :    0.240687
  11 H :    0.280411
  12 Si:    1.489738
  13 H :   -0.449230
Sum of atomic charges:    0.0000000

LOEWDIN ATOMIC CHARGES
----------------------
   0 C :    0.944216
   1 H :   -0.350919
   2 H :   -0.346943
   3 H :   -0.350919
   4 C :    0.944217
   5 H :   -0.350916
   6 H :   -0.346946
   7 H :   -0.350918
   8 C :    0.944217
   9 H :   -0.350922
  10 H :   -0.346939
  11 H :   -0.350919
  12 Si:    0.493789
  13 H :   -0.180096

  Mayer bond orders larger than 0.100000
B(  0-C ,  1-H ) :   0.9463 B(  0-C ,  2-H ) :   0.9552 B(  0-C ,  3-H ) :   0.9463
B(  0-C , 12-Si) :   0.8431 B(  4-C ,  5-H ) :   0.9463 B(  4-C ,  6-H ) :   0.9552
B(  4-C ,  7-H ) :   0.9463 B(  4-C , 12-Si) :   0.8431 B(  8-C ,  9-H ) :   0.9463
B(  8-C , 10-H ) :   0.9552 B(  8-C , 11-H ) :   0.9463 B(  8-C , 12-Si) :   0.8431
B( 12-Si, 13-H ) :   0.7061

MP2 TOTAL ENERGY:     -409.177460836 Eh
FINAL SINGLE POINT ENERGY      -409.177460835501

DIPOLE MOMENT
-------------
                                X             Y             Z
Electronic contribution:     -0.00012      -0.00001       1.19700
Nuclear contribution   :      0.00010       0.00001      -1.40199
                        -----------------------------------------
Total Dipole Moment    :     -0.00002       0.00000      -0.20499
                        -----------------------------------------
Magnitude (a.u.)       :      0.20499
Magnitude (Debye)      :      0.52105

Rotational constants in cm-1:     0.177061     0.177056     0.104666
Rotational constants in MHz :  5308.152223  5307.997684  3137.793347

                             ****ORCA TERMINATED NORMALLY****
TOTAL RUN TIME: 0 days 0 hours 8 minutes 51 seconds 744 msec
