                         Program Version 4.2.1 -  RELEASE  -
|  1> %pal
|  2>  nprocs 32
|  3> end
|  4> !RI-MP2 aug-cc-pVQZ aug-cc-pVQZ/C TightSCF
|  5> %maxcore 4500
|  6> *xyzfile 0 1  10_26R2.xyz
|  7>
|  8>
|  9>                          ****END OF INPUT****

CARTESIAN COORDINATES (ANGSTROEM)
---------------------------------
  C     -0.071466    1.069555    0.663439
  C     -0.071466    1.069555   -0.663439
  C     -0.071466   -0.328718   -1.227620
  H     -1.061072   -0.573281   -1.631641
  H      0.639964   -0.458095   -2.046842
  C     -0.071466   -0.328718    1.227620
  H     -1.061072   -0.573281    1.631641
  C      0.277507   -1.196683    0.000000
  H     -0.238035   -2.157668    0.000000
  H      1.350331   -1.402039    0.000000
  H      0.639964   -0.458095    2.046842
  H     -0.109964    1.956256    1.284651
  H     -0.109964    1.956256   -1.284651

 Total Charge           Charge          ....    0
 Multiplicity           Mult            ....    1
 Number of Electrons    NEL             ....   38
 Basis Dimension        Dim             ....  768

ORBITAL ENERGIES
----------------

  NO   OCC          E(Eh)            E(eV)
   0   2.0000     -11.218914      -305.2822
   1   2.0000     -11.218811      -305.2794
   2   2.0000     -11.217720      -305.2497
   3   2.0000     -11.216220      -305.2089
   4   2.0000     -11.215976      -305.2022
   5   2.0000      -1.128953       -30.7204
   6   2.0000      -0.962649       -26.1950
   7   2.0000      -0.954022       -25.9603
   8   2.0000      -0.784965       -21.3600
   9   2.0000      -0.721243       -19.6260
  10   2.0000      -0.672217       -18.2920
  11   2.0000      -0.633942       -17.2504
  12   2.0000      -0.549690       -14.9578
  13   2.0000      -0.532423       -14.4880
  14   2.0000      -0.488121       -13.2825
  15   2.0000      -0.488007       -13.2794
  16   2.0000      -0.482843       -13.1388
  17   2.0000      -0.472557       -12.8589
  18   2.0000      -0.341098        -9.2817
  19   0.0000       0.027785         0.7561
  20   0.0000       0.033816         0.9202
  21   0.0000       0.034169         0.9298
  22   0.0000       0.036976         1.0062
  23   0.0000       0.048057         1.3077

MULLIKEN ATOMIC CHARGES
-----------------------
   0 C :   -0.467096
   1 C :   -0.467097
   2 C :   -0.465878
   3 H :    0.249667
   4 H :    0.259337
   5 C :   -0.465878
   6 H :    0.249667
   7 C :   -0.484615
   8 H :    0.254607
   9 H :    0.266995
  10 H :    0.259337
  11 H :    0.405478
  12 H :    0.405478
Sum of atomic charges:    0.0000000

LOEWDIN ATOMIC CHARGES
----------------------
   0 C :    0.386586
   1 C :    0.386586
   2 C :    0.487304
   3 H :   -0.273260
   4 H :   -0.276658
   5 C :    0.487304
   6 H :   -0.273260
   7 C :    0.499105
   8 H :   -0.262292
   9 H :   -0.274561
  10 H :   -0.276658
  11 H :   -0.305098
  12 H :   -0.305098

  Mayer bond orders larger than 0.100000
B(  0-C ,  1-C ) :   1.6370 B(  0-C ,  5-C ) :   0.8782 B(  0-C , 11-H ) :   0.8711
B(  1-C ,  2-C ) :   0.8782 B(  1-C , 12-H ) :   0.8711 B(  2-C ,  3-H ) :   0.8865
B(  2-C ,  4-H ) :   0.9689 B(  2-C ,  7-C ) :   0.9687 B(  5-C ,  6-H ) :   0.8865
B(  5-C ,  7-C ) :   0.9687 B(  5-C , 10-H ) :   0.9689 B(  7-C ,  8-H ) :   0.9379
B(  7-C ,  9-H ) :   0.8904

MP2 TOTAL ENERGY:     -194.946211960 Eh
FINAL SINGLE POINT ENERGY      -194.946211960423

DIPOLE MOMENT
-------------
                                X             Y             Z
Electronic contribution:     -0.08176       1.70596      -0.00000
Nuclear contribution   :      0.05254      -1.79147      -0.00000
                        -----------------------------------------
Total Dipole Moment    :     -0.02922      -0.08551      -0.00000
                        -----------------------------------------
Magnitude (a.u.)       :      0.09036
Magnitude (Debye)      :      0.22969

Rotational constants in cm-1:     0.244691     0.242993     0.132372
Rotational constants in MHz :  7335.637940  7284.759099  3968.402971

                             ****ORCA TERMINATED NORMALLY****
TOTAL RUN TIME: 0 days 0 hours 8 minutes 42 seconds 926 msec
