                         Program Version 4.2.1 -  RELEASE  -
|  1> %pal
|  2>  nprocs 32
|  3> end
|  4> !RI-MP2 aug-cc-pVQZ aug-cc-pVQZ/C TightSCF
|  5> %maxcore 4500
|  6> *xyzfile 1 1  05_12R2.xyz
|  7>
|  8>
|  9>                          ****END OF INPUT****

CARTESIAN COORDINATES (ANGSTROEM)
---------------------------------
  C     -1.203806   -1.350609    0.041136
  C     -1.203834    1.350597    0.041139
  C      0.321855    1.248548    0.111662
  C      0.848064    0.000014    0.818895
  C      0.321881   -1.248529    0.111659
  H      0.735590    1.268298   -0.896935
  H      0.672584    2.145581    0.625296
  H      0.517249    0.000009    1.859510
  H      0.735615   -1.268268   -0.896938
  H      0.672627   -2.145556    0.625291
  N     -1.770438   -0.000011   -0.400905
  O     -2.723748   -0.000020   -1.092918
  C     -1.636817   -2.383949   -0.989381
  H     -1.150328   -3.324567   -0.730834
  H     -2.713458   -2.544152   -0.989455
  H     -1.316419   -2.105286   -1.993965
  C     -1.851813   -1.656949    1.403313
  H     -2.937585   -1.564873    1.358630
  H     -1.613824   -2.695837    1.632884
  H     -1.470842   -1.039993    2.212378
  C     -1.636865    2.383930   -0.989377
  H     -2.713510    2.544112   -0.989450
  H     -1.150395    3.324557   -0.730828
  H     -1.316461    2.105275   -1.993961
  C     -1.851847    1.656922    1.403316
  H     -1.613880    2.695815    1.632889
  H     -2.937617    1.564823    1.358632
  H     -1.470864    1.039972    2.212380
  N      2.301120    0.000032    0.872224
  C      3.092968    0.000036   -0.245363
  C      4.577751   -0.000027   -0.006290
  H      5.006177   -0.878796   -0.489074
  H      5.006413    0.878084   -0.490044
  H      4.852186    0.000499    1.048339
  O      2.609093    0.000048   -1.362609
  H      2.743992    0.000035    1.775992

 Total Charge           Charge          ....    1
 Multiplicity           Mult            ....    1
 Number of Electrons    NEL             ....  116
 Basis Dimension        Dim             .... 2166

ORBITAL ENERGIES
----------------

  NO   OCC          E(Eh)            E(eV)
   0   2.0000     -20.862123      -567.6872
   1   2.0000     -20.627611      -561.3058
   2   2.0000     -15.966966      -434.4832
   3   2.0000     -15.707348      -427.4187
   4   2.0000     -11.465567      -311.9939
   5   2.0000     -11.465548      -311.9934
   6   2.0000     -11.464107      -311.9542
   7   2.0000     -11.420959      -310.7801
   8   2.0000     -11.384460      -309.7869
   9   2.0000     -11.384456      -309.7868
  10   2.0000     -11.376278      -309.5643
  11   2.0000     -11.376262      -309.5638
  12   2.0000     -11.369055      -309.3677
  13   2.0000     -11.369054      -309.3677
  14   2.0000     -11.333814      -308.4087
  15   2.0000      -1.781544       -48.4783
  16   2.0000      -1.500878       -40.8410
  17   2.0000      -1.373521       -37.3754
  18   2.0000      -1.346707       -36.6457
  19   2.0000      -1.285371       -34.9767
  20   2.0000      -1.197894       -32.5964
  21   2.0000      -1.156851       -31.4795
  22   2.0000      -1.112242       -30.2656
  23   2.0000      -1.103030       -30.0150
  24   2.0000      -1.100620       -29.9494
  25   2.0000      -1.094636       -29.7866
  26   2.0000      -1.020520       -27.7698
  27   2.0000      -0.999886       -27.2083
  28   2.0000      -0.953980       -25.9591
  29   2.0000      -0.904610       -24.6157
  30   2.0000      -0.868022       -23.6201
  31   2.0000      -0.865129       -23.5414
  32   2.0000      -0.848626       -23.0923
  33   2.0000      -0.828555       -22.5461
  34   2.0000      -0.777314       -21.1518
  35   2.0000      -0.775462       -21.1014
  36   2.0000      -0.770551       -20.9678
  37   2.0000      -0.753365       -20.5001
  38   2.0000      -0.742822       -20.2132
  39   2.0000      -0.740584       -20.1523
  40   2.0000      -0.728733       -19.8298
  41   2.0000      -0.721900       -19.6439
  42   2.0000      -0.714305       -19.4372
  43   2.0000      -0.700738       -19.0680
  44   2.0000      -0.694337       -18.8939
  45   2.0000      -0.689931       -18.7740
  46   2.0000      -0.682184       -18.5632
  47   2.0000      -0.675348       -18.3771
  48   2.0000      -0.667493       -18.1634
  49   2.0000      -0.661105       -17.9896
  50   2.0000      -0.655381       -17.8338
  51   2.0000      -0.641293       -17.4505
  52   2.0000      -0.640812       -17.4374
  53   2.0000      -0.630039       -17.1442
  54   2.0000      -0.621084       -16.9005
  55   2.0000      -0.605964       -16.4891
  56   2.0000      -0.534526       -14.5452
  57   2.0000      -0.518723       -14.1152
  58   0.0000      -0.126322        -3.4374
  59   0.0000      -0.071032        -1.9329
  60   0.0000      -0.059386        -1.6160
  61   0.0000      -0.057209        -1.5567
  62   0.0000      -0.052761        -1.4357

MULLIKEN ATOMIC CHARGES
-----------------------
   0 C :    1.183820
   1 C :    1.181823
   2 C :   -0.582066
   3 C :    1.154565
   4 C :   -0.582116
   5 H :    0.255190
   6 H :    0.171586
   7 H :    0.314349
   8 H :    0.254606
   9 H :    0.172620
  10 N :    0.777895
  11 O :   -0.945667
  12 C :   -1.049622
  13 H :    0.251020
  14 H :    0.241117
  15 H :    0.237277
  16 C :   -1.123946
  17 H :    0.243482
  18 H :    0.258526
  19 H :    0.275452
  20 C :   -1.050074
  21 H :    0.240755
  22 H :    0.250951
  23 H :    0.237322
  24 C :   -1.123600
  25 H :    0.258980
  26 H :    0.243477
  27 H :    0.275347
  28 N :   -0.859946
  29 C :    0.931933
  30 C :   -0.884313
  31 H :    0.261479
  32 H :    0.261586
  33 H :    0.237046
  34 O :   -0.934024
  35 H :   -0.036830
Sum of atomic charges:    1.0000000

LOEWDIN ATOMIC CHARGES
----------------------
   0 C :   -0.334610
   1 C :   -0.334612
   2 C :    0.539757
   3 C :    0.023077
   4 C :    0.539758
   5 H :   -0.326114
   6 H :   -0.236870
   7 H :   -0.291074
   8 H :   -0.326111
   9 H :   -0.236870
  10 N :    0.042768
  11 O :    0.843626
  12 C :    0.921421
  13 H :   -0.254399
  14 H :   -0.268971
  15 H :   -0.254393
  16 C :    0.966050
  17 H :   -0.244800
  18 H :   -0.248801
  19 H :   -0.297389
  20 C :    0.921421
  21 H :   -0.268971
  22 H :   -0.254399
  23 H :   -0.254393
  24 C :    0.966050
  25 H :   -0.248801
  26 H :   -0.244800
  27 H :   -0.297389
  28 N :    0.893369
  29 C :   -0.784236
  30 C :    0.923324
  31 H :   -0.285828
  32 H :   -0.285860
  33 H :   -0.301135
  34 O :    0.775428
  35 H :   -0.475224

  Mayer bond orders larger than 0.100000
B(  0-C ,  1-C ) :   0.1665 B(  0-C ,  4-C ) :   0.4349 B(  0-C , 10-N ) :   0.6213
B(  0-C , 13-H ) :  -0.1422 B(  0-C , 14-H ) :  -0.1901 B(  0-C , 15-H ) :  -0.2418
B(  0-C , 16-C ) :   0.3021 B(  0-C , 17-H ) :  -0.1746 B(  0-C , 19-H ) :  -0.1374
B(  1-C ,  2-C ) :   0.4346 B(  1-C , 10-N ) :   0.6224 B(  1-C , 21-H ) :  -0.1901
B(  1-C , 22-H ) :  -0.1423 B(  1-C , 23-H ) :  -0.2419 B(  1-C , 24-C ) :   0.3016
B(  1-C , 26-H ) :  -0.1750 B(  1-C , 27-H ) :  -0.1374 B(  2-C ,  3-C ) :   0.8270
B(  2-C ,  5-H ) :   1.0517 B(  2-C ,  6-H ) :   1.0123 B(  2-C , 10-N ) :   0.1236
B(  2-C , 28-N ) :   0.1761 B(  3-C ,  4-C ) :   0.8285 B(  3-C ,  7-H ) :   0.8936
B(  3-C , 10-N ) :  -0.1213 B(  3-C , 28-N ) :  -0.6353 B(  3-C , 34-O ) :   0.1879
B(  3-C , 35-H ) :  -0.2982 B(  4-C ,  8-H ) :   1.0516 B(  4-C ,  9-H ) :   1.0108
B(  4-C , 10-N ) :   0.1238 B(  4-C , 28-N ) :   0.1765 B( 10-N , 11-O ) :   1.0223
B( 10-N , 16-C ) :   0.1148 B( 10-N , 24-C ) :   0.1148 B( 12-C , 13-H ) :   1.0470
B( 12-C , 14-H ) :   1.1141 B( 12-C , 15-H ) :   1.1567 B( 12-C , 16-C ) :   0.1146
B( 16-C , 17-H ) :   1.1382 B( 16-C , 18-H ) :   0.9924 B( 16-C , 19-H ) :   1.0337
B( 20-C , 21-H ) :   1.1147 B( 20-C , 22-H ) :   1.0469 B( 20-C , 23-H ) :   1.1566
B( 20-C , 24-C ) :   0.1148 B( 24-C , 25-H ) :   0.9920 B( 24-C , 26-H ) :   1.1385
B( 24-C , 27-H ) :   1.0338 B( 28-N , 29-C ) :   1.0461 B( 28-N , 30-C ) :  -0.1281
B( 28-N , 35-H ) :   1.4164 B( 29-C , 30-C ) :   0.7376 B( 29-C , 33-H ) :  -0.1408
B( 29-C , 34-O ) :   0.9384 B( 30-C , 31-H ) :   0.9951 B( 30-C , 32-H ) :   0.9950
B( 30-C , 33-H ) :   1.0218

MP2 TOTAL ENERGY:     -690.357748471 Eh
FINAL SINGLE POINT ENERGY      -690.357748470574

DIPOLE MOMENT
-------------
                                X             Y             Z
Electronic contribution:      0.32104       0.00021      -4.57773
Nuclear contribution   :     -1.50552      -0.00028       6.28892
                        -----------------------------------------
Total Dipole Moment    :     -1.18448      -0.00006       1.71119
                        -----------------------------------------
Magnitude (a.u.)       :      2.08115
Magnitude (Debye)      :      5.28986

Rotational constants in cm-1:     0.030873     0.013826     0.012033
Rotational constants in MHz :   925.548228   414.493291   360.742842

                             ****ORCA TERMINATED NORMALLY****
TOTAL RUN TIME: 0 days 6 hours 39 minutes 42 seconds 354 msec
