                         Program Version 4.2.1 -  RELEASE  -
|  1> %pal
|  2>  nprocs 32
|  3> end
|  4> !RI-MP2 aug-cc-pVQZ aug-cc-pVQZ/C TightSCF
|  5> %maxcore 4500
|  6> *xyzfile -1 1  07_2P.xyz
|  7>
|  8>
|  9>                          ****END OF INPUT****

CARTESIAN COORDINATES (ANGSTROEM)
---------------------------------
  O     -2.349655    0.729112   -0.000033
  O     -2.266830   -1.494804    0.000010
  O     -0.310623    2.088807   -0.000039
  C     -1.691245   -0.420454    0.000000
  C     -0.208968   -0.286849    0.000009
  C      0.394189    1.011432    0.000004
  C      1.817395    1.046072   -0.000004
  H      2.288064    2.023009   -0.000021
  C      2.566504   -0.108561    0.000012
  H      3.650989   -0.036526    0.000011
  C      1.959057   -1.371019    0.000031
  C      0.577333   -1.435770    0.000025
  H      2.558335   -2.273967    0.000044
  H      0.060119   -2.388817    0.000035
  H     -1.626227    1.482275   -0.000039

 Total Charge           Charge          ....   -1
 Multiplicity           Mult            ....    1
 Number of Electrons    NEL             ....   72
 Basis Dimension        Dim             .... 1030

ORBITAL ENERGIES
----------------

  NO   OCC          E(Eh)            E(eV)
   0   2.0000     -20.403692      -555.2127
   1   2.0000     -20.360598      -554.0400
   2   2.0000     -20.345882      -553.6396
   3   2.0000     -11.207984      -304.9847
   4   2.0000     -11.150863      -303.4304
   5   2.0000     -11.110434      -302.3303
   6   2.0000     -11.102199      -302.1062
   7   2.0000     -11.080704      -301.5213
   8   2.0000     -11.076505      -301.4070
   9   2.0000     -11.071986      -301.2840
  10   2.0000      -1.272629       -34.6300
  11   2.0000      -1.188725       -32.3469
  12   2.0000      -1.160991       -31.5922
  13   2.0000      -0.998051       -27.1583
  14   2.0000      -0.885546       -24.0969
  15   2.0000      -0.845851       -23.0168
  16   2.0000      -0.715531       -19.4706
  17   2.0000      -0.666900       -18.1473
  18   2.0000      -0.639546       -17.4029
  19   2.0000      -0.573730       -15.6120
  20   2.0000      -0.530842       -14.4449
  21   2.0000      -0.514510       -14.0005
  22   2.0000      -0.469291       -12.7701
  23   2.0000      -0.465696       -12.6722
  24   2.0000      -0.455378       -12.3915
  25   2.0000      -0.440272       -11.9804
  26   2.0000      -0.415041       -11.2938
  27   2.0000      -0.389743       -10.6054
  28   2.0000      -0.383638       -10.4393
  29   2.0000      -0.359545        -9.7837
  30   2.0000      -0.321763        -8.7556
  31   2.0000      -0.294352        -8.0097
  32   2.0000      -0.281118        -7.6496
  33   2.0000      -0.252476        -6.8702
  34   2.0000      -0.207221        -5.6388
  35   2.0000      -0.141045        -3.8380
  36   0.0000       0.098223         2.6728
  37   0.0000       0.103798         2.8245
  38   0.0000       0.116748         3.1769
  39   0.0000       0.125070         3.4033
  40   0.0000       0.134416         3.6577

MULLIKEN ATOMIC CHARGES
-----------------------
   0 O :   -0.945000
   1 O :   -0.877461
   2 O :   -0.969975
   3 C :    1.556197
   4 C :   -0.765865
   5 C :    1.255404
   6 C :   -0.602403
   7 H :    0.246951
   8 C :   -0.459721
   9 H :    0.200153
  10 C :   -0.516333
  11 C :   -0.072725
  12 H :    0.242971
  13 H :    0.257156
  14 H :    0.450650
Sum of atomic charges:   -1.0000000

LOEWDIN ATOMIC CHARGES
----------------------
   0 O :    1.155152
   1 O :    0.602643
   2 O :    0.855455
   3 C :   -1.132524
   4 C :   -0.183215
   5 C :   -0.650749
   6 C :    0.282223
   7 H :   -0.360292
   8 C :    0.274255
   9 H :   -0.337236
  10 C :    0.299817
  11 C :    0.258487
  12 H :   -0.356268
  13 H :   -0.355839
  14 H :   -1.351908

  Mayer bond orders larger than 0.100000
B(  0-O ,  1-O ) :   0.1492 B(  0-O ,  3-C ) :   0.7169 B(  0-O ,  4-C ) :   0.1232
B(  0-O , 14-H ) :   0.6132 B(  1-O ,  3-C ) :   1.1190 B(  1-O ,  4-C ) :   0.4801
B(  2-O ,  4-C ) :   0.2890 B(  2-O ,  5-C ) :   0.2056 B(  2-O ,  6-C ) :   0.2993
B(  2-O , 14-H ) :   0.2234 B(  3-C ,  4-C ) :   1.3509 B(  3-C ,  5-C ) :  -0.2442
B(  3-C , 11-C ) :  -0.2448 B(  4-C ,  5-C ) :   1.0884 B(  4-C ,  6-C ) :  -0.1940
B(  4-C , 10-C ) :  -0.2443 B(  4-C , 11-C ) :   0.9467 B(  4-C , 13-H ) :  -0.1210
B(  5-C ,  6-C ) :   1.1991 B(  5-C ,  8-C ) :  -0.1419 B(  6-C ,  7-H ) :   1.0190
B(  6-C ,  8-C ) :   1.3232 B(  6-C ,  9-H ) :  -0.1505 B(  8-C ,  9-H ) :   1.1461
B(  8-C , 10-C ) :   1.2641 B( 10-C , 11-C ) :   1.2475 B( 10-C , 12-H ) :   1.1075
B( 11-C , 12-H ) :  -0.1293 B( 11-C , 13-H ) :   0.9708

MP2 TOTAL ENERGY:     -494.810553788 Eh
FINAL SINGLE POINT ENERGY      -494.810553787837

DIPOLE MOMENT
-------------
                                X             Y             Z
Electronic contribution:     -4.74250       0.71112      -0.00000
Nuclear contribution   :      6.66513      -1.14090       0.00003
                        -----------------------------------------
Total Dipole Moment    :      1.92262      -0.42978       0.00003
                        -----------------------------------------
Magnitude (a.u.)       :      1.97007
Magnitude (Debye)      :      5.00753

Rotational constants in cm-1:     0.081320     0.041579     0.027512
Rotational constants in MHz :  2437.923297  1246.509859   824.793203

                             ****ORCA TERMINATED NORMALLY****
TOTAL RUN TIME: 0 days 0 hours 36 minutes 32 seconds 348 msec
