                         Program Version 4.2.1 -  RELEASE  -
|  1> %pal
|  2>  nprocs 32
|  3> end
|  4> !RI-MP2 aug-cc-pVQZ aug-cc-pVQZ/C TightSCF
|  5> %maxcore 4500
|  6> *xyzfile 1 1  10_16TS.xyz
|  7>
|  8>
|  9>                          ****END OF INPUT****

CARTESIAN COORDINATES (ANGSTROEM)
---------------------------------
  C     -2.217554    1.179828    0.709348
  C     -2.496638    1.606990   -0.710209
  C     -3.283965    0.603421   -1.547214
  C     -2.597709   -0.750665   -1.673304
  C     -2.490539   -1.475560   -0.335395
  C     -1.507480   -0.903212    0.651502
  H     -3.438636    1.025943   -2.541418
  H     -1.546460    1.837715   -1.202144
  H     -3.054049    2.547733   -0.667731
  H     -3.042102    0.754927    1.276263
  H     -1.603912   -0.634702   -2.118497
  H     -3.165281   -1.386280   -2.354621
  H     -2.174823   -2.514098   -0.487056
  H     -3.465997   -1.525576    0.153247
  H     -4.281535    0.465212   -1.116148
  C     -1.628963   -1.372411    2.077888
  H     -0.895366   -0.899448    2.727786
  H     -1.465177   -2.453140    2.103866
  H     -2.634978   -1.185126    2.450535
  C     -1.179281    1.710126    1.404305
  H     -1.042168    1.520313    2.462093
  H     -0.510790    2.428744    0.951957
  N     -0.233449   -0.779741    0.222977
  N      0.508678    0.175826    0.329242
  C      1.878067    0.049699    0.044702
  C      2.483072   -1.167033   -0.284267
  C      2.616897    1.228280    0.122912
  C      3.838607   -1.188347   -0.536518
  H      1.888682   -2.069574   -0.341589
  C      3.977134    1.193451   -0.132255
  H      2.118739    2.153107    0.383529
  C      4.583543   -0.011255   -0.460787
  H      4.325374   -2.120050   -0.794076
  H      4.563200    2.101175   -0.075228
  H      5.647529   -0.039343   -0.660549

 Total Charge           Charge          ....    1
 Multiplicity           Mult            ....    1
 Number of Electrons    NEL             ....  116
 Basis Dimension        Dim             .... 2154

ORBITAL ENERGIES
----------------

  NO   OCC          E(Eh)            E(eV)
   0   2.0000     -15.811360      -430.2490
   1   2.0000     -15.794675      -429.7950
   2   2.0000     -11.510230      -313.2093
   3   2.0000     -11.411291      -310.5170
   4   2.0000     -11.400149      -310.2138
   5   2.0000     -11.388118      -309.8864
   6   2.0000     -11.385407      -309.8127
   7   2.0000     -11.382416      -309.7313
   8   2.0000     -11.372098      -309.4505
   9   2.0000     -11.368944      -309.3647
  10   2.0000     -11.363198      -309.2083
  11   2.0000     -11.355052      -308.9867
  12   2.0000     -11.353813      -308.9530
  13   2.0000     -11.353788      -308.9523
  14   2.0000     -11.353195      -308.9362
  15   2.0000     -11.343094      -308.6613
  16   2.0000      -1.566139       -42.6168
  17   2.0000      -1.327658       -36.1274
  18   2.0000      -1.277657       -34.7668
  19   2.0000      -1.234696       -33.5978
  20   2.0000      -1.198260       -32.6063
  21   2.0000      -1.173713       -31.9383
  22   2.0000      -1.149830       -31.2885
  23   2.0000      -1.115118       -30.3439
  24   2.0000      -1.097954       -29.8769
  25   2.0000      -1.039351       -28.2822
  26   2.0000      -0.988758       -26.9055
  27   2.0000      -0.960014       -26.1233
  28   2.0000      -0.942016       -25.6336
  29   2.0000      -0.918768       -25.0009
  30   2.0000      -0.884272       -24.0623
  31   2.0000      -0.849225       -23.1086
  32   2.0000      -0.814742       -22.1703
  33   2.0000      -0.804457       -21.8904
  34   2.0000      -0.801165       -21.8008
  35   2.0000      -0.790490       -21.5103
  36   2.0000      -0.772163       -21.0116
  37   2.0000      -0.754669       -20.5356
  38   2.0000      -0.740806       -20.1583
  39   2.0000      -0.738033       -20.0829
  40   2.0000      -0.732092       -19.9212
  41   2.0000      -0.718788       -19.5592
  42   2.0000      -0.712448       -19.3867
  43   2.0000      -0.707568       -19.2539
  44   2.0000      -0.699058       -19.0223
  45   2.0000      -0.680286       -18.5115
  46   2.0000      -0.665018       -18.0961
  47   2.0000      -0.644385       -17.5346
  48   2.0000      -0.641965       -17.4687
  49   2.0000      -0.626177       -17.0391
  50   2.0000      -0.619459       -16.8563
  51   2.0000      -0.609444       -16.5838
  52   2.0000      -0.600802       -16.3487
  53   2.0000      -0.598222       -16.2785
  54   2.0000      -0.549821       -14.9614
  55   2.0000      -0.503801       -13.7091
  56   2.0000      -0.466270       -12.6879
  57   2.0000      -0.462580       -12.5874
  58   0.0000      -0.105034        -2.8581
  59   0.0000      -0.077881        -2.1192
  60   0.0000      -0.062693        -1.7060
  61   0.0000      -0.055653        -1.5144
  62   0.0000      -0.052590        -1.4310

MULLIKEN ATOMIC CHARGES
-----------------------
   0 C :    0.153205
   1 C :   -0.415145
   2 C :   -0.570287
   3 C :   -0.492031
   4 C :   -0.678576
   5 C :    1.931815
   6 H :    0.205468
   7 H :    0.150479
   8 H :    0.311834
   9 H :    0.315435
  10 H :    0.310174
  11 H :    0.200658
  12 H :    0.247526
  13 H :    0.284070
  14 H :    0.168074
  15 C :   -1.138610
  16 H :    0.308417
  17 H :    0.302669
  18 H :    0.321916
  19 C :   -0.949157
  20 H :    0.328701
  21 H :    0.294862
  22 N :   -0.719932
  23 N :   -0.410104
  24 C :    1.170312
  25 C :   -0.479330
  26 C :   -0.449554
  27 C :   -0.332166
  28 H :    0.291414
  29 C :   -0.373453
  30 H :    0.308345
  31 C :   -0.472132
  32 H :    0.291729
  33 H :    0.260542
  34 H :    0.322830
Sum of atomic charges:    1.0000000

LOEWDIN ATOMIC CHARGES
----------------------
   0 C :    0.310858
   1 C :    0.532982
   2 C :    0.558055
   3 C :    0.562396
   4 C :    0.535780
   5 C :   -0.298221
   6 H :   -0.250456
   7 H :   -0.276141
   8 H :   -0.252583
   9 H :   -0.310852
  10 H :   -0.258713
  11 H :   -0.247543
  12 H :   -0.243493
  13 H :   -0.266356
  14 H :   -0.254861
  15 C :    0.956641
  16 H :   -0.274996
  17 H :   -0.242985
  18 H :   -0.265254
  19 C :    0.804579
  20 H :   -0.273064
  21 H :   -0.296396
  22 N :    0.421415
  23 N :    0.396770
  24 C :   -0.311037
  25 C :    0.341804
  26 C :    0.327505
  27 C :    0.376527
  28 H :   -0.318706
  29 C :    0.374556
  30 H :   -0.315012
  31 C :    0.374480
  32 H :   -0.308110
  33 H :   -0.308765
  34 H :   -0.300801

  Mayer bond orders larger than 0.100000
B(  0-C ,  1-C ) :   0.5781 B(  0-C ,  2-C ) :  -0.1269 B(  0-C ,  5-C ) :   0.1712
B(  0-C ,  9-H ) :   0.9375 B(  0-C , 19-C ) :   1.2387 B(  0-C , 20-H ) :  -0.1274
B(  0-C , 21-H ) :  -0.1314 B(  0-C , 23-N ) :   0.1332 B(  1-C ,  2-C ) :   0.9365
B(  1-C ,  7-H ) :   1.0375 B(  1-C ,  8-H ) :   0.9053 B(  2-C ,  3-C ) :   0.8601
B(  2-C ,  6-H ) :   1.0302 B(  2-C , 14-H ) :   1.0305 B(  3-C ,  4-C ) :   0.9281
B(  3-C ,  5-C ) :  -0.1743 B(  3-C , 10-H ) :   0.8782 B(  3-C , 11-H ) :   1.0607
B(  4-C ,  5-C ) :   0.2650 B(  4-C , 12-H ) :   0.9988 B(  4-C , 13-H ) :   1.0217
B(  5-C , 15-C ) :   0.3181 B(  5-C , 16-H ) :  -0.1547 B(  5-C , 17-H ) :  -0.1382
B(  5-C , 18-H ) :  -0.1021 B(  5-C , 22-N ) :   0.4978 B(  5-C , 25-C ) :  -0.1129
B(  9-H , 19-C ) :  -0.1050 B( 15-C , 16-H ) :   1.0428 B( 15-C , 17-H ) :   1.0016
B( 15-C , 18-H ) :   0.9755 B( 19-C , 20-H ) :   1.0774 B( 19-C , 21-H ) :   1.0462
B( 22-N , 23-N ) :   0.9906 B( 22-N , 28-H ) :   0.1034 B( 23-N , 24-C ) :   1.0711
B( 23-N , 25-C ) :   0.2338 B( 23-N , 26-C ) :   0.2397 B( 23-N , 31-C ) :   0.1998
B( 24-C , 25-C ) :   0.5956 B( 24-C , 26-C ) :   0.7573 B( 24-C , 27-C ) :  -0.4354
B( 24-C , 29-C ) :  -0.4961 B( 24-C , 31-C ) :  -0.2970 B( 25-C , 27-C ) :   1.2524
B( 25-C , 28-H ) :   0.9368 B( 25-C , 29-C ) :   0.1484 B( 25-C , 31-C ) :   0.1907
B( 25-C , 32-H ) :  -0.1720 B( 26-C , 27-C ) :   0.1122 B( 26-C , 29-C ) :   1.3130
B( 26-C , 30-H ) :   0.8838 B( 26-C , 31-C ) :   0.1473 B( 26-C , 33-H ) :  -0.1215
B( 27-C , 29-C ) :  -0.1033 B( 27-C , 31-C ) :   1.1066 B( 27-C , 32-H ) :   1.1162
B( 29-C , 31-C ) :   1.1719 B( 29-C , 33-H ) :   1.1368 B( 31-C , 33-H ) :  -0.1168
B( 31-C , 34-H ) :   1.0297

MP2 TOTAL ENERGY:     -652.917950716 Eh
FINAL SINGLE POINT ENERGY      -652.917950716158

DIPOLE MOMENT
-------------
                                X             Y             Z
Electronic contribution:     13.08732      -0.23917       0.63618
Nuclear contribution   :    -14.05857       0.00407       0.15661
                        -----------------------------------------
Total Dipole Moment    :     -0.97126      -0.23510       0.79279
                        -----------------------------------------
Magnitude (a.u.)       :      1.27558
Magnitude (Debye)      :      3.24228

Rotational constants in cm-1:     0.033604     0.009898     0.009489
Rotational constants in MHz :  1007.408238   296.747782   284.480707

                             ****ORCA TERMINATED NORMALLY****
TOTAL RUN TIME: 0 days 5 hours 47 minutes 35 seconds 54 msec
