                         Program Version 4.2.1 -  RELEASE  -
|  1> %pal
|  2>  nprocs 32
|  3> end
|  4> !RI-MP2 aug-cc-pVQZ aug-cc-pVQZ/C TightSCF
|  5> %maxcore 4500
|  6> *xyzfile 0 1  10_57P.xyz
|  7>
|  8>
|  9>                          ****END OF INPUT****

CARTESIAN COORDINATES (ANGSTROEM)
---------------------------------
  C     -1.122784    0.000000    0.019248
  C     -0.338912   -1.284419    0.040021
  C     -0.338912    1.284419    0.040022
  C      0.204310   -1.597390   -1.326733
  C      0.204310    1.597391   -1.326732
  C      0.575605   -0.732723   -2.274362
  C      0.575606    0.732725   -2.274362
  H      0.307161   -2.655680   -1.542948
  H      0.949680   -1.169256   -3.194906
  H      0.949680    1.169258   -3.194906
  H      0.307161    2.655681   -1.542946
  C      0.799922    1.172809    1.123619
  C      0.799922   -1.172810    1.123618
  H     -1.003990   -2.098366    0.332893
  C      1.673449    0.000000    0.745133
  C      0.179518   -0.665182    2.411412
  H      1.307828   -2.130488    1.211223
  C      0.179518    0.665180    2.411413
  H     -0.269238   -1.305663    3.159584
  H     -0.269238    1.305661    3.159585
  C      2.889735    0.000000    0.211543
  C      3.635567    1.259115   -0.128966
  C      3.635567   -1.259115   -0.128967
  H      3.096595   -2.164309    0.141922
  H      4.607409   -1.276413    0.373464
  H      3.833156   -1.299053   -1.204486
  H      3.096602    2.164309    0.141938
  H      3.833143    1.299062   -1.204487
  H      4.607415    1.276406    0.373452
  C     -2.468305    0.000000   -0.038761
  C     -3.222977   -1.216162   -0.075445
  N     -3.820442   -2.196567   -0.100790
  C     -3.222977    1.216162   -0.075444
  N     -3.820442    2.196567   -0.100789
  H     -1.003990    2.098366    0.332894
  H      1.307828    2.130487    1.211224

 Total Charge           Charge          ....    0
 Multiplicity           Mult            ....    1
 Number of Electrons    NEL             ....  138
 Basis Dimension        Dim             .... 2336

ORBITAL ENERGIES
----------------

  NO   OCC          E(Eh)            E(eV)
   0   2.0000     -15.577997      -423.8989
   1   2.0000     -15.577997      -423.8988
   2   2.0000     -11.318517      -307.9925
   3   2.0000     -11.310296      -307.7688
   4   2.0000     -11.285350      -307.0900
   5   2.0000     -11.285326      -307.0893
   6   2.0000     -11.274165      -306.7856
   7   2.0000     -11.274147      -306.7851
   8   2.0000     -11.263225      -306.4879
   9   2.0000     -11.263216      -306.4877
  10   2.0000     -11.256441      -306.3033
  11   2.0000     -11.256429      -306.3030
  12   2.0000     -11.251932      -306.1806
  13   2.0000     -11.251145      -306.1592
  14   2.0000     -11.248436      -306.0855
  15   2.0000     -11.246673      -306.0375
  16   2.0000     -11.245440      -306.0040
  17   2.0000     -11.236373      -305.7572
  18   2.0000     -11.229625      -305.5736
  19   2.0000     -11.229596      -305.5728
  20   2.0000      -1.248384       -33.9703
  21   2.0000      -1.228271       -33.4230
  22   2.0000      -1.220983       -33.2246
  23   2.0000      -1.152067       -31.3493
  24   2.0000      -1.112404       -30.2700
  25   2.0000      -1.098736       -29.8981
  26   2.0000      -1.092857       -29.7381
  27   2.0000      -1.026342       -27.9282
  28   2.0000      -0.999256       -27.1911
  29   2.0000      -0.969646       -26.3854
  30   2.0000      -0.952842       -25.9282
  31   2.0000      -0.901581       -24.5333
  32   2.0000      -0.887160       -24.1408
  33   2.0000      -0.858395       -23.3581
  34   2.0000      -0.795702       -21.6522
  35   2.0000      -0.782128       -21.2828
  36   2.0000      -0.759489       -20.6667
  37   2.0000      -0.751316       -20.4444
  38   2.0000      -0.708973       -19.2921
  39   2.0000      -0.701142       -19.0791
  40   2.0000      -0.680616       -18.5205
  41   2.0000      -0.661818       -18.0090
  42   2.0000      -0.640391       -17.4259
  43   2.0000      -0.625022       -17.0077
  44   2.0000      -0.619487       -16.8571
  45   2.0000      -0.599551       -16.3146
  46   2.0000      -0.596592       -16.2341
  47   2.0000      -0.585830       -15.9412
  48   2.0000      -0.571953       -15.5636
  49   2.0000      -0.571707       -15.5569
  50   2.0000      -0.567183       -15.4338
  51   2.0000      -0.555269       -15.1096
  52   2.0000      -0.553876       -15.0717
  53   2.0000      -0.548246       -14.9185
  54   2.0000      -0.546828       -14.8800
  55   2.0000      -0.533542       -14.5184
  56   2.0000      -0.524657       -14.2767
  57   2.0000      -0.519352       -14.1323
  58   2.0000      -0.503483       -13.7005
  59   2.0000      -0.490167       -13.3381
  60   2.0000      -0.489242       -13.3129
  61   2.0000      -0.487376       -13.2622
  62   2.0000      -0.476010       -12.9529
  63   2.0000      -0.454592       -12.3701
  64   2.0000      -0.452216       -12.3054
  65   2.0000      -0.384443       -10.4612
  66   2.0000      -0.369672       -10.0593
  67   2.0000      -0.344463        -9.3733
  68   2.0000      -0.336005        -9.1432
  69   0.0000       0.014404         0.3920
  70   0.0000       0.021168         0.5760
  71   0.0000       0.022157         0.6029
  72   0.0000       0.026315         0.7161
  73   0.0000       0.033341         0.9073

MULLIKEN ATOMIC CHARGES
-----------------------
   0 C :    0.386576
   1 C :    0.346808
   2 C :    0.342923
   3 C :   -0.383867
   4 C :   -0.381699
   5 C :   -0.174298
   6 C :   -0.176918
   7 H :    0.064994
   8 H :    0.168878
   9 H :    0.168500
  10 H :    0.064446
  11 C :    0.043871
  12 C :    0.042006
  13 H :    0.360086
  14 C :    0.831835
  15 C :   -0.589421
  16 H :    0.245193
  17 C :   -0.591084
  18 H :    0.205822
  19 H :    0.205525
  20 C :    0.268098
  21 C :   -1.157462
  22 C :   -1.158529
  23 H :    0.259933
  24 H :    0.284328
  25 H :    0.151924
  26 H :    0.259166
  27 H :    0.152264
  28 H :    0.284854
  29 C :   -0.403412
  30 C :    0.613973
  31 N :   -0.977219
  32 C :    0.613042
  33 N :   -0.977286
  34 H :    0.361044
  35 H :    0.245105
Sum of atomic charges:   -0.0000000

LOEWDIN ATOMIC CHARGES
----------------------
   0 C :   -0.119602
   1 C :    0.126648
   2 C :    0.126648
   3 C :    0.419739
   4 C :    0.419740
   5 C :    0.396498
   6 C :    0.396498
   7 H :   -0.290884
   8 H :   -0.333353
   9 H :   -0.333353
  10 H :   -0.290885
  11 C :    0.128166
  12 C :    0.128166
  13 H :   -0.334332
  14 C :   -0.073332
  15 C :    0.437803
  16 H :   -0.273041
  17 C :    0.437804
  18 H :   -0.265828
  19 H :   -0.265828
  20 C :    0.008302
  21 C :    0.918174
  22 C :    0.918174
  23 H :   -0.316604
  24 H :   -0.270040
  25 H :   -0.271814
  26 H :   -0.316604
  27 H :   -0.271814
  28 H :   -0.270041
  29 C :   -0.194425
  30 C :   -0.338232
  31 N :    0.456628
  32 C :   -0.338232
  33 N :    0.456628
  34 H :   -0.334332
  35 H :   -0.273042

  Mayer bond orders larger than 0.100000
B(  0-C ,  3-C ) :   0.1421 B(  0-C ,  4-C ) :   0.1407 B(  0-C , 13-H ) :  -0.1455
B(  0-C , 15-C ) :   0.1135 B(  0-C , 17-C ) :   0.1139 B(  0-C , 29-C ) :   1.7444
B(  0-C , 30-C ) :  -0.3201 B(  0-C , 31-N ) :   0.1282 B(  0-C , 32-C ) :  -0.3222
B(  0-C , 33-N ) :   0.1297 B(  0-C , 34-H ) :  -0.1456 B(  1-C ,  3-C ) :   0.8518
B(  1-C ,  5-C ) :  -0.1187 B(  1-C , 12-C ) :   0.8949 B(  1-C , 13-H ) :   0.9008
B(  1-C , 29-C ) :  -0.2608 B(  2-C ,  4-C ) :   0.8525 B(  2-C ,  6-C ) :  -0.1174
B(  2-C , 11-C ) :   0.8923 B(  2-C , 29-C ) :  -0.2581 B(  2-C , 34-H ) :   0.8997
B(  3-C ,  4-C ) :   0.2562 B(  3-C ,  5-C ) :   1.5693 B(  3-C ,  7-H ) :   1.2416
B(  3-C ,  8-H ) :  -0.1539 B(  4-C ,  6-C ) :   1.5690 B(  4-C ,  9-H ) :  -0.1541
B(  4-C , 10-H ) :   1.2416 B(  5-C ,  6-C ) :   0.7622 B(  5-C ,  7-H ) :  -0.1061
B(  5-C ,  8-H ) :   1.1410 B(  6-C ,  9-H ) :   1.1414 B(  6-C , 10-H ) :  -0.1066
B( 11-C , 14-C ) :   0.7675 B( 11-C , 15-C ) :  -0.3003 B( 11-C , 17-C ) :   0.8741
B( 11-C , 19-H ) :  -0.1063 B( 11-C , 20-C ) :  -0.1822 B( 11-C , 35-H ) :   1.0357
B( 12-C , 14-C ) :   0.7681 B( 12-C , 15-C ) :   0.8768 B( 12-C , 16-H ) :   1.0341
B( 12-C , 17-C ) :  -0.2985 B( 12-C , 18-H ) :  -0.1061 B( 12-C , 20-C ) :  -0.1839
B( 14-C , 20-C ) :   0.5092 B( 14-C , 23-H ) :   0.1164 B( 14-C , 26-H ) :   0.1164
B( 15-C , 16-H ) :  -0.1054 B( 15-C , 17-C ) :   1.6906 B( 15-C , 18-H ) :   1.2196
B( 15-C , 19-H ) :  -0.1156 B( 17-C , 18-H ) :  -0.1159 B( 17-C , 19-H ) :   1.2202
B( 17-C , 35-H ) :  -0.1057 B( 20-C , 21-C ) :   0.4153 B( 20-C , 22-C ) :   0.4139
B( 20-C , 23-H ) :  -0.1603 B( 20-C , 24-H ) :  -0.2052 B( 20-C , 25-H ) :  -0.1495
B( 20-C , 26-H ) :  -0.1599 B( 20-C , 27-H ) :  -0.1493 B( 20-C , 28-H ) :  -0.2044
B( 21-C , 26-H ) :   1.0868 B( 21-C , 27-H ) :   1.1523 B( 21-C , 28-H ) :   1.0850
B( 22-C , 23-H ) :   1.0862 B( 22-C , 24-H ) :   1.0859 B( 22-C , 25-H ) :   1.1529
B( 29-C , 30-C ) :   1.4028 B( 29-C , 32-C ) :   1.4022 B( 30-C , 31-N ) :   2.0704
B( 32-C , 33-N ) :   2.0705

MP2 TOTAL ENERGY:     -803.516265727 Eh
FINAL SINGLE POINT ENERGY      -803.516265726977

DIPOLE MOMENT
-------------
                                X             Y             Z
Electronic contribution:    -22.55993      -0.00000       1.56602
Nuclear contribution   :     25.49765       0.00000      -1.44120
                        -----------------------------------------
Total Dipole Moment    :      2.93772       0.00000       0.12482
                        -----------------------------------------
Magnitude (a.u.)       :      2.94037
Magnitude (Debye)      :      7.47383

Rotational constants in cm-1:     0.020627     0.009804     0.009667
Rotational constants in MHz :   618.372743   293.909639   289.796113

                             ****ORCA TERMINATED NORMALLY****
TOTAL RUN TIME: 0 days 9 hours 0 minutes 49 seconds 435 msec
