                         Program Version 4.2.1 -  RELEASE  -
|  1> %pal
|  2>  nprocs 32
|  3> end
|  4> !RI-MP2 aug-cc-pVQZ aug-cc-pVQZ/C TightSCF
|  5> %maxcore 4500
|  6> *xyzfile 0 1  10_57TS.xyz
|  7>
|  8>
|  9>                          ****END OF INPUT****

CARTESIAN COORDINATES (ANGSTROEM)
---------------------------------
  C     -1.079070    0.733447    0.170644
  C     -0.343492    0.845373   -1.095071
  C     -0.432830    0.767279    1.428770
  C      0.701686    1.811735   -1.290498
  C      0.789733    1.345387    1.773201
  C      1.602735    2.294316   -0.391224
  C      1.697339    2.014304    0.986236
  H      0.816627    2.147033   -2.316421
  H      2.352960    2.972326   -0.785950
  H      2.553782    2.438892    1.499014
  H      1.035935    1.283142    2.828438
  C      0.468799   -1.751337    0.834406
  H     -1.042799    0.448613    2.265646
  C      0.389208   -0.950233   -1.346076
  H     -1.007629    0.812670   -1.950252
  C      1.295009   -1.128366   -0.175092
  C     -0.727930   -1.793884   -1.090592
  H      0.772351   -0.833303   -2.350291
  C     -0.690628   -2.221165    0.235799
  H      0.762065   -1.947433    1.853498
  H     -1.524830   -1.992060   -1.792838
  H     -1.469049   -2.781675    0.733388
  C      2.611257   -0.845251   -0.098955
  C      3.426027   -1.132411    1.125200
  C      3.397324   -0.338522   -1.268353
  H      2.771286    0.002229   -2.088578
  H      4.047550   -1.136570   -1.643378
  H      4.048574    0.484802   -0.967405
  H      2.822551   -1.407117    1.986553
  H      4.026470   -0.259115    1.390244
  H      4.126743   -1.949705    0.925377
  C     -2.417195    0.357238    0.091920
  C     -3.105482    0.277021   -1.146083
  N     -3.645793    0.213134   -2.162082
  C     -3.160079    0.036209    1.257975
  N     -3.729501   -0.243073    2.219183

 Total Charge           Charge          ....    0
 Multiplicity           Mult            ....    1
 Number of Electrons    NEL             ....  138
 Basis Dimension        Dim             .... 2336

ORBITAL ENERGIES
----------------

  NO   OCC          E(Eh)            E(eV)
   0   2.0000     -15.550335      -423.1461
   1   2.0000     -15.549632      -423.1270
   2   2.0000     -11.299227      -307.4676
   3   2.0000     -11.296788      -307.4012
   4   2.0000     -11.292436      -307.2828
   5   2.0000     -11.283802      -307.0479
   6   2.0000     -11.276077      -306.8377
   7   2.0000     -11.274407      -306.7922
   8   2.0000     -11.267587      -306.6066
   9   2.0000     -11.265265      -306.5434
  10   2.0000     -11.261864      -306.4509
  11   2.0000     -11.260464      -306.4128
  12   2.0000     -11.259176      -306.3777
  13   2.0000     -11.257444      -306.3306
  14   2.0000     -11.256057      -306.2929
  15   2.0000     -11.254814      -306.2591
  16   2.0000     -11.254172      -306.2416
  17   2.0000     -11.251950      -306.1811
  18   2.0000     -11.250964      -306.1543
  19   2.0000     -11.249638      -306.1182
  20   2.0000      -1.225292       -33.3419
  21   2.0000      -1.209768       -32.9195
  22   2.0000      -1.203174       -32.7400
  23   2.0000      -1.165737       -31.7213
  24   2.0000      -1.122886       -30.5553
  25   2.0000      -1.105909       -30.0933
  26   2.0000      -1.078561       -29.3491
  27   2.0000      -1.018729       -27.7210
  28   2.0000      -1.000024       -27.2120
  29   2.0000      -0.984171       -26.7807
  30   2.0000      -0.973682       -26.4952
  31   2.0000      -0.923168       -25.1207
  32   2.0000      -0.896597       -24.3976
  33   2.0000      -0.854408       -23.2496
  34   2.0000      -0.787050       -21.4167
  35   2.0000      -0.768010       -20.8986
  36   2.0000      -0.765272       -20.8241
  37   2.0000      -0.749041       -20.3824
  38   2.0000      -0.727222       -19.7887
  39   2.0000      -0.709834       -19.3156
  40   2.0000      -0.700467       -19.0607
  41   2.0000      -0.657597       -17.8941
  42   2.0000      -0.640839       -17.4381
  43   2.0000      -0.633960       -17.2509
  44   2.0000      -0.622395       -16.9362
  45   2.0000      -0.615355       -16.7447
  46   2.0000      -0.607038       -16.5184
  47   2.0000      -0.592256       -16.1161
  48   2.0000      -0.580860       -15.8060
  49   2.0000      -0.573198       -15.5975
  50   2.0000      -0.570317       -15.5191
  51   2.0000      -0.562837       -15.3156
  52   2.0000      -0.549129       -14.9426
  53   2.0000      -0.548747       -14.9322
  54   2.0000      -0.545424       -14.8417
  55   2.0000      -0.538704       -14.6589
  56   2.0000      -0.529447       -14.4070
  57   2.0000      -0.523898       -14.2560
  58   2.0000      -0.520038       -14.1509
  59   2.0000      -0.503498       -13.7009
  60   2.0000      -0.474501       -12.9118
  61   2.0000      -0.468366       -12.7449
  62   2.0000      -0.465204       -12.6588
  63   2.0000      -0.447837       -12.1863
  64   2.0000      -0.436208       -11.8698
  65   2.0000      -0.402427       -10.9506
  66   2.0000      -0.356056        -9.6888
  67   2.0000      -0.312931        -8.5153
  68   2.0000      -0.259161        -7.0521
  69   0.0000       0.003330         0.0906
  70   0.0000       0.009410         0.2560
  71   0.0000       0.018016         0.4902
  72   0.0000       0.020615         0.5610
  73   0.0000       0.025665         0.6984

MULLIKEN ATOMIC CHARGES
-----------------------
   0 C :    1.398111
   1 C :    0.420876
   2 C :   -0.160645
   3 C :   -0.568512
   4 C :   -0.359083
   5 C :   -0.245369
   6 C :   -0.386423
   7 H :    0.075134
   8 H :    0.141930
   9 H :    0.181182
  10 H :    0.132538
  11 C :   -0.525319
  12 H :    0.238477
  13 C :    0.325137
  14 H :    0.382348
  15 C :    0.291744
  16 C :   -0.691750
  17 H :    0.259260
  18 C :   -0.420344
  19 H :    0.201858
  20 H :    0.260294
  21 H :    0.149553
  22 C :    1.212630
  23 C :   -1.183125
  24 C :   -1.065429
  25 H :    0.297926
  26 H :    0.294875
  27 H :    0.151990
  28 H :    0.285094
  29 H :    0.143637
  30 H :    0.311284
  31 C :   -0.582767
  32 C :    0.428273
  33 N :   -0.990639
  34 C :    0.583009
  35 N :   -0.987755
Sum of atomic charges:   -0.0000000

LOEWDIN ATOMIC CHARGES
----------------------
   0 C :   -0.147994
   1 C :    0.228336
   2 C :    0.339630
   3 C :    0.397078
   4 C :    0.367629
   5 C :    0.350728
   6 C :    0.353078
   7 H :   -0.304077
   8 H :   -0.320662
   9 H :   -0.328269
  10 H :   -0.315602
  11 C :    0.358548
  12 H :   -0.370105
  13 C :    0.233078
  14 H :   -0.386273
  15 C :   -0.106437
  16 C :    0.371504
  17 H :   -0.277664
  18 C :    0.388644
  19 H :   -0.274683
  20 H :   -0.267250
  21 H :   -0.274612
  22 C :   -0.001313
  23 C :    0.929105
  24 C :    0.925380
  25 H :   -0.321298
  26 H :   -0.253686
  27 H :   -0.275367
  28 H :   -0.315210
  29 H :   -0.276295
  30 H :   -0.258067
  31 C :   -0.283089
  32 C :   -0.396091
  33 N :    0.455998
  34 C :   -0.388944
  35 N :    0.444252

  Mayer bond orders larger than 0.100000
B(  0-C ,  1-C ) :   0.8331 B(  0-C ,  2-C ) :   1.1199 B(  0-C ,  3-C ) :   0.1009
B(  0-C ,  4-C ) :  -0.3414 B(  0-C ,  5-C ) :  -0.1122 B(  0-C , 14-H ) :  -0.1147
B(  0-C , 31-C ) :   0.5588 B(  0-C , 32-C ) :  -0.5351 B(  0-C , 33-N ) :  -0.1022
B(  0-C , 34-C ) :  -0.5224 B(  1-C ,  2-C ) :  -0.1634 B(  1-C ,  3-C ) :   0.7851
B(  1-C ,  7-H ) :  -0.1623 B(  1-C , 13-C ) :   0.3086 B(  1-C , 14-H ) :   0.9313
B(  1-C , 31-C ) :  -0.2525 B(  1-C , 33-N ) :   0.1126 B(  2-C ,  4-C ) :   0.9994
B(  2-C , 10-H ) :  -0.1731 B(  2-C , 12-H ) :   1.0438 B(  2-C , 16-C ) :   0.1385
B(  2-C , 31-C ) :  -0.2758 B(  2-C , 32-C ) :  -0.1040 B(  2-C , 34-C ) :   0.1071
B(  3-C ,  4-C ) :   0.2413 B(  3-C ,  5-C ) :   1.2563 B(  3-C ,  7-H ) :   1.3275
B(  3-C ,  8-H ) :  -0.1881 B(  3-C , 14-H ) :  -0.1812 B(  4-C ,  6-C ) :   1.3234
B(  4-C ,  9-H ) :  -0.1798 B(  4-C , 10-H ) :   1.2405 B(  5-C ,  6-C ) :   1.0392
B(  5-C ,  7-H ) :  -0.1475 B(  5-C ,  8-H ) :   1.2054 B(  5-C ,  9-H ) :  -0.1281
B(  6-C ,  9-H ) :   1.1685 B(  6-C , 15-C ) :   0.1048 B( 11-C , 15-C ) :   0.9684
B( 11-C , 18-C ) :   1.2835 B( 11-C , 19-H ) :   1.1018 B( 11-C , 21-H ) :  -0.1117
B( 11-C , 22-C ) :  -0.3200 B( 13-C , 15-C ) :   0.8570 B( 13-C , 16-C ) :   0.7869
B( 13-C , 17-H ) :   1.0124 B( 13-C , 18-C ) :  -0.3947 B( 13-C , 22-C ) :  -0.3441
B( 13-C , 32-C ) :   0.1129 B( 15-C , 16-C ) :   0.1069 B( 15-C , 18-C ) :  -0.2529
B( 15-C , 22-C ) :   0.6614 B( 15-C , 28-H ) :   0.1052 B( 16-C , 17-H ) :  -0.2107
B( 16-C , 18-C ) :   1.3042 B( 16-C , 20-H ) :   1.1752 B( 16-C , 22-C ) :  -0.1143
B( 18-C , 21-H ) :   1.3072 B( 22-C , 23-C ) :   0.3497 B( 22-C , 24-C ) :   0.1100
B( 22-C , 25-H ) :  -0.1465 B( 22-C , 26-H ) :  -0.1648 B( 22-C , 27-H ) :  -0.2353
B( 22-C , 28-H ) :  -0.1344 B( 22-C , 29-H ) :  -0.1799 B( 22-C , 30-H ) :  -0.1862
B( 23-C , 28-H ) :   1.0387 B( 23-C , 29-H ) :   1.1808 B( 23-C , 30-H ) :   1.0518
B( 24-C , 25-H ) :   1.0611 B( 24-C , 26-H ) :   1.0517 B( 24-C , 27-H ) :   1.2021
B( 31-C , 32-C ) :   1.4297 B( 31-C , 34-C ) :   1.6187 B( 31-C , 35-N ) :   0.1666
B( 32-C , 33-N ) :   1.9996 B( 34-C , 35-N ) :   1.9430

MP2 TOTAL ENERGY:     -803.496161088 Eh
FINAL SINGLE POINT ENERGY      -803.496161088287

DIPOLE MOMENT
-------------
                                X             Y             Z
Electronic contribution:    -20.54533       1.30624       0.21770
Nuclear contribution   :     24.93711      -1.70975      -0.41077
                        -----------------------------------------
Total Dipole Moment    :      4.39178      -0.40351      -0.19308
                        -----------------------------------------
Magnitude (a.u.)       :      4.41450
Magnitude (Debye)      :     11.22077

Rotational constants in cm-1:     0.019968     0.009943     0.009826
Rotational constants in MHz :   598.615418   298.078133   294.589580

                             ****ORCA TERMINATED NORMALLY****
TOTAL RUN TIME: 0 days 11 hours 15 minutes 15 seconds 86 msec
