                         Program Version 4.2.1 -  RELEASE  -
|  1> %pal
|  2>  nprocs 32
|  3> end
|  4> !RI-MP2 aug-cc-pVQZ aug-cc-pVQZ/C TightSCF
|  5> %maxcore 4500
|  6> *xyzfile 0 1  02_29R1.xyz
|  7>
|  8>
|  9>                          ****END OF INPUT****

CARTESIAN COORDINATES (ANGSTROEM)
---------------------------------
  C     -0.410675   -0.521097   -1.362061
  C      0.410675    0.521097   -1.362061
  C     -0.037778    1.866525   -0.904590
  H      0.513882    2.694785   -1.356692
  H     -1.099396    2.009700   -1.126362
  C      0.037778   -1.866525   -0.904590
  H     -0.513882   -2.694785   -1.356692
  H      1.099396   -2.009700   -1.126362
  C      0.171289    1.876580    0.631607
  H     -0.271611    2.791041    1.038301
  H      1.244420    1.940147    0.842509
  C     -0.171289   -1.876580    0.631607
  H      0.271611   -2.791041    1.038301
  H     -1.244420   -1.940147    0.842509
  C      0.410675   -0.662047    1.384619
  H      0.535039   -0.972778    2.425528
  H      1.423530   -0.465576    1.019650
  C     -0.410675    0.662047    1.384619
  H     -0.535039    0.972778    2.425528
  H     -1.423530    0.465576    1.019650
  H     -1.484043   -0.338066   -1.340386
  H      1.484043    0.338066   -1.340386

 Total Charge           Charge          ....    0
 Multiplicity           Mult            ....    1
 Number of Electrons    NEL             ....   62
 Basis Dimension        Dim             .... 1284

ORBITAL ENERGIES
----------------

  NO   OCC          E(Eh)            E(eV)
   0   2.0000     -11.219443      -305.2966
   1   2.0000     -11.219438      -305.2964
   2   2.0000     -11.218521      -305.2715
   3   2.0000     -11.218516      -305.2714
   4   2.0000     -11.215365      -305.1856
   5   2.0000     -11.214829      -305.1710
   6   2.0000     -11.213492      -305.1346
   7   2.0000     -11.211704      -305.0860
   8   2.0000      -1.116352       -30.3775
   9   2.0000      -1.048684       -28.5361
  10   2.0000      -1.035277       -28.1713
  11   2.0000      -0.917862       -24.9763
  12   2.0000      -0.908419       -24.7193
  13   2.0000      -0.785446       -21.3731
  14   2.0000      -0.774988       -21.0885
  15   2.0000      -0.747863       -20.3504
  16   2.0000      -0.636505       -17.3202
  17   2.0000      -0.632063       -17.1993
  18   2.0000      -0.621894       -16.9226
  19   2.0000      -0.578120       -15.7315
  20   2.0000      -0.557626       -15.1738
  21   2.0000      -0.554643       -15.0926
  22   2.0000      -0.526624       -14.3302
  23   2.0000      -0.524700       -14.2778
  24   2.0000      -0.500110       -13.6087
  25   2.0000      -0.479599       -13.0506
  26   2.0000      -0.468704       -12.7541
  27   2.0000      -0.455766       -12.4020
  28   2.0000      -0.443883       -12.0787
  29   2.0000      -0.432154       -11.7595
  30   2.0000      -0.331152        -9.0111
  31   0.0000       0.026461         0.7200
  32   0.0000       0.029144         0.7930
  33   0.0000       0.031045         0.8448
  34   0.0000       0.032231         0.8771
  35   0.0000       0.043589         1.1861

MULLIKEN ATOMIC CHARGES
-----------------------
   0 C :   -0.230004
   1 C :   -0.230000
   2 C :   -0.566187
   3 H :    0.271335
   4 H :    0.178934
   5 C :   -0.566185
   6 H :    0.271332
   7 H :    0.178934
   8 C :   -0.547126
   9 H :    0.268839
  10 H :    0.245162
  11 C :   -0.547124
  12 H :    0.268844
  13 H :    0.245157
  14 C :   -0.471335
  15 H :    0.277531
  16 H :    0.302099
  17 C :   -0.471341
  18 H :    0.277547
  19 H :    0.302089
  20 H :    0.270749
  21 H :    0.270750
Sum of atomic charges:   -0.0000000

LOEWDIN ATOMIC CHARGES
----------------------
   0 C :    0.358585
   1 C :    0.358585
   2 C :    0.513289
   3 H :   -0.269809
   4 H :   -0.290310
   5 C :    0.513289
   6 H :   -0.269809
   7 H :   -0.290310
   8 C :    0.540067
   9 H :   -0.266885
  10 H :   -0.272071
  11 C :    0.540067
  12 H :   -0.266885
  13 H :   -0.272071
  14 C :    0.552588
  15 H :   -0.276394
  16 H :   -0.290081
  17 C :    0.552588
  18 H :   -0.276394
  19 H :   -0.290081
  20 H :   -0.298979
  21 H :   -0.298979

  Mayer bond orders larger than 0.100000
B(  0-C ,  1-C ) :   1.6256 B(  0-C ,  5-C ) :   0.8066 B(  0-C ,  6-H ) :  -0.1444
B(  0-C , 20-H ) :   0.9920 B(  1-C ,  2-C ) :   0.8066 B(  1-C ,  3-H ) :  -0.1444
B(  1-C , 21-H ) :   0.9920 B(  2-C ,  3-H ) :   0.9845 B(  2-C ,  4-H ) :   1.0305
B(  2-C ,  8-C ) :   0.9417 B(  5-C ,  6-H ) :   0.9845 B(  5-C ,  7-H ) :   1.0305
B(  5-C , 11-C ) :   0.9417 B(  8-C ,  9-H ) :   0.9465 B(  8-C , 10-H ) :   0.9247
B(  8-C , 17-C ) :   0.8075 B( 11-C , 12-H ) :   0.9465 B( 11-C , 13-H ) :   0.9247
B( 11-C , 14-C ) :   0.8075 B( 14-C , 15-H ) :   0.9634 B( 14-C , 16-H ) :   0.9140
B( 14-C , 17-C ) :   0.9051 B( 17-C , 18-H ) :   0.9634 B( 17-C , 19-H ) :   0.9140

MP2 TOTAL ENERGY:     -312.638559948 Eh
FINAL SINGLE POINT ENERGY      -312.638559947880

DIPOLE MOMENT
-------------
                                X             Y             Z
Electronic contribution:      0.00000       0.00000      -2.82984
Nuclear contribution   :      0.00000       0.00000       3.17527
                        -----------------------------------------
Total Dipole Moment    :      0.00000       0.00000       0.34543
                        -----------------------------------------
Magnitude (a.u.)       :      0.34543
Magnitude (Debye)      :      0.87802

Rotational constants in cm-1:     0.098411     0.065296     0.044207
Rotational constants in MHz :  2950.292957  1957.531261  1325.292366

                             ****ORCA TERMINATED NORMALLY****
TOTAL RUN TIME: 0 days 0 hours 55 minutes 51 seconds 927 msec
