                         Program Version 4.2.1 -  RELEASE  -
|  1> %pal
|  2>  nprocs 32
|  3> end
|  4> !RI-MP2 aug-cc-pVQZ aug-cc-pVQZ/C TightSCF
|  5> %maxcore 4500
|  6> *xyzfile -1 1  02_13P.xyz
|  7>
|  8>
|  9>                          ****END OF INPUT****

CARTESIAN COORDINATES (ANGSTROEM)
---------------------------------
  C      4.639485   -1.711255   -0.278448
  C      3.138557   -1.489059   -0.465383
  H      2.578319   -2.285959    0.020528
  H      2.890397   -1.518068   -1.534928
  H      4.940395   -2.666287   -0.721301
  H      4.850103   -1.786201    0.795253
  C      2.704981   -0.138062    0.107249
  C      1.208083    0.144211   -0.028402
  C      3.504908    0.976759   -0.581238
  C      3.027163    2.339496   -0.174120
  C      1.833184    2.557307    0.361781
  C      0.817719    1.485893    0.644259
  C      0.583987    1.387893    2.158520
  H      1.467047    0.999111    2.670000
  H     -0.250684    0.725494    2.389576
  H      0.362551    2.377662    2.569849
  C      0.326170   -0.968614    0.547868
  C     -1.025622   -1.052265    0.055185
  O      0.785052   -1.694841    1.424493
  C     -2.054894   -1.924840    0.619494
  C     -1.599034   -0.306406   -1.007331
  O     -1.146583    0.571525   -1.752442
  O     -2.053023   -2.639507    1.607851
  C     -3.071809   -0.728510   -1.144061
  H     -3.221433   -1.081952   -2.171653
  C     -4.015446    0.461545   -0.908230
  C     -3.840333    1.067100    0.487992
  H     -4.148305    0.336962    1.243653
  H     -2.776480    1.244807    0.659025
  C     -4.598659    2.374634    0.696531
  H     -4.317737    3.112462   -0.060907
  H     -4.372178    2.803202    1.675966
  H     -5.681720    2.238076    0.642789
  N     -3.186942   -1.811200   -0.195659
  H     -4.065914   -2.074977    0.219977
  C     -5.465137    0.070600   -1.195126
  H     -6.134270    0.933124   -1.161815
  H     -5.833096   -0.655387   -0.462077
  H     -5.556076   -0.381666   -2.186216
  H     -3.703432    1.212706   -1.642717
  C      5.005694    0.785945   -0.351373
  H      5.565460    1.591929   -0.839766
  H      5.213194    0.863475    0.723039
  C      5.469618   -0.573205   -0.872320
  H      6.533300   -0.722089   -0.657753
  H      5.364977   -0.585942   -1.964443
  H      3.700627    3.176166   -0.351702
  H      1.550239    3.571152    0.638555
  H     -0.123008    1.796515    0.179573
  H      0.963036    0.258634   -1.087264
  H      2.963788   -0.133860    1.173146
  H      3.334241    0.876915   -1.665070

 Total Charge           Charge          ....   -1
 Multiplicity           Mult            ....    1
 Number of Electrons    NEL             ....  180
 Basis Dimension        Dim             .... 3208

ORBITAL ENERGIES
----------------

  NO   OCC          E(Eh)            E(eV)
   0   2.0000     -20.371130      -554.3266
   1   2.0000     -20.366916      -554.2120
   2   2.0000     -20.360851      -554.0469
   3   2.0000     -15.431590      -419.9149
   4   2.0000     -11.194889      -304.6284
   5   2.0000     -11.174945      -304.0857
   6   2.0000     -11.170721      -303.9708
   7   2.0000     -11.140044      -303.1360
   8   2.0000     -11.125243      -302.7332
   9   2.0000     -11.125089      -302.7291
  10   2.0000     -11.124051      -302.7008
  11   2.0000     -11.123851      -302.6954
  12   2.0000     -11.123138      -302.6760
  13   2.0000     -11.118724      -302.5559
  14   2.0000     -11.117170      -302.5136
  15   2.0000     -11.116749      -302.5021
  16   2.0000     -11.115716      -302.4740
  17   2.0000     -11.114635      -302.4446
  18   2.0000     -11.112043      -302.3741
  19   2.0000     -11.102899      -302.1252
  20   2.0000     -11.097301      -301.9729
  21   2.0000     -11.096446      -301.9496
  22   2.0000     -11.092091      -301.8311
  23   2.0000     -11.053374      -300.7776
  24   2.0000      -1.230451       -33.4823
  25   2.0000      -1.213379       -33.0177
  26   2.0000      -1.211890       -32.9772
  27   2.0000      -1.105305       -30.0769
  28   2.0000      -1.041318       -28.3357
  29   2.0000      -0.987321       -26.8664
  30   2.0000      -0.985677       -26.8216
  31   2.0000      -0.934113       -25.4185
  32   2.0000      -0.908003       -24.7080
  33   2.0000      -0.902693       -24.5635
  34   2.0000      -0.896448       -24.3936
  35   2.0000      -0.874039       -23.7838
  36   2.0000      -0.832856       -22.6632
  37   2.0000      -0.815258       -22.1843
  38   2.0000      -0.767168       -20.8757
  39   2.0000      -0.742722       -20.2105
  40   2.0000      -0.728395       -19.8206
  41   2.0000      -0.713968       -19.4281
  42   2.0000      -0.678128       -18.4528
  43   2.0000      -0.667408       -18.1611
  44   2.0000      -0.658039       -17.9062
  45   2.0000      -0.620515       -16.8851
  46   2.0000      -0.594818       -16.1858
  47   2.0000      -0.571868       -15.5613
  48   2.0000      -0.552123       -15.0240
  49   2.0000      -0.540706       -14.7134
  50   2.0000      -0.535290       -14.5660
  51   2.0000      -0.532817       -14.4987
  52   2.0000      -0.522876       -14.2282
  53   2.0000      -0.517505       -14.0820
  54   2.0000      -0.511005       -13.9052
  55   2.0000      -0.498825       -13.5737
  56   2.0000      -0.486904       -13.2493
  57   2.0000      -0.482165       -13.1204
  58   2.0000      -0.476688       -12.9713
  59   2.0000      -0.474942       -12.9238
  60   2.0000      -0.464891       -12.6503
  61   2.0000      -0.462362       -12.5815
  62   2.0000      -0.453225       -12.3329
  63   2.0000      -0.447716       -12.1830
  64   2.0000      -0.435896       -11.8613
  65   2.0000      -0.423865       -11.5340
  66   2.0000      -0.420910       -11.4535
  67   2.0000      -0.419695       -11.4205
  68   2.0000      -0.411727       -11.2037
  69   2.0000      -0.410325       -11.1655
  70   2.0000      -0.406386       -11.0583
  71   2.0000      -0.399111       -10.8604
  72   2.0000      -0.388155       -10.5622
  73   2.0000      -0.379941       -10.3387
  74   2.0000      -0.376700       -10.2505
  75   2.0000      -0.374287       -10.1849
  76   2.0000      -0.366923        -9.9845
  77   2.0000      -0.365807        -9.9541
  78   2.0000      -0.363329        -9.8867
  79   2.0000      -0.355304        -9.6683
  80   2.0000      -0.343151        -9.3376
  81   2.0000      -0.336919        -9.1680
  82   2.0000      -0.317289        -8.6339
  83   2.0000      -0.304900        -8.2968
  84   2.0000      -0.291566        -7.9339
  85   2.0000      -0.258303        -7.0288
  86   2.0000      -0.246993        -6.7210
  87   2.0000      -0.240550        -6.5457
  88   2.0000      -0.238136        -6.4800
  89   2.0000      -0.175171        -4.7667
  90   0.0000       0.081182         2.2091
  91   0.0000       0.081677         2.2225
  92   0.0000       0.087931         2.3927
  93   0.0000       0.091456         2.4886
  94   0.0000       0.095678         2.6035

MULLIKEN ATOMIC CHARGES
-----------------------
   0 C :   -0.562414
   1 C :   -0.660201
   2 H :    0.280441
   3 H :    0.129154
   4 H :    0.178513
   5 H :    0.072726
   6 C :    1.087980
   7 C :    0.057204
   8 C :    0.791781
   9 C :   -0.858222
  10 C :   -0.426732
  11 C :   -0.223915
  12 C :   -1.317874
  13 H :    0.327997
  14 H :    0.263379
  15 H :    0.052223
  16 C :    2.702021
  17 C :   -1.556049
  18 O :   -1.419964
  19 C :    1.443949
  20 C :    1.253041
  21 O :   -1.335547
  22 O :   -1.162219
  23 C :    0.266283
  24 H :    0.361230
  25 C :    0.576077
  26 C :   -0.538699
  27 H :    0.125715
  28 H :    0.426743
  29 C :   -1.039269
  30 H :    0.180995
  31 H :    0.250995
  32 H :    0.224536
  33 N :   -1.129014
  34 H :    0.089175
  35 C :   -1.153433
  36 H :    0.245472
  37 H :    0.175268
  38 H :    0.229688
  39 H :    0.200400
  40 C :   -0.632258
  41 H :    0.165432
  42 H :    0.127915
  43 C :   -0.571435
  44 H :    0.212325
  45 H :    0.065616
  46 H :    0.037188
  47 H :    0.071441
  48 H :    0.496611
  49 H :    0.024492
  50 H :    0.129010
  51 H :    0.264226
Sum of atomic charges:   -1.0000000

LOEWDIN ATOMIC CHARGES
----------------------
   0 C :    0.548658
   1 C :    0.546572
   2 H :   -0.315636
   3 H :   -0.245502
   4 H :   -0.259492
   5 H :   -0.260212
   6 C :    0.103140
   7 C :    0.082661
   8 C :    0.099501
   9 C :    0.430426
  10 C :    0.419096
  11 C :    0.106684
  12 C :    0.929247
  13 H :   -0.269886
  14 H :   -0.291838
  15 H :   -0.274155
  16 C :   -0.719666
  17 C :   -0.145163
  18 O :    0.763248
  19 C :   -0.928624
  20 C :   -0.754316
  21 O :    0.748630
  22 O :    0.655220
  23 C :   -0.098225
  24 H :   -0.284669
  25 C :    0.110489
  26 C :    0.508863
  27 H :   -0.264281
  28 H :   -0.294760
  29 C :    0.937022
  30 H :   -0.274960
  31 H :   -0.278909
  32 H :   -0.298368
  33 N :    0.824850
  34 H :   -0.509956
  35 C :    0.927350
  36 H :   -0.291158
  37 H :   -0.275341
  38 H :   -0.272858
  39 H :   -0.290554
  40 C :    0.525830
  41 H :   -0.261912
  42 H :   -0.254998
  43 C :    0.537141
  44 H :   -0.261934
  45 H :   -0.265690
  46 H :   -0.311161
  47 H :   -0.304914
  48 H :   -0.323712
  49 H :   -0.378604
  50 H :   -0.275539
  51 H :   -0.267635

  Mayer bond orders larger than 0.100000
B(  0-C ,  1-C ) :   0.7140 B(  0-C ,  4-H ) :   1.0977 B(  0-C ,  5-H ) :   1.1636
B(  0-C ,  6-C ) :  -0.3133 B(  0-C , 43-C ) :   0.8548 B(  1-C ,  2-H ) :   1.0074
B(  1-C ,  3-H ) :   1.1777 B(  1-C ,  4-H ) :  -0.1422 B(  1-C ,  5-H ) :  -0.1106
B(  1-C ,  6-C ) :   0.2775 B(  1-C , 43-C ) :  -0.1157 B(  2-H ,  6-C ) :  -0.1227
B(  3-H ,  6-C ) :  -0.1512 B(  6-C ,  7-C ) :   1.1711 B(  6-C ,  8-C ) :   0.8519
B(  6-C , 10-C ) :   0.1603 B(  6-C , 11-C ) :   0.1012 B(  6-C , 17-C ) :  -0.2563
B(  6-C , 40-C ) :  -0.2840 B(  6-C , 50-H ) :   0.8493 B(  7-C ,  8-C ) :  -0.2745
B(  7-C , 11-C ) :   0.5641 B(  7-C , 12-C ) :  -0.2645 B(  7-C , 16-C ) :   0.9507
B(  7-C , 18-O ) :   0.7397 B(  7-C , 49-H ) :   1.0534 B(  7-C , 50-H ) :   0.2688
B(  8-C ,  9-C ) :   0.2891 B(  8-C , 10-C ) :  -0.3557 B(  8-C , 11-C ) :   0.2050
B(  8-C , 16-C ) :   0.1164 B(  8-C , 40-C ) :   0.3519 B(  8-C , 41-H ) :  -0.2226
B(  8-C , 42-H ) :  -0.1707 B(  8-C , 43-C ) :  -0.1968 B(  8-C , 46-H ) :  -0.1321
B(  8-C , 49-H ) :   0.1240 B(  8-C , 51-H ) :   0.9247 B(  9-C , 10-C ) :   1.4088
B(  9-C , 40-C ) :   0.1240 B(  9-C , 46-H ) :   1.4355 B(  9-C , 47-H ) :  -0.3418
B(  9-C , 50-H ) :  -0.1002 B(  9-C , 51-H ) :  -0.2339 B( 10-C , 11-C ) :   1.1062
B( 10-C , 46-H ) :  -0.3320 B( 10-C , 47-H ) :   1.2571 B( 10-C , 48-H ) :  -0.3118
B( 11-C , 12-C ) :   0.5793 B( 11-C , 15-H ) :  -0.1679 B( 11-C , 18-O ) :  -0.1108
B( 11-C , 48-H ) :   0.7896 B( 12-C , 13-H ) :   1.0305 B( 12-C , 14-H ) :   1.0084
B( 12-C , 15-H ) :   1.2891 B( 16-C , 17-C ) :  -0.1214 B( 16-C , 18-O ) :  -1.1938
B( 16-C , 19-C ) :  -0.3691 B( 16-C , 20-C ) :  -0.1556 B( 16-C , 21-O ) :  -0.1205
B( 16-C , 22-O ) :  -0.1352 B( 17-C , 18-O ) :   0.9139 B( 17-C , 19-C ) :   1.7195
B( 17-C , 20-C ) :   0.6281 B( 17-C , 21-O ) :   0.4152 B( 17-C , 22-O ) :   1.1171
B( 17-C , 23-C ) :  -0.6905 B( 17-C , 25-C ) :   0.1028 B( 17-C , 33-N ) :  -0.5517
B( 18-O , 22-O ) :  -0.1020 B( 19-C , 22-O ) :  -0.3789 B( 19-C , 33-N ) :   1.6393
B( 20-C , 23-C ) :   1.6451 B( 20-C , 25-C ) :  -0.1694 B( 20-C , 33-N ) :   0.1003
B( 21-O , 23-C ) :   0.1139 B( 22-O , 33-N ) :   0.3784 B( 22-O , 34-H ) :   0.1019
B( 23-C , 24-H ) :   0.7728 B( 23-C , 25-C ) :   0.8593 B( 23-C , 33-N ) :   0.4194
B( 23-C , 34-H ) :  -0.1349 B( 25-C , 26-C ) :   0.6427 B( 25-C , 29-C ) :  -0.1347
B( 25-C , 35-C ) :   0.3148 B( 25-C , 36-H ) :  -0.2120 B( 25-C , 37-H ) :  -0.1656
B( 25-C , 38-H ) :  -0.1105 B( 25-C , 39-H ) :   1.0159 B( 26-C , 27-H ) :   1.0603
B( 26-C , 28-H ) :   0.6003 B( 26-C , 29-C ) :   0.6750 B( 26-C , 31-H ) :  -0.1618
B( 28-H , 29-C ) :  -0.1363 B( 29-C , 30-H ) :   1.0738 B( 29-C , 31-H ) :   1.0692
B( 29-C , 32-H ) :   1.0749 B( 33-N , 34-H ) :   1.1556 B( 35-C , 36-H ) :   1.1181
B( 35-C , 37-H ) :   1.0982 B( 35-C , 38-H ) :   1.0806 B( 40-C , 41-H ) :   1.1823
B( 40-C , 42-H ) :   1.1782 B( 40-C , 43-C ) :   0.8342 B( 43-C , 44-H ) :   1.0319
B( 43-C , 45-H ) :   1.1780 B( 50-H , 51-H ) :   0.1196

MP2 TOTAL ENERGY:    -1057.762828821 Eh
FINAL SINGLE POINT ENERGY     -1057.762828820915

DIPOLE MOMENT
-------------
                                X             Y             Z
Electronic contribution:     -1.64223     -12.36197      -0.10218
Nuclear contribution   :      2.07187      14.40139      -0.90304
                        -----------------------------------------
Total Dipole Moment    :      0.42964       2.03942      -1.00522
                        -----------------------------------------
Magnitude (a.u.)       :      2.31393
Magnitude (Debye)      :      5.88155

Rotational constants in cm-1:     0.015801     0.004569     0.004114
Rotational constants in MHz :   473.695167   136.989890   123.345704

                             ****ORCA TERMINATED NORMALLY****
TOTAL RUN TIME: 0 days 15 hours 32 minutes 38 seconds 754 msec
