                         Program Version 4.2.1 -  RELEASE  -
|  1> %pal
|  2>  nprocs 32
|  3> end
|  4> !RI-MP2 aug-cc-pVQZ aug-cc-pVQZ/C TightSCF
|  5> %maxcore 4500
|  6> *xyzfile 0 2  04_16R2.xyz
|  7>
|  8>
|  9>                          ****END OF INPUT****

CARTESIAN COORDINATES (ANGSTROEM)
---------------------------------
  O      0.055077    0.712272    0.000000
  O      0.055077   -0.603017    0.000000
  H     -0.881227   -0.874042    0.000000

 Total Charge           Charge          ....    0
 Multiplicity           Mult            ....    2
 Number of Electrons    NEL             ....   17
 Basis Dimension        Dim             ....  206

ORBITAL ENERGIES
----------------
                 SPIN UP ORBITALS
  NO   OCC          E(Eh)            E(eV)
   0   1.0000     -20.685312      -562.8760
   1   1.0000     -20.672873      -562.5375
   2   1.0000      -1.584032       -43.1037
   3   1.0000      -1.205424       -32.8012
   4   1.0000      -0.776309       -21.1244
   5   1.0000      -0.760719       -20.7002
   6   1.0000      -0.679455       -18.4889
   7   1.0000      -0.525439       -14.2979
   8   1.0000      -0.520229       -14.1561
   9   0.0000       0.027810         0.7567
  10   0.0000       0.084732         2.3057
  11   0.0000       0.107469         2.9244
  12   0.0000       0.130839         3.5603
  13   0.0000       0.154059         4.1921

                 SPIN DOWN ORBITALS
  NO   OCC          E(Eh)            E(eV)
   0   1.0000     -20.664578      -562.3117
   1   1.0000     -20.644864      -561.7753
   2   1.0000      -1.521338       -41.3977
   3   1.0000      -1.102970       -30.0133
   4   1.0000      -0.755738       -20.5647
   5   1.0000      -0.654903       -17.8208
   6   1.0000      -0.572728       -15.5847
   7   1.0000      -0.483826       -13.1656
   8   0.0000       0.028029         0.7627
   9   0.0000       0.086088         2.3426
  10   0.0000       0.095151         2.5892
  11   0.0000       0.107672         2.9299
  12   0.0000       0.140821         3.8319

MULLIKEN ATOMIC CHARGES AND SPIN POPULATIONS
--------------------------------------------
   0 O :   -0.087950    0.929982
   1 O :   -0.265774    0.086289
   2 H :    0.353725   -0.016271
Sum of atomic charges         :   -0.0000000

LOEWDIN ATOMIC CHARGES AND SPIN POPULATIONS
-------------------------------------------
   0 O :    0.276888    0.784365
   1 O :    0.642267    0.211116
   2 H :   -0.919154    0.004518

  Mayer bond orders larger than 0.100000
B(  0-O ,  1-O ) :   1.0241 B(  1-O ,  2-H ) :   0.9060

MP2 TOTAL ENERGY:     -150.733919290 Eh
FINAL SINGLE POINT ENERGY      -150.733919290055

DIPOLE MOMENT
-------------
                                X             Y             Z
Electronic contribution:      0.16730       0.46160      -0.00000
Nuclear contribution   :     -0.85075      -0.84381       0.00000
                        -----------------------------------------
Total Dipole Moment    :     -0.68344      -0.38221      -0.00000
                        -----------------------------------------
Magnitude (a.u.)       :      0.78306
Magnitude (Debye)      :      1.99037

Rotational constants in cm-1:    20.949944     1.144146     1.084896
Rotational constants in MHz : 628063.511753 34300.637957 32524.373700

                             ****ORCA TERMINATED NORMALLY****
TOTAL RUN TIME: 0 days 0 hours 0 minutes 21 seconds 78 msec
