                         Program Version 4.2.1 -  RELEASE  -
|  1> %pal
|  2>  nprocs 32
|  3> end
|  4> !RI-MP2 aug-cc-pVQZ aug-cc-pVQZ/C TightSCF
|  5> %maxcore 4500
|  6> *xyzfile 0 2  04_35R2.xyz
|  7>
|  8>
|  9>                          ****END OF INPUT****

CARTESIAN COORDINATES (ANGSTROEM)
---------------------------------
  S      0.115430   -0.144779   -0.402711
  C     -1.545496    0.299314    0.199779
  H     -1.527512    0.309213    1.288057
  H     -1.827820    1.271562   -0.203271
  H     -2.222837   -0.471212   -0.163993
  C      0.992373    1.219507    0.219766
  O      0.544831   -1.391318    0.312431
  H      0.721206    2.208081   -0.128743
  H      1.970177    1.016434    0.634603

 Total Charge           Charge          ....    0
 Multiplicity           Mult            ....    2
 Number of Electrons    NEL             ....   41
 Basis Dimension        Dim             ....  554

ORBITAL ENERGIES
----------------
                 SPIN UP ORBITALS
  NO   OCC          E(Eh)            E(eV)
   0   1.0000     -92.073580     -2505.4495
   1   1.0000     -20.506740      -558.0168
   2   1.0000     -11.281874      -306.9954
   3   1.0000     -11.269161      -306.6495
   4   1.0000      -9.060546      -246.5500
   5   1.0000      -6.742861      -183.4826
   6   1.0000      -6.742253      -183.4660
   7   1.0000      -6.741290      -183.4398
   8   1.0000      -1.337434       -36.3934
   9   1.0000      -1.076985       -29.3063
  10   1.0000      -0.985087       -26.8056
  11   1.0000      -0.817071       -22.2336
  12   1.0000      -0.651985       -17.7414
  13   1.0000      -0.640168       -17.4199
  14   1.0000      -0.625271       -17.0145
  15   1.0000      -0.580464       -15.7952
  16   1.0000      -0.572468       -15.5776
  17   1.0000      -0.532194       -14.4817
  18   1.0000      -0.444062       -12.0835
  19   1.0000      -0.432673       -11.7736
  20   1.0000      -0.351130        -9.5547
  21   0.0000       0.020864         0.5677
  22   0.0000       0.032077         0.8729
  23   0.0000       0.037731         1.0267
  24   0.0000       0.043787         1.1915
  25   0.0000       0.053208         1.4479

                 SPIN DOWN ORBITALS
  NO   OCC          E(Eh)            E(eV)
   0   1.0000     -92.074031     -2505.4618
   1   1.0000     -20.507191      -558.0290
   2   1.0000     -11.266535      -306.5780
   3   1.0000     -11.258639      -306.3632
   4   1.0000      -9.060955      -246.5611
   5   1.0000      -6.744315      -183.5221
   6   1.0000      -6.743297      -183.4944
   7   1.0000      -6.741252      -183.4388
   8   1.0000      -1.336306       -36.3627
   9   1.0000      -1.053954       -28.6795
  10   1.0000      -0.942588       -25.6491
  11   1.0000      -0.791356       -21.5339
  12   1.0000      -0.641047       -17.4438
  13   1.0000      -0.631805       -17.1923
  14   1.0000      -0.617854       -16.8127
  15   1.0000      -0.571373       -15.5478
  16   1.0000      -0.564458       -15.3597
  17   1.0000      -0.524017       -14.2592
  18   1.0000      -0.429768       -11.6946
  19   1.0000      -0.374304       -10.1853
  20   0.0000       0.020147         0.5482
  21   0.0000       0.030147         0.8204
  22   0.0000       0.035731         0.9723
  23   0.0000       0.042631         1.1601
  24   0.0000       0.053242         1.4488

MULLIKEN ATOMIC CHARGES AND SPIN POPULATIONS
--------------------------------------------
   0 S :    1.248866   -0.075579
   1 C :   -0.981774    0.071076
   2 H :    0.324653   -0.007504
   3 H :    0.310507   -0.005942
   4 H :    0.355467   -0.000353
   5 C :   -1.056481    1.143335
   6 O :   -1.123630   -0.001672
   7 H :    0.438813   -0.066857
   8 H :    0.483578   -0.056504
Sum of atomic charges         :    0.0000000

LOEWDIN ATOMIC CHARGES AND SPIN POPULATIONS
-------------------------------------------
   0 S :    0.576168    0.159936
   1 C :    0.713161    0.035236
   2 H :   -0.349383    0.014955
   3 H :   -0.359302    0.007020
   4 H :   -0.362729    0.008854
   5 C :    0.565081    0.468433
   6 O :    0.056480   -0.001074
   7 H :   -0.418112    0.151514
   8 H :   -0.421363    0.155126

  Mayer bond orders larger than 0.100000
B(  0-S ,  1-C ) :   0.9616 B(  0-S ,  5-C ) :   0.9933 B(  0-S ,  6-O ) :   1.2509
B(  1-C ,  2-H ) :   0.8655 B(  1-C ,  3-H ) :   0.8953 B(  1-C ,  4-H ) :   0.8623
B(  5-C ,  7-H ) :   0.8035 B(  5-C ,  8-H ) :   0.7482

MP2 TOTAL ENERGY:     -551.843355978 Eh
FINAL SINGLE POINT ENERGY      -551.843355977804

DIPOLE MOMENT
-------------
                                X             Y             Z
Electronic contribution:      2.21182      -2.65018      -1.64486
Nuclear contribution   :     -2.87728       4.30990       1.44176
                        -----------------------------------------
Total Dipole Moment    :     -0.66546       1.65972      -0.20311
                        -----------------------------------------
Magnitude (a.u.)       :      1.79966
Magnitude (Debye)      :      4.57436

Rotational constants in cm-1:     0.250236     0.235731     0.141683
Rotational constants in MHz :  7501.874184  7067.025868  4247.534788

                             ****ORCA TERMINATED NORMALLY****
TOTAL RUN TIME: 0 days 0 hours 6 minutes 5 seconds 23 msec
