                         Program Version 4.2.1 -  RELEASE  -
|  1> %pal
|  2>  nprocs 32
|  3> end
|  4> !RI-MP2 aug-cc-pVQZ aug-cc-pVQZ/C TightSCF
|  5> %maxcore 4500
|  6> *xyzfile 0 2  03_11R2.xyz
|  7>
|  8>
|  9>                          ****END OF INPUT****

CARTESIAN COORDINATES (ANGSTROEM)
---------------------------------
  C      0.000000   -0.000002   -0.161131
  C     -1.254472   -0.785052    0.016032
  C     -0.052642    1.478923    0.016030
  C      1.307114   -0.693874    0.016032
  H     -2.115112   -0.278605   -0.428642
  H     -1.492097   -0.933448    1.082924
  H     -1.175040   -1.780672   -0.428208
  H     -0.954459    1.907981   -0.428442
  H      0.816409    1.971006   -0.428406
  H     -0.062628    1.758910    1.082921
  H      1.298659   -1.692629   -0.428190
  H      1.554699   -0.824983    1.082924
  H      2.129567   -0.127531   -0.428661

 Total Charge           Charge          ....    0
 Multiplicity           Mult            ....    2
 Number of Electrons    NEL             ....   33
 Basis Dimension        Dim             ....  734

ORBITAL ENERGIES
----------------
                 SPIN UP ORBITALS
  NO   OCC          E(Eh)            E(eV)
   0   1.0000     -11.224398      -305.4314
   1   1.0000     -11.210151      -305.0437
   2   1.0000     -11.210150      -305.0437
   3   1.0000     -11.210100      -305.0423
   4   1.0000      -1.090264       -29.6676
   5   1.0000      -0.934977       -25.4420
   6   1.0000      -0.934977       -25.4420
   7   1.0000      -0.743171       -20.2227
   8   1.0000      -0.620414       -16.8823
   9   1.0000      -0.601242       -16.3606
  10   1.0000      -0.601237       -16.3605
  11   1.0000      -0.536092       -14.5878
  12   1.0000      -0.536085       -14.5876
  13   1.0000      -0.513831       -13.9820
  14   1.0000      -0.483558       -13.1583
  15   1.0000      -0.483557       -13.1583
  16   1.0000      -0.310157        -8.4398
  17   0.0000       0.027195         0.7400
  18   0.0000       0.034253         0.9321
  19   0.0000       0.034254         0.9321
  20   0.0000       0.039961         1.0874
  21   0.0000       0.053893         1.4665

                 SPIN DOWN ORBITALS
  NO   OCC          E(Eh)            E(eV)
   0   1.0000     -11.213185      -305.1263
   1   1.0000     -11.213178      -305.1261
   2   1.0000     -11.213178      -305.1261
   3   1.0000     -11.199706      -304.7595
   4   1.0000      -1.051505       -28.6129
   5   1.0000      -0.934643       -25.4329
   6   1.0000      -0.934642       -25.4329
   7   1.0000      -0.698940       -19.0191
   8   1.0000      -0.594875       -16.1874
   9   1.0000      -0.594872       -16.1873
  10   1.0000      -0.572567       -15.5803
  11   1.0000      -0.525761       -14.3067
  12   1.0000      -0.525755       -14.3065
  13   1.0000      -0.512505       -13.9460
  14   1.0000      -0.476672       -12.9709
  15   1.0000      -0.476669       -12.9708
  16   0.0000       0.027112         0.7377
  17   0.0000       0.034325         0.9340
  18   0.0000       0.034326         0.9340
  19   0.0000       0.039510         1.0751
  20   0.0000       0.053947         1.4680

MULLIKEN ATOMIC CHARGES AND SPIN POPULATIONS
--------------------------------------------
   0 C :    0.200998    1.144009
   1 C :   -0.831942   -0.158448
   2 C :   -0.831915   -0.158443
   3 C :   -0.831942   -0.158452
   4 H :    0.259300    0.016947
   5 H :    0.246368    0.076576
   6 H :    0.259281    0.016924
   7 H :    0.259285    0.016936
   8 H :    0.259274    0.016934
   9 H :    0.246339    0.076572
  10 H :    0.259278    0.016923
  11 H :    0.246371    0.076577
  12 H :    0.259305    0.016947
Sum of atomic charges         :   -0.0000000

LOEWDIN ATOMIC CHARGES AND SPIN POPULATIONS
-------------------------------------------
   0 C :    0.012482    0.460692
   1 C :    0.882288    0.125768
   2 C :    0.882283    0.125764
   3 C :    0.882288    0.125768
   4 H :   -0.304614    0.012530
   5 H :   -0.277201    0.028954
   6 H :   -0.304632    0.012520
   7 H :   -0.304620    0.012525
   8 H :   -0.304623    0.012524
   9 H :   -0.277203    0.028952
  10 H :   -0.304634    0.012520
  11 H :   -0.277200    0.028954
  12 H :   -0.304613    0.012530

  Mayer bond orders larger than 0.100000
B(  0-C ,  1-C ) :   0.8027 B(  0-C ,  2-C ) :   0.8027 B(  0-C ,  3-C ) :   0.8027
B(  1-C ,  4-H ) :   0.9964 B(  1-C ,  5-H ) :   0.8984 B(  1-C ,  6-H ) :   0.9964
B(  2-C ,  7-H ) :   0.9964 B(  2-C ,  8-H ) :   0.9964 B(  2-C ,  9-H ) :   0.8984
B(  3-C , 10-H ) :   0.9964 B(  3-C , 11-H ) :   0.8984 B(  3-C , 12-H ) :   0.9963

MP2 TOTAL ENERGY:     -157.468133101 Eh
FINAL SINGLE POINT ENERGY      -157.468133101173

DIPOLE MOMENT
-------------
                                X             Y             Z
Electronic contribution:      0.00000      -0.00004      -0.66774
Nuclear contribution   :     -0.00000       0.00003       0.73594
                        -----------------------------------------
Total Dipole Moment    :      0.00000      -0.00000       0.06819
                        -----------------------------------------
Magnitude (a.u.)       :      0.06819
Magnitude (Debye)      :      0.17333

Rotational constants in cm-1:     0.268124     0.268121     0.145567
Rotational constants in MHz :  8038.166177  8038.076141  4363.997204

                             ****ORCA TERMINATED NORMALLY****
TOTAL RUN TIME: 0 days 0 hours 10 minutes 14 seconds 969 msec
