                         Program Version 4.2.1 -  RELEASE  -
|  1> %pal
|  2>  nprocs 32
|  3> end
|  4> !RI-MP2 aug-cc-pVQZ aug-cc-pVQZ/C TightSCF
|  5> %maxcore 4500
|  6> *xyzfile -1 1  09_14TS.xyz
|  7>
|  8>
|  9>                          ****END OF INPUT****

CARTESIAN COORDINATES (ANGSTROEM)
---------------------------------
  C      1.789790    0.299995    0.131170
  C      1.127165    1.659448    0.190986
  C     -0.016816    1.808114    0.986840
  O      1.590129    2.552687   -0.554992
  C     -1.461890    1.505101   -0.572950
  C     -2.468317    0.789156   -0.401043
  C     -3.053710   -0.069959    0.628009
  O     -4.303219   -0.688563    0.291479
  C     -4.206930   -1.505543   -0.844718
  H     -0.343197    2.820415    1.190471
  H     -0.268104    1.063991    1.731509
  H     -0.917590    2.145275   -1.245232
  H     -2.345099   -0.871213    0.899397
  H     -3.271035    0.504014    1.532818
  H     -5.203821   -1.899831   -1.049444
  H     -3.847147   -0.935908   -1.708732
  H     -3.517680   -2.347547   -0.674429
  C      3.099187    0.226939   -0.341103
  C      3.766605   -0.986989   -0.415047
  C      3.126464   -2.160723   -0.035100
  C      1.812874   -2.103664    0.415270
  C      1.153076   -0.885397    0.498704
  H      3.565545    1.152330   -0.656041
  H      4.788781   -1.020776   -0.777748
  H      3.642158   -3.112767   -0.099434
  H      1.295039   -3.015347    0.693793
  H      0.121879   -0.854498    0.825080

 Total Charge           Charge          ....   -1
 Multiplicity           Mult            ....    1
 Number of Electrons    NEL             ....  102
 Basis Dimension        Dim             .... 1718

ORBITAL ENERGIES
----------------

  NO   OCC          E(Eh)            E(eV)
   0   2.0000     -20.431586      -555.9717
   1   2.0000     -20.339830      -553.4749
   2   2.0000     -11.159762      -303.6726
   3   2.0000     -11.152481      -303.4744
   4   2.0000     -11.148413      -303.3637
   5   2.0000     -11.127506      -302.7948
   6   2.0000     -11.124207      -302.7051
   7   2.0000     -11.123749      -302.6926
   8   2.0000     -11.116903      -302.5063
   9   2.0000     -11.112566      -302.3883
  10   2.0000     -11.111339      -302.3549
  11   2.0000     -11.096074      -301.9395
  12   2.0000     -11.043816      -300.5175
  13   2.0000     -11.039324      -300.3953
  14   2.0000      -1.250075       -34.0163
  15   2.0000      -1.178133       -32.0586
  16   2.0000      -1.040271       -28.3072
  17   2.0000      -0.916151       -24.9297
  18   2.0000      -0.904097       -24.6017
  19   2.0000      -0.902138       -24.5484
  20   2.0000      -0.836845       -22.7717
  21   2.0000      -0.815137       -22.1810
  22   2.0000      -0.747412       -20.3381
  23   2.0000      -0.720483       -19.6053
  24   2.0000      -0.706995       -19.2383
  25   2.0000      -0.615707       -16.7542
  26   2.0000      -0.579063       -15.7571
  27   2.0000      -0.568682       -15.4746
  28   2.0000      -0.538261       -14.6468
  29   2.0000      -0.536400       -14.5962
  30   2.0000      -0.514831       -14.0093
  31   2.0000      -0.507107       -13.7991
  32   2.0000      -0.503100       -13.6900
  33   2.0000      -0.485182       -13.2025
  34   2.0000      -0.474434       -12.9100
  35   2.0000      -0.442759       -12.0481
  36   2.0000      -0.433429       -11.7942
  37   2.0000      -0.418153       -11.3785
  38   2.0000      -0.405175       -11.0254
  39   2.0000      -0.403431       -10.9779
  40   2.0000      -0.376833       -10.2541
  41   2.0000      -0.368112       -10.0168
  42   2.0000      -0.365667        -9.9503
  43   2.0000      -0.354281        -9.6405
  44   2.0000      -0.311039        -8.4638
  45   2.0000      -0.264685        -7.2024
  46   2.0000      -0.248191        -6.7536
  47   2.0000      -0.228357        -6.2139
  48   2.0000      -0.219891        -5.9835
  49   2.0000      -0.215092        -5.8530
  50   2.0000      -0.101908        -2.7731
  51   0.0000       0.085991         2.3399
  52   0.0000       0.093426         2.5423
  53   0.0000       0.098150         2.6708
  54   0.0000       0.105108         2.8601
  55   0.0000       0.110920         3.0183

MULLIKEN ATOMIC CHARGES
-----------------------
   0 C :   -0.115275
   1 C :    1.306362
   2 C :   -0.865641
   3 O :   -1.081491
   4 C :   -0.590237
   5 C :   -0.478129
   6 C :    0.308789
   7 O :   -0.915717
   8 C :   -0.683238
   9 H :    0.214496
  10 H :    0.210669
  11 H :    0.511262
  12 H :    0.159001
  13 H :    0.439611
  14 H :    0.477282
  15 H :    0.262867
  16 H :    0.221949
  17 C :   -0.434667
  18 C :   -0.332551
  19 C :   -0.362328
  20 C :   -0.476219
  21 C :   -0.382513
  22 H :    0.279193
  23 H :    0.225466
  24 H :    0.326058
  25 H :    0.187879
  26 H :    0.587123
Sum of atomic charges:   -1.0000000

LOEWDIN ATOMIC CHARGES
----------------------
   0 C :   -0.133913
   1 C :   -0.825682
   2 C :    0.518072
   3 O :    0.643284
   4 C :    0.408095
   5 C :    0.110475
   6 C :   -0.003526
   7 O :    0.835739
   8 C :    0.496733
   9 H :   -0.367520
  10 H :   -0.390931
  11 H :   -0.448424
  12 H :   -0.347821
  13 H :   -0.352662
  14 H :   -0.338443
  15 H :   -0.354249
  16 H :   -0.314922
  17 C :    0.304592
  18 C :    0.323596
  19 C :    0.309057
  20 C :    0.332485
  21 C :    0.318868
  22 H :   -0.358580
  23 H :   -0.333155
  24 H :   -0.335454
  25 H :   -0.329834
  26 H :   -0.365880

  Mayer bond orders larger than 0.100000
B(  0-C ,  1-C ) :   0.8361 B(  0-C ,  3-O ) :   0.4777 B(  0-C , 17-C ) :   1.1326
B(  0-C , 18-C ) :  -0.3669 B(  0-C , 20-C ) :  -0.2959 B(  0-C , 21-C ) :   1.2211
B(  0-C , 26-H ) :  -0.1810 B(  1-C ,  2-C ) :   1.3787 B(  1-C ,  3-O ) :   0.2420
B(  1-C , 17-C ) :  -0.3537 B(  1-C , 21-C ) :  -0.2928 B(  2-C ,  3-O ) :   0.2477
B(  2-C ,  4-C ) :   0.3690 B(  2-C ,  9-H ) :   0.9889 B(  2-C , 10-H ) :   1.0258
B(  3-O , 22-H ) :   0.1324 B(  4-C ,  5-C ) :   2.1717 B(  4-C ,  6-C ) :  -0.1556
B(  4-C , 11-H ) :   0.7174 B(  5-C ,  6-C ) :   0.9346 B(  6-C ,  7-O ) :   0.4421
B(  6-C , 12-H ) :   0.9549 B(  6-C , 13-H ) :   0.7707 B(  7-O ,  8-C ) :   0.9258
B(  8-C , 14-H ) :   0.7789 B(  8-C , 15-H ) :   0.8938 B(  8-C , 16-H ) :   0.9359
B( 17-C , 18-C ) :   1.2926 B( 17-C , 20-C ) :   0.1846 B( 17-C , 22-H ) :   0.8890
B( 17-C , 23-H ) :  -0.1719 B( 18-C , 19-C ) :   1.1622 B( 18-C , 23-H ) :   1.1532
B( 19-C , 20-C ) :   1.2736 B( 19-C , 21-C ) :  -0.1202 B( 19-C , 23-H ) :  -0.1022
B( 19-C , 24-H ) :   1.0107 B( 20-C , 21-C ) :   1.1545 B( 20-C , 24-H ) :  -0.1095
B( 20-C , 25-H ) :   1.1650 B( 20-C , 26-H ) :  -0.1417 B( 21-C , 25-H ) :  -0.1121
B( 21-C , 26-H ) :   0.5432

MP2 TOTAL ENERGY:     -614.438520694 Eh
FINAL SINGLE POINT ENERGY      -614.438520693964

DIPOLE MOMENT
-------------
                                X             Y             Z
Electronic contribution:      7.18494       3.69447      -0.16398
Nuclear contribution   :     -6.35817      -6.35760       0.65942
                        -----------------------------------------
Total Dipole Moment    :      0.82677      -2.66313       0.49544
                        -----------------------------------------
Magnitude (a.u.)       :      2.83218
Magnitude (Debye)      :      7.19884

Rotational constants in cm-1:     0.034600     0.011566     0.009261
Rotational constants in MHz :  1037.289943   346.726561   277.624117

                             ****ORCA TERMINATED NORMALLY****
TOTAL RUN TIME: 0 days 2 hours 26 minutes 10 seconds 220 msec
