                         Program Version 4.2.1 -  RELEASE  -
|  1> %pal
|  2>  nprocs 32
|  3> end
|  4> !RI-MP2 aug-cc-pVQZ aug-cc-pVQZ/C TightSCF
|  5> %maxcore 4500
|  6> *xyzfile 0 2  03_31P1.xyz
|  7>
|  8>
|  9>                          ****END OF INPUT****

CARTESIAN COORDINATES (ANGSTROEM)
---------------------------------
  C      3.200838    0.401652   -0.050926
  C      2.777169   -0.851885    0.633600
  C      2.192984    1.478916   -0.255847
  C      1.425170   -1.366906    0.120386
  C      0.393408   -0.241251    0.108821
  C      0.852220    0.926769   -0.759184
  C     -2.326383    0.277813    0.264722
  C     -3.773988    0.037907   -0.077811
  O     -1.953528    1.195607    0.947022
  H      2.681918   -0.665595    1.717302
  H      3.536882   -1.629991    0.529413
  H      2.567668    2.238422   -0.945870
  H      2.010156    2.001597    0.698563
  H      1.076610   -2.193007    0.744069
  H      1.548586   -1.756119   -0.895482
  H      0.215699    0.113021    1.127030
  H      0.097169    1.713845   -0.751095
  H      0.961269    0.579453   -1.791142
  H     -4.378570    0.201668    0.814162
  H     -3.948210   -0.962100   -0.473045
  H     -4.072391    0.771778   -0.829783
  S     -1.210812   -0.911155   -0.453980
  H      4.255919    0.622553   -0.159191

 Total Charge           Charge          ....    0
 Multiplicity           Mult            ....    2
 Number of Electrons    NEL             ....   85
 Basis Dimension        Dim             .... 1402

ORBITAL ENERGIES
----------------
                 SPIN UP ORBITALS
  NO   OCC          E(Eh)            E(eV)
   0   1.0000     -91.959701     -2502.3507
   1   1.0000     -20.549583      -559.1826
   2   1.0000     -11.358903      -309.0915
   3   1.0000     -11.259975      -306.3995
   4   1.0000     -11.241527      -305.8975
   5   1.0000     -11.229547      -305.5715
   6   1.0000     -11.227003      -305.5023
   7   1.0000     -11.224728      -305.4404
   8   1.0000     -11.221710      -305.3582
   9   1.0000     -11.220466      -305.3244
  10   1.0000      -8.963254      -243.9025
  11   1.0000      -6.644645      -180.8100
  12   1.0000      -6.643598      -180.7815
  13   1.0000      -6.643075      -180.7673
  14   1.0000      -1.402402       -38.1613
  15   1.0000      -1.139183       -30.9988
  16   1.0000      -1.062114       -28.9016
  17   1.0000      -1.023579       -27.8530
  18   1.0000      -1.015616       -27.6363
  19   1.0000      -0.946392       -25.7526
  20   1.0000      -0.847579       -23.0638
  21   1.0000      -0.821169       -22.3452
  22   1.0000      -0.752708       -20.4822
  23   1.0000      -0.731889       -19.9157
  24   1.0000      -0.660472       -17.9724
  25   1.0000      -0.653086       -17.7714
  26   1.0000      -0.633010       -17.2251
  27   1.0000      -0.617090       -16.7919
  28   1.0000      -0.609900       -16.5962
  29   1.0000      -0.602126       -16.3847
  30   1.0000      -0.580492       -15.7960
  31   1.0000      -0.557165       -15.1612
  32   1.0000      -0.542662       -14.7666
  33   1.0000      -0.534182       -14.5358
  34   1.0000      -0.521219       -14.1831
  35   1.0000      -0.514832       -14.0093
  36   1.0000      -0.493266       -13.4225
  37   1.0000      -0.472859       -12.8671
  38   1.0000      -0.455831       -12.4038
  39   1.0000      -0.430517       -11.7150
  40   1.0000      -0.405014       -11.0210
  41   1.0000      -0.365968        -9.9585
  42   1.0000      -0.329884        -8.9766
  43   0.0000       0.024798         0.6748
  44   0.0000       0.026107         0.7104
  45   0.0000       0.030440         0.8283
  46   0.0000       0.034217         0.9311
  47   0.0000       0.040624         1.1054

                 SPIN DOWN ORBITALS
  NO   OCC          E(Eh)            E(eV)
   0   1.0000     -91.959679     -2502.3501
   1   1.0000     -20.549581      -559.1825
   2   1.0000     -11.358899      -309.0914
   3   1.0000     -11.260183      -306.4052
   4   1.0000     -11.241522      -305.8974
   5   1.0000     -11.228675      -305.5478
   6   1.0000     -11.227768      -305.5231
   7   1.0000     -11.223642      -305.4108
   8   1.0000     -11.220639      -305.3291
   9   1.0000     -11.203045      -304.8503
  10   1.0000      -8.963224      -243.9017
  11   1.0000      -6.644605      -180.8089
  12   1.0000      -6.643561      -180.7805
  13   1.0000      -6.643055      -180.7667
  14   1.0000      -1.402399       -38.1612
  15   1.0000      -1.130503       -30.7625
  16   1.0000      -1.051805       -28.6211
  17   1.0000      -1.014341       -27.6016
  18   1.0000      -1.011563       -27.5260
  19   1.0000      -0.932960       -25.3871
  20   1.0000      -0.846295       -23.0289
  21   1.0000      -0.803147       -21.8547
  22   1.0000      -0.731713       -19.9109
  23   1.0000      -0.728282       -19.8176
  24   1.0000      -0.657279       -17.8855
  25   1.0000      -0.648923       -17.6581
  26   1.0000      -0.631498       -17.1839
  27   1.0000      -0.616138       -16.7660
  28   1.0000      -0.604547       -16.4506
  29   1.0000      -0.590730       -16.0746
  30   1.0000      -0.567356       -15.4385
  31   1.0000      -0.550087       -14.9686
  32   1.0000      -0.540185       -14.6992
  33   1.0000      -0.528346       -14.3770
  34   1.0000      -0.516133       -14.0447
  35   1.0000      -0.513234       -13.9658
  36   1.0000      -0.486267       -13.2320
  37   1.0000      -0.467890       -12.7319
  38   1.0000      -0.451446       -12.2845
  39   1.0000      -0.427630       -11.6364
  40   1.0000      -0.404715       -11.0128
  41   1.0000      -0.365690        -9.9509
  42   0.0000       0.024633         0.6703
  43   0.0000       0.026202         0.7130
  44   0.0000       0.030498         0.8299
  45   0.0000       0.034341         0.9345
  46   0.0000       0.040435         1.1003

MULLIKEN ATOMIC CHARGES AND SPIN POPULATIONS
--------------------------------------------
   0 C :   -0.446184    1.236907
   1 C :   -0.456355   -0.204613
   2 C :   -0.505566   -0.206559
   3 C :   -0.646536    0.039869
   4 C :    0.445533   -0.020767
   5 C :   -0.551187    0.038066
   6 C :    0.439632    0.000280
   7 C :   -0.766473    0.000232
   8 O :   -0.842440   -0.000008
   9 H :    0.141516    0.105198
  10 H :    0.258558    0.006421
  11 H :    0.268959    0.006476
  12 H :    0.156641    0.104789
  13 H :    0.321410   -0.004355
  14 H :    0.184696    0.001633
  15 H :    0.175142   -0.001347
  16 H :    0.370976   -0.004484
  17 H :    0.217887    0.000455
  18 H :    0.289910    0.000034
  19 H :    0.254932   -0.000051
  20 H :    0.278529    0.000025
  21 S :    0.014839    0.004538
  22 H :    0.395581   -0.102738
Sum of atomic charges         :    0.0000000

LOEWDIN ATOMIC CHARGES AND SPIN POPULATIONS
-------------------------------------------
   0 C :    0.475505    0.455039
   1 C :    0.503913    0.130732
   2 C :    0.507656    0.130573
   3 C :    0.428691    0.017248
   4 C :   -0.262703    0.002722
   5 C :    0.441134    0.017365
   6 C :   -1.065901    0.000393
   7 C :    0.786020    0.000093
   8 O :    0.666161    0.000097
   9 H :   -0.268084    0.030526
  10 H :   -0.282176    0.011105
  11 H :   -0.281256    0.010942
  12 H :   -0.265859    0.030101
  13 H :   -0.280894    0.002980
  14 H :   -0.278043    0.006158
  15 H :   -0.382170    0.000923
  16 H :   -0.294736    0.002994
  17 H :   -0.278451    0.006173
  18 H :   -0.312513    0.000028
  19 H :   -0.346974    0.000046
  20 H :   -0.303259    0.000031
  21 S :    1.386558    0.000954
  22 H :   -0.292620    0.142779

  Mayer bond orders larger than 0.100000
B(  0-C ,  1-C ) :   0.8187 B(  0-C ,  2-C ) :   0.8315 B(  0-C , 22-H ) :   0.8563
B(  1-C ,  3-C ) :   0.9937 B(  1-C ,  4-C ) :  -0.1522 B(  1-C ,  9-H ) :   0.9668
B(  1-C , 10-H ) :   0.9823 B(  2-C ,  5-C ) :   0.9243 B(  2-C , 11-H ) :   0.9723
B(  2-C , 12-H ) :   0.9547 B(  3-C ,  4-C ) :   0.5950 B(  3-C , 13-H ) :   0.9140
B(  3-C , 14-H ) :   1.0021 B(  4-C ,  5-C ) :   0.7803 B(  4-C , 15-H ) :   0.9876
B(  4-C , 21-S ) :   0.5029 B(  5-C , 16-H ) :   0.8817 B(  5-C , 17-H ) :   0.9576
B(  6-C ,  7-C ) :   0.7019 B(  6-C ,  8-O ) :   1.3652 B(  6-C , 21-S ) :   1.0204
B(  7-C , 18-H ) :   0.9817 B(  7-C , 19-H ) :   1.0077 B(  7-C , 20-H ) :   0.9201

MP2 TOTAL ENERGY:     -784.921291889 Eh
FINAL SINGLE POINT ENERGY      -784.921291889389

DIPOLE MOMENT
-------------
                                X             Y             Z
Electronic contribution:     -6.59977      -1.47812      -0.09422
Nuclear contribution   :      6.65876       1.09891      -0.18895
                        -----------------------------------------
Total Dipole Moment    :      0.05899      -0.37921      -0.28317
                        -----------------------------------------
Magnitude (a.u.)       :      0.47694
Magnitude (Debye)      :      1.21227

Rotational constants in cm-1:     0.087036     0.020950     0.018648
Rotational constants in MHz :  2609.259844   628.060835   559.047013

                             ****ORCA TERMINATED NORMALLY****
TOTAL RUN TIME: 0 days 1 hours 35 minutes 55 seconds 249 msec
