                         Program Version 4.2.1 -  RELEASE  -
|  1> %pal
|  2>  nprocs 32
|  3> end
|  4> !RI-MP2 aug-cc-pVQZ aug-cc-pVQZ/C TightSCF
|  5> %maxcore 4500
|  6> *xyzfile -1 1  08_9P2.xyz
|  7>
|  8>
|  9>                          ****END OF INPUT****

CARTESIAN COORDINATES (ANGSTROEM)
---------------------------------
  N      1.283805    1.359301    0.000030
  C      2.321375    0.512166   -0.000055
  N      2.061946   -0.810273   -0.000125
  C      0.707162   -0.842294   -0.000075
  C      0.231847    0.486162    0.000020
  C     -1.141188    0.674983    0.000082
  N     -0.129555   -1.904978   -0.000105
  C     -1.405441   -1.578906   -0.000037
  N     -1.967889   -0.349678    0.000054
  H      3.341918    0.878817   -0.000073
  H     -2.115261   -2.402535   -0.000060
  O     -1.667423    1.928046    0.000173
  H     -0.907943    2.526082    0.000178

 Total Charge           Charge          ....   -1
 Multiplicity           Mult            ....    1
 Number of Electrons    NEL             ....   70
 Basis Dimension        Dim             ....  938

ORBITAL ENERGIES
----------------

  NO   OCC          E(Eh)            E(eV)
   0   2.0000     -20.458950      -556.7163
   1   2.0000     -15.401462      -419.0951
   2   2.0000     -15.399515      -419.0421
   3   2.0000     -15.381253      -418.5452
   4   2.0000     -15.370653      -418.2567
   5   2.0000     -11.192230      -304.5561
   6   2.0000     -11.151886      -303.4582
   7   2.0000     -11.126466      -302.7665
   8   2.0000     -11.123998      -302.6994
   9   2.0000     -11.079922      -301.5000
  10   2.0000      -1.284205       -34.9450
  11   2.0000      -1.166975       -31.7550
  12   2.0000      -1.119624       -30.4665
  13   2.0000      -1.029968       -28.0269
  14   2.0000      -0.964042       -26.2329
  15   2.0000      -0.863099       -23.4861
  16   2.0000      -0.732338       -19.9279
  17   2.0000      -0.702130       -19.1059
  18   2.0000      -0.644310       -17.5326
  19   2.0000      -0.586825       -15.9683
  20   2.0000      -0.563372       -15.3301
  21   2.0000      -0.500704       -13.6249
  22   2.0000      -0.481657       -13.1066
  23   2.0000      -0.469363       -12.7720
  24   2.0000      -0.450416       -12.2564
  25   2.0000      -0.417452       -11.3595
  26   2.0000      -0.408657       -11.1201
  27   2.0000      -0.358657        -9.7596
  28   2.0000      -0.347091        -9.4448
  29   2.0000      -0.297586        -8.0977
  30   2.0000      -0.269071        -7.3218
  31   2.0000      -0.264793        -7.2054
  32   2.0000      -0.246343        -6.7033
  33   2.0000      -0.183201        -4.9851
  34   2.0000      -0.146301        -3.9811
  35   0.0000       0.106181         2.8893
  36   0.0000       0.112567         3.0631
  37   0.0000       0.118494         3.2244
  38   0.0000       0.150382         4.0921
  39   0.0000       0.153493         4.1768

MULLIKEN ATOMIC CHARGES
-----------------------
   0 N :   -0.724400
   1 C :   -0.344796
   2 N :   -0.827476
   3 C :    0.820564
   4 C :   -0.348963
   5 C :    1.460864
   6 N :   -0.653853
   7 C :   -0.329375
   8 N :   -0.741351
   9 H :    0.557064
  10 H :    0.600836
  11 O :   -0.825822
  12 H :    0.356708
Sum of atomic charges:   -1.0000000

LOEWDIN ATOMIC CHARGES
----------------------
   0 N :    0.530910
   1 C :   -0.295667
   2 N :    0.518446
   3 C :   -0.792572
   4 C :   -0.575088
   5 C :   -0.755491
   6 N :    0.547089
   7 C :   -0.265466
   8 N :    0.524800
   9 H :   -0.392874
  10 H :   -0.419980
  11 O :    1.241552
  12 H :   -0.865659

  Mayer bond orders larger than 0.100000
B(  0-N ,  1-C ) :   1.6256 B(  0-N ,  4-C ) :   0.7116 B(  1-C ,  2-N ) :   1.5249
B(  1-C ,  9-H ) :   0.7089 B(  2-N ,  3-C ) :   0.8537 B(  3-C ,  4-C ) :   1.2963
B(  3-C ,  5-C ) :  -0.1799 B(  3-C ,  6-N ) :   0.9127 B(  4-C ,  5-C ) :   1.3270
B(  4-C ,  7-C ) :   0.1148 B(  4-C , 11-O ) :   0.4557 B(  5-C ,  8-N ) :   1.0236
B(  5-C , 11-O ) :   0.2576 B(  6-N ,  7-C ) :   1.5229 B(  7-C ,  8-N ) :   1.3112
B(  7-C , 10-H ) :   0.6958 B(  8-N , 11-O ) :   0.1404 B( 11-O , 12-H ) :   0.8533

MP2 TOTAL ENERGY:     -485.943923640 Eh
FINAL SINGLE POINT ENERGY      -485.943923639874

DIPOLE MOMENT
-------------
                                X             Y             Z
Electronic contribution:     -0.75062      -0.21771       0.00002
Nuclear contribution   :      0.28751       0.98097       0.00004
                        -----------------------------------------
Total Dipole Moment    :     -0.46311       0.76326       0.00006
                        -----------------------------------------
Magnitude (a.u.)       :      0.89277
Magnitude (Debye)      :      2.26924

Rotational constants in cm-1:     0.080382     0.054509     0.032482
Rotational constants in MHz :  2409.783040  1634.146941   973.790249

                             ****ORCA TERMINATED NORMALLY****
TOTAL RUN TIME: 0 days 0 hours 25 minutes 43 seconds 875 msec
