                         Program Version 4.2.1 -  RELEASE  -
|  1> %pal
|  2>  nprocs 32
|  3> end
|  4> !RI-MP2 aug-cc-pVQZ aug-cc-pVQZ/C TightSCF
|  5> %maxcore 4500
|  6> *xyzfile 0 1  02_19TS.xyz
|  7>
|  8>
|  9>                          ****END OF INPUT****

CARTESIAN COORDINATES (ANGSTROEM)
---------------------------------
  C      0.521404   -1.012810    0.203075
  C     -0.232487    1.607379    0.318856
  C      1.894877   -0.995841   -0.099202
  H      0.159944   -1.220074    1.201355
  C     -0.423069   -0.979384   -0.868193
  C      0.508002    1.899479   -0.816762
  C     -1.648385    1.807681    0.621284
  H      0.318067    1.299810    1.186152
  C      1.840821    1.489947   -0.898477
  C      2.637401    0.811688    0.051832
  C      4.083846    0.623179   -0.415522
  C      2.530910    1.184688    1.530854
  C      2.833828   -1.804745    0.780899
  H      2.086868   -1.131587   -1.160250
  H      1.876528    0.526411    2.103101
  H      3.510553    1.142678    2.004982
  H      2.158811    2.204431    1.640634
  C      4.921804   -0.411534    0.336125
  H      4.076356    0.357382   -1.477897
  H      4.588042    1.594674   -0.344177
  C      4.276412   -1.792254    0.291809
  H      2.774759   -1.469733    1.820818
  H      2.467982   -2.835002    0.778139
  C      6.340648   -0.447705   -0.223897
  H      4.990664   -0.111665    1.387871
  H      4.871878   -2.489676    0.888968
  H      4.303794   -2.165873   -0.739450
  C     -0.081434    2.477501   -2.082928
  H      2.279282    1.567856   -1.889660
  H     -0.682316    3.365681   -1.897980
  H      0.719748    2.760435   -2.765626
  H     -0.694237    1.733736   -2.594841
  H      6.334850   -0.743702   -1.277167
  H      6.821511    0.531227   -0.155459
  H      6.960228   -1.165182    0.319279
  C     -2.627703    2.280217   -0.420196
  H     -2.457270    3.325314   -0.684774
  H     -2.546854    1.692136   -1.332960
  H     -3.651321    2.199534   -0.061853
  C     -2.021020    1.519433    1.881273
  C     -3.376025    1.576089    2.498226
  H     -3.364086    2.217837    3.384493
  H     -4.151441    1.944084    1.828980
  H     -3.658264    0.575323    2.839621
  H     -1.248290    1.149171    2.548370
  C     -1.860371   -1.244462   -0.548662
  O     -0.110930   -0.791437   -2.050768
  C     -2.817584   -1.327724   -1.471960
  C     -2.479171   -1.514455    0.791160
  H     -2.661575   -1.191375   -2.533409
  C     -4.152150   -1.638635   -0.864838
  N     -3.819204   -1.660781    0.546182
  H     -4.436700   -1.997060    1.267177
  O     -1.958545   -1.598656    1.885945
  C     -5.243209   -0.631238   -1.211004
  H     -6.177322   -0.884589   -0.705676
  H     -5.431212   -0.628985   -2.286609
  H     -4.943771    0.371573   -0.905722
  H     -4.469060   -2.637538   -1.193626

 Total Charge           Charge          ....    0
 Multiplicity           Mult            ....    1
 Number of Electrons    NEL             ....  194
 Basis Dimension        Dim             .... 3598

ORBITAL ENERGIES
----------------

  NO   OCC          E(Eh)            E(eV)
   0   2.0000     -20.509711      -558.0976
   1   2.0000     -20.476373      -557.1904
   2   2.0000     -15.575837      -423.8401
   3   2.0000     -11.344273      -308.6933
   4   2.0000     -11.289094      -307.1919
   5   2.0000     -11.285877      -307.1043
   6   2.0000     -11.253757      -306.2303
   7   2.0000     -11.250874      -306.1518
   8   2.0000     -11.246940      -306.0448
   9   2.0000     -11.239352      -305.8383
  10   2.0000     -11.237418      -305.7857
  11   2.0000     -11.237295      -305.7824
  12   2.0000     -11.234300      -305.7008
  13   2.0000     -11.233309      -305.6739
  14   2.0000     -11.230748      -305.6042
  15   2.0000     -11.227571      -305.5177
  16   2.0000     -11.221029      -305.3397
  17   2.0000     -11.220896      -305.3361
  18   2.0000     -11.219954      -305.3105
  19   2.0000     -11.217804      -305.2520
  20   2.0000     -11.217541      -305.2448
  21   2.0000     -11.217096      -305.2327
  22   2.0000     -11.211630      -305.0840
  23   2.0000     -11.209552      -305.0274
  24   2.0000     -11.206146      -304.9347
  25   2.0000     -11.183814      -304.3271
  26   2.0000      -1.377761       -37.4908
  27   2.0000      -1.324248       -36.0346
  28   2.0000      -1.258637       -34.2493
  29   2.0000      -1.145583       -31.1729
  30   2.0000      -1.120229       -30.4830
  31   2.0000      -1.087015       -29.5792
  32   2.0000      -1.076364       -29.2893
  33   2.0000      -1.052671       -28.6446
  34   2.0000      -1.038827       -28.2679
  35   2.0000      -1.033772       -28.1304
  36   2.0000      -0.989809       -26.9341
  37   2.0000      -0.978864       -26.6362
  38   2.0000      -0.954420       -25.9711
  39   2.0000      -0.937161       -25.5014
  40   2.0000      -0.919818       -25.0295
  41   2.0000      -0.907144       -24.6846
  42   2.0000      -0.884207       -24.0605
  43   2.0000      -0.873025       -23.7562
  44   2.0000      -0.827267       -22.5111
  45   2.0000      -0.808333       -21.9959
  46   2.0000      -0.798771       -21.7357
  47   2.0000      -0.761970       -20.7343
  48   2.0000      -0.743910       -20.2428
  49   2.0000      -0.726128       -19.7590
  50   2.0000      -0.712451       -19.3868
  51   2.0000      -0.700126       -19.0514
  52   2.0000      -0.683894       -18.6097
  53   2.0000      -0.661200       -17.9922
  54   2.0000      -0.649749       -17.6806
  55   2.0000      -0.646834       -17.6012
  56   2.0000      -0.634497       -17.2655
  57   2.0000      -0.628693       -17.1076
  58   2.0000      -0.619410       -16.8550
  59   2.0000      -0.611853       -16.6494
  60   2.0000      -0.604206       -16.4413
  61   2.0000      -0.597428       -16.2568
  62   2.0000      -0.588908       -16.0250
  63   2.0000      -0.586207       -15.9515
  64   2.0000      -0.580543       -15.7974
  65   2.0000      -0.570889       -15.5347
  66   2.0000      -0.568714       -15.4755
  67   2.0000      -0.565468       -15.3872
  68   2.0000      -0.560207       -15.2440
  69   2.0000      -0.557099       -15.1594
  70   2.0000      -0.553891       -15.0721
  71   2.0000      -0.548220       -14.9178
  72   2.0000      -0.544986       -14.8298
  73   2.0000      -0.540743       -14.7144
  74   2.0000      -0.535098       -14.5608
  75   2.0000      -0.527657       -14.3583
  76   2.0000      -0.522807       -14.2263
  77   2.0000      -0.518442       -14.1075
  78   2.0000      -0.514461       -13.9992
  79   2.0000      -0.510492       -13.8912
  80   2.0000      -0.502592       -13.6762
  81   2.0000      -0.498694       -13.5702
  82   2.0000      -0.491936       -13.3862
  83   2.0000      -0.485971       -13.2239
  84   2.0000      -0.478744       -13.0273
  85   2.0000      -0.473905       -12.8956
  86   2.0000      -0.458500       -12.4764
  87   2.0000      -0.453438       -12.3387
  88   2.0000      -0.441752       -12.0207
  89   2.0000      -0.426006       -11.5922
  90   2.0000      -0.417045       -11.3484
  91   2.0000      -0.396233       -10.7820
  92   2.0000      -0.382977       -10.4213
  93   2.0000      -0.379762       -10.3339
  94   2.0000      -0.367700       -10.0056
  95   2.0000      -0.307264        -8.3611
  96   2.0000      -0.247115        -6.7243
  97   0.0000       0.018051         0.4912
  98   0.0000       0.022230         0.6049
  99   0.0000       0.025442         0.6923
 100   0.0000       0.027332         0.7437
 101   0.0000       0.031801         0.8653

MULLIKEN ATOMIC CHARGES
-----------------------
   0 C :   -0.920491
   1 C :   -0.328335
   2 C :    1.018330
   3 H :    0.036193
   4 C :    1.806127
   5 C :    0.407149
   6 C :    0.433903
   7 H :    1.046978
   8 C :   -0.791447
   9 C :    2.562331
  10 C :   -0.422253
  11 C :   -1.306511
  12 C :   -0.706042
  13 H :    0.289747
  14 H :    0.318680
  15 H :    0.037665
  16 H :    0.240368
  17 C :    0.245077
  18 H :    0.181449
  19 H :    0.160823
  20 C :   -0.698344
  21 H :    0.137020
  22 H :    0.178710
  23 C :   -1.191412
  24 H :    0.150372
  25 H :    0.111278
  26 H :    0.162344
  27 C :   -1.293964
  28 H :    0.013696
  29 H :    0.144994
  30 H :    0.269828
  31 H :    0.137189
  32 H :    0.149313
  33 H :    0.203999
  34 H :    0.218175
  35 C :   -1.085224
  36 H :    0.176003
  37 H :    0.340681
  38 H :    0.309055
  39 C :   -0.659713
  40 C :   -1.041649
  41 H :    0.347305
  42 H :    0.219781
  43 H :    0.221441
  44 H :    0.149588
  45 C :   -0.505185
  46 O :   -1.443880
  47 C :   -0.592026
  48 C :    2.240588
  49 H :    0.143870
  50 C :    0.118870
  51 N :   -0.765248
  52 H :   -0.056199
  53 O :   -1.267482
  54 C :   -1.172115
  55 H :    0.255614
  56 H :    0.263983
  57 H :    0.403275
  58 H :    0.395730
Sum of atomic charges:   -0.0000000

LOEWDIN ATOMIC CHARGES
----------------------
   0 C :    0.296776
   1 C :    0.357096
   2 C :    0.236812
   3 H :   -0.397611
   4 C :   -0.731139
   5 C :    0.012698
   6 C :    0.030805
   7 H :   -0.498328
   8 C :    0.381414
   9 C :   -0.072528
  10 C :    0.509542
  11 C :    0.943335
  12 C :    0.552369
  13 H :   -0.334042
  14 H :   -0.290007
  15 H :   -0.287034
  16 H :   -0.256468
  17 C :    0.130263
  18 H :   -0.276849
  19 H :   -0.246660
  20 C :    0.547397
  21 H :   -0.277538
  22 H :   -0.250992
  23 C :    0.941479
  24 H :   -0.286962
  25 H :   -0.250930
  26 H :   -0.256131
  27 C :    0.912630
  28 H :   -0.308974
  29 H :   -0.306987
  30 H :   -0.296907
  31 H :   -0.298506
  32 H :   -0.269832
  33 H :   -0.268329
  34 H :   -0.268922
  35 C :    0.906999
  36 H :   -0.272228
  37 H :   -0.310851
  38 H :   -0.336348
  39 C :    0.392671
  40 C :    0.931515
  41 H :   -0.275082
  42 H :   -0.322279
  43 H :   -0.292951
  44 H :   -0.320014
  45 C :   -0.104072
  46 O :    0.742019
  47 C :    0.361708
  48 C :   -0.865905
  49 H :   -0.268366
  50 C :   -0.049651
  51 N :    0.837242
  52 H :   -0.451018
  53 O :    0.740714
  54 C :    0.944329
  55 H :   -0.270985
  56 H :   -0.271443
  57 H :   -0.304078
  58 H :   -0.262863

  Mayer bond orders larger than 0.100000
B(  0-C ,  1-C ) :  -0.1588 B(  0-C ,  2-C ) :  -0.2505 B(  0-C ,  3-H ) :   1.3448
B(  0-C ,  4-C ) :   0.9932 B(  0-C ,  6-C ) :   0.1053 B(  0-C ,  7-H ) :   0.1017
B(  0-C ,  8-C ) :   0.2318 B(  0-C , 12-C ) :  -0.1205 B(  0-C , 13-H ) :  -0.4153
B(  0-C , 45-C ) :  -0.4822 B(  0-C , 46-O ) :   0.8589 B(  0-C , 53-O ) :  -0.1190
B(  1-C ,  2-C ) :   0.3674 B(  1-C ,  5-C ) :   1.3300 B(  1-C ,  6-C ) :   0.2579
B(  1-C ,  7-H ) :   0.2872 B(  1-C ,  8-C ) :  -0.4424 B(  1-C , 31-H ) :   0.2255
B(  1-C , 35-C ) :  -0.3611 B(  1-C , 36-H ) :  -0.1165 B(  1-C , 37-H ) :   0.1965
B(  1-C , 39-C ) :  -0.1488 B(  1-C , 45-C ) :   0.2043 B(  2-C ,  4-C ) :  -0.1774
B(  2-C ,  9-C ) :   0.2513 B(  2-C , 10-C ) :   0.1978 B(  2-C , 12-C ) :   0.5117
B(  2-C , 13-H ) :   1.0970 B(  2-C , 17-C ) :   0.2266 B(  2-C , 20-C ) :  -0.1282
B(  2-C , 22-H ) :  -0.1205 B(  2-C , 45-C ) :  -0.1612 B(  2-C , 46-O ) :  -0.1898
B(  2-C , 48-C ) :   0.1410 B(  3-H ,  4-C ) :  -0.2021 B(  3-H , 45-C ) :   0.2548
B(  4-C ,  7-H ) :   0.2040 B(  4-C , 45-C ) :   0.6026 B(  4-C , 46-O ) :  -0.8620
B(  4-C , 47-C ) :  -0.2245 B(  4-C , 48-C ) :  -0.1098 B(  4-C , 53-O ) :  -0.1345
B(  5-C ,  6-C ) :  -0.1057 B(  5-C ,  7-H ) :  -0.3015 B(  5-C ,  8-C ) :   0.6841
B(  5-C ,  9-C ) :  -0.2729 B(  5-C , 10-C ) :  -0.1368 B(  5-C , 27-C ) :   0.3388
B(  5-C , 28-H ) :  -0.1458 B(  5-C , 29-H ) :  -0.2292 B(  5-C , 30-H ) :  -0.1177
B(  5-C , 31-H ) :  -0.3058 B(  5-C , 45-C ) :   0.1029 B(  5-C , 46-O ) :   0.1505
B(  6-C ,  7-H ) :  -0.1781 B(  6-C , 35-C ) :   0.5644 B(  6-C , 36-H ) :  -0.1283
B(  6-C , 37-H ) :  -0.2112 B(  6-C , 38-H ) :  -0.1756 B(  6-C , 39-C ) :   1.0524
B(  6-C , 40-C ) :  -0.1416 B(  6-C , 42-H ) :   0.1110 B(  6-C , 44-H ) :  -0.1803
B(  6-C , 53-O ) :   0.1488 B(  7-H , 11-C ) :  -0.2241 B(  7-H , 39-C ) :  -0.3368
B(  7-H , 44-H ) :  -0.1281 B(  8-C ,  9-C ) :   0.1669 B(  8-C , 10-C ) :  -0.2156
B(  8-C , 27-C ) :  -0.3309 B(  8-C , 28-H ) :   1.5305 B(  9-C , 10-C ) :   0.1865
B(  9-C , 15-H ) :  -0.2335 B(  9-C , 16-H ) :  -0.2158 B(  9-C , 17-C ) :  -0.1761
B(  9-C , 18-H ) :  -0.2274 B(  9-C , 19-H ) :  -0.1518 B(  9-C , 21-H ) :  -0.1023
B(  9-C , 28-H ) :  -0.2725 B(  9-C , 46-O ) :   0.1004 B( 10-C , 17-C ) :   0.4556
B( 10-C , 18-H ) :   1.2478 B( 10-C , 19-H ) :   1.1501 B( 10-C , 23-C ) :  -0.1693
B( 11-C , 14-H ) :   1.0607 B( 11-C , 15-H ) :   1.3926 B( 11-C , 16-H ) :   1.1474
B( 12-C , 20-C ) :   0.8026 B( 12-C , 21-H ) :   1.2198 B( 12-C , 22-H ) :   1.0976
B( 12-C , 25-H ) :  -0.1136 B( 17-C , 19-H ) :  -0.1341 B( 17-C , 20-C ) :   0.4424
B( 17-C , 23-C ) :   0.4206 B( 17-C , 24-H ) :   1.0788 B( 17-C , 25-H ) :  -0.1682
B( 17-C , 32-H ) :  -0.2220 B( 17-C , 33-H ) :  -0.1335 B( 17-C , 34-H ) :  -0.1536
B( 20-C , 23-C ) :   0.1917 B( 20-C , 25-H ) :   1.2118 B( 20-C , 26-H ) :   1.1369
B( 23-C , 32-H ) :   1.1575 B( 23-C , 33-H ) :   1.1301 B( 23-C , 34-H ) :   1.1273
B( 27-C , 29-H ) :   1.3448 B( 27-C , 30-H ) :   1.0557 B( 27-C , 31-H ) :   1.1248
B( 29-H , 31-H ) :   0.1041 B( 35-C , 36-H ) :   1.2379 B( 35-C , 37-H ) :   0.9768
B( 35-C , 38-H ) :   0.9290 B( 39-C , 40-C ) :   0.5657 B( 39-C , 41-H ) :  -0.1800
B( 39-C , 43-H ) :  -0.1846 B( 39-C , 44-H ) :   1.3561 B( 40-C , 41-H ) :   1.0136
B( 40-C , 42-H ) :   1.0454 B( 40-C , 43-H ) :   1.0862 B( 45-C , 46-O ) :   0.6592
B( 45-C , 47-C ) :   0.8968 B( 45-C , 48-C ) :   0.8352 B( 45-C , 49-H ) :  -0.1266
B( 45-C , 50-C ) :  -0.4706 B( 45-C , 51-N ) :  -0.2168 B( 45-C , 52-H ) :   0.1107
B( 45-C , 53-O ) :   0.8741 B( 47-C , 49-H ) :   1.2310 B( 47-C , 50-C ) :   1.2287
B( 47-C , 54-C ) :  -0.1814 B( 48-C , 51-N ) :   0.7703 B( 48-C , 52-H ) :  -0.3051
B( 48-C , 53-O ) :  -0.2040 B( 49-H , 50-C ) :   0.1140 B( 50-C , 51-N ) :   0.5483
B( 50-C , 54-C ) :   0.9490 B( 50-C , 58-H ) :   0.8365 B( 51-N , 52-H ) :   1.3546
B( 51-N , 53-O ) :   0.2557 B( 54-C , 55-H ) :   1.0611 B( 54-C , 56-H ) :   1.0122
B( 54-C , 57-H ) :   0.7969

MP2 TOTAL ENERGY:    -1099.540304913 Eh
FINAL SINGLE POINT ENERGY     -1099.540304912902

DIPOLE MOMENT
-------------
                                X             Y             Z
Electronic contribution:    -11.85430      -9.49488      -1.04977
Nuclear contribution   :     10.93597      10.08405       1.22303
                        -----------------------------------------
Total Dipole Moment    :     -0.91834       0.58917       0.17326
                        -----------------------------------------
Magnitude (a.u.)       :      1.10476
Magnitude (Debye)      :      2.80807

Rotational constants in cm-1:     0.012833     0.004333     0.004075
Rotational constants in MHz :   384.738627   129.887007   122.178472

                             ****ORCA TERMINATED NORMALLY****
TOTAL RUN TIME: 1 days 10 hours 52 minutes 10 seconds 747 msec
