                         Program Version 4.2.1 -  RELEASE  -
|  1> %pal
|  2>  nprocs 32
|  3> end
|  4> !RI-MP2 aug-cc-pVQZ aug-cc-pVQZ/C TightSCF
|  5> %maxcore 4500
|  6> *xyzfile 1 1  10_33P.xyz
|  7>
|  8>
|  9>                          ****END OF INPUT****

CARTESIAN COORDINATES (ANGSTROEM)
---------------------------------
  C      2.040222   -1.612672    1.191093
  C      1.164935   -1.935649   -0.021738
  C      2.683925   -0.551447   -0.866440
  C      3.124520   -0.670380    0.600340
  H      1.495437   -1.178896    2.026726
  H      2.466358   -2.547559    1.554549
  H      3.178884    0.287593    1.108004
  H      4.117255   -1.118224    0.654892
  C      2.191231   -1.973738   -1.157199
  H      1.762243   -2.091142   -2.151527
  H      2.949000   -2.736442   -0.986940
  H      0.466098   -2.761877    0.084918
  H      3.421096   -0.147863   -1.554285
  N      1.404296    0.165341   -1.047916
  N      0.396108   -0.690315   -0.439887
  C     -0.416632    0.097416    0.597096
  C     -1.874847   -0.000395    0.241729
  C     -2.370633    0.583086   -0.925148
  C     -2.741357   -0.697093    1.076524
  C     -3.712451    0.464116   -1.249576
  H     -1.716631    1.146463   -1.582890
  C     -4.087951   -0.807391    0.755935
  H     -2.366791   -1.149748    1.988018
  C     -4.572835   -0.230225   -0.407608
  H     -4.090611    0.921131   -2.155262
  H     -4.756515   -1.345039    1.416214
  H     -5.622313   -0.316625   -0.659121
  C      1.096249    1.556341   -0.672522
  H      0.462058    1.936097   -1.478417
  C      0.211723    1.508836    0.601731
  H     -0.593676    2.230783    0.466057
  C      2.325415    2.445512   -0.632776
  H      2.852983    2.406616   -1.586547
  H      2.015036    3.479130   -0.476646
  H      3.021580    2.181703    0.161168
  C      0.889169    1.832858    1.929597
  H      1.301529    2.841645    1.921220
  H      0.155820    1.790502    2.737155
  H      1.695038    1.143332    2.180328
  H     -0.254622   -0.392402    1.552416
  H     -0.266176   -0.959419   -1.171649

 Total Charge           Charge          ....    1
 Multiplicity           Mult            ....    1
 Number of Electrons    NEL             ....  132
 Basis Dimension        Dim             .... 2498

ORBITAL ENERGIES
----------------

  NO   OCC          E(Eh)            E(eV)
   0   2.0000     -15.841480      -431.0686
   1   2.0000     -15.738573      -428.2684
   2   2.0000     -11.436329      -311.1983
   3   2.0000     -11.431176      -311.0581
   4   2.0000     -11.408536      -310.4421
   5   2.0000     -11.403636      -310.3087
   6   2.0000     -11.374420      -309.5137
   7   2.0000     -11.372911      -309.4726
   8   2.0000     -11.371937      -309.4461
   9   2.0000     -11.370229      -309.3997
  10   2.0000     -11.358953      -309.0928
  11   2.0000     -11.358343      -309.0762
  12   2.0000     -11.357034      -309.0406
  13   2.0000     -11.350516      -308.8633
  14   2.0000     -11.348564      -308.8101
  15   2.0000     -11.346780      -308.7616
  16   2.0000     -11.343516      -308.6728
  17   2.0000     -11.342190      -308.6367
  18   2.0000      -1.529086       -41.6085
  19   2.0000      -1.313725       -35.7483
  20   2.0000      -1.293809       -35.2063
  21   2.0000      -1.274918       -34.6923
  22   2.0000      -1.223959       -33.3056
  23   2.0000      -1.160377       -31.5755
  24   2.0000      -1.138998       -30.9937
  25   2.0000      -1.127002       -30.6673
  26   2.0000      -1.121066       -30.5058
  27   2.0000      -1.074843       -29.2480
  28   2.0000      -1.060402       -28.8550
  29   2.0000      -1.009115       -27.4594
  30   2.0000      -0.962475       -26.1903
  31   2.0000      -0.952248       -25.9120
  32   2.0000      -0.941337       -25.6151
  33   2.0000      -0.921538       -25.0763
  34   2.0000      -0.914534       -24.8857
  35   2.0000      -0.871033       -23.7020
  36   2.0000      -0.840767       -22.8784
  37   2.0000      -0.831942       -22.6383
  38   2.0000      -0.802551       -21.8385
  39   2.0000      -0.784717       -21.3532
  40   2.0000      -0.769697       -20.9445
  41   2.0000      -0.756426       -20.5834
  42   2.0000      -0.749188       -20.3864
  43   2.0000      -0.737647       -20.0724
  44   2.0000      -0.735287       -20.0082
  45   2.0000      -0.712003       -19.3746
  46   2.0000      -0.706912       -19.2361
  47   2.0000      -0.705296       -19.1921
  48   2.0000      -0.686555       -18.6821
  49   2.0000      -0.677732       -18.4420
  50   2.0000      -0.670216       -18.2375
  51   2.0000      -0.665418       -18.1070
  52   2.0000      -0.659290       -17.9402
  53   2.0000      -0.654094       -17.7988
  54   2.0000      -0.642576       -17.4854
  55   2.0000      -0.641530       -17.4569
  56   2.0000      -0.624389       -16.9905
  57   2.0000      -0.622147       -16.9295
  58   2.0000      -0.616053       -16.7636
  59   2.0000      -0.615442       -16.7470
  60   2.0000      -0.609091       -16.5742
  61   2.0000      -0.598819       -16.2947
  62   2.0000      -0.591760       -16.1026
  63   2.0000      -0.515268       -14.0211
  64   2.0000      -0.458795       -12.4845
  65   2.0000      -0.458189       -12.4680
  66   0.0000      -0.066058        -1.7975
  67   0.0000      -0.056527        -1.5382
  68   0.0000      -0.053885        -1.4663
  69   0.0000      -0.051892        -1.4121
  70   0.0000      -0.040158        -1.0927

MULLIKEN ATOMIC CHARGES
-----------------------
   0 C :   -0.708120
   1 C :   -0.180920
   2 C :    0.191835
   3 C :   -0.684715
   4 H :    0.358510
   5 H :    0.168985
   6 H :    0.343630
   7 H :    0.120970
   8 C :   -0.924925
   9 H :    0.262502
  10 H :    0.198326
  11 H :    0.354861
  12 H :    0.328797
  13 N :   -0.274255
  14 N :    1.242293
  15 C :    0.830892
  16 C :    0.854466
  17 C :   -0.768009
  18 C :   -0.745797
  19 C :   -0.528100
  20 H :    0.285291
  21 C :   -0.415011
  22 H :    0.195522
  23 C :   -0.398685
  24 H :    0.230103
  25 H :    0.212276
  26 H :    0.341695
  27 C :    0.002464
  28 H :    0.405172
  29 C :    0.515581
  30 H :    0.518901
  31 C :   -1.094705
  32 H :    0.150702
  33 H :    0.144963
  34 H :    0.157305
  35 C :   -1.258643
  36 H :    0.079570
  37 H :    0.129515
  38 H :    0.258877
  39 H :    0.364417
  40 H :   -0.266534
Sum of atomic charges:    1.0000000

LOEWDIN ATOMIC CHARGES
----------------------
   0 C :    0.612141
   1 C :    0.154660
   2 C :    0.040673
   3 C :    0.610243
   4 H :   -0.277228
   5 H :   -0.229156
   6 H :   -0.308468
   7 H :   -0.227465
   8 C :    0.579854
   9 H :   -0.223173
  10 H :   -0.227777
  11 H :   -0.194070
  12 H :   -0.233529
  13 N :    0.551187
  14 N :    0.699974
  15 C :    0.112323
  16 C :   -0.041601
  17 C :    0.367405
  18 C :    0.381805
  19 C :    0.384210
  20 H :   -0.309741
  21 C :    0.378257
  22 H :   -0.301136
  23 C :    0.370782
  24 H :   -0.304797
  25 H :   -0.306262
  26 H :   -0.306233
  27 C :    0.041191
  28 H :   -0.293528
  29 C :    0.205905
  30 H :   -0.274795
  31 C :    0.967309
  32 H :   -0.249822
  33 H :   -0.249144
  34 H :   -0.296980
  35 C :    0.981249
  36 H :   -0.258051
  37 H :   -0.242745
  38 H :   -0.309089
  39 H :   -0.346478
  40 H :   -0.427900

  Mayer bond orders larger than 0.100000
B(  0-C ,  1-C ) :   0.7318 B(  0-C ,  3-C ) :   0.9564 B(  0-C ,  4-H ) :   0.9213
B(  0-C ,  5-H ) :   1.0762 B(  1-C ,  8-C ) :   0.8486 B(  1-C , 11-H ) :   0.9517
B(  1-C , 14-N ) :   0.6710 B(  2-C ,  3-C ) :   0.6995 B(  2-C ,  8-C ) :   0.8995
B(  2-C , 12-H ) :   0.9187 B(  2-C , 13-N ) :   0.7461 B(  2-C , 15-C ) :   0.1092
B(  3-C ,  6-H ) :   0.8971 B(  3-C ,  7-H ) :   1.1405 B(  8-C ,  9-H ) :   1.0190
B(  8-C , 10-H ) :   1.0673 B( 13-N , 14-N ) :   0.2442 B( 13-N , 27-C ) :   0.8218
B( 13-N , 28-H ) :  -0.1454 B( 14-N , 15-C ) :   0.7777 B( 14-N , 29-C ) :  -0.1797
B( 14-N , 40-H ) :   1.2845 B( 15-C , 16-C ) :  -0.7093 B( 15-C , 17-C ) :  -0.3287
B( 15-C , 18-C ) :  -0.3928 B( 15-C , 27-C ) :  -0.1239 B( 15-C , 29-C ) :   1.3926
B( 15-C , 30-H ) :   0.1439 B( 15-C , 39-H ) :   0.9744 B( 15-C , 40-H ) :  -0.2783
B( 16-C , 17-C ) :   0.6810 B( 16-C , 18-C ) :   0.7802 B( 16-C , 19-C ) :  -0.4603
B( 16-C , 21-C ) :  -0.5171 B( 16-C , 22-H ) :  -0.1618 B( 16-C , 29-C ) :   0.1952
B( 16-C , 39-H ) :  -0.1900 B( 16-C , 40-H ) :   0.1035 B( 17-C , 19-C ) :   1.3401
B( 17-C , 20-H ) :   1.0587 B( 17-C , 21-C ) :   0.1632 B( 17-C , 24-H ) :  -0.1268
B( 18-C , 19-C ) :   0.1794 B( 18-C , 21-C ) :   1.4971 B( 18-C , 22-H ) :   1.1706
B( 18-C , 25-H ) :  -0.1260 B( 18-C , 26-H ) :  -0.1028 B( 19-C , 23-C ) :   1.2526
B( 19-C , 24-H ) :   1.1401 B( 19-C , 26-H ) :  -0.1368 B( 21-C , 23-C ) :   1.1660
B( 21-C , 25-H ) :   1.1748 B( 23-C , 26-H ) :   1.0427 B( 27-C , 28-H ) :   0.9654
B( 27-C , 29-C ) :   1.0274 B( 27-C , 30-H ) :  -0.1366 B( 27-C , 32-H ) :  -0.2963
B( 27-C , 33-H ) :  -0.1842 B( 27-C , 34-H ) :  -0.1846 B( 28-H , 29-C ) :   0.1254
B( 29-C , 30-H ) :   0.8113 B( 29-C , 35-C ) :  -0.1038 B( 29-C , 36-H ) :  -0.2735
B( 29-C , 37-H ) :  -0.2189 B( 29-C , 38-H ) :  -0.2023 B( 31-C , 32-H ) :   1.2296
B( 31-C , 33-H ) :   1.2032 B( 31-C , 34-H ) :   1.1496 B( 35-C , 36-H ) :   1.3373
B( 35-C , 37-H ) :   1.2616 B( 35-C , 38-H ) :   1.1086

MP2 TOTAL ENERGY:     -731.483302390 Eh
FINAL SINGLE POINT ENERGY      -731.483302389792

DIPOLE MOMENT
-------------
                                X             Y             Z
Electronic contribution:    -11.10330      -4.38087      -4.14309
Nuclear contribution   :     12.01188       3.71193       4.14604
                        -----------------------------------------
Total Dipole Moment    :      0.90859      -0.66894       0.00295
                        -----------------------------------------
Magnitude (a.u.)       :      1.12828
Magnitude (Debye)      :      2.86787

Rotational constants in cm-1:     0.026168     0.010105     0.009156
Rotational constants in MHz :   784.494489   302.948559   274.499667

                             ****ORCA TERMINATED NORMALLY****
TOTAL RUN TIME: 0 days 8 hours 9 minutes 31 seconds 631 msec
