                         Program Version 4.2.1 -  RELEASE  -
|  1> %pal
|  2>  nprocs 320
|  3> end
|  4> !RI-MP2 aug-cc-pVQZ aug-cc-pVQZ/C TightSCF MORead KDIIS NOSOSCF
|  5> %maxcore 4500
|  6> %moinp "05_42TS.gbw"
|  7> %scf
|  8> DIISMaxEq 15
|  9> directresetfreq 10
| 10> end
| 11> *xyzfile 1 1  05_42TS.xyz
| 12>
| 13>
| 14>                          ****END OF INPUT****

CARTESIAN COORDINATES (ANGSTROEM)
---------------------------------
  C     -1.758834    0.997972   -1.095370
  C     -1.568097   -1.669062   -0.824844
  C     -3.096691   -1.680724   -0.958396
  C     -3.744269   -0.431098   -0.399705
  C     -3.261939    0.749596   -1.228956
  H     -3.367002   -1.778656   -2.014778
  H     -3.461832   -2.573138   -0.446779
  H     -3.457195   -0.282557    0.642988
  H     -3.516144    0.566803   -2.277393
  H     -3.777239    1.657673   -0.917247
  N     -1.023950   -0.305709   -1.117448
  O      0.234094   -0.243115   -1.303933
  C     -1.273908    1.840228   -2.274347
  H     -1.874396    2.749706   -2.319066
  H     -0.231588    2.127646   -2.165403
  H     -1.397756    1.300650   -3.214204
  C     -1.454188    1.720518    0.224218
  H     -0.387958    1.919959    0.319967
  H     -1.973731    2.679033    0.221123
  H     -1.805822    1.159573    1.089715
  C     -0.969712   -2.642416   -1.841373
  H      0.111008   -2.713301   -1.750435
  H     -1.397402   -3.631890   -1.674004
  H     -1.208968   -2.332700   -2.859566
  C     -1.159952   -2.071334    0.599007
  H     -1.503014   -3.089189    0.788207
  H     -0.079354   -2.053408    0.722165
  H     -1.600968   -1.416935    1.349827
  H      0.980093   -0.074083   -0.352265
  C      1.288279   -1.692181    4.118624
  C      2.321894   -2.188865    3.335830
  C      2.607324   -1.615589    2.108053
  C      1.865848   -0.522701    1.640510
  C      0.834019   -0.025849    2.451470
  C      0.545981   -0.605233    3.672512
  H      1.068436   -2.143322    5.078222
  H      2.919023   -3.020147    3.688950
  H      3.433589   -1.995135    1.524024
  H      0.251058    0.819164    2.116177
  H     -0.257215   -0.208127    4.280634
  C      2.166233    0.117131    0.336467
  C      3.037206   -0.624376   -0.610731
  C      4.182576   -0.037003   -1.161071
  C      2.742088   -1.952276   -0.949188
  C      5.003900   -0.757254   -2.011976
  H      4.449734    0.975731   -0.893595
  C      3.553835   -2.664516   -1.810626
  H      1.865204   -2.425296   -0.529196
  C      4.688889   -2.067091   -2.346573
  H      5.897529   -0.294662   -2.411430
  H      3.305357   -3.686932   -2.066101
  H      5.329212   -2.624539   -3.018810
  C      2.249091    1.599456    0.292652
  C      2.167747    2.259148   -0.942831
  C      2.441144    2.366284    1.447286
  C      2.249063    3.636272   -1.016826
  H      2.031434    1.678257   -1.845478
  C      2.536301    3.746366    1.367832
  H      2.549769    1.880283    2.406594
  C      2.430938    4.385666    0.140650
  H      2.175850    4.130092   -1.977727
  H      2.702526    4.323686    2.268531
  H      2.501320    5.464750    0.083037
  N     -5.187569   -0.541056   -0.402885
  C     -5.933274    0.263658    0.411201
  C     -7.427591    0.100388    0.330088
  H     -7.743171   -0.669232   -0.374607
  H     -7.804307   -0.146098    1.322998
  H     -7.868287    1.054954    0.041074
  O     -5.398546    1.061148    1.159032
  H     -5.644943   -1.156197   -1.056150

 Total Charge           Charge          ....    1
 Multiplicity           Mult            ....    1
 Number of Electrons    NEL             ....  246
 Basis Dimension        Dim             .... 4422

ORBITAL ENERGIES
----------------

  NO   OCC          E(Eh)            E(eV)
   0   2.0000     -20.785361      -565.5984
   1   2.0000     -20.593305      -560.3723
   2   2.0000     -15.790261      -429.6748
   3   2.0000     -15.669030      -426.3760
   4   2.0000     -11.428351      -310.9812
   5   2.0000     -11.427741      -310.9646
   6   2.0000     -11.401197      -310.2423
   7   2.0000     -11.394812      -310.0686
   8   2.0000     -11.366104      -309.2874
   9   2.0000     -11.365791      -309.2789
  10   2.0000     -11.363205      -309.2085
  11   2.0000     -11.362201      -309.1812
  12   2.0000     -11.352643      -308.9211
  13   2.0000     -11.352223      -308.9097
  14   2.0000     -11.351015      -308.8768
  15   2.0000     -11.350682      -308.8677
  16   2.0000     -11.349723      -308.8417
  17   2.0000     -11.349712      -308.8414
  18   2.0000     -11.348969      -308.8212
  19   2.0000     -11.347136      -308.7713
  20   2.0000     -11.345661      -308.7311
  21   2.0000     -11.341638      -308.6216
  22   2.0000     -11.340898      -308.6015
  23   2.0000     -11.339896      -308.5743
  24   2.0000     -11.338759      -308.5433
  25   2.0000     -11.338695      -308.5416
  26   2.0000     -11.338028      -308.5234
  27   2.0000     -11.336594      -308.4844
  28   2.0000     -11.327418      -308.2347
  29   2.0000     -11.324543      -308.1565
  30   2.0000     -11.324213      -308.1475
  31   2.0000     -11.322313      -308.0958
  32   2.0000     -11.318464      -307.9911
  33   2.0000     -11.307550      -307.6941
  34   2.0000      -1.623635       -44.1813
  35   2.0000      -1.464909       -39.8622
  36   2.0000      -1.330031       -36.1920
  37   2.0000      -1.307749       -35.5857
  38   2.0000      -1.288219       -35.0542
  39   2.0000      -1.268717       -34.5235
  40   2.0000      -1.266533       -34.4641
  41   2.0000      -1.221563       -33.2404
  42   2.0000      -1.207647       -32.8618
  43   2.0000      -1.154903       -31.4265
  44   2.0000      -1.139833       -31.0164
  45   2.0000      -1.139269       -31.0011
  46   2.0000      -1.128631       -30.7116
  47   2.0000      -1.125146       -30.6168
  48   2.0000      -1.124052       -30.5870
  49   2.0000      -1.104250       -30.0482
  50   2.0000      -1.072639       -29.1880
  51   2.0000      -1.057996       -28.7895
  52   2.0000      -1.048135       -28.5212
  53   2.0000      -1.043288       -28.3893
  54   2.0000      -1.042602       -28.3706
  55   2.0000      -0.956838       -26.0369
  56   2.0000      -0.955436       -25.9987
  57   2.0000      -0.948492       -25.8098
  58   2.0000      -0.938174       -25.5290
  59   2.0000      -0.934976       -25.4420
  60   2.0000      -0.932594       -25.3772
  61   2.0000      -0.931452       -25.3461
  62   2.0000      -0.898581       -24.4516
  63   2.0000      -0.881175       -23.9780
  64   2.0000      -0.873146       -23.7595
  65   2.0000      -0.823342       -22.4043
  66   2.0000      -0.822650       -22.3854
  67   2.0000      -0.806536       -21.9470
  68   2.0000      -0.804712       -21.8973
  69   2.0000      -0.798164       -21.7192
  70   2.0000      -0.790445       -21.5091
  71   2.0000      -0.770634       -20.9700
  72   2.0000      -0.763011       -20.7626
  73   2.0000      -0.762529       -20.7495
  74   2.0000      -0.754628       -20.5345
  75   2.0000      -0.740337       -20.1456
  76   2.0000      -0.739046       -20.1105
  77   2.0000      -0.738163       -20.0864
  78   2.0000      -0.728248       -19.8166
  79   2.0000      -0.723994       -19.7009
  80   2.0000      -0.718303       -19.5460
  81   2.0000      -0.707434       -19.2503
  82   2.0000      -0.704037       -19.1578
  83   2.0000      -0.702873       -19.1261
  84   2.0000      -0.701203       -19.0807
  85   2.0000      -0.699022       -19.0214
  86   2.0000      -0.694569       -18.9002
  87   2.0000      -0.692442       -18.8423
  88   2.0000      -0.689505       -18.7624
  89   2.0000      -0.679428       -18.4882
  90   2.0000      -0.676831       -18.4175
  91   2.0000      -0.670305       -18.2399
  92   2.0000      -0.661216       -17.9926
  93   2.0000      -0.650255       -17.6943
  94   2.0000      -0.646154       -17.5828
  95   2.0000      -0.637677       -17.3521
  96   2.0000      -0.635213       -17.2850
  97   2.0000      -0.632623       -17.2146
  98   2.0000      -0.626129       -17.0378
  99   2.0000      -0.624810       -17.0019
 100   2.0000      -0.619088       -16.8462
 101   2.0000      -0.617763       -16.8102
 102   2.0000      -0.614519       -16.7219
 103   2.0000      -0.612264       -16.6606
 104   2.0000      -0.611330       -16.6351
 105   2.0000      -0.606125       -16.4935
 106   2.0000      -0.603646       -16.4260
 107   2.0000      -0.598017       -16.2729
 108   2.0000      -0.594805       -16.1855
 109   2.0000      -0.589311       -16.0360
 110   2.0000      -0.587794       -15.9947
 111   2.0000      -0.582781       -15.8583
 112   2.0000      -0.567966       -15.4551
 113   2.0000      -0.565323       -15.3832
 114   2.0000      -0.526170       -14.3178
 115   2.0000      -0.504332       -13.7236
 116   2.0000      -0.478708       -13.0263
 117   2.0000      -0.458570       -12.4783
 118   2.0000      -0.451566       -12.2877
 119   2.0000      -0.451052       -12.2737
 120   2.0000      -0.442873       -12.0512
 121   2.0000      -0.441456       -12.0126
 122   2.0000      -0.406325       -11.0567
 123   0.0000      -0.152158        -4.1404
 124   0.0000      -0.050529        -1.3750
 125   0.0000      -0.044132        -1.2009
 126   0.0000      -0.043807        -1.1920
 127   0.0000      -0.041146        -1.1196

MULLIKEN ATOMIC CHARGES
-----------------------
   0 C :    1.430731
   1 C :    1.388427
   2 C :   -0.795380
   3 C :    1.877673
   4 C :   -1.006339
   5 H :    0.090931
   6 H :   -0.035571
   7 H :    0.199761
   8 H :    0.163632
   9 H :    0.084983
  10 N :    1.791845
  11 O :   -1.412675
  12 C :   -1.501527
  13 H :    0.164151
  14 H :    0.412567
  15 H :    0.156718
  16 C :   -1.161368
  17 H :    0.045273
  18 H :    0.000896
  19 H :    0.357816
  20 C :   -1.465346
  21 H :    0.301067
  22 H :    0.166485
  23 H :    0.171216
  24 C :   -1.194100
  25 H :   -0.058640
  26 H :    0.095388
  27 H :    0.370715
  28 H :    0.707231
  29 C :   -0.484183
  30 C :   -0.713712
  31 C :   -0.858709
  32 C :    1.750683
  33 C :   -0.991613
  34 C :   -0.675015
  35 H :    0.295277
  36 H :    0.205338
  37 H :    0.078464
  38 H :    0.658790
  39 H :    0.144326
  40 C :    2.941678
  41 C :    1.290023
  42 C :   -0.773176
  43 C :   -0.613547
  44 C :   -0.654488
  45 H :    0.097643
  46 C :   -0.872112
  47 H :    0.617658
  48 C :   -0.463700
  49 H :    0.206888
  50 H :    0.164367
  51 H :    0.314497
  52 C :    1.026743
  53 C :   -0.577047
  54 C :   -0.695465
  55 C :   -0.539532
  56 H :    0.299415
  57 C :   -0.632279
  58 H :    0.082831
  59 C :   -0.455424
  60 H :    0.173325
  61 H :    0.202687
  62 H :    0.323842
  63 N :   -1.158861
  64 C :    1.012244
  65 C :   -0.940548
  66 H :    0.218745
  67 H :    0.287421
  68 H :    0.289848
  69 O :   -0.971356
  70 H :    0.041473
Sum of atomic charges:    1.0000000

LOEWDIN ATOMIC CHARGES
----------------------
   0 C :   -0.347468
   1 C :   -0.348874
   2 C :    0.532938
   3 C :   -0.021690
   4 C :    0.530925
   5 H :   -0.259045
   6 H :   -0.247198
   7 H :   -0.335465
   8 H :   -0.253874
   9 H :   -0.270180
  10 N :    0.214274
  11 O :    1.095081
  12 C :    0.935630
  13 H :   -0.252537
  14 H :   -0.320538
  15 H :   -0.251212
  16 C :    0.954443
  17 H :   -0.320905
  18 H :   -0.238375
  19 H :   -0.264829
  20 C :    0.936748
  21 H :   -0.317249
  22 H :   -0.252607
  23 H :   -0.252374
  24 C :    0.945807
  25 H :   -0.243426
  26 H :   -0.323481
  27 H :   -0.268249
  28 H :   -0.857655
  29 C :    0.383734
  30 C :    0.396780
  31 C :    0.380562
  32 C :   -0.060056
  33 C :    0.322980
  34 C :    0.394648
  35 H :   -0.299864
  36 H :   -0.303693
  37 H :   -0.324162
  38 H :   -0.355995
  39 H :   -0.298237
  40 C :   -0.013405
  41 C :   -0.069375
  42 C :    0.382081
  43 C :    0.339505
  44 C :    0.394714
  45 H :   -0.319396
  46 C :    0.399039
  47 H :   -0.340106
  48 C :    0.380782
  49 H :   -0.305421
  50 H :   -0.303070
  51 H :   -0.302143
  52 C :   -0.078782
  53 C :    0.325147
  54 C :    0.377617
  55 C :    0.394591
  56 H :   -0.311983
  57 C :    0.395754
  58 H :   -0.321067
  59 C :    0.382883
  60 H :   -0.299642
  61 H :   -0.303879
  62 H :   -0.300780
  63 N :    0.880428
  64 C :   -0.808491
  65 C :    0.913082
  66 H :   -0.304612
  67 H :   -0.291251
  68 H :   -0.289831
  69 O :    0.740395
  70 H :   -0.478097

  Mayer bond orders larger than 0.100000
B(  0-C ,  7-H ) :   0.1120 B(  0-C ,  8-H ) :  -0.1916 B(  0-C ,  9-H ) :  -0.1749
B(  0-C , 10-N ) :   1.0486 B(  0-C , 12-C ) :  -0.1104 B(  0-C , 13-H ) :  -0.2870
B(  0-C , 14-H ) :  -0.1334 B(  0-C , 15-H ) :  -0.2577 B(  0-C , 16-C ) :   0.2655
B(  0-C , 19-H ) :  -0.1793 B(  0-C , 40-C ) :   0.1635 B(  1-C ,  2-C ) :   0.1049
B(  1-C ,  5-H ) :  -0.2228 B(  1-C ,  6-H ) :  -0.2548 B(  1-C ,  7-H ) :   0.1295
B(  1-C , 10-N ) :   0.7617 B(  1-C , 11-O ) :  -0.1213 B(  1-C , 20-C ) :  -0.2369
B(  1-C , 21-H ) :  -0.1763 B(  1-C , 22-H ) :  -0.3051 B(  1-C , 23-H ) :  -0.3745
B(  1-C , 24-C ) :   0.5089 B(  1-C , 26-H ) :  -0.1255 B(  1-C , 27-H ) :  -0.2196
B(  1-C , 28-H ) :  -0.1842 B(  1-C , 40-C ) :   0.2611 B(  2-C ,  3-C ) :   0.3428
B(  2-C ,  4-C ) :  -0.3094 B(  2-C ,  5-H ) :   1.4406 B(  2-C ,  6-H ) :   1.4623
B(  2-C , 10-N ) :  -0.1458 B(  2-C , 20-C ) :  -0.1158 B(  3-C ,  4-C ) :   0.9175
B(  3-C ,  5-H ) :  -0.2024 B(  3-C ,  6-H ) :  -0.2102 B(  3-C ,  7-H ) :   0.9906
B(  3-C , 16-C ) :  -0.1007 B(  3-C , 63-N ) :  -1.3187 B(  3-C , 70-H ) :  -0.4358
B(  4-C ,  8-H ) :   1.2445 B(  4-C ,  9-H ) :   1.3107 B(  4-C , 10-N ) :  -0.1547
B(  4-C , 63-N ) :   0.6151 B(  7-H , 63-N ) :   0.1449 B( 10-N , 11-O ) :   0.5395
B( 10-N , 12-C ) :  -0.1601 B( 10-N , 15-H ) :  -0.1063 B( 10-N , 20-C ) :  -0.1124
B( 10-N , 23-H ) :  -0.1075 B( 10-N , 26-H ) :   0.1023 B( 10-N , 32-C ) :   0.1008
B( 10-N , 40-C ) :   0.2903 B( 10-N , 43-C ) :   0.1185 B( 11-O , 41-C ) :   0.1814
B( 11-O , 43-C ) :   0.1789 B( 12-C , 13-H ) :   1.2432 B( 12-C , 14-H ) :   0.9088
B( 12-C , 15-H ) :   1.3684 B( 16-C , 17-H ) :   1.0505 B( 16-C , 18-H ) :   1.3154
B( 16-C , 19-H ) :   0.9868 B( 16-C , 24-C ) :   0.1058 B( 16-C , 53-C ) :  -0.1181
B( 16-C , 69-O ) :   0.1138 B( 17-H , 18-H ) :  -0.1272 B( 17-H , 28-H ) :  -0.1056
B( 17-H , 33-C ) :   0.1095 B( 17-H , 40-C ) :  -0.1664 B( 17-H , 52-C ) :   0.2190
B( 17-H , 53-C ) :   0.2284 B( 20-C , 21-H ) :   0.9777 B( 20-C , 22-H ) :   1.2560
B( 20-C , 23-H ) :   1.3791 B( 24-C , 25-H ) :   1.3351 B( 24-C , 26-H ) :   0.6621
B( 24-C , 27-H ) :   1.1453 B( 24-C , 33-C ) :  -0.1451 B( 25-H , 26-H ) :  -0.1598
B( 26-H , 28-H ) :  -0.2280 B( 26-H , 33-C ) :   0.3349 B( 26-H , 34-C ) :   0.1262
B( 28-H , 32-C ) :   0.1493 B( 28-H , 40-C ) :   0.2837 B( 28-H , 41-C ) :   0.3188
B( 28-H , 43-C ) :  -0.1562 B( 28-H , 52-C ) :   0.3037 B( 29-C , 30-C ) :   1.2297
B( 29-C , 33-C ) :  -0.1440 B( 29-C , 34-C ) :   1.2652 B( 29-C , 35-H ) :   1.1477
B( 29-C , 40-C ) :  -0.1204 B( 30-C , 31-C ) :   1.4911 B( 30-C , 32-C ) :  -0.5440
B( 30-C , 33-C ) :   0.1312 B( 30-C , 34-C ) :   0.2504 B( 30-C , 35-H ) :  -0.1439
B( 30-C , 36-H ) :   1.2034 B( 31-C , 32-C ) :   0.1070 B( 31-C , 36-H ) :  -0.1363
B( 31-C , 37-H ) :   1.1812 B( 31-C , 40-C ) :  -0.5694 B( 31-C , 42-C ) :   0.1003
B( 31-C , 43-C ) :   0.1289 B( 31-C , 54-C ) :   0.1857 B( 32-C , 33-C ) :   0.7062
B( 32-C , 34-C ) :  -0.5925 B( 32-C , 40-C ) :   0.6127 B( 32-C , 41-C ) :   0.1096
B( 32-C , 43-C ) :  -0.3010 B( 32-C , 52-C ) :  -0.6433 B( 32-C , 53-C ) :  -0.1341
B( 32-C , 54-C ) :  -0.1577 B( 32-C , 59-C ) :   0.1042 B( 33-C , 34-C ) :   1.7890
B( 33-C , 38-H ) :   0.6325 B( 33-C , 40-C ) :  -1.2570 B( 33-C , 54-C ) :   0.3244
B( 33-C , 58-H ) :   0.1364 B( 34-C , 35-H ) :  -0.1701 B( 34-C , 38-H ) :  -0.2722
B( 34-C , 39-H ) :   1.1850 B( 37-H , 43-C ) :   0.1350 B( 38-H , 40-C ) :  -0.1229
B( 38-H , 54-C ) :  -0.1234 B( 40-C , 41-C ) :   0.5037 B( 40-C , 42-C ) :  -0.5307
B( 40-C , 43-C ) :  -0.2815 B( 40-C , 52-C ) :   0.4857 B( 40-C , 53-C ) :  -0.6627
B( 40-C , 54-C ) :  -0.5636 B( 40-C , 55-C ) :  -0.1060 B( 40-C , 56-H ) :  -0.1198
B( 40-C , 58-H ) :   0.1073 B( 40-C , 59-C ) :  -0.1918 B( 41-C , 42-C ) :   0.6048
B( 41-C , 43-C ) :  -0.5151 B( 41-C , 44-C ) :  -0.4521 B( 41-C , 46-C ) :  -0.3226
B( 41-C , 47-H ) :  -0.1756 B( 41-C , 48-C ) :   0.1870 B( 41-C , 52-C ) :  -0.2962
B( 41-C , 53-C ) :  -0.1487 B( 42-C , 43-C ) :   0.1326 B( 42-C , 44-C ) :   1.3010
B( 42-C , 45-H ) :   1.2256 B( 42-C , 48-C ) :  -0.1129 B( 42-C , 49-H ) :  -0.1062
B( 42-C , 52-C ) :  -0.3288 B( 42-C , 54-C ) :   0.1350 B( 43-C , 44-C ) :   0.2191
B( 43-C , 46-C ) :   1.7554 B( 43-C , 47-H ) :   1.1574 B( 43-C , 48-C ) :  -0.2352
B( 44-C , 46-C ) :   0.2181 B( 44-C , 48-C ) :   1.2297 B( 44-C , 49-H ) :   1.1731
B( 44-C , 51-H ) :  -0.1270 B( 46-C , 47-H ) :  -0.3738 B( 46-C , 48-C ) :   1.3809
B( 46-C , 50-H ) :   1.1471 B( 46-C , 51-H ) :  -0.1548 B( 47-H , 52-C ) :  -0.1118
B( 48-C , 51-H ) :   1.0948 B( 52-C , 53-C ) :   0.3069 B( 52-C , 54-C ) :   0.4877
B( 52-C , 55-C ) :  -0.3028 B( 52-C , 56-H ) :  -0.1640 B( 52-C , 57-C ) :  -0.3430
B( 52-C , 59-C ) :   0.2365 B( 53-C , 55-C ) :   1.6510 B( 53-C , 56-H ) :   1.1377
B( 53-C , 57-C ) :   0.1563 B( 54-C , 57-C ) :   1.3010 B( 54-C , 58-H ) :   1.1429
B( 54-C , 61-H ) :  -0.1203 B( 55-C , 56-H ) :  -0.1052 B( 55-C , 57-C ) :   0.1811
B( 55-C , 59-C ) :   1.1146 B( 55-C , 60-H ) :   1.2020 B( 55-C , 62-H ) :  -0.1599
B( 57-C , 59-C ) :   1.1797 B( 57-C , 61-H ) :   1.2008 B( 57-C , 62-H ) :  -0.1156
B( 59-C , 60-H ) :  -0.1180 B( 59-C , 61-H ) :  -0.1082 B( 59-C , 62-H ) :   1.1108
B( 63-N , 64-C ) :   1.0990 B( 63-N , 69-O ) :   0.1529 B( 63-N , 70-H ) :   1.4200
B( 64-C , 65-C ) :   0.7114 B( 64-C , 66-H ) :  -0.1722 B( 64-C , 69-O ) :   0.9271
B( 65-C , 66-H ) :   1.0502 B( 65-C , 67-H ) :   0.9842 B( 65-C , 68-H ) :   0.9500

MP2 TOTAL ENERGY:    -1422.695492230 Eh
FINAL SINGLE POINT ENERGY     -1422.695492229895

DIPOLE MOMENT
-------------
                                X             Y             Z
Electronic contribution:     19.64191       2.88125       5.51950
Nuclear contribution   :    -19.16304      -3.87179      -6.31625
                        -----------------------------------------
Total Dipole Moment    :      0.47887      -0.99055      -0.79675
                        -----------------------------------------
Magnitude (a.u.)       :      1.35842
Magnitude (Debye)      :      3.45283

Rotational constants in cm-1:     0.005859     0.002785     0.002669
Rotational constants in MHz :   175.643018    83.503457    80.003389

                             ****ORCA TERMINATED NORMALLY****
TOTAL RUN TIME: 0 days 7 hours 19 minutes 20 seconds 581 msec
