                         Program Version 4.2.1 -  RELEASE  -
|  1> %pal
|  2>  nprocs 32
|  3> end
|  4> !RI-MP2 aug-cc-pVQZ aug-cc-pVQZ/C TightSCF
|  5> %maxcore 4500
|  6> *xyzfile 0 1  10_35R.xyz
|  7>
|  8>
|  9>                          ****END OF INPUT****

CARTESIAN COORDINATES (ANGSTROEM)
---------------------------------
  C      0.636850    2.024164    0.385433
  H      0.290265    2.681676    1.202133
  C      1.687984    1.074888    0.921817
  C      0.199714   -0.896730    0.491913
  H     -0.009775   -1.483906   -0.404276
  H      0.144653   -1.575337    1.348693
  C     -0.877918    0.191884    0.631835
  H     -0.908206    0.526646    1.685824
  N     -0.473045    1.306391   -0.219397
  C      2.605469   -0.997446   -0.123067
  C      2.582181    1.464780    1.825205
  C      3.969530   -0.541231   -0.331377
  C      4.946434   -1.324664   -0.789950
  C      1.589314   -0.303993    0.404952
  C      6.351847   -0.882096   -1.039161
  H      7.061117   -1.460716   -0.439421
  H      6.632215   -1.029392   -2.086658
  H      6.484915    0.173989   -0.797664
  C     -1.550282    2.196941   -0.598114
  H     -2.042408    2.639301    0.287827
  H     -1.122706    3.021138   -1.173987
  C     -2.250535   -0.351404    0.297408
  C     -3.047284    0.219705   -0.693095
  C     -2.566354    1.439985   -1.431327
  H     -2.098666    1.146016   -2.375927
  H     -3.414316    2.085407   -1.673545
  H      1.085475    2.663140   -0.381659
  C     -4.296036   -0.334944   -0.968510
  H     -4.913351    0.117277   -1.737610
  C     -2.732333   -1.451594    1.006717
  H     -2.126213   -1.886303    1.793444
  C     -4.759541   -1.438254   -0.273865
  H     -5.733401   -1.854913   -0.500947
  C     -3.972910   -1.996800    0.726347
  H     -4.328395   -2.851916    1.288434
  H      3.322873    0.780126    2.217317
  H      2.589100    2.479821    2.207987
  H      2.392801   -2.006740   -0.470428
  H      4.186834    0.499124   -0.110253
  H      4.721724   -2.368316   -1.002489

 Total Charge           Charge          ....    0
 Multiplicity           Mult            ....    1
 Number of Electrons    NEL             ....  136
 Basis Dimension        Dim             .... 2486

ORBITAL ENERGIES
----------------

  NO   OCC          E(Eh)            E(eV)
   0   2.0000     -15.545737      -423.0210
   1   2.0000     -11.260824      -306.4226
   2   2.0000     -11.254161      -306.2413
   3   2.0000     -11.249405      -306.1119
   4   2.0000     -11.239111      -305.8318
   5   2.0000     -11.234557      -305.7078
   6   2.0000     -11.233305      -305.6738
   7   2.0000     -11.232185      -305.6433
   8   2.0000     -11.228486      -305.5426
   9   2.0000     -11.227760      -305.5229
  10   2.0000     -11.226807      -305.4969
  11   2.0000     -11.226066      -305.4768
  12   2.0000     -11.224027      -305.4213
  13   2.0000     -11.223659      -305.4113
  14   2.0000     -11.222503      -305.3798
  15   2.0000     -11.220301      -305.3199
  16   2.0000     -11.217790      -305.2516
  17   2.0000     -11.217105      -305.2329
  18   2.0000     -11.216441      -305.2149
  19   2.0000      -1.254722       -34.1427
  20   2.0000      -1.157093       -31.4861
  21   2.0000      -1.122384       -30.5416
  22   2.0000      -1.076666       -29.2976
  23   2.0000      -1.062220       -28.9045
  24   2.0000      -1.053214       -28.6594
  25   2.0000      -1.015560       -27.6348
  26   2.0000      -0.996283       -27.1102
  27   2.0000      -0.963713       -26.2240
  28   2.0000      -0.928619       -25.2690
  29   2.0000      -0.899083       -24.4653
  30   2.0000      -0.857723       -23.3398
  31   2.0000      -0.834333       -22.7034
  32   2.0000      -0.812158       -22.1000
  33   2.0000      -0.806219       -21.9383
  34   2.0000      -0.755939       -20.5702
  35   2.0000      -0.748015       -20.3545
  36   2.0000      -0.693750       -18.8779
  37   2.0000      -0.693204       -18.8630
  38   2.0000      -0.667403       -18.1610
  39   2.0000      -0.657609       -17.8944
  40   2.0000      -0.644504       -17.5378
  41   2.0000      -0.629815       -17.1381
  42   2.0000      -0.621809       -16.9203
  43   2.0000      -0.607292       -16.5252
  44   2.0000      -0.597576       -16.2609
  45   2.0000      -0.593901       -16.1609
  46   2.0000      -0.582518       -15.8511
  47   2.0000      -0.565290       -15.3823
  48   2.0000      -0.564006       -15.3474
  49   2.0000      -0.555095       -15.1049
  50   2.0000      -0.554721       -15.0947
  51   2.0000      -0.542591       -14.7646
  52   2.0000      -0.530232       -14.4283
  53   2.0000      -0.524213       -14.2646
  54   2.0000      -0.523609       -14.2481
  55   2.0000      -0.518028       -14.0963
  56   2.0000      -0.507288       -13.8040
  57   2.0000      -0.491235       -13.3672
  58   2.0000      -0.477579       -12.9956
  59   2.0000      -0.466872       -12.7042
  60   2.0000      -0.458693       -12.4817
  61   2.0000      -0.451800       -12.2941
  62   2.0000      -0.421358       -11.4657
  63   2.0000      -0.372894       -10.1470
  64   2.0000      -0.356721        -9.7069
  65   2.0000      -0.328382        -8.9357
  66   2.0000      -0.320808        -8.7296
  67   2.0000      -0.287653        -7.8274
  68   0.0000       0.022557         0.6138
  69   0.0000       0.024728         0.6729
  70   0.0000       0.025832         0.7029
  71   0.0000       0.028619         0.7788
  72   0.0000       0.033486         0.9112

MULLIKEN ATOMIC CHARGES
-----------------------
   0 C :   -0.161776
   1 H :    0.247517
   2 C :    0.123952
   3 C :    0.040408
   4 H :    0.385217
   5 H :    0.153836
   6 C :    1.220691
   7 H :    0.140423
   8 N :   -0.223903
   9 C :   -0.465937
  10 C :   -1.150681
  11 C :   -0.729825
  12 C :   -0.305191
  13 C :    0.262994
  14 C :   -0.756997
  15 H :    0.237514
  16 H :    0.232338
  17 H :    0.247673
  18 C :   -0.743080
  19 H :    0.260836
  20 H :    0.230325
  21 C :    0.614378
  22 C :    0.304550
  23 C :   -0.693547
  24 H :    0.233102
  25 H :    0.192863
  26 H :    0.329449
  27 C :   -0.691919
  28 H :    0.220847
  29 C :   -0.827811
  30 H :    0.103732
  31 C :   -0.390646
  32 H :    0.279269
  33 C :   -0.445774
  34 H :    0.216723
  35 H :    0.252880
  36 H :    0.210977
  37 H :    0.171970
  38 H :    0.331686
  39 H :    0.340933
Sum of atomic charges:   -0.0000000

LOEWDIN ATOMIC CHARGES
----------------------
   0 C :    0.328384
   1 H :   -0.268693
   2 C :   -0.065435
   3 C :    0.508678
   4 H :   -0.270437
   5 H :   -0.263317
   6 C :   -0.054884
   7 H :   -0.258892
   8 N :    0.527530
   9 C :    0.365574
  10 C :    0.813139
  11 C :    0.349912
  12 C :    0.381674
  13 C :   -0.032321
  14 C :    0.888214
  15 H :   -0.295683
  16 H :   -0.295523
  17 H :   -0.314886
  18 C :    0.353104
  19 H :   -0.239680
  20 H :   -0.273347
  21 C :   -0.036658
  22 C :   -0.038414
  23 C :    0.524920
  24 H :   -0.254749
  25 H :   -0.274696
  26 H :   -0.267775
  27 C :    0.358844
  28 H :   -0.312937
  29 C :    0.358020
  30 H :   -0.314499
  31 C :    0.349230
  32 H :   -0.320776
  33 C :    0.356173
  34 H :   -0.319666
  35 H :   -0.337141
  36 H :   -0.324462
  37 H :   -0.336567
  38 H :   -0.366635
  39 H :   -0.325325

  Mayer bond orders larger than 0.100000
B(  0-C ,  1-H ) :   1.0208 B(  0-C ,  2-C ) :   0.5963 B(  0-C ,  6-C ) :  -0.1115
B(  0-C ,  8-N ) :   1.0936 B(  0-C , 10-C ) :  -0.4069 B(  0-C , 13-C ) :  -0.1363
B(  0-C , 26-H ) :   0.9103 B(  2-C ,  9-C ) :  -0.3060 B(  2-C , 10-C ) :   1.5623
B(  2-C , 11-C ) :  -0.1153 B(  2-C , 13-C ) :   0.8373 B(  2-C , 35-H ) :  -0.1521
B(  2-C , 36-H ) :  -0.1581 B(  3-C ,  4-H ) :   0.9409 B(  3-C ,  5-H ) :   0.9952
B(  3-C ,  6-C ) :   0.7811 B(  3-C ,  9-C ) :  -0.6086 B(  3-C , 13-C ) :   0.2045
B(  3-C , 21-C ) :  -0.1547 B(  3-C , 29-C ) :   0.1377 B(  4-H , 21-C ) :  -0.1036
B(  6-C ,  7-H ) :   1.0364 B(  6-C ,  8-N ) :   0.5745 B(  6-C , 22-C ) :  -0.4645
B(  6-C , 29-C ) :  -0.6592 B(  8-N , 18-C ) :   0.7538 B(  8-N , 19-H ) :  -0.1004
B(  8-N , 21-C ) :  -0.1004 B(  9-C , 11-C ) :   0.7629 B(  9-C , 12-C ) :  -0.5561
B(  9-C , 13-C ) :   1.5468 B(  9-C , 37-H ) :   1.0714 B( 10-C , 13-C ) :  -0.2032
B( 10-C , 35-H ) :   1.1229 B( 10-C , 36-H ) :   1.1530 B( 11-C , 12-C ) :   1.7349
B( 11-C , 13-C ) :  -0.3438 B( 11-C , 14-C ) :  -0.2470 B( 11-C , 38-H ) :   0.8308
B( 12-C , 14-C ) :   0.9441 B( 12-C , 39-H ) :   0.8356 B( 14-C , 15-H ) :   1.0052
B( 14-C , 16-H ) :   1.0011 B( 14-C , 17-H ) :   0.9616 B( 18-C , 19-H ) :   0.9505
B( 18-C , 20-H ) :   1.0026 B( 18-C , 23-C ) :   1.2164 B( 21-C , 22-C ) :   1.1247
B( 21-C , 27-C ) :  -0.5319 B( 21-C , 29-C ) :   1.0746 B( 21-C , 30-H ) :  -0.1226
B( 21-C , 33-C ) :  -0.3255 B( 22-C , 23-C ) :   0.4197 B( 22-C , 25-H ) :  -0.1521
B( 22-C , 27-C ) :   1.0674 B( 22-C , 28-H ) :  -0.1090 B( 22-C , 29-C ) :  -0.1223
B( 22-C , 31-C ) :  -0.2619 B( 23-C , 24-H ) :   1.0060 B( 23-C , 25-H ) :   1.1338
B( 27-C , 28-H ) :   1.0709 B( 27-C , 29-C ) :   0.1953 B( 27-C , 31-C ) :   1.2777
B( 27-C , 32-H ) :  -0.1958 B( 27-C , 33-C ) :   0.1207 B( 29-C , 30-H ) :   1.2544
B( 29-C , 33-C ) :   1.2463 B( 29-C , 34-H ) :  -0.1858 B( 31-C , 32-H ) :   1.1210
B( 31-C , 33-C ) :   1.1992 B( 32-H , 33-C ) :  -0.1132 B( 33-C , 34-H ) :   1.1969

MP2 TOTAL ENERGY:     -751.881406891 Eh
FINAL SINGLE POINT ENERGY      -751.881406891150

DIPOLE MOMENT
-------------
                                X             Y             Z
Electronic contribution:    -12.48107      -2.09205       1.18851
Nuclear contribution   :     12.40826       2.34086      -1.14258
                        -----------------------------------------
Total Dipole Moment    :     -0.07280       0.24881       0.04593
                        -----------------------------------------
Magnitude (a.u.)       :      0.26328
Magnitude (Debye)      :      0.66921

Rotational constants in cm-1:     0.027081     0.006104     0.005618
Rotational constants in MHz :   811.879579   182.996613   168.419453

                             ****ORCA TERMINATED NORMALLY****
TOTAL RUN TIME: 0 days 7 hours 17 minutes 29 seconds 822 msec
