                         Program Version 4.2.1 -  RELEASE  -
|  1> %pal
|  2>  nprocs 32
|  3> end
|  4> !RI-MP2 aug-cc-pVQZ aug-cc-pVQZ/C TightSCF
|  5> %maxcore 4500
|  6> *xyzfile 0 2  04_26R2.xyz
|  7>
|  8>
|  9>                          ****END OF INPUT****

CARTESIAN COORDINATES (ANGSTROEM)
---------------------------------
  O     -1.855519    0.000000    1.243890
  O     -0.556350    0.000000    1.333317
  C      0.099228    0.000000    0.044159
  Cl     1.804678   -0.000005    0.463997
  Cl    -0.352355   -1.452606   -0.846195
  Cl    -0.352347    1.452612   -0.846190

 Total Charge           Charge          ....    0
 Multiplicity           Mult            ....    2
 Number of Electrons    NEL             ....   73
 Basis Dimension        Dim             ....  492

ORBITAL ENERGIES
----------------
                 SPIN UP ORBITALS
  NO   OCC          E(Eh)            E(eV)
   0   1.0000    -104.883127     -2854.0150
   1   1.0000    -104.880327     -2853.9388
   2   1.0000    -104.880327     -2853.9388
   3   1.0000     -20.715055      -563.6853
   4   1.0000     -20.712319      -563.6108
   5   1.0000     -11.505994      -313.0940
   6   1.0000     -10.608798      -288.6801
   7   1.0000     -10.606093      -288.6065
   8   1.0000     -10.606083      -288.6062
   9   1.0000      -8.075772      -219.7529
  10   1.0000      -8.073727      -219.6973
  11   1.0000      -8.073684      -219.6961
  12   1.0000      -8.073238      -219.6840
  13   1.0000      -8.073235      -219.6839
  14   1.0000      -8.071011      -219.6234
  15   1.0000      -8.071010      -219.6233
  16   1.0000      -8.070975      -219.6224
  17   1.0000      -8.070973      -219.6223
  18   1.0000      -1.632197       -44.4143
  19   1.0000      -1.307993       -35.5923
  20   1.0000      -1.192841       -32.4588
  21   1.0000      -1.135265       -30.8921
  22   1.0000      -1.135257       -30.8919
  23   1.0000      -0.873716       -23.7750
  24   1.0000      -0.806852       -21.9556
  25   1.0000      -0.747455       -20.3393
  26   1.0000      -0.741605       -20.1801
  27   1.0000      -0.662968       -18.0403
  28   1.0000      -0.630167       -17.1477
  29   1.0000      -0.559232       -15.2175
  30   1.0000      -0.542793       -14.7701
  31   1.0000      -0.517342       -14.0776
  32   1.0000      -0.510894       -13.9021
  33   1.0000      -0.505582       -13.7576
  34   1.0000      -0.482467       -13.1286
  35   1.0000      -0.481214       -13.0945
  36   1.0000      -0.466503       -12.6942
  37   0.0000       0.041693         1.1345
  38   0.0000       0.055703         1.5158
  39   0.0000       0.056086         1.5262
  40   0.0000       0.070608         1.9213
  41   0.0000       0.086320         2.3489

                 SPIN DOWN ORBITALS
  NO   OCC          E(Eh)            E(eV)
   0   1.0000    -104.883189     -2854.0167
   1   1.0000    -104.880271     -2853.9373
   2   1.0000    -104.880271     -2853.9373
   3   1.0000     -20.705010      -563.4120
   4   1.0000     -20.674399      -562.5790
   5   1.0000     -11.506761      -313.1149
   6   1.0000     -10.608865      -288.6819
   7   1.0000     -10.606046      -288.6052
   8   1.0000     -10.606036      -288.6049
   9   1.0000      -8.075946      -219.7577
  10   1.0000      -8.073817      -219.6997
  11   1.0000      -8.073738      -219.6976
  12   1.0000      -8.072914      -219.6751
  13   1.0000      -8.072911      -219.6751
  14   1.0000      -8.071028      -219.6238
  15   1.0000      -8.071026      -219.6238
  16   1.0000      -8.070947      -219.6216
  17   1.0000      -8.070946      -219.6216
  18   1.0000      -1.574798       -42.8524
  19   1.0000      -1.273139       -34.6439
  20   1.0000      -1.145323       -31.1658
  21   1.0000      -1.134447       -30.8699
  22   1.0000      -1.118096       -30.4249
  23   1.0000      -0.859293       -23.3825
  24   1.0000      -0.738008       -20.0822
  25   1.0000      -0.722053       -19.6481
  26   1.0000      -0.696501       -18.9527
  27   1.0000      -0.624776       -17.0010
  28   1.0000      -0.583871       -15.8879
  29   1.0000      -0.537347       -14.6219
  30   1.0000      -0.516354       -14.0507
  31   1.0000      -0.510091       -13.8803
  32   1.0000      -0.493089       -13.4176
  33   1.0000      -0.480874       -13.0852
  34   1.0000      -0.479727       -13.0540
  35   1.0000      -0.466444       -12.6926
  36   0.0000       0.041736         1.1357
  37   0.0000       0.055860         1.5200
  38   0.0000       0.055922         1.5217
  39   0.0000       0.067814         1.8453
  40   0.0000       0.070967         1.9311

MULLIKEN ATOMIC CHARGES AND SPIN POPULATIONS
--------------------------------------------
   0 O :   -0.130635    0.952792
   1 O :   -0.193683    0.056095
   2 C :    0.592743   -0.019708
   3 Cl:   -0.075074   -0.003213
   4 Cl:   -0.096676    0.007017
   5 Cl:   -0.096676    0.007017
Sum of atomic charges         :    0.0000000

LOEWDIN ATOMIC CHARGES AND SPIN POPULATIONS
-------------------------------------------
   0 O :    0.230210    0.790106
   1 O :   -0.057867    0.214864
   2 C :   -3.061856   -0.004533
   3 Cl:    0.971162   -0.004434
   4 Cl:    0.959175    0.001999
   5 Cl:    0.959175    0.001999

  Mayer bond orders larger than 0.100000
B(  0-O ,  1-O ) :   0.9754 B(  1-O ,  2-C ) :   0.7600 B(  2-C ,  3-Cl) :   0.8800
B(  2-C ,  4-Cl) :   0.8866 B(  2-C ,  5-Cl) :   0.8866

MP2 TOTAL ENERGY:    -1567.362554555 Eh
FINAL SINGLE POINT ENERGY     -1567.362554555455

DIPOLE MOMENT
-------------
                                X             Y             Z
Electronic contribution:      1.66600      -0.00000      -1.88757
Nuclear contribution   :     -1.46949      -0.00000       1.63937
                        -----------------------------------------
Total Dipole Moment    :      0.19652      -0.00000      -0.24820
                        -----------------------------------------
Magnitude (a.u.)       :      0.31658
Magnitude (Debye)      :      0.80469

Rotational constants in cm-1:     0.064549     0.056950     0.050459
Rotational constants in MHz :  1935.139091  1707.311557  1512.734741

                             ****ORCA TERMINATED NORMALLY****
TOTAL RUN TIME: 0 days 0 hours 5 minutes 54 seconds 366 msec
