                         Program Version 4.2.1 -  RELEASE  -
|  1> %pal
|  2>  nprocs 32
|  3> end
|  4> !RI-MP2 aug-cc-pVQZ aug-cc-pVQZ/C TightSCF
|  5> %maxcore 4500
|  6> *xyzfile -1 1  09_17TS.xyz
|  7>
|  8>
|  9>                          ****END OF INPUT****

CARTESIAN COORDINATES (ANGSTROEM)
---------------------------------
  C     -1.431140   -0.110333    0.467065
  C     -0.174721   -0.291850    1.288666
  O      0.195515   -1.464937    1.510099
  C      0.569095    0.851074    1.644627
  C      2.020866    1.107926    0.155523
  C      2.068989    2.363944   -0.334492
  C      2.649158   -0.060041    0.168253
  O      3.531192   -0.424619   -0.847976
  C      3.183706   -1.660077   -1.425558
  H      1.291808    0.721998    2.441598
  H      0.110034    1.827180    1.594149
  H      1.186519    2.867493   -0.714389
  H      2.983359    2.943639   -0.270188
  H      2.472922   -0.827334    0.914231
  H      2.211515   -1.601088   -1.929609
  H      3.126053   -2.453380   -0.668774
  H      3.958809   -1.911091   -2.153177
  C     -1.780657    1.086528   -0.159221
  C     -2.944571    1.184834   -0.908620
  C     -3.787519    0.087960   -1.044104
  C     -3.444778   -1.112008   -0.432403
  C     -2.274915   -1.208997    0.306514
  H     -1.124065    1.942885   -0.078556
  H     -3.191064    2.121579   -1.397069
  H     -4.697925    0.166057   -1.628507
  H     -4.090460   -1.977677   -0.538630
  H     -1.972243   -2.137564    0.774442

 Total Charge           Charge          ....   -1
 Multiplicity           Mult            ....    1
 Number of Electrons    NEL             ....  102
 Basis Dimension        Dim             .... 1718

ORBITAL ENERGIES
----------------

  NO   OCC          E(Eh)            E(eV)
   0   2.0000     -20.425648      -555.8101
   1   2.0000     -20.348154      -553.7014
   2   2.0000     -11.152434      -303.4732
   3   2.0000     -11.147128      -303.3288
   4   2.0000     -11.129082      -302.8377
   5   2.0000     -11.124914      -302.7243
   6   2.0000     -11.124645      -302.7170
   7   2.0000     -11.118498      -302.5497
   8   2.0000     -11.113887      -302.4242
   9   2.0000     -11.112653      -302.3907
  10   2.0000     -11.109490      -302.3046
  11   2.0000     -11.107718      -302.2564
  12   2.0000     -11.041980      -300.4676
  13   2.0000     -11.036413      -300.3161
  14   2.0000      -1.244799       -33.8727
  15   2.0000      -1.185911       -32.2703
  16   2.0000      -1.041516       -28.3411
  17   2.0000      -0.918155       -24.9843
  18   2.0000      -0.904217       -24.6050
  19   2.0000      -0.902034       -24.5456
  20   2.0000      -0.823430       -22.4067
  21   2.0000      -0.804900       -21.9024
  22   2.0000      -0.741547       -20.1785
  23   2.0000      -0.722164       -19.6511
  24   2.0000      -0.707671       -19.2567
  25   2.0000      -0.617438       -16.8013
  26   2.0000      -0.583531       -15.8787
  27   2.0000      -0.571922       -15.5628
  28   2.0000      -0.523260       -14.2386
  29   2.0000      -0.516239       -14.0476
  30   2.0000      -0.507768       -13.8171
  31   2.0000      -0.497602       -13.5404
  32   2.0000      -0.492629       -13.4051
  33   2.0000      -0.479851       -13.0574
  34   2.0000      -0.475566       -12.9408
  35   2.0000      -0.437202       -11.8969
  36   2.0000      -0.431086       -11.7305
  37   2.0000      -0.418170       -11.3790
  38   2.0000      -0.406951       -11.0737
  39   2.0000      -0.404148       -10.9974
  40   2.0000      -0.378535       -10.3005
  41   2.0000      -0.376140       -10.2353
  42   2.0000      -0.366465        -9.9720
  43   2.0000      -0.354692        -9.6517
  44   2.0000      -0.315091        -8.5741
  45   2.0000      -0.253412        -6.8957
  46   2.0000      -0.243365        -6.6223
  47   2.0000      -0.227881        -6.2009
  48   2.0000      -0.219436        -5.9711
  49   2.0000      -0.205376        -5.5886
  50   2.0000      -0.072371        -1.9693
  51   0.0000       0.085996         2.3401
  52   0.0000       0.094480         2.5709
  53   0.0000       0.102854         2.7988
  54   0.0000       0.103992         2.8298
  55   0.0000       0.111483         3.0336

MULLIKEN ATOMIC CHARGES
-----------------------
   0 C :   -0.044833
   1 C :    1.200462
   2 O :   -1.080213
   3 C :   -0.753248
   4 C :   -0.059299
   5 C :   -0.892544
   6 C :    0.073565
   7 O :   -0.931118
   8 C :   -0.729728
   9 H :    0.208299
  10 H :    0.236358
  11 H :    0.296328
  12 H :    0.399827
  13 H :    0.445295
  14 H :    0.273466
  15 H :    0.255902
  16 H :    0.489740
  17 C :   -0.235617
  18 C :   -0.477282
  19 C :   -0.369872
  20 C :   -0.360894
  21 C :   -0.377130
  22 H :    0.403626
  23 H :    0.199674
  24 H :    0.314922
  25 H :    0.211850
  26 H :    0.302462
Sum of atomic charges:   -1.0000000

LOEWDIN ATOMIC CHARGES
----------------------
   0 C :   -0.121978
   1 C :   -0.770899
   2 O :    0.675393
   3 C :    0.524788
   4 C :   -0.031847
   5 C :    0.655343
   6 C :   -0.107820
   7 O :    0.802280
   8 C :    0.520263
   9 H :   -0.358740
  10 H :   -0.406301
  11 H :   -0.421132
  12 H :   -0.416005
  13 H :   -0.448140
  14 H :   -0.310843
  15 H :   -0.322009
  16 H :   -0.336942
  17 C :    0.324747
  18 C :    0.333610
  19 C :    0.310218
  20 C :    0.324657
  21 C :    0.303787
  22 H :   -0.361668
  23 H :   -0.329366
  24 H :   -0.334571
  25 H :   -0.333057
  26 H :   -0.363768

  Mayer bond orders larger than 0.100000
B(  0-C ,  1-C ) :   0.8673 B(  0-C ,  2-O ) :   0.4173 B(  0-C , 17-C ) :   1.2188
B(  0-C , 18-C ) :  -0.3315 B(  0-C , 20-C ) :  -0.3894 B(  0-C , 21-C ) :   1.0590
B(  0-C , 22-H ) :  -0.1269 B(  1-C ,  2-O ) :   0.3138 B(  1-C ,  3-C ) :   1.2318
B(  1-C , 17-C ) :  -0.2753 B(  1-C , 21-C ) :  -0.3678 B(  2-O ,  3-C ) :   0.1728
B(  2-O , 26-H ) :   0.1222 B(  3-C ,  4-C ) :   0.3520 B(  3-C ,  9-H ) :   0.9836
B(  3-C , 10-H ) :   1.0412 B(  4-C ,  5-C ) :   1.2653 B(  4-C ,  6-C ) :   1.7149
B(  4-C ,  7-O ) :   0.1293 B(  5-C ,  6-C ) :  -0.1242 B(  5-C , 11-H ) :   0.9663
B(  5-C , 12-H ) :   0.9166 B(  6-C ,  7-O ) :   0.3389 B(  6-C , 13-H ) :   0.8071
B(  7-O ,  8-C ) :   0.9679 B(  8-C , 14-H ) :   0.9014 B(  8-C , 15-H ) :   0.9383
B(  8-C , 16-H ) :   0.7525 B( 17-C , 18-C ) :   1.1750 B( 17-C , 19-C ) :  -0.1025
B( 17-C , 20-C ) :   0.1012 B( 17-C , 22-H ) :   0.7790 B( 17-C , 23-H ) :  -0.1143
B( 18-C , 19-C ) :   1.2582 B( 18-C , 21-C ) :   0.1780 B( 18-C , 22-H ) :  -0.1081
B( 18-C , 23-H ) :   1.1635 B( 18-C , 24-H ) :  -0.1061 B( 19-C , 20-C ) :   1.1630
B( 19-C , 24-H ) :   1.0243 B( 19-C , 25-H ) :  -0.1029 B( 20-C , 21-C ) :   1.3138
B( 20-C , 25-H ) :   1.1768 B( 21-C , 25-H ) :  -0.1758 B( 21-C , 26-H ) :   0.8718

MP2 TOTAL ENERGY:     -614.436861967 Eh
FINAL SINGLE POINT ENERGY      -614.436861966973

DIPOLE MOMENT
-------------
                                X             Y             Z
Electronic contribution:     -4.45534      -2.16817       2.66404
Nuclear contribution   :      2.32955       1.65685      -3.65273
                        -----------------------------------------
Total Dipole Moment    :     -2.12578      -0.51132      -0.98870
                        -----------------------------------------
Magnitude (a.u.)       :      2.39957
Magnitude (Debye)      :      6.09922

Rotational constants in cm-1:     0.036895     0.012597     0.011748
Rotational constants in MHz :  1106.070101   377.657277   352.207748

                             ****ORCA TERMINATED NORMALLY****
TOTAL RUN TIME: 0 days 2 hours 14 minutes 32 seconds 179 msec
