                         Program Version 4.2.1 -  RELEASE  -
|  1> %pal
|  2>  nprocs 32
|  3> end
|  4> !RI-MP2 aug-cc-pVQZ aug-cc-pVQZ/C TightSCF
|  5> %maxcore 4500
|  6> *xyzfile 1 1  05_29P1.xyz
|  7>
|  8>
|  9>                          ****END OF INPUT****

CARTESIAN COORDINATES (ANGSTROEM)
---------------------------------
  C     -0.000000   -1.021979    0.000003
  C     -1.279336   -0.432978   -0.044192
  C     -2.382041   -1.258103    0.286256
  C     -1.519963    0.909346   -0.426868
  C     -3.657534   -0.741826    0.317000
  H     -2.208163   -2.296175    0.543991
  C     -2.801183    1.407337   -0.419779
  H     -0.707886    1.523498   -0.788631
  C     -3.864883    0.590229   -0.032122
  H     -4.494569   -1.368653    0.594433
  H     -2.990070    2.425589   -0.733475
  H     -4.870838    0.992648   -0.028161
  C      1.279336   -0.432978    0.044194
  C      2.382039   -1.258103   -0.286256
  C      1.519964    0.909346    0.426870
  C      3.657533   -0.741827   -0.317003
  H      2.208161   -2.296175   -0.543992
  C      2.801184    1.407336    0.419779
  H      0.707888    1.523498    0.788634
  C      3.864883    0.590229    0.032119
  H      4.494567   -1.368653   -0.594438
  H      2.990072    2.425588    0.733475
  H      4.870839    0.992647    0.028157
  H     -0.000000   -2.109989    0.000002

 Total Charge           Charge          ....    1
 Multiplicity           Mult            ....    1
 Number of Electrons    NEL             ....   88
 Basis Dimension        Dim             .... 1546

ORBITAL ENERGIES
----------------

  NO   OCC          E(Eh)            E(eV)
   0   2.0000     -11.476789      -312.2993
   1   2.0000     -11.410814      -310.5040
   2   2.0000     -11.410813      -310.5040
   3   2.0000     -11.408530      -310.4419
   4   2.0000     -11.408520      -310.4416
   5   2.0000     -11.406861      -310.3965
   6   2.0000     -11.406841      -310.3959
   7   2.0000     -11.406622      -310.3900
   8   2.0000     -11.406622      -310.3900
   9   2.0000     -11.381611      -309.7094
  10   2.0000     -11.381611      -309.7094
  11   2.0000     -11.380063      -309.6672
  12   2.0000     -11.380062      -309.6672
  13   2.0000      -1.340810       -36.4853
  14   2.0000      -1.315286       -35.7908
  15   2.0000      -1.246516       -33.9194
  16   2.0000      -1.183874       -32.2148
  17   2.0000      -1.183812       -32.2132
  18   2.0000      -1.175426       -31.9850
  19   2.0000      -1.087385       -29.5892
  20   2.0000      -1.001326       -27.2475
  21   2.0000      -0.999735       -27.2042
  22   2.0000      -0.976869       -26.5819
  23   2.0000      -0.937701       -25.5161
  24   2.0000      -0.870512       -23.6878
  25   2.0000      -0.854181       -23.2434
  26   2.0000      -0.830522       -22.5997
  27   2.0000      -0.809909       -22.0388
  28   2.0000      -0.782320       -21.2880
  29   2.0000      -0.776046       -21.1173
  30   2.0000      -0.753912       -20.5150
  31   2.0000      -0.746610       -20.3163
  32   2.0000      -0.742784       -20.2122
  33   2.0000      -0.731349       -19.9010
  34   2.0000      -0.682825       -18.5806
  35   2.0000      -0.677369       -18.4322
  36   2.0000      -0.661570       -18.0022
  37   2.0000      -0.656735       -17.8707
  38   2.0000      -0.647073       -17.6078
  39   2.0000      -0.643959       -17.5230
  40   2.0000      -0.551143       -14.9974
  41   2.0000      -0.497393       -13.5347
  42   2.0000      -0.495665       -13.4877
  43   2.0000      -0.475537       -12.9400
  44   0.0000      -0.164572        -4.4782
  45   0.0000      -0.069794        -1.8992
  46   0.0000      -0.059662        -1.6235
  47   0.0000      -0.054391        -1.4801
  48   0.0000      -0.051689        -1.4065

MULLIKEN ATOMIC CHARGES
-----------------------
   0 C :    0.209287
   1 C :    0.279153
   2 C :   -0.410503
   3 C :   -0.208823
   4 C :   -0.355638
   5 H :    0.253838
   6 C :   -0.357081
   7 H :    0.436976
   8 C :   -0.345765
   9 H :    0.300465
  10 H :    0.286232
  11 H :    0.347853
  12 C :    0.278769
  13 C :   -0.410970
  14 C :   -0.208645
  15 C :   -0.355219
  16 H :    0.253954
  17 C :   -0.356775
  18 H :    0.436985
  19 C :   -0.345955
  20 H :    0.300615
  21 H :    0.286152
  22 H :    0.347869
  23 H :    0.337226
Sum of atomic charges:    1.0000000

LOEWDIN ATOMIC CHARGES
----------------------
   0 C :    0.442542
   1 C :   -0.034501
   2 C :    0.381636
   3 C :    0.375925
   4 C :    0.406593
   5 H :   -0.294053
   6 C :    0.410491
   7 H :   -0.328023
   8 C :    0.402754
   9 H :   -0.303228
  10 H :   -0.301727
  11 H :   -0.285034
  12 C :   -0.034502
  13 C :    0.381635
  14 C :    0.375925
  15 C :    0.406594
  16 H :   -0.294052
  17 C :    0.410490
  18 H :   -0.328023
  19 C :    0.402754
  20 H :   -0.303229
  21 H :   -0.301727
  22 H :   -0.285034
  23 H :   -0.304205

  Mayer bond orders larger than 0.100000
B(  0-C ,  1-C ) :   0.8637 B(  0-C ,  2-C ) :  -0.4786 B(  0-C ,  3-C ) :  -0.2523
B(  0-C , 12-C ) :   0.8637 B(  0-C , 13-C ) :  -0.4789 B(  0-C , 14-C ) :  -0.2525
B(  0-C , 23-H ) :   0.8873 B(  1-C ,  2-C ) :   0.9835 B(  1-C ,  3-C ) :   1.1142
B(  1-C ,  4-C ) :  -0.3726 B(  1-C ,  6-C ) :  -0.3061 B(  1-C , 12-C ) :  -0.3512
B(  1-C , 23-H ) :  -0.1411 B(  2-C ,  4-C ) :   1.2873 B(  2-C ,  5-H ) :   0.9930
B(  2-C ,  6-C ) :   0.1009 B(  2-C ,  9-H ) :  -0.1459 B(  3-C ,  6-C ) :   1.2593
B(  3-C ,  7-H ) :   0.8088 B(  4-C ,  8-C ) :   1.1734 B(  4-C ,  9-H ) :   1.0868
B(  6-C ,  8-C ) :   1.1532 B(  6-C , 10-H ) :   1.0733 B(  8-C , 11-H ) :   1.0023
B( 12-C , 13-C ) :   0.9839 B( 12-C , 14-C ) :   1.1142 B( 12-C , 15-C ) :  -0.3725
B( 12-C , 17-C ) :  -0.3061 B( 12-C , 23-H ) :  -0.1411 B( 13-C , 15-C ) :   1.2869
B( 13-C , 16-H ) :   0.9930 B( 13-C , 17-C ) :   0.1010 B( 13-C , 20-H ) :  -0.1460
B( 14-C , 17-C ) :   1.2596 B( 14-C , 18-H ) :   0.8088 B( 15-C , 19-C ) :   1.1738
B( 15-C , 20-H ) :   1.0865 B( 17-C , 19-C ) :   1.1530 B( 17-C , 21-H ) :   1.0733
B( 19-C , 22-H ) :   1.0022

MP2 TOTAL ENERGY:     -500.798278313 Eh
FINAL SINGLE POINT ENERGY      -500.798278312754

DIPOLE MOMENT
-------------
                                X             Y             Z
Electronic contribution:     -0.00000      -0.69125       0.00000
Nuclear contribution   :      0.00000       0.44360      -0.00001
                        -----------------------------------------
Total Dipole Moment    :     -0.00000      -0.24765      -0.00000
                        -----------------------------------------
Magnitude (a.u.)       :      0.24765
Magnitude (Debye)      :      0.62947

Rotational constants in cm-1:     0.085041     0.013662     0.012052
Rotational constants in MHz :  2549.464211   409.571469   361.312578

                             ****ORCA TERMINATED NORMALLY****
TOTAL RUN TIME: 0 days 1 hours 51 minutes 4 seconds 372 msec
