                         Program Version 4.2.1 -  RELEASE  -
|  1> %pal
|  2>  nprocs 32
|  3> end
|  4> !RI-MP2 aug-cc-pVQZ aug-cc-pVQZ/C TightSCF
|  5> %maxcore 4500
|  6> *xyzfile 0 2  06_2P.xyz
|  7>
|  8>
|  9>                          ****END OF INPUT****

CARTESIAN COORDINATES (ANGSTROEM)
---------------------------------
  Si    -0.372306    0.000000   -0.011711
  C     -0.434312    1.537267   -1.085904
  H     -0.388833    2.446634   -0.481003
  H      0.402569    1.561388   -1.787631
  H     -1.358465    1.573546   -1.668468
  C     -1.818815    0.000003    1.187649
  H     -2.772866    0.000000    0.653911
  H     -1.801065   -0.882539    1.832212
  H     -1.801066    0.882551    1.832205
  C     -0.434301   -1.537284   -1.085881
  H      0.402579   -1.561409   -1.787610
  H     -0.388814   -2.446642   -0.480966
  H     -1.358455   -1.573579   -1.668442
  C      1.248388    0.000015    0.992823
  C      2.454368    0.000000    0.140868
  H      1.218849    0.881944    1.642519
  H      1.218848   -0.881891    1.642550
  H      2.873521    0.925641   -0.231338
  H      2.873513   -0.925653   -0.231314

 Total Charge           Charge          ....    0
 Multiplicity           Mult            ....    2
 Number of Electrons    NEL             ....   57
 Basis Dimension        Dim             .... 1082

ORBITAL ENERGIES
----------------
                 SPIN UP ORBITALS
  NO   OCC          E(Eh)            E(eV)
   0   1.0000     -68.743373     -1870.6023
   1   1.0000     -11.223782      -305.4146
   2   1.0000     -11.200719      -304.7871
   3   1.0000     -11.193316      -304.5856
   4   1.0000     -11.192387      -304.5603
   5   1.0000     -11.192379      -304.5601
   6   1.0000      -6.092725      -165.7915
   7   1.0000      -4.199767      -114.2815
   8   1.0000      -4.198695      -114.2523
   9   1.0000      -4.198691      -114.2522
  10   1.0000      -1.028330       -27.9823
  11   1.0000      -0.959384       -26.1062
  12   1.0000      -0.920903       -25.0590
  13   1.0000      -0.920458       -25.0469
  14   1.0000      -0.828462       -22.5436
  15   1.0000      -0.628019       -17.0893
  16   1.0000      -0.619468       -16.8566
  17   1.0000      -0.569680       -15.5018
  18   1.0000      -0.563409       -15.3311
  19   1.0000      -0.559601       -15.2275
  20   1.0000      -0.548990       -14.9388
  21   1.0000      -0.536996       -14.6124
  22   1.0000      -0.531124       -14.4526
  23   1.0000      -0.527812       -14.3625
  24   1.0000      -0.500556       -13.6208
  25   1.0000      -0.465796       -12.6749
  26   1.0000      -0.426632       -11.6093
  27   1.0000      -0.425430       -11.5765
  28   1.0000      -0.313754        -8.5377
  29   0.0000       0.021327         0.5803
  30   0.0000       0.032755         0.8913
  31   0.0000       0.033251         0.9048
  32   0.0000       0.034370         0.9353
  33   0.0000       0.047342         1.2883

                 SPIN DOWN ORBITALS
  NO   OCC          E(Eh)            E(eV)
   0   1.0000     -68.742615     -1870.5816
   1   1.0000     -11.203297      -304.8572
   2   1.0000     -11.200622      -304.7844
   3   1.0000     -11.193048      -304.5783
   4   1.0000     -11.192422      -304.5613
   5   1.0000     -11.192415      -304.5611
   6   1.0000      -6.091483      -165.7577
   7   1.0000      -4.198256      -114.2403
   8   1.0000      -4.198120      -114.2366
   9   1.0000      -4.197194      -114.2115
  10   1.0000      -0.996973       -27.1290
  11   1.0000      -0.951505       -25.8918
  12   1.0000      -0.920403       -25.0455
  13   1.0000      -0.920369       -25.0445
  14   1.0000      -0.779035       -21.1986
  15   1.0000      -0.618851       -16.8398
  16   1.0000      -0.610342       -16.6083
  17   1.0000      -0.566534       -15.4162
  18   1.0000      -0.560123       -15.2417
  19   1.0000      -0.558723       -15.2036
  20   1.0000      -0.544520       -14.8171
  21   1.0000      -0.536546       -14.6002
  22   1.0000      -0.527615       -14.3571
  23   1.0000      -0.525371       -14.2961
  24   1.0000      -0.494925       -13.4676
  25   1.0000      -0.425683       -11.5834
  26   1.0000      -0.425263       -11.5720
  27   1.0000      -0.422066       -11.4850
  28   0.0000       0.021429         0.5831
  29   0.0000       0.033080         0.9001
  30   0.0000       0.033293         0.9060
  31   0.0000       0.034394         0.9359
  32   0.0000       0.047372         1.2891

MULLIKEN ATOMIC CHARGES AND SPIN POPULATIONS
--------------------------------------------
   0 Si:    1.796311    0.047566
   1 C :   -1.283232   -0.003979
   2 H :    0.270954   -0.001159
   3 H :    0.267803    0.002570
   4 H :    0.296391   -0.001054
   5 C :   -1.300466    0.010886
   6 H :    0.270676    0.000414
   7 H :    0.256752   -0.000500
   8 H :    0.256721   -0.000493
   9 C :   -1.283250   -0.003986
  10 H :    0.267817    0.002570
  11 H :    0.270937   -0.001157
  12 H :    0.296392   -0.001055
  13 C :   -0.805488   -0.194186
  14 C :   -0.811897    1.241904
  15 H :    0.254233    0.026420
  16 H :    0.254249    0.026430
  17 H :    0.362540   -0.075596
  18 H :    0.362558   -0.075595
Sum of atomic charges         :   -0.0000000

LOEWDIN ATOMIC CHARGES AND SPIN POPULATIONS
-------------------------------------------
   0 Si:    0.150979    0.036234
   1 C :    0.985213    0.005526
   2 H :   -0.336253    0.000246
   3 H :   -0.341345    0.002827
   4 H :   -0.337305    0.000163
   5 C :    0.985457    0.008876
   6 H :   -0.339451    0.001951
   7 H :   -0.339107    0.000706
   8 H :   -0.339106    0.000706
   9 C :    0.985213    0.005526
  10 H :   -0.341345    0.002827
  11 H :   -0.336252    0.000246
  12 H :   -0.337305    0.000163
  13 C :    0.522370    0.149872
  14 C :    0.785408    0.453344
  15 H :   -0.345541    0.017573
  16 H :   -0.345541    0.017574
  17 H :   -0.338044    0.147821
  18 H :   -0.338045    0.147821

  Mayer bond orders larger than 0.100000
B(  0-Si,  1-C ) :   0.6924 B(  0-Si,  5-C ) :   0.6375 B(  0-Si,  9-C ) :   0.6923
B(  0-Si, 13-C ) :   0.6162 B(  0-Si, 14-C ) :   0.1025 B(  1-C ,  2-H ) :   0.9661
B(  1-C ,  3-H ) :   0.9781 B(  1-C ,  4-H ) :   0.9564 B(  5-C ,  6-H ) :   0.9574
B(  5-C ,  7-H ) :   0.9870 B(  5-C ,  8-H ) :   0.9870 B(  9-C , 10-H ) :   0.9781
B(  9-C , 11-H ) :   0.9662 B(  9-C , 12-H ) :   0.9564 B( 13-C , 14-C ) :   1.0555
B( 13-C , 15-H ) :   0.9488 B( 13-C , 16-H ) :   0.9488 B( 14-C , 17-H ) :   0.8707
B( 14-C , 18-H ) :   0.8707

MP2 TOTAL ENERGY:     -486.994678038 Eh
FINAL SINGLE POINT ENERGY      -486.994678038492

DIPOLE MOMENT
-------------
                                X             Y             Z
Electronic contribution:      0.74894       0.00001       0.76630
Nuclear contribution   :     -0.90623      -0.00001      -0.77467
                        -----------------------------------------
Total Dipole Moment    :     -0.15729       0.00000      -0.00838
                        -----------------------------------------
Magnitude (a.u.)       :      0.15751
Magnitude (Debye)      :      0.40036

Rotational constants in cm-1:     0.101451     0.064808     0.064547
Rotational constants in MHz :  3041.413718  1942.903960  1935.072189

                             ****ORCA TERMINATED NORMALLY****
TOTAL RUN TIME: 0 days 0 hours 37 minutes 34 seconds 291 msec
