                         Program Version 4.2.1 -  RELEASE  -
|  1> %pal
|  2>  nprocs 32
|  3> end
|  4> !RI-MP2 aug-cc-pVQZ aug-cc-pVQZ/C TightSCF
|  5> %maxcore 4500
|  6> *xyzfile 0 1  06_14R.xyz
|  7>
|  8>
|  9>                          ****END OF INPUT****

CARTESIAN COORDINATES (ANGSTROEM)
---------------------------------
  C      0.755081   -0.482080    0.964817
  H     -0.180782   -0.604220    1.516197
  B      0.562057    0.151105   -0.449731
  C      1.367236   -1.887745    0.751810
  H      0.588943   -2.525137    0.316154
  H      1.611484   -2.334717    1.721695
  C      1.652280    0.495338    1.764258
  H      1.059261    1.393340    1.973959
  C     -4.608805   -1.909847    0.192944
  H     -4.277445   -2.801491   -0.328607
  H     -5.572431   -1.956189    0.683523
  C     -3.864263   -0.805839    0.229827
  C     -2.567182   -0.674050   -0.406890
  H     -4.224723    0.066409    0.765025
  H      1.890905    0.060180    2.740844
  C     -1.818405    0.425801   -0.338863
  O     -0.629396    0.552413   -0.998201
  O     -2.164491    1.500947    0.395819
  C     -1.970286    2.779710   -0.207449
  H     -0.914696    2.971387   -0.401424
  H     -2.531462    2.849278   -1.142724
  H     -2.352348    3.504901    0.506695
  C      2.953978    0.915715    1.064300
  H      3.374708    1.775113    1.594768
  H      3.696020    0.124572    1.163823
  C      1.895539    0.323109   -1.239772
  H      1.737225    0.765169   -2.227786
  C      2.786646    1.285658   -0.417883
  H      2.341794    2.286056   -0.480440
  H      3.774436    1.368157   -0.884633
  C      2.490776   -1.092172   -1.435235
  H      3.474985   -1.019286   -1.911039
  H      1.851528   -1.625451   -2.148598
  C      2.607124   -1.934637   -0.155220
  H      2.795103   -2.974941   -0.436752
  H      3.486431   -1.625859    0.408824
  H     -2.166436   -1.513443   -0.961667

 Total Charge           Charge          ....    0
 Multiplicity           Mult            ....    1
 Number of Electrons    NEL             ....  120
 Basis Dimension        Dim             .... 2246

ORBITAL ENERGIES
----------------

  NO   OCC          E(Eh)            E(eV)
   0   2.0000     -20.588705      -560.2471
   1   2.0000     -20.584757      -560.1397
   2   2.0000     -11.351780      -308.8976
   3   2.0000     -11.287208      -307.1406
   4   2.0000     -11.228858      -305.5528
   5   2.0000     -11.219873      -305.3083
   6   2.0000     -11.219186      -305.2896
   7   2.0000     -11.218600      -305.2736
   8   2.0000     -11.218492      -305.2707
   9   2.0000     -11.214225      -305.1546
  10   2.0000     -11.214178      -305.1533
  11   2.0000     -11.213464      -305.1339
  12   2.0000     -11.210516      -305.0537
  13   2.0000     -11.193462      -304.5896
  14   2.0000     -11.192968      -304.5762
  15   2.0000      -7.602893      -206.8852
  16   2.0000      -1.453832       -39.5608
  17   2.0000      -1.373853       -37.3844
  18   2.0000      -1.115936       -30.3662
  19   2.0000      -1.084316       -29.5057
  20   2.0000      -1.042627       -28.3713
  21   2.0000      -1.028746       -27.9936
  22   2.0000      -1.004277       -27.3278
  23   2.0000      -0.939865       -25.5750
  24   2.0000      -0.933203       -25.3938
  25   2.0000      -0.915108       -24.9014
  26   2.0000      -0.837616       -22.7927
  27   2.0000      -0.793739       -21.5987
  28   2.0000      -0.787129       -21.4189
  29   2.0000      -0.764637       -20.8068
  30   2.0000      -0.749983       -20.4081
  31   2.0000      -0.722416       -19.6580
  32   2.0000      -0.694665       -18.9028
  33   2.0000      -0.675986       -18.3945
  34   2.0000      -0.666521       -18.1369
  35   2.0000      -0.639092       -17.3906
  36   2.0000      -0.621177       -16.9031
  37   2.0000      -0.615226       -16.7412
  38   2.0000      -0.599159       -16.3039
  39   2.0000      -0.588872       -16.0240
  40   2.0000      -0.580601       -15.7989
  41   2.0000      -0.578391       -15.7388
  42   2.0000      -0.567813       -15.4510
  43   2.0000      -0.562740       -15.3129
  44   2.0000      -0.546565       -14.8728
  45   2.0000      -0.543406       -14.7868
  46   2.0000      -0.520099       -14.1526
  47   2.0000      -0.505809       -13.7638
  48   2.0000      -0.502582       -13.6760
  49   2.0000      -0.493879       -13.4391
  50   2.0000      -0.486270       -13.2321
  51   2.0000      -0.478479       -13.0201
  52   2.0000      -0.474188       -12.9033
  53   2.0000      -0.465760       -12.6740
  54   2.0000      -0.459489       -12.5033
  55   2.0000      -0.424698       -11.5566
  56   2.0000      -0.422079       -11.4853
  57   2.0000      -0.419091       -11.4041
  58   2.0000      -0.384662       -10.4672
  59   2.0000      -0.298906        -8.1336
  60   0.0000       0.020132         0.5478
  61   0.0000       0.025556         0.6954
  62   0.0000       0.027576         0.7504
  63   0.0000       0.028902         0.7865
  64   0.0000       0.035678         0.9708

MULLIKEN ATOMIC CHARGES
-----------------------
   0 C :    0.306396
   1 H :    0.505082
   2 B :    1.862457
   3 C :   -0.666766
   4 H :    0.119809
   5 H :    0.185623
   6 C :   -0.706119
   7 H :    0.146310
   8 C :   -0.819505
   9 H :    0.379850
  10 H :    0.285753
  11 C :   -0.473779
  12 C :   -0.812645
  13 H :    0.455719
  14 H :    0.174521
  15 C :    1.770825
  16 O :   -1.965940
  17 O :   -0.955890
  18 C :   -0.879877
  19 H :    0.446677
  20 H :    0.308335
  21 H :    0.435210
  22 C :   -0.401243
  23 H :    0.216673
  24 H :    0.218107
  25 C :   -0.034750
  26 H :    0.299662
  27 C :   -0.602120
  28 H :    0.122539
  29 H :    0.189547
  30 C :   -0.617041
  31 H :    0.206750
  32 H :    0.123914
  33 C :   -0.444450
  34 H :    0.204476
  35 H :    0.171269
  36 H :    0.244621
Sum of atomic charges:   -0.0000000

LOEWDIN ATOMIC CHARGES
----------------------
   0 C :    0.314840
   1 H :   -0.285417
   2 B :   -1.065554
   3 C :    0.577120
   4 H :   -0.251889
   5 H :   -0.246041
   6 C :    0.577529
   7 H :   -0.251011
   8 C :    0.776567
   9 H :   -0.361577
  10 H :   -0.363617
  11 C :    0.299485
  12 C :    0.286872
  13 H :   -0.358548
  14 H :   -0.246136
  15 C :   -0.837422
  16 O :    1.016675
  17 O :    0.868116
  18 C :    0.613271
  19 H :   -0.316423
  20 H :   -0.290624
  21 H :   -0.315601
  22 C :    0.574040
  23 H :   -0.252671
  24 H :   -0.306102
  25 C :    0.309756
  26 H :   -0.270456
  27 C :    0.570011
  28 H :   -0.254438
  29 H :   -0.248233
  30 C :    0.572525
  31 H :   -0.248562
  32 H :   -0.251993
  33 C :    0.574572
  34 H :   -0.252742
  35 H :   -0.306108
  36 H :   -0.350212

  Mayer bond orders larger than 0.100000
B(  0-C ,  1-H ) :   0.7284 B(  0-C ,  2-B ) :   0.8373 B(  0-C ,  3-C ) :   0.5616
B(  0-C ,  4-H ) :  -0.1349 B(  0-C ,  6-C ) :   0.5788 B(  0-C ,  7-H ) :  -0.1029
B(  0-C , 16-O ) :  -0.4152 B(  0-C , 22-C ) :  -0.1295 B(  0-C , 33-C ) :  -0.1368
B(  1-H ,  6-C ) :  -0.1028 B(  2-B , 16-O ) :  -0.8242 B(  2-B , 17-O ) :   0.3024
B(  2-B , 25-C ) :   0.8467 B(  3-C ,  4-H ) :   1.1901 B(  3-C ,  5-H ) :   1.0656
B(  3-C , 33-C ) :   0.8583 B(  6-C ,  7-H ) :   1.1482 B(  6-C , 14-H ) :   1.0804
B(  6-C , 22-C ) :   0.8774 B(  8-C ,  9-H ) :   0.8743 B(  8-C , 10-H ) :   1.0785
B(  8-C , 11-C ) :   1.6356 B(  8-C , 12-C ) :  -0.2652 B( 10-H , 11-C ) :  -0.1583
B( 11-C , 12-C ) :   0.9571 B( 11-C , 13-H ) :   0.7427 B( 11-C , 15-C ) :  -0.3459
B( 12-C , 15-C ) :   1.1900 B( 12-C , 36-H ) :   0.9808 B( 15-C , 16-O ) :   1.0385
B( 15-C , 17-O ) :   0.2642 B( 15-C , 18-C ) :  -0.3195 B( 15-C , 36-H ) :  -0.1043
B( 16-O , 25-C ) :  -0.1230 B( 17-O , 18-C ) :   1.0771 B( 18-C , 19-H ) :   0.7786
B( 18-C , 20-H ) :   0.9193 B( 18-C , 21-H ) :   0.8465 B( 22-C , 23-H ) :   0.9936
B( 22-C , 24-H ) :   1.0550 B( 22-C , 27-C ) :   0.8131 B( 25-C , 26-H ) :   0.8834
B( 25-C , 27-C ) :   0.7406 B( 25-C , 30-C ) :   0.7085 B( 25-C , 33-C ) :  -0.1238
B( 27-C , 28-H ) :   1.1354 B( 27-C , 29-H ) :   1.0286 B( 30-C , 31-H ) :   1.0184
B( 30-C , 32-H ) :   1.1413 B( 30-C , 33-C ) :   0.8353 B( 33-C , 34-H ) :   1.0115
B( 33-C , 35-H ) :   1.1093

MP2 TOTAL ENERGY:     -682.144692909 Eh
FINAL SINGLE POINT ENERGY      -682.144692908829

DIPOLE MOMENT
-------------
                                X             Y             Z
Electronic contribution:     -8.66865       2.43756      -2.91948
Nuclear contribution   :      9.17937      -1.95101       2.88801
                        -----------------------------------------
Total Dipole Moment    :      0.51073       0.48655      -0.03147
                        -----------------------------------------
Magnitude (a.u.)       :      0.70609
Magnitude (Debye)      :      1.79473

Rotational constants in cm-1:     0.028297     0.011236     0.009705
Rotational constants in MHz :   848.314991   336.843939   290.938188

                             ****ORCA TERMINATED NORMALLY****
TOTAL RUN TIME: 0 days 6 hours 6 minutes 33 seconds 10 msec
