                         Program Version 4.2.1 -  RELEASE  -
|  1> %pal
|  2>  nprocs 32
|  3> end
|  4> !RI-MP2 aug-cc-pVQZ aug-cc-pVQZ/C TightSCF
|  5> %maxcore 4500
|  6> *xyzfile 0 2  03_10P1.xyz
|  7>
|  8>
|  9>                          ****END OF INPUT****

CARTESIAN COORDINATES (ANGSTROEM)
---------------------------------
  C      0.108607    0.329094   -0.768464
  C      1.209827   -0.304829    0.061386
  O      1.263069   -1.639089   -0.102827
  O      1.918073    0.283103    0.833750
  C     -1.198604    0.072955   -0.053900
  H      0.081884   -0.201161   -1.724348
  N      0.457814    1.721498   -0.992752
  H      1.940172   -1.977181    0.500192
  C     -1.464452    0.742045    1.250533
  C     -1.992490   -1.131939   -0.419375
  H      0.932251    2.111371   -0.186789
  H     -0.362082    2.274949   -1.204426
  H     -0.932842    1.689579    1.346327
  H     -2.532842    0.932865    1.384308
  H     -3.045731   -1.007988   -0.154372
  H     -1.633001   -2.026845    0.110871
  H     -1.926890   -1.352588   -1.487336
  H     -1.152078    0.110448    2.096379

 Total Charge           Charge          ....    0
 Multiplicity           Mult            ....    2
 Number of Electrons    NEL             ....   63
 Basis Dimension        Dim             .... 1100

ORBITAL ENERGIES
----------------
                 SPIN UP ORBITALS
  NO   OCC          E(Eh)            E(eV)
   0   1.0000     -20.615410      -560.9738
   1   1.0000     -20.550844      -559.2169
   2   1.0000     -15.542935      -422.9448
   3   1.0000     -11.386185      -309.8338
   4   1.0000     -11.276588      -306.8516
   5   1.0000     -11.245518      -306.0061
   6   1.0000     -11.222352      -305.3757
   7   1.0000     -11.221854      -305.3622
   8   1.0000      -1.473748       -40.1027
   9   1.0000      -1.369570       -37.2679
  10   1.0000      -1.202470       -32.7209
  11   1.0000      -1.089371       -29.6433
  12   1.0000      -0.970296       -26.4031
  13   1.0000      -0.948052       -25.7978
  14   1.0000      -0.834779       -22.7155
  15   1.0000      -0.765315       -20.8253
  16   1.0000      -0.720258       -19.5992
  17   1.0000      -0.710200       -19.3255
  18   1.0000      -0.658216       -17.9110
  19   1.0000      -0.631184       -17.1754
  20   1.0000      -0.618973       -16.8431
  21   1.0000      -0.616610       -16.7788
  22   1.0000      -0.601417       -16.3654
  23   1.0000      -0.575041       -15.6477
  24   1.0000      -0.549499       -14.9526
  25   1.0000      -0.538352       -14.6493
  26   1.0000      -0.518954       -14.1215
  27   1.0000      -0.505396       -13.7525
  28   1.0000      -0.490386       -13.3441
  29   1.0000      -0.463214       -12.6047
  30   1.0000      -0.401852       -10.9350
  31   1.0000      -0.331364        -9.0169
  32   0.0000       0.022892         0.6229
  33   0.0000       0.029065         0.7909
  34   0.0000       0.032587         0.8867
  35   0.0000       0.034507         0.9390
  36   0.0000       0.047475         1.2919

                 SPIN DOWN ORBITALS
  NO   OCC          E(Eh)            E(eV)
   0   1.0000     -20.615365      -560.9726
   1   1.0000     -20.550164      -559.1984
   2   1.0000     -15.541838      -422.9149
   3   1.0000     -11.384347      -309.7838
   4   1.0000     -11.279641      -306.9346
   5   1.0000     -11.225462      -305.4603
   6   1.0000     -11.224855      -305.4438
   7   1.0000     -11.220960      -305.3378
   8   1.0000      -1.472748       -40.0755
   9   1.0000      -1.368256       -37.2321
  10   1.0000      -1.195209       -32.5233
  11   1.0000      -1.054744       -28.7010
  12   1.0000      -0.967039       -26.3145
  13   1.0000      -0.947453       -25.7815
  14   1.0000      -0.823626       -22.4120
  15   1.0000      -0.739087       -20.1116
  16   1.0000      -0.714253       -19.4358
  17   1.0000      -0.706543       -19.2260
  18   1.0000      -0.647220       -17.6118
  19   1.0000      -0.629911       -17.1407
  20   1.0000      -0.612879       -16.6773
  21   1.0000      -0.603724       -16.4282
  22   1.0000      -0.574496       -15.6328
  23   1.0000      -0.568949       -15.4819
  24   1.0000      -0.538638       -14.6571
  25   1.0000      -0.535333       -14.5672
  26   1.0000      -0.514933       -14.0120
  27   1.0000      -0.499220       -13.5845
  28   1.0000      -0.486738       -13.2448
  29   1.0000      -0.456285       -12.4162
  30   1.0000      -0.395319       -10.7572
  31   0.0000       0.022759         0.6193
  32   0.0000       0.029166         0.7936
  33   0.0000       0.032548         0.8857
  34   0.0000       0.034517         0.9392
  35   0.0000       0.047331         1.2879

MULLIKEN ATOMIC CHARGES AND SPIN POPULATIONS
--------------------------------------------
   0 C :    0.471265   -0.152925
   1 C :    1.063249    0.031821
   2 O :   -0.751769   -0.001213
   3 O :   -0.897573    0.013730
   4 C :    0.094659    1.147066
   5 H :    0.403090    0.012711
   6 N :   -0.932942    0.035141
   7 H :    0.323655    0.001330
   8 C :   -0.913727   -0.163031
   9 C :   -0.826944   -0.145572
  10 H :    0.279147   -0.003307
  11 H :    0.218780   -0.003568
  12 H :    0.215172    0.009034
  13 H :    0.310423    0.025742
  14 H :    0.269133    0.020579
  15 H :    0.212030    0.079824
  16 H :    0.230576    0.015336
  17 H :    0.231777    0.077302
Sum of atomic charges         :   -0.0000000

LOEWDIN ATOMIC CHARGES AND SPIN POPULATIONS
-------------------------------------------
   0 C :   -0.123697    0.108373
   1 C :   -1.045949    0.025933
   2 O :    1.277412    0.005114
   3 O :    0.751322    0.013235
   4 C :    0.012524    0.452388
   5 H :   -0.341174    0.010049
   6 N :    1.279282    0.016621
   7 H :   -0.799502    0.000441
   8 C :    0.896085    0.124059
   9 C :    0.900979    0.125272
  10 H :   -0.574094    0.002341
  11 H :   -0.494667    0.011018
  12 H :   -0.309847    0.008234
  13 H :   -0.289719    0.015910
  14 H :   -0.294410    0.012866
  15 H :   -0.278105    0.028550
  16 H :   -0.296522    0.011746
  17 H :   -0.269918    0.027851

  Mayer bond orders larger than 0.100000
B(  0-C ,  1-C ) :   0.9875 B(  0-C ,  4-C ) :   0.6286 B(  0-C ,  5-H ) :   0.8646
B(  0-C ,  6-N ) :   0.6455 B(  1-C ,  2-O ) :   0.7570 B(  1-C ,  3-O ) :   1.3272
B(  1-C ,  6-N ) :   0.1060 B(  2-O ,  3-O ) :   0.1179 B(  2-O ,  7-H ) :   0.9202
B(  4-C ,  8-C ) :   0.7792 B(  4-C ,  9-C ) :   0.5789 B(  4-C , 13-H ) :  -0.1016
B(  4-C , 14-H ) :  -0.1533 B(  5-H ,  6-N ) :  -0.1004 B(  6-N , 10-H ) :   0.8928
B(  6-N , 11-H ) :   0.9578 B(  8-C , 12-H ) :   1.0307 B(  8-C , 13-H ) :   0.9669
B(  8-C , 17-H ) :   0.9083 B(  9-C , 14-H ) :   1.0462 B(  9-C , 15-H ) :   0.9652
B(  9-C , 16-H ) :   1.0411

MP2 TOTAL ENERGY:     -401.109962459 Eh
FINAL SINGLE POINT ENERGY      -401.109962459332

DIPOLE MOMENT
-------------
                                X             Y             Z
Electronic contribution:      7.92832      -1.00169      -0.61373
Nuclear contribution   :     -8.73924       0.55235       0.69938
                        -----------------------------------------
Total Dipole Moment    :     -0.81092      -0.44934       0.08564
                        -----------------------------------------
Magnitude (a.u.)       :      0.93104
Magnitude (Debye)      :      2.36651

Rotational constants in cm-1:     0.083051     0.057584     0.046928
Rotational constants in MHz :  2489.812464  1726.336991  1406.869271

                             ****ORCA TERMINATED NORMALLY****
TOTAL RUN TIME: 0 days 0 hours 47 minutes 16 seconds 487 msec
