                         Program Version 4.2.1 -  RELEASE  -
|  1> %pal
|  2>  nprocs 32
|  3> end
|  4> !RI-MP2 aug-cc-pVQZ aug-cc-pVQZ/C TightSCF
|  5> %maxcore 4500
|  6> *xyzfile 0 1  10_80P.xyz
|  7>
|  8>
|  9>                          ****END OF INPUT****

CARTESIAN COORDINATES (ANGSTROEM)
---------------------------------
  C      2.579665   -1.246478    0.330929
  C      1.867572   -0.520995    1.467029
  C      0.756005    0.418954    0.959651
  C     -0.171392   -0.329393    0.038426
  C      0.471526   -1.126677   -1.053663
  C      1.580536   -2.036454   -0.507664
  H      3.342035   -1.914189    0.738307
  H      3.099254   -0.521046   -0.303539
  H      2.572820    0.063532    2.062846
  H      1.417932   -1.255293    2.142624
  H     -0.271898   -1.702342   -1.603838
  H      0.914146   -0.414793   -1.758146
  H      2.078377   -2.529479   -1.344878
  H      1.131065   -2.826416    0.102831
  C     -1.508505   -0.280629    0.200314
  C     -2.120844    0.497515    1.235651
  C     -2.403582   -0.990534   -0.663973
  N     -2.610028    1.121514    2.066263
  N     -3.119516   -1.561217   -1.356969
  C      0.497666    2.691777   -1.939232
  C      0.922931    2.178132   -0.824822
  C      1.338119    1.650885    0.287811
  H     -0.304903    3.420816   -1.948710
  H      0.932851    2.411420   -2.892372
  H      2.144788    2.138595    0.829778
  H      0.192159    0.770499    1.827312

 Total Charge           Charge          ....    0
 Multiplicity           Mult            ....    1
 Number of Electrons    NEL             ....   98
 Basis Dimension        Dim             .... 1672

ORBITAL ENERGIES
----------------

  NO   OCC          E(Eh)            E(eV)
   0   2.0000     -15.580788      -423.9748
   1   2.0000     -15.580409      -423.9645
   2   2.0000     -11.319133      -308.0093
   3   2.0000     -11.315060      -307.8984
   4   2.0000     -11.287660      -307.1529
   5   2.0000     -11.287356      -307.1446
   6   2.0000     -11.278193      -306.8952
   7   2.0000     -11.271850      -306.7226
   8   2.0000     -11.264095      -306.5116
   9   2.0000     -11.258827      -306.3682
  10   2.0000     -11.253883      -306.2337
  11   2.0000     -11.252601      -306.1989
  12   2.0000     -11.249600      -306.1172
  13   2.0000     -11.243405      -305.9486
  14   2.0000      -1.248533       -33.9743
  15   2.0000      -1.230543       -33.4848
  16   2.0000      -1.191825       -32.4312
  17   2.0000      -1.114031       -30.3143
  18   2.0000      -1.101884       -29.9838
  19   2.0000      -1.053803       -28.6754
  20   2.0000      -1.011702       -27.5298
  21   2.0000      -0.961613       -26.1668
  22   2.0000      -0.882753       -24.0209
  23   2.0000      -0.862297       -23.4643
  24   2.0000      -0.790306       -21.5053
  25   2.0000      -0.787180       -21.4202
  26   2.0000      -0.739052       -20.1106
  27   2.0000      -0.703067       -19.1314
  28   2.0000      -0.662804       -18.0358
  29   2.0000      -0.652193       -17.7471
  30   2.0000      -0.633704       -17.2440
  31   2.0000      -0.625838       -17.0299
  32   2.0000      -0.616118       -16.7654
  33   2.0000      -0.595692       -16.2096
  34   2.0000      -0.578253       -15.7351
  35   2.0000      -0.574881       -15.6433
  36   2.0000      -0.573023       -15.5928
  37   2.0000      -0.555560       -15.1175
  38   2.0000      -0.550954       -14.9922
  39   2.0000      -0.530585       -14.4380
  40   2.0000      -0.499827       -13.6010
  41   2.0000      -0.493509       -13.4291
  42   2.0000      -0.491263       -13.3679
  43   2.0000      -0.490256       -13.3406
  44   2.0000      -0.484328       -13.1792
  45   2.0000      -0.470615       -12.8061
  46   2.0000      -0.397659       -10.8208
  47   2.0000      -0.387347       -10.5403
  48   2.0000      -0.382749       -10.4151
  49   0.0000       0.014894         0.4053
  50   0.0000       0.021999         0.5986
  51   0.0000       0.023618         0.6427
  52   0.0000       0.030485         0.8296
  53   0.0000       0.036968         1.0059

MULLIKEN ATOMIC CHARGES
-----------------------
   0 C :   -0.412065
   1 C :   -0.541536
   2 C :    0.332120
   3 C :    1.021809
   4 C :   -0.297349
   5 C :   -0.607549
   6 H :    0.262397
   7 H :    0.140263
   8 H :    0.176427
   9 H :    0.181297
  10 H :    0.312931
  11 H :    0.233901
  12 H :    0.258030
  13 H :    0.189792
  14 C :   -0.901762
  15 C :    0.709496
  16 C :    0.700983
  17 N :   -0.925127
  18 N :   -0.914935
  19 C :   -0.642303
  20 C :   -0.120357
  21 C :   -0.628836
  22 H :    0.374063
  23 H :    0.352661
  24 H :    0.333991
  25 H :    0.411660
Sum of atomic charges:   -0.0000000

LOEWDIN ATOMIC CHARGES
----------------------
   0 C :    0.547259
   1 C :    0.545792
   2 C :    0.076897
   3 C :   -0.089370
   4 C :    0.531822
   5 C :    0.566028
   6 H :   -0.250108
   7 H :   -0.261611
   8 H :   -0.255536
   9 H :   -0.247602
  10 H :   -0.309367
  11 H :   -0.273379
  12 H :   -0.248586
  13 H :   -0.251177
  14 C :   -0.205651
  15 C :   -0.346183
  16 C :   -0.346565
  17 N :    0.457091
  18 N :    0.450821
  19 C :    0.759997
  20 C :    0.216165
  21 C :    0.345317
  22 H :   -0.371860
  23 H :   -0.371455
  24 H :   -0.327226
  25 H :   -0.341511

  Mayer bond orders larger than 0.100000
B(  0-C ,  1-C ) :   0.8708 B(  0-C ,  2-C ) :  -0.1282 B(  0-C ,  4-C ) :  -0.1143
B(  0-C ,  5-C ) :   0.9316 B(  0-C ,  6-H ) :   0.9308 B(  0-C ,  7-H ) :   1.0237
B(  1-C ,  2-C ) :   0.8034 B(  1-C ,  8-H ) :   1.0695 B(  1-C ,  9-H ) :   1.0739
B(  2-C ,  3-C ) :   0.5266 B(  2-C , 14-C ) :  -0.1862 B(  2-C , 20-C ) :  -0.1195
B(  2-C , 21-C ) :   0.7595 B(  2-C , 25-H ) :   0.7538 B(  3-C ,  4-C ) :   0.4945
B(  3-C , 14-C ) :   1.0636 B(  3-C , 15-C ) :  -0.4129 B(  3-C , 16-C ) :  -0.4490
B(  4-C ,  5-C ) :   0.9167 B(  4-C , 10-H ) :   0.9452 B(  4-C , 11-H ) :   0.9058
B(  5-C , 12-H ) :   0.9583 B(  5-C , 13-H ) :   1.0365 B( 14-C , 15-C ) :   1.4951
B( 14-C , 16-C ) :   1.5123 B( 14-C , 21-C ) :   0.1135 B( 15-C , 17-N ) :   2.1406
B( 16-C , 18-N ) :   2.1391 B( 19-C , 20-C ) :   1.7416 B( 19-C , 21-C ) :  -0.1419
B( 19-C , 22-H ) :   0.9371 B( 19-C , 23-H ) :   0.9164 B( 20-C , 21-C ) :   1.9113
B( 20-C , 22-H ) :  -0.1142 B( 21-C , 24-H ) :   0.9089

MP2 TOTAL ENERGY:     -572.896807685 Eh
FINAL SINGLE POINT ENERGY      -572.896807685170

DIPOLE MOMENT
-------------
                                X             Y             Z
Electronic contribution:    -14.49249       2.24631       1.82496
Nuclear contribution   :     17.19716      -2.35883      -2.14140
                        -----------------------------------------
Total Dipole Moment    :      2.70467      -0.11252      -0.31644
                        -----------------------------------------
Magnitude (a.u.)       :      2.72544
Magnitude (Debye)      :      6.92752

Rotational constants in cm-1:     0.026673     0.019345     0.016852
Rotational constants in MHz :   799.641667   579.955218   505.221739

                             ****ORCA TERMINATED NORMALLY****
TOTAL RUN TIME: 0 days 2 hours 22 minutes 44 seconds 964 msec
