                         Program Version 4.2.1 -  RELEASE  -
|  1> %pal
|  2>  nprocs 32
|  3> end
|  4> !RI-MP2 aug-cc-pVQZ aug-cc-pVQZ/C TightSCF
|  5> %maxcore 4500
|  6> *xyzfile -1 1  07_4P1.xyz
|  7>
|  8>
|  9>                          ****END OF INPUT****

CARTESIAN COORDINATES (ANGSTROEM)
---------------------------------
  C     -0.091975    0.877286    0.178178
  C     -1.210430    0.162093    0.060254
  C     -2.230213   -0.613845    0.044331
  O      1.136931    0.461416   -0.412876
  C      1.624636   -0.732844    0.137281
  H     -2.940741   -0.496751   -0.780123
  H      0.000025    1.810549    0.721215
  H      2.537047   -1.001784   -0.406491
  H      1.862226   -0.614246    1.205847
  H      0.893884   -1.545233    0.042298

 Total Charge           Charge          ....   -1
 Multiplicity           Mult            ....    1
 Number of Electrons    NEL             ....   38
 Basis Dimension        Dim             ....  630

ORBITAL ENERGIES
----------------

  NO   OCC          E(Eh)            E(eV)
   0   2.0000     -20.385789      -554.7255
   1   2.0000     -11.114801      -302.4491
   2   2.0000     -11.057752      -300.8967
   3   2.0000     -11.025869      -300.0292
   4   2.0000     -10.989735      -299.0459
   5   2.0000      -1.197054       -32.5735
   6   2.0000      -0.838234       -22.8095
   7   2.0000      -0.772457       -21.0196
   8   2.0000      -0.689689       -18.7674
   9   2.0000      -0.521953       -14.2031
  10   2.0000      -0.485258       -13.2045
  11   2.0000      -0.459617       -12.5068
  12   2.0000      -0.416895       -11.3443
  13   2.0000      -0.392717       -10.6864
  14   2.0000      -0.337557        -9.1854
  15   2.0000      -0.272981        -7.4282
  16   2.0000      -0.219622        -5.9762
  17   2.0000      -0.162011        -4.4085
  18   2.0000      -0.073317        -1.9951
  19   0.0000       0.113352         3.0845
  20   0.0000       0.123776         3.3681
  21   0.0000       0.130786         3.5589
  22   0.0000       0.131996         3.5918
  23   0.0000       0.145300         3.9538

MULLIKEN ATOMIC CHARGES
-----------------------
   0 C :   -0.199992
   1 C :   -0.176107
   2 C :   -0.765015
   3 O :   -0.747538
   4 C :   -0.574255
   5 H :    0.186178
   6 H :    0.407765
   7 H :    0.330936
   8 H :    0.227425
   9 H :    0.310603
Sum of atomic charges:   -1.0000000

LOEWDIN ATOMIC CHARGES
----------------------
   0 C :   -0.211553
   1 C :   -0.181428
   2 C :    0.355330
   3 O :    0.723346
   4 C :    0.448206
   5 H :   -0.641917
   6 H :   -0.462148
   7 H :   -0.349604
   8 H :   -0.327189
   9 H :   -0.353044

  Mayer bond orders larger than 0.100000
B(  0-C ,  1-C ) :   1.7697 B(  0-C ,  3-O ) :   0.6576 B(  0-C ,  6-H ) :   0.8232
B(  1-C ,  2-C ) :   2.0908 B(  2-C ,  5-H ) :   1.0686 B(  3-O ,  4-C ) :   0.8945
B(  4-C ,  7-H ) :   0.8962 B(  4-C ,  8-H ) :   0.9369 B(  4-C ,  9-H ) :   0.8765

MP2 TOTAL ENERGY:     -230.168240213 Eh
FINAL SINGLE POINT ENERGY      -230.168240212611

DIPOLE MOMENT
-------------
                                X             Y             Z
Electronic contribution:     -0.31897       2.15180      -1.02364
Nuclear contribution   :      2.38428      -1.85100       0.78080
                        -----------------------------------------
Total Dipole Moment    :      2.06531       0.30080      -0.24284
                        -----------------------------------------
Magnitude (a.u.)       :      2.10118
Magnitude (Debye)      :      5.34078

Rotational constants in cm-1:     0.453046     0.108428     0.093323
Rotational constants in MHz : 13581.964159  3250.580200  2797.758762

                             ****ORCA TERMINATED NORMALLY****
TOTAL RUN TIME: 0 days 0 hours 5 minutes 43 seconds 73 msec
