                         Program Version 4.2.1 -  RELEASE  -
|  1> %pal
|  2>  nprocs 32
|  3> end
|  4> !RI-MP2 aug-cc-pVQZ aug-cc-pVQZ/C TightSCF
|  5> %maxcore 4500
|  6> *xyzfile 0 1  05_16R1.xyz
|  7>
|  8>
|  9>                          ****END OF INPUT****

CARTESIAN COORDINATES (ANGSTROEM)
---------------------------------
  C      2.428229    0.545421   -0.717635
  C      0.953592    0.354489   -0.448549
  C      0.152064    1.415320   -0.048638
  C      0.371358   -0.898574   -0.620487
  C     -1.208758    1.243055    0.169051
  H      0.591825    2.395224    0.101241
  C     -0.982237   -1.090196   -0.399517
  H      0.993202   -1.734124   -0.918987
  C     -1.762437   -0.012085   -0.008445
  H     -1.830895    2.071281    0.481087
  H     -1.434079   -2.064517   -0.530499
  O      3.233911   -0.476400   -0.174093
  C      3.296111   -0.451087    1.235363
  H      2.311791   -0.612058    1.688373
  H      3.965424   -1.253922    1.539736
  H      3.697270    0.505928    1.592926
  Cl    -3.471768   -0.246191    0.270932
  H      2.748438    1.526531   -0.341133
  H      2.618262    0.524052   -1.792708

 Total Charge           Charge          ....    0
 Multiplicity           Mult            ....    1
 Number of Electrons    NEL             ....   82
 Basis Dimension        Dim             .... 1218

ORBITAL ENERGIES
----------------

  NO   OCC          E(Eh)            E(eV)
   0   2.0000    -104.838475     -2852.7999
   1   2.0000     -20.561855      -559.5165
   2   2.0000     -11.301978      -307.5425
   3   2.0000     -11.287656      -307.1527
   4   2.0000     -11.271979      -306.7261
   5   2.0000     -11.250024      -306.1287
   6   2.0000     -11.249345      -306.1102
   7   2.0000     -11.248270      -306.0810
   8   2.0000     -11.247072      -306.0484
   9   2.0000     -11.244084      -305.9671
  10   2.0000     -10.563829      -287.4564
  11   2.0000      -8.030964      -218.5336
  12   2.0000      -8.029251      -218.4870
  13   2.0000      -8.029196      -218.4855
  14   2.0000      -1.384226       -37.6667
  15   2.0000      -1.193862       -32.4866
  16   2.0000      -1.125853       -30.6360
  17   2.0000      -1.035073       -28.1658
  18   2.0000      -1.030420       -28.0392
  19   2.0000      -0.958733       -26.0885
  20   2.0000      -0.883564       -24.0430
  21   2.0000      -0.851486       -23.1701
  22   2.0000      -0.801975       -21.8229
  23   2.0000      -0.704842       -19.1797
  24   2.0000      -0.679321       -18.4853
  25   2.0000      -0.666201       -18.1282
  26   2.0000      -0.648699       -17.6520
  27   2.0000      -0.634974       -17.2785
  28   2.0000      -0.623656       -16.9705
  29   2.0000      -0.603409       -16.4196
  30   2.0000      -0.566430       -15.4134
  31   2.0000      -0.553402       -15.0588
  32   2.0000      -0.535399       -14.5689
  33   2.0000      -0.523390       -14.2422
  34   2.0000      -0.513846       -13.9825
  35   2.0000      -0.481918       -13.1137
  36   2.0000      -0.464857       -12.6494
  37   2.0000      -0.455014       -12.3816
  38   2.0000      -0.434155       -11.8140
  39   2.0000      -0.355104        -9.6629
  40   2.0000      -0.334357        -9.0983
  41   0.0000       0.023481         0.6390
  42   0.0000       0.029001         0.7891
  43   0.0000       0.031813         0.8657
  44   0.0000       0.033294         0.9060
  45   0.0000       0.042172         1.1476

MULLIKEN ATOMIC CHARGES
-----------------------
   0 C :    0.067312
   1 C :    0.583163
   2 C :   -0.538300
   3 C :   -0.373100
   4 C :   -0.135350
   5 H :    0.213276
   6 C :   -0.111279
   7 H :    0.318762
   8 C :   -0.395019
   9 H :    0.383762
  10 H :    0.363101
  11 O :   -0.887055
  12 C :   -0.661775
  13 H :    0.284622
  14 H :    0.446552
  15 H :    0.240584
  16 Cl:   -0.408670
  17 H :    0.155813
  18 H :    0.453602
Sum of atomic charges:    0.0000000

LOEWDIN ATOMIC CHARGES
----------------------
   0 C :    0.130145
   1 C :   -0.106650
   2 C :    0.336604
   3 C :    0.328992
   4 C :    0.209874
   5 H :   -0.312740
   6 C :    0.214227
   7 H :   -0.308944
   8 C :   -0.850016
   9 H :   -0.353195
  10 H :   -0.352298
  11 O :    0.880364
  12 C :    0.568166
  13 H :   -0.311536
  14 H :   -0.318681
  15 H :   -0.302026
  16 Cl:    1.176205
  17 H :   -0.322511
  18 H :   -0.305979

  Mayer bond orders larger than 0.100000
B(  0-C ,  1-C ) :   0.7404 B(  0-C , 11-O ) :   0.5928 B(  0-C , 17-H ) :   1.1312
B(  0-C , 18-H ) :   0.7508 B(  1-C ,  2-C ) :   0.8199 B(  1-C ,  3-C ) :   0.9506
B(  1-C ,  4-C ) :  -0.3688 B(  1-C ,  6-C ) :  -0.2717 B(  1-C ,  8-C ) :  -0.1128
B(  1-C , 17-H ) :  -0.1162 B(  2-C ,  4-C ) :   1.4021 B(  2-C ,  5-H ) :   1.0827
B(  2-C ,  6-C ) :   0.1512 B(  2-C ,  9-H ) :  -0.1159 B(  3-C ,  4-C ) :   0.1053
B(  3-C ,  6-C ) :   1.3538 B(  3-C ,  7-H ) :   0.9393 B(  4-C ,  5-H ) :  -0.1128
B(  4-C ,  8-C ) :   1.0912 B(  4-C ,  9-H ) :   0.9169 B(  4-C , 16-Cl) :  -0.1900
B(  6-C ,  8-C ) :   1.0698 B(  6-C , 10-H ) :   0.9241 B(  6-C , 16-Cl) :  -0.2182
B(  8-C , 16-Cl) :   1.0810 B( 11-O , 12-C ) :   0.8782 B( 12-C , 13-H ) :   0.8728
B( 12-C , 14-H ) :   0.8228 B( 12-C , 15-H ) :   0.9630

MP2 TOTAL ENERGY:     -844.557407552 Eh
FINAL SINGLE POINT ENERGY      -844.557407551540

DIPOLE MOMENT
-------------
                                X             Y             Z
Electronic contribution:    -17.81671      -1.26474      -1.20988
Nuclear contribution   :     18.36782       1.67472       1.40586
                        -----------------------------------------
Total Dipole Moment    :      0.55111       0.40998       0.19598
                        -----------------------------------------
Magnitude (a.u.)       :      0.71429
Magnitude (Debye)      :      1.81559

Rotational constants in cm-1:     0.111266     0.017222     0.016340
Rotational constants in MHz :  3335.659169   516.288022   489.854441

                             ****ORCA TERMINATED NORMALLY****
TOTAL RUN TIME: 0 days 0 hours 45 minutes 15 seconds 533 msec
