                         Program Version 4.2.1 -  RELEASE  -
|  1> %pal
|  2>  nprocs 32
|  3> end
|  4> !RI-MP2 aug-cc-pVQZ aug-cc-pVQZ/C TightSCF
|  5> %maxcore 4500
|  6> *xyzfile 1 1  08_12TS.xyz
|  7>
|  8>
|  9>                          ****END OF INPUT****

CARTESIAN COORDINATES (ANGSTROEM)
---------------------------------
  S      3.258012   -1.901496   -0.247256
  C      3.296130   -2.328308    1.511134
  H      2.390930   -2.013626    2.028249
  H      3.391190   -3.411150    1.571964
  H      4.169948   -1.874280    1.976335
  C      3.380857   -0.086250   -0.235749
  C      1.016170   -2.420872   -0.918776
  H      0.775748   -2.665408    0.103026
  H      1.401154   -3.193165   -1.564722
  H      0.941149   -1.406351   -1.278486
  N     -0.918152   -2.765224   -1.427091
  C     -1.724530   -2.098564   -0.476851
  N     -1.974877   -2.740135    0.649856
  C     -2.703755   -2.115795    1.588836
  N     -3.212817   -0.894932    1.520027
  C     -2.931689   -0.275086    0.383579
  C     -2.171274   -0.802102   -0.667979
  N     -2.047647    0.118250   -1.686708
  C     -2.728411    1.151304   -1.256147
  N     -3.293738    0.978491   -0.026787
  H     -2.843749    2.078338   -1.797558
  C     -3.985841    1.981630    0.769915
  H     -4.478296    1.475097    1.596677
  H     -4.732926    2.485444    0.159263
  H     -3.265098    2.703271    1.153812
  H     -1.064171   -3.770237   -1.377981
  H     -1.058943   -2.415224   -2.371532
  C      2.411925    0.686230    0.644629
  H      3.260056    0.215214   -1.274947
  H      4.397459    0.159762    0.071433
  C      0.949646    0.713823    0.210306
  C      0.507175    2.078928    0.751822
  C      1.757460    2.952870    0.521589
  O      2.854778    2.044397    0.619360
  N      1.653769    3.625506   -0.740351
  H      1.875901    3.705257    1.300962
  O     -0.629879    2.595701    0.118243
  H      0.314105    1.986723    1.824023
  O      0.876382    0.662712   -1.201329
  H      0.374963   -0.103537    0.658749
  H     -0.045849    0.796130   -1.476606
  H     -0.292754    3.305699   -0.460199
  H      2.465981    0.323579    1.676839
  H      2.270570    4.423465   -0.812103
  H      1.819593    2.994015   -1.516807
  H     -2.894345   -2.678082    2.495050

 Total Charge           Charge          ....    1
 Multiplicity           Mult            ....    1
 Number of Electrons    NEL             ....  182
 Basis Dimension        Dim             .... 2902

ORBITAL ENERGIES
----------------

  NO   OCC          E(Eh)            E(eV)
   0   2.0000     -92.099887     -2506.1653
   1   2.0000     -20.678140      -562.6808
   2   2.0000     -20.665868      -562.3468
   3   2.0000     -20.663658      -562.2867
   4   2.0000     -15.749679      -428.5706
   5   2.0000     -15.737684      -428.2442
   6   2.0000     -15.681437      -426.7136
   7   2.0000     -15.679753      -426.6678
   8   2.0000     -15.677109      -426.5958
   9   2.0000     -15.653231      -425.9461
  10   2.0000     -11.464740      -311.9714
  11   2.0000     -11.458134      -311.7917
  12   2.0000     -11.438535      -311.2584
  13   2.0000     -11.433858      -311.1311
  14   2.0000     -11.426886      -310.9414
  15   2.0000     -11.417792      -310.6939
  16   2.0000     -11.408150      -310.4315
  17   2.0000     -11.402443      -310.2763
  18   2.0000     -11.392799      -310.0138
  19   2.0000     -11.382226      -309.7261
  20   2.0000     -11.380172      -309.6702
  21   2.0000     -11.378836      -309.6339
  22   2.0000     -11.373273      -309.4825
  23   2.0000      -9.101748      -247.6712
  24   2.0000      -6.783198      -184.5802
  25   2.0000      -6.782393      -184.5583
  26   2.0000      -6.781828      -184.5429
  27   2.0000      -1.518364       -41.3168
  28   2.0000      -1.493231       -40.6329
  29   2.0000      -1.482835       -40.3500
  30   2.0000      -1.472084       -40.0574
  31   2.0000      -1.436687       -39.0942
  32   2.0000      -1.384807       -37.6825
  33   2.0000      -1.322723       -35.9931
  34   2.0000      -1.293139       -35.1881
  35   2.0000      -1.289549       -35.0904
  36   2.0000      -1.218838       -33.1663
  37   2.0000      -1.164970       -31.7005
  38   2.0000      -1.154732       -31.4219
  39   2.0000      -1.122939       -30.5567
  40   2.0000      -1.108653       -30.1680
  41   2.0000      -1.088507       -29.6198
  42   2.0000      -1.045127       -28.4394
  43   2.0000      -1.018600       -27.7175
  44   2.0000      -1.003939       -27.3186
  45   2.0000      -0.957875       -26.0651
  46   2.0000      -0.929577       -25.2951
  47   2.0000      -0.927511       -25.2389
  48   2.0000      -0.903646       -24.5895
  49   2.0000      -0.887964       -24.1627
  50   2.0000      -0.863274       -23.4909
  51   2.0000      -0.846761       -23.0415
  52   2.0000      -0.825589       -22.4654
  53   2.0000      -0.818323       -22.2677
  54   2.0000      -0.808469       -21.9996
  55   2.0000      -0.792126       -21.5548
  56   2.0000      -0.783260       -21.3136
  57   2.0000      -0.781078       -21.2542
  58   2.0000      -0.775766       -21.1097
  59   2.0000      -0.772912       -21.0320
  60   2.0000      -0.757240       -20.6055
  61   2.0000      -0.750563       -20.4239
  62   2.0000      -0.747039       -20.3280
  63   2.0000      -0.733078       -19.9481
  64   2.0000      -0.726782       -19.7768
  65   2.0000      -0.718106       -19.5406
  66   2.0000      -0.713688       -19.4205
  67   2.0000      -0.711971       -19.3737
  68   2.0000      -0.702487       -19.1156
  69   2.0000      -0.697764       -18.9871
  70   2.0000      -0.688258       -18.7285
  71   2.0000      -0.683940       -18.6110
  72   2.0000      -0.672348       -18.2955
  73   2.0000      -0.670117       -18.2348
  74   2.0000      -0.654923       -17.8214
  75   2.0000      -0.639122       -17.3914
  76   2.0000      -0.629541       -17.1307
  77   2.0000      -0.618782       -16.8379
  78   2.0000      -0.611432       -16.6379
  79   2.0000      -0.592799       -16.1309
  80   2.0000      -0.586303       -15.9541
  81   2.0000      -0.578560       -15.7434
  82   2.0000      -0.575049       -15.6479
  83   2.0000      -0.562561       -15.3081
  84   2.0000      -0.547355       -14.8943
  85   2.0000      -0.544120       -14.8063
  86   2.0000      -0.532185       -14.4815
  87   2.0000      -0.513894       -13.9838
  88   2.0000      -0.492853       -13.4112
  89   2.0000      -0.481723       -13.1083
  90   2.0000      -0.441348       -12.0097
  91   0.0000      -0.065293        -1.7767
  92   0.0000      -0.054991        -1.4964
  93   0.0000      -0.049455        -1.3457
  94   0.0000      -0.046062        -1.2534
  95   0.0000      -0.040320        -1.0972

MULLIKEN ATOMIC CHARGES
-----------------------
   0 S :   -0.159868
   1 C :   -1.143997
   2 H :    0.384113
   3 H :    0.389511
   4 H :    0.361016
   5 C :   -0.706709
   6 C :   -0.581352
   7 H :    0.392005
   8 H :    0.309609
   9 H :    0.313435
  10 N :   -0.393996
  11 C :    1.368905
  12 N :   -1.176239
  13 C :    0.066159
  14 N :   -1.052108
  15 C :    1.019848
  16 C :    0.411779
  17 N :   -1.165888
  18 C :    0.627035
  19 N :   -0.644863
  20 H :    0.584865
  21 C :   -1.240503
  22 H :    0.345179
  23 H :    0.306151
  24 H :    0.427986
  25 H :    0.186039
  26 H :    0.137337
  27 C :    1.335719
  28 H :    0.227518
  29 H :    0.347669
  30 C :    0.284167
  31 C :    0.319524
  32 C :    0.486777
  33 O :   -1.163890
  34 N :   -0.770960
  35 H :    0.401469
  36 O :   -1.268728
  37 H :    0.242616
  38 O :   -1.081774
  39 H :    0.430020
  40 H :    0.355904
  41 H :    0.447931
  42 H :   -0.001428
  43 H :    0.134650
  44 H :    0.265237
  45 H :    0.642127
Sum of atomic charges:    1.0000000

LOEWDIN ATOMIC CHARGES
----------------------
   0 S :    1.459290
   1 C :    0.675391
   2 H :   -0.349189
   3 H :   -0.353040
   4 H :   -0.336516
   5 C :    0.257662
   6 C :    0.993894
   7 H :   -0.338321
   8 H :   -0.291920
   9 H :   -0.459619
  10 N :    1.198032
  11 C :   -0.475496
  12 N :    0.622833
  13 C :   -0.132338
  14 N :    0.652888
  15 C :   -0.581955
  16 C :   -0.417773
  17 N :    0.647428
  18 C :   -0.032369
  19 N :    0.439485
  20 H :   -0.274815
  21 C :    0.851058
  22 H :   -0.293717
  23 H :   -0.269242
  24 H :   -0.276823
  25 H :   -0.429402
  26 H :   -0.417678
  27 C :   -0.278389
  28 H :   -0.373330
  29 H :   -0.342166
  30 C :   -0.227757
  31 C :   -0.205514
  32 C :   -0.324388
  33 O :    0.949432
  34 N :    1.305572
  35 H :   -0.290415
  36 O :    1.317724
  37 H :   -0.274172
  38 O :    1.348630
  39 H :   -0.295718
  40 H :   -0.878695
  41 H :   -0.879674
  42 H :   -0.309940
  43 H :   -0.454901
  44 H :   -0.489652
  45 H :   -0.364394

  Mayer bond orders larger than 0.100000
B(  0-S ,  1-C ) :   1.1399 B(  0-S ,  5-C ) :   0.9325 B(  0-S ,  6-C ) :   0.1671
B(  0-S , 27-C ) :  -0.2340 B(  1-C ,  2-H ) :   0.8192 B(  1-C ,  3-H ) :   0.8667
B(  1-C ,  4-H ) :   0.8817 B(  1-C ,  5-C ) :  -0.1033 B(  5-C , 27-C ) :   0.4104
B(  5-C , 28-H ) :   0.9243 B(  5-C , 29-H ) :   0.9238 B(  6-C ,  7-H ) :   0.8121
B(  6-C ,  8-H ) :   0.9510 B(  6-C ,  9-H ) :   0.8870 B(  6-C , 10-N ) :   0.5184
B(  7-H ,  9-H ) :   0.2306 B(  9-H , 38-O ) :   0.1036 B( 10-N , 11-C ) :   0.6064
B( 10-N , 12-N ) :   0.1375 B( 10-N , 25-H ) :   1.1616 B( 10-N , 26-H ) :   1.1020
B( 11-C , 12-N ) :   0.3812 B( 11-C , 15-C ) :  -0.4013 B( 11-C , 16-C ) :   1.1129
B( 11-C , 26-H ) :  -0.1018 B( 12-N , 13-C ) :   1.3344 B( 12-N , 14-N ) :   0.1694
B( 12-N , 16-C ) :   0.1563 B( 12-N , 25-H ) :  -0.1377 B( 12-N , 45-H ) :  -0.1042
B( 13-C , 14-N ) :   1.3158 B( 13-C , 16-C ) :   0.3297 B( 13-C , 45-H ) :   0.6501
B( 14-N , 15-C ) :   0.4889 B( 14-N , 19-N ) :   0.1733 B( 14-N , 45-H ) :  -0.1045
B( 15-C , 16-C ) :   1.2407 B( 15-C , 17-N ) :   0.1906 B( 15-C , 19-N ) :   1.2188
B( 15-C , 21-C ) :  -0.1242 B( 16-C , 19-N ) :  -0.1751 B( 17-N , 18-C ) :   1.2424
B( 17-N , 19-N ) :   0.2595 B( 17-N , 20-H ) :  -0.1012 B( 18-C , 19-N ) :   1.0659
B( 18-C , 20-H ) :   0.6751 B( 19-N , 21-C ) :   0.8493 B( 21-C , 22-H ) :   0.9126
B( 21-C , 23-H ) :   1.0242 B( 21-C , 24-H ) :   0.8487 B( 27-C , 30-C ) :   0.8364
B( 27-C , 31-C ) :  -0.1274 B( 27-C , 33-O ) :  -0.1689 B( 27-C , 42-H ) :   1.1450
B( 28-H , 30-C ) :  -0.1213 B( 30-C , 31-C ) :   0.3278 B( 30-C , 32-C ) :  -0.3710
B( 30-C , 33-O ) :   0.4272 B( 30-C , 38-O ) :   0.3269 B( 30-C , 39-H ) :   0.7935
B( 31-C , 32-C ) :   1.2811 B( 31-C , 33-O ) :   0.2795 B( 31-C , 35-H ) :   0.1010
B( 31-C , 36-O ) :   0.1858 B( 31-C , 37-H ) :   1.0148 B( 31-C , 38-O ) :  -0.1034
B( 31-C , 39-H ) :  -0.1226 B( 32-C , 33-O ) :   0.4282 B( 32-C , 34-N ) :   0.6241
B( 32-C , 35-H ) :   0.8601 B( 32-C , 36-O ) :   0.1876 B( 33-O , 42-H ) :   0.1297
B( 34-N , 41-H ) :   0.1008 B( 34-N , 43-H ) :   1.1085 B( 34-N , 44-H ) :   0.9038
B( 36-O , 40-H ) :   0.1036 B( 36-O , 41-H ) :   0.7671 B( 38-O , 40-H ) :   0.7889

MP2 TOTAL ENERGY:    -1459.290425067 Eh
FINAL SINGLE POINT ENERGY     -1459.290425066694

DIPOLE MOMENT
-------------
                                X             Y             Z
Electronic contribution:     -8.57668      -4.40873      -3.12049
Nuclear contribution   :      9.07039       3.25583       2.67775
                        -----------------------------------------
Total Dipole Moment    :      0.49371      -1.15290      -0.44274
                        -----------------------------------------
Magnitude (a.u.)       :      1.33002
Magnitude (Debye)      :      3.38064

Rotational constants in cm-1:     0.010143     0.007050     0.004930
Rotational constants in MHz :   304.087952   211.353670   147.801855

                             ****ORCA TERMINATED NORMALLY****
TOTAL RUN TIME: 0 days 13 hours 37 minutes 19 seconds 96 msec
