                         Program Version 4.2.1 -  RELEASE  -
|  1> %pal
|  2>  nprocs 32
|  3> end
|  4> !RI-MP2 aug-cc-pVQZ aug-cc-pVQZ/C TightSCF
|  5> %maxcore 4500
|  6> *xyzfile 0 1  10_23R.xyz
|  7>
|  8>
|  9>                          ****END OF INPUT****

CARTESIAN COORDINATES (ANGSTROEM)
---------------------------------
  C     -2.041375   -1.243803   -0.955155
  C     -2.888181   -1.750260   -0.056415
  C     -0.925127    1.115180    1.040085
  N     -2.002425    1.852806    1.145045
  N     -2.937676    2.467880    1.215693
  C      0.246417    1.688192    0.345617
  C      1.499458    1.644237    0.953154
  C      0.120148    2.280751   -0.909673
  C      2.610180    2.163837    0.306925
  H      1.604242    1.191829    1.931180
  C      1.228397    2.817197   -1.545426
  H     -0.848550    2.307198   -1.395473
  C      2.477934    2.753463   -0.941449
  H      3.581331    2.105758    0.782321
  H      1.118572    3.276413   -2.520443
  H      3.345758    3.161756   -1.444684
  C     -1.042375   -0.168576    1.732784
  C      0.266011   -1.272548    0.032338
  C     -0.587160   -1.344462   -0.990919
  H     -0.142790   -1.448331   -1.974220
  C     -2.793558   -0.559764   -2.080233
  H     -2.342250    0.393082   -2.368997
  H     -2.785889   -1.194675   -2.974692
  C     -4.323074   -1.472983   -0.407658
  H     -4.804730   -2.385222   -0.780369
  H     -4.909383   -1.140444    0.452059
  C     -4.210855   -0.395104   -1.503747
  H     -4.299699    0.592306   -1.044056
  H     -4.990855   -0.473261   -2.261797
  O     -0.176314   -1.151203    1.346250
  O     -1.822098   -0.386031    2.618371
  C      1.732583   -1.377178   -0.065465
  C      2.478511   -1.752219    1.051632
  C      2.403881   -1.071811   -1.249846
  C      3.861452   -1.828825    0.981652
  H      1.966105   -1.980613    1.976471
  C      3.784087   -1.147927   -1.316943
  H      1.849248   -0.729522   -2.113660
  C      4.520342   -1.526996   -0.201411
  H      4.425957   -2.125765    1.857405
  H      4.289985   -0.893253   -2.240424
  H      5.600940   -1.581412   -0.254064
  H     -2.596167   -2.325174    0.812228

 Total Charge           Charge          ....    0
 Multiplicity           Mult            ....    1
 Number of Electrons    NEL             ....  174
 Basis Dimension        Dim             .... 2828

ORBITAL ENERGIES
----------------

  NO   OCC          E(Eh)            E(eV)
   0   2.0000     -20.607037      -560.7460
   1   2.0000     -20.538167      -558.8719
   2   2.0000     -15.758485      -428.8102
   3   2.0000     -15.692529      -427.0154
   4   2.0000     -11.394618      -310.0633
   5   2.0000     -11.309863      -307.7570
   6   2.0000     -11.289563      -307.2046
   7   2.0000     -11.264990      -306.5360
   8   2.0000     -11.250226      -306.1342
   9   2.0000     -11.246393      -306.0299
  10   2.0000     -11.244667      -305.9829
  11   2.0000     -11.243132      -305.9412
  12   2.0000     -11.242322      -305.9191
  13   2.0000     -11.240931      -305.8813
  14   2.0000     -11.239456      -305.8411
  15   2.0000     -11.238888      -305.8257
  16   2.0000     -11.237872      -305.7981
  17   2.0000     -11.237316      -305.7829
  18   2.0000     -11.237222      -305.7804
  19   2.0000     -11.235824      -305.7423
  20   2.0000     -11.231188      -305.6162
  21   2.0000     -11.227061      -305.5039
  22   2.0000     -11.221633      -305.3562
  23   2.0000     -11.221316      -305.3475
  24   2.0000     -11.220685      -305.3303
  25   2.0000      -1.498256       -40.7696
  26   2.0000      -1.467043       -39.9203
  27   2.0000      -1.373395       -37.3720
  28   2.0000      -1.192128       -32.4394
  29   2.0000      -1.167915       -31.7806
  30   2.0000      -1.147588       -31.2274
  31   2.0000      -1.146072       -31.1862
  32   2.0000      -1.081896       -29.4399
  33   2.0000      -1.030822       -28.0501
  34   2.0000      -1.027635       -27.9634
  35   2.0000      -1.025540       -27.9064
  36   2.0000      -1.019859       -27.7518
  37   2.0000      -0.964944       -26.2575
  38   2.0000      -0.957948       -26.0671
  39   2.0000      -0.907544       -24.6955
  40   2.0000      -0.863838       -23.5062
  41   2.0000      -0.847393       -23.0587
  42   2.0000      -0.837598       -22.7922
  43   2.0000      -0.831100       -22.6154
  44   2.0000      -0.806603       -21.9488
  45   2.0000      -0.793524       -21.5929
  46   2.0000      -0.748378       -20.3644
  47   2.0000      -0.744069       -20.2472
  48   2.0000      -0.727162       -19.7871
  49   2.0000      -0.699088       -19.0232
  50   2.0000      -0.696908       -18.9638
  51   2.0000      -0.691241       -18.8096
  52   2.0000      -0.680304       -18.5120
  53   2.0000      -0.666977       -18.1494
  54   2.0000      -0.661912       -18.0115
  55   2.0000      -0.652043       -17.7430
  56   2.0000      -0.641141       -17.4463
  57   2.0000      -0.639980       -17.4147
  58   2.0000      -0.636001       -17.3065
  59   2.0000      -0.626087       -17.0367
  60   2.0000      -0.609501       -16.5854
  61   2.0000      -0.606127       -16.4936
  62   2.0000      -0.599574       -16.3152
  63   2.0000      -0.594008       -16.1638
  64   2.0000      -0.586302       -15.9541
  65   2.0000      -0.573475       -15.6051
  66   2.0000      -0.555929       -15.1276
  67   2.0000      -0.535674       -14.5764
  68   2.0000      -0.529935       -14.4203
  69   2.0000      -0.520292       -14.1579
  70   2.0000      -0.514470       -13.9994
  71   2.0000      -0.509046       -13.8518
  72   2.0000      -0.506729       -13.7888
  73   2.0000      -0.500922       -13.6308
  74   2.0000      -0.498009       -13.5515
  75   2.0000      -0.493011       -13.4155
  76   2.0000      -0.489816       -13.3286
  77   2.0000      -0.482257       -13.1229
  78   2.0000      -0.477901       -13.0043
  79   2.0000      -0.459134       -12.4937
  80   2.0000      -0.417403       -11.3581
  81   2.0000      -0.379080       -10.3153
  82   2.0000      -0.360706        -9.8153
  83   2.0000      -0.347995        -9.4694
  84   2.0000      -0.344427        -9.3723
  85   2.0000      -0.312398        -8.5008
  86   2.0000      -0.293116        -7.9761
  87   0.0000       0.016851         0.4585
  88   0.0000       0.022392         0.6093
  89   0.0000       0.026636         0.7248
  90   0.0000       0.028165         0.7664
  91   0.0000       0.032899         0.8952

MULLIKEN ATOMIC CHARGES
-----------------------
   0 C :    0.658593
   1 C :   -0.733502
   2 C :    1.007482
   3 N :    0.012583
   4 N :   -0.669384
   5 C :    0.607481
   6 C :   -0.372283
   7 C :   -0.688334
   8 C :   -0.299899
   9 H :    0.154328
  10 C :   -0.257895
  11 H :    0.094045
  12 C :   -0.293213
  13 H :    0.258332
  14 H :    0.184312
  15 H :    0.266264
  16 C :    1.916872
  17 C :    0.887057
  18 C :   -0.008495
  19 H :    0.221646
  20 C :   -0.678057
  21 H :    0.351422
  22 H :    0.274903
  23 C :   -0.522573
  24 H :    0.305529
  25 H :    0.276099
  26 C :   -0.677800
  27 H :    0.194707
  28 H :    0.281323
  29 O :   -1.481649
  30 O :   -1.231038
  31 C :    0.494944
  32 C :   -0.685063
  33 C :   -0.353399
  34 C :   -0.312858
  35 H :    0.249852
  36 C :   -0.281405
  37 H :    0.164229
  38 C :   -0.246534
  39 H :    0.197105
  40 H :    0.182599
  41 H :    0.298424
  42 H :    0.253248
Sum of atomic charges:    0.0000000

LOEWDIN ATOMIC CHARGES
----------------------
   0 C :   -0.063647
   1 C :    0.385199
   2 C :   -0.407116
   3 N :    0.067762
   4 N :    0.486067
   5 C :   -0.177860
   6 C :    0.319678
   7 C :    0.326474
   8 C :    0.348105
   9 H :   -0.302495
  10 C :    0.356423
  11 H :   -0.319246
  12 C :    0.346674
  13 H :   -0.304294
  14 H :   -0.314464
  15 H :   -0.314365
  16 C :   -1.169450
  17 C :   -0.436236
  18 C :    0.356121
  19 H :   -0.347864
  20 C :    0.504830
  21 H :   -0.274023
  22 H :   -0.254593
  23 C :    0.521514
  24 H :   -0.263845
  25 H :   -0.267049
  26 C :    0.518497
  27 H :   -0.279515
  28 H :   -0.254971
  29 O :    0.847036
  30 O :    0.701053
  31 C :   -0.132371
  32 C :    0.330356
  33 C :    0.323091
  34 C :    0.353517
  35 H :   -0.332033
  36 C :    0.353380
  37 H :   -0.325318
  38 C :    0.343062
  39 H :   -0.316302
  40 H :   -0.313173
  41 H :   -0.318431
  42 H :   -0.300178

  Mayer bond orders larger than 0.100000
B(  0-C ,  1-C ) :   1.6119 B(  0-C , 17-C ) :  -0.5181 B(  0-C , 18-C ) :   0.1526
B(  0-C , 19-H ) :  -0.1629 B(  0-C , 20-C ) :   0.6140 B(  0-C , 23-C ) :  -0.3008
B(  1-C , 18-C ) :  -0.4176 B(  1-C , 20-C ) :  -0.1066 B(  1-C , 23-C ) :   0.8269
B(  1-C , 25-H ) :  -0.1068 B(  1-C , 30-O ) :   0.1163 B(  1-C , 42-H ) :   1.0690
B(  2-C ,  3-N ) :   0.1771 B(  2-C ,  5-C ) :  -0.4008 B(  2-C ,  6-C ) :  -0.3984
B(  2-C ,  7-C ) :  -0.7558 B(  2-C ,  8-C ) :   0.1064 B(  2-C , 10-C ) :   0.1460
B(  2-C , 11-H ) :  -0.1570 B(  2-C , 16-C ) :   1.4340 B(  2-C , 30-O ) :   0.6047
B(  3-N ,  4-N ) :   1.8294 B(  3-N ,  5-C ) :  -0.1040 B(  3-N , 17-C ) :   0.1049
B(  4-N , 16-C ) :   0.1037 B(  5-C ,  6-C ) :   1.2272 B(  5-C ,  7-C ) :   1.1680
B(  5-C ,  8-C ) :  -0.2613 B(  5-C , 10-C ) :  -0.3587 B(  5-C , 12-C ) :   0.1783
B(  5-C , 16-C ) :  -0.1372 B(  5-C , 17-C ) :   0.1247 B(  6-C ,  7-C ) :   0.1769
B(  6-C ,  8-C ) :   1.2702 B(  6-C ,  9-H ) :   1.0788 B(  6-C , 10-C ) :   0.1895
B(  7-C ,  8-C ) :   0.1024 B(  7-C , 10-C ) :   1.2281 B(  7-C , 11-H ) :   1.2415
B(  7-C , 14-H ) :  -0.1741 B(  8-C , 12-C ) :   1.1396 B(  8-C , 13-H ) :   1.0909
B( 10-C , 12-C ) :   1.1788 B( 10-C , 14-H ) :   1.2072 B( 12-C , 15-H ) :   1.1185
B( 16-C , 29-O ) :   0.7597 B( 17-C , 18-C ) :   1.6096 B( 17-C , 29-O ) :  -0.1258
B( 17-C , 31-C ) :   0.5804 B( 17-C , 32-C ) :  -0.5193 B( 17-C , 33-C ) :  -0.2422
B( 18-C , 19-H ) :   1.0311 B( 18-C , 20-C ) :  -0.1123 B( 18-C , 29-O ) :   0.1586
B( 18-C , 31-C ) :  -0.3227 B( 18-C , 33-C ) :  -0.1781 B( 20-C , 21-H ) :   0.8335
B( 20-C , 22-H ) :   0.9883 B( 20-C , 26-C ) :   1.0532 B( 23-C , 24-H ) :   0.9433
B( 23-C , 25-H ) :   0.9919 B( 23-C , 26-C ) :   1.0802 B( 26-C , 27-H ) :   0.9536
B( 26-C , 28-H ) :   0.9556 B( 29-O , 30-O ) :   0.3010 B( 29-O , 31-C ) :  -0.1360
B( 29-O , 32-C ) :  -0.1362 B( 31-C , 32-C ) :   1.0280 B( 31-C , 33-C ) :   1.0882
B( 31-C , 34-C ) :  -0.3251 B( 31-C , 36-C ) :  -0.1960 B( 31-C , 37-H ) :  -0.1176
B( 31-C , 38-C ) :   0.1400 B( 32-C , 34-C ) :   1.2880 B( 32-C , 35-H ) :   1.0333
B( 32-C , 39-H ) :  -0.1551 B( 33-C , 34-C ) :   0.1439 B( 33-C , 36-C ) :   1.2155
B( 33-C , 37-H ) :   1.0156 B( 33-C , 38-C ) :  -0.1274 B( 33-C , 40-H ) :  -0.1047
B( 34-C , 38-C ) :   1.1478 B( 34-C , 39-H ) :   1.2047 B( 36-C , 38-C ) :   1.1099
B( 36-C , 40-H ) :   1.1909 B( 36-C , 41-H ) :  -0.1154 B( 38-C , 41-H ) :   1.0922

MP2 TOTAL ENERGY:    -1069.169210381 Eh
FINAL SINGLE POINT ENERGY     -1069.169210380706

DIPOLE MOMENT
-------------
                                X             Y             Z
Electronic contribution:      0.97678       3.78473      11.86260
Nuclear contribution   :      0.00131      -3.21279     -13.33783
                        -----------------------------------------
Total Dipole Moment    :      0.97809       0.57194      -1.47523
                        -----------------------------------------
Magnitude (a.u.)       :      1.86013
Magnitude (Debye)      :      4.72808

Rotational constants in cm-1:     0.011986     0.006358     0.005569
Rotational constants in MHz :   359.342767   190.607311   166.955487

                             ****ORCA TERMINATED NORMALLY****
TOTAL RUN TIME: 0 days 16 hours 16 minutes 54 seconds 100 msec
