                         Program Version 4.2.1 -  RELEASE  -
|  1> %pal
|  2>  nprocs 32
|  3> end
|  4> !RI-MP2 aug-cc-pVQZ aug-cc-pVQZ/C TightSCF
|  5> %maxcore 4500
|  6> *xyzfile 0 1  10_5R1.xyz
|  7>
|  8>
|  9>                          ****END OF INPUT****

CARTESIAN COORDINATES (ANGSTROEM)
---------------------------------
  C      1.494667    1.203247   -0.221412
  C      1.011019   -0.091996   -0.133707
  O     -0.652604   -1.476238   -0.969416
  C     -1.312229    0.418535    0.091262
  N     -0.395475   -0.387407   -0.352426
  H      0.833670    2.019024   -0.483128
  C      2.845921    1.435050   -0.003674
  C      3.697246    0.379105    0.288147
  H      4.751481    0.563497    0.454054
  C      3.198821   -0.916539    0.350689
  H      3.863280   -1.743890    0.566929
  C      1.852763   -1.159404    0.130480
  H      1.436809   -2.157155    0.145430
  H      3.234211    2.443171   -0.078651
  C     -2.754900    0.133107   -0.144083
  H     -2.833228   -0.246384   -1.168187
  C     -3.586736    1.404639    0.003392
  H     -4.639202    1.197712   -0.198856
  H     -3.258527    2.182811   -0.689473
  H     -3.517934    1.803759    1.019767
  C     -3.244576   -0.980089    0.792745
  H     -3.190983   -0.660977    1.837089
  H     -2.639406   -1.877324    0.664196
  H     -4.283988   -1.230432    0.568677
  H     -0.978999    1.274009    0.661429

 Total Charge           Charge          ....    0
 Multiplicity           Mult            ....    1
 Number of Electrons    NEL             ....   88
 Basis Dimension        Dim             .... 1558

ORBITAL ENERGIES
----------------

  NO   OCC          E(Eh)            E(eV)
   0   2.0000     -20.498190      -557.7841
   1   2.0000     -15.712176      -427.5500
   2   2.0000     -11.286989      -307.1346
   3   2.0000     -11.286492      -307.1211
   4   2.0000     -11.252197      -306.1879
   5   2.0000     -11.247747      -306.0668
   6   2.0000     -11.245623      -306.0090
   7   2.0000     -11.244461      -305.9773
   8   2.0000     -11.242666      -305.9285
   9   2.0000     -11.241246      -305.8899
  10   2.0000     -11.224373      -305.4307
  11   2.0000     -11.213334      -305.1303
  12   2.0000      -1.439074       -39.1592
  13   2.0000      -1.185561       -32.2608
  14   2.0000      -1.149548       -31.2808
  15   2.0000      -1.085565       -29.5397
  16   2.0000      -1.034416       -28.1479
  17   2.0000      -1.024784       -27.8858
  18   2.0000      -0.938010       -25.5245
  19   2.0000      -0.900523       -24.5045
  20   2.0000      -0.847247       -23.0548
  21   2.0000      -0.821251       -22.3474
  22   2.0000      -0.765298       -20.8248
  23   2.0000      -0.750037       -20.4095
  24   2.0000      -0.690249       -18.7826
  25   2.0000      -0.667036       -18.1510
  26   2.0000      -0.642750       -17.4901
  27   2.0000      -0.632709       -17.2169
  28   2.0000      -0.620401       -16.8820
  29   2.0000      -0.605498       -16.4764
  30   2.0000      -0.599086       -16.3020
  31   2.0000      -0.584859       -15.9148
  32   2.0000      -0.557809       -15.1787
  33   2.0000      -0.543103       -14.7786
  34   2.0000      -0.531388       -14.4598
  35   2.0000      -0.516787       -14.0625
  36   2.0000      -0.510566       -13.8932
  37   2.0000      -0.497472       -13.5369
  38   2.0000      -0.488632       -13.2963
  39   2.0000      -0.481062       -13.0904
  40   2.0000      -0.415332       -11.3017
  41   2.0000      -0.363467        -9.8904
  42   2.0000      -0.351563        -9.5665
  43   2.0000      -0.321894        -8.7592
  44   0.0000       0.020029         0.5450
  45   0.0000       0.025140         0.6841
  46   0.0000       0.028847         0.7850
  47   0.0000       0.033304         0.9062
  48   0.0000       0.036735         0.9996

MULLIKEN ATOMIC CHARGES
-----------------------
   0 C :   -0.338792
   1 C :    0.946454
   2 O :   -0.966520
   3 C :   -0.025620
   4 N :   -0.097449
   5 H :    0.274989
   6 C :   -0.352539
   7 C :   -0.388497
   8 H :    0.324860
   9 C :   -0.340067
  10 H :    0.243141
  11 C :   -0.592905
  12 H :    0.316764
  13 H :    0.243593
  14 C :    0.241148
  15 H :    0.311625
  16 C :   -0.914860
  17 H :    0.282103
  18 H :    0.242061
  19 H :    0.187090
  20 C :   -0.975996
  21 H :    0.191368
  22 H :    0.316565
  23 H :    0.298636
  24 H :    0.572847
Sum of atomic charges:   -0.0000000

LOEWDIN ATOMIC CHARGES
----------------------
   0 C :    0.339586
   1 C :   -0.267249
   2 O :    0.541476
   3 C :    0.193157
   4 N :   -0.196087
   5 H :   -0.323126
   6 C :    0.351049
   7 C :    0.342750
   8 H :   -0.319582
   9 C :    0.354454
  10 H :   -0.317195
  11 C :    0.335410
  12 H :   -0.335568
  13 H :   -0.318011
  14 C :    0.069127
  15 H :   -0.305217
  16 C :    0.916898
  17 H :   -0.275238
  18 H :   -0.271888
  19 H :   -0.278226
  20 C :    0.923391
  21 H :   -0.271904
  22 H :   -0.300174
  23 H :   -0.271166
  24 H :   -0.316669

  Mayer bond orders larger than 0.100000
B(  0-C ,  1-C ) :   1.0993 B(  0-C ,  5-H ) :   0.9621 B(  0-C ,  6-C ) :   1.2374
B(  0-C ,  9-C ) :   0.1096 B(  0-C , 13-H ) :  -0.1365 B(  1-C ,  3-C ) :  -0.1234
B(  1-C ,  4-N ) :   0.7033 B(  1-C ,  6-C ) :  -0.3576 B(  1-C ,  9-C ) :  -0.4119
B(  1-C , 11-C ) :   1.0226 B(  2-O ,  3-C ) :  -0.1036 B(  2-O ,  4-N ) :   0.7403
B(  2-O , 14-C ) :   0.1611 B(  3-C ,  4-N ) :   1.7685 B(  3-C , 14-C ) :   0.6469
B(  3-C , 24-H ) :   0.6800 B(  4-N , 14-C ) :  -0.1421 B(  6-C ,  7-C ) :   1.2126
B(  6-C , 11-C ) :   0.1428 B(  6-C , 13-H ) :   1.1330 B(  7-C ,  8-H ) :   1.0064
B(  7-C ,  9-C ) :   1.1555 B(  7-C , 11-C ) :   0.1119 B(  9-C , 10-H ) :   1.1482
B(  9-C , 11-C ) :   1.3826 B( 10-H , 11-C ) :  -0.1433 B( 11-C , 12-H ) :   0.8668
B( 14-C , 15-H ) :   0.8077 B( 14-C , 16-C ) :   0.7397 B( 14-C , 20-C ) :   0.7486
B( 16-C , 17-H ) :   1.0232 B( 16-C , 18-H ) :   1.0202 B( 16-C , 19-H ) :   0.9958
B( 20-C , 21-H ) :   0.9833 B( 20-C , 22-H ) :   0.9501 B( 20-C , 23-H ) :   0.9712

MP2 TOTAL ENERGY:     -517.915075181 Eh
FINAL SINGLE POINT ENERGY      -517.915075180552

DIPOLE MOMENT
-------------
                                X             Y             Z
Electronic contribution:     11.63072      -2.27245      -2.51445
Nuclear contribution   :    -11.37657       3.58678       3.32315
                        -----------------------------------------
Total Dipole Moment    :      0.25415       1.31432       0.80871
                        -----------------------------------------
Magnitude (a.u.)       :      1.56398
Magnitude (Debye)      :      3.97533

Rotational constants in cm-1:     0.078055     0.016163     0.014210
Rotational constants in MHz :  2340.017154   484.566807   426.013237

                             ****ORCA TERMINATED NORMALLY****
TOTAL RUN TIME: 0 days 1 hours 39 minutes 49 seconds 27 msec
