                         Program Version 4.2.1 -  RELEASE  -
|  1> %pal
|  2>  nprocs 32
|  3> end
|  4> !RI-MP2 aug-cc-pVQZ aug-cc-pVQZ/C TightSCF
|  5> %maxcore 4500
|  6> *xyzfile 0 1  10_59P.xyz
|  7>
|  8>
|  9>                          ****END OF INPUT****

CARTESIAN COORDINATES (ANGSTROEM)
---------------------------------
  C      1.427847    0.432251    0.233945
  C     -0.008448    0.806700    0.477619
  C      2.438641    1.303475    0.181273
  C     -0.448696    1.613008   -0.715217
  C      2.271132    2.736751    0.198208
  C      0.082290    2.811641   -0.988046
  C      1.215544    3.406653   -0.316435
  H     -1.232613    1.218673   -1.348321
  H     -0.348778    3.390662   -1.799002
  H      1.282163    4.489641   -0.347312
  H      3.118191    3.317901    0.547033
  C     -1.756041   -1.457759   -1.211017
  C     -0.764702   -0.525424    0.741895
  H     -0.063430    1.452403    1.360992
  C     -2.075085   -0.673990   -0.012756
  C      0.129285   -1.648151    0.159900
  H     -0.893025   -0.649301    1.816018
  C     -0.517634   -1.949334   -1.166390
  C     -3.256226   -0.157137    0.341792
  C     -4.509352   -0.340830   -0.464444
  C     -3.432464    0.678743    1.576142
  H     -2.523674    0.762666    2.169379
  H     -4.219897    0.265526    2.213858
  H     -3.748186    1.691355    1.304371
  H     -4.363817   -0.952771   -1.352140
  H     -4.906207    0.629173   -0.780341
  H     -5.286112   -0.813176    0.144759
  C      1.590464   -1.089726    0.145280
  C      2.295608   -1.563800    1.346571
  N      2.807744   -1.921580    2.307812
  C      2.338367   -1.506757   -1.044698
  N      2.904200   -1.830319   -1.987417
  H      3.455812    0.929313    0.107344
  H      0.113577   -2.549273    0.777622
  H     -2.440628   -1.616389   -2.032639
  H     -0.050180   -2.561001   -1.926134

 Total Charge           Charge          ....    0
 Multiplicity           Mult            ....    1
 Number of Electrons    NEL             ....  138
 Basis Dimension        Dim             .... 2336

ORBITAL ENERGIES
----------------

  NO   OCC          E(Eh)            E(eV)
   0   2.0000     -15.583793      -424.0566
   1   2.0000     -15.583784      -424.0563
   2   2.0000     -11.344546      -308.7008
   3   2.0000     -11.288400      -307.1730
   4   2.0000     -11.288211      -307.1678
   5   2.0000     -11.277879      -306.8867
   6   2.0000     -11.273144      -306.7579
   7   2.0000     -11.260285      -306.4079
   8   2.0000     -11.259020      -306.3735
   9   2.0000     -11.253118      -306.2129
  10   2.0000     -11.252334      -306.1916
  11   2.0000     -11.252083      -306.1847
  12   2.0000     -11.250702      -306.1472
  13   2.0000     -11.249702      -306.1199
  14   2.0000     -11.249370      -306.1109
  15   2.0000     -11.248969      -306.1000
  16   2.0000     -11.244096      -305.9674
  17   2.0000     -11.238802      -305.8233
  18   2.0000     -11.234075      -305.6947
  19   2.0000     -11.233697      -305.6844
  20   2.0000      -1.257290       -34.2126
  21   2.0000      -1.234014       -33.5792
  22   2.0000      -1.209873       -32.9223
  23   2.0000      -1.157124       -31.4869
  24   2.0000      -1.126309       -30.6484
  25   2.0000      -1.088404       -29.6170
  26   2.0000      -1.070477       -29.1292
  27   2.0000      -1.043846       -28.4045
  28   2.0000      -0.999969       -27.2105
  29   2.0000      -0.959746       -26.1160
  30   2.0000      -0.955998       -26.0140
  31   2.0000      -0.908351       -24.7175
  32   2.0000      -0.873930       -23.7808
  33   2.0000      -0.839342       -22.8397
  34   2.0000      -0.800368       -21.7791
  35   2.0000      -0.779418       -21.2090
  36   2.0000      -0.754212       -20.5231
  37   2.0000      -0.746542       -20.3144
  38   2.0000      -0.709369       -19.3029
  39   2.0000      -0.705805       -19.2059
  40   2.0000      -0.677409       -18.4332
  41   2.0000      -0.666207       -18.1284
  42   2.0000      -0.646620       -17.5954
  43   2.0000      -0.614302       -16.7160
  44   2.0000      -0.608291       -16.5524
  45   2.0000      -0.604397       -16.4465
  46   2.0000      -0.602564       -16.3966
  47   2.0000      -0.588201       -16.0058
  48   2.0000      -0.579695       -15.7743
  49   2.0000      -0.576202       -15.6793
  50   2.0000      -0.569641       -15.5007
  51   2.0000      -0.560173       -15.2431
  52   2.0000      -0.552240       -15.0272
  53   2.0000      -0.550617       -14.9830
  54   2.0000      -0.536484       -14.5985
  55   2.0000      -0.526171       -14.3178
  56   2.0000      -0.516851       -14.0642
  57   2.0000      -0.513140       -13.9632
  58   2.0000      -0.502686       -13.6788
  59   2.0000      -0.493850       -13.4383
  60   2.0000      -0.484318       -13.1790
  61   2.0000      -0.477784       -13.0012
  62   2.0000      -0.476476       -12.9656
  63   2.0000      -0.464382       -12.6365
  64   2.0000      -0.451307       -12.2807
  65   2.0000      -0.432360       -11.7651
  66   2.0000      -0.371295       -10.1035
  67   2.0000      -0.328695        -8.9443
  68   2.0000      -0.316062        -8.6005
  69   0.0000       0.015496         0.4217
  70   0.0000       0.021742         0.5916
  71   0.0000       0.024231         0.6594
  72   0.0000       0.028227         0.7681
  73   0.0000       0.033137         0.9017

MULLIKEN ATOMIC CHARGES
-----------------------
   0 C :    0.555234
   1 C :    1.327898
   2 C :   -0.371911
   3 C :   -0.914066
   4 C :   -0.533877
   5 C :   -0.567585
   6 C :   -0.466629
   7 H :    0.424802
   8 H :    0.229615
   9 H :    0.337720
  10 H :    0.305563
  11 C :   -0.853133
  12 C :    0.285363
  13 H :    0.258807
  14 C :    0.256635
  15 C :   -0.010303
  16 H :    0.389345
  17 C :   -0.528950
  18 C :    0.419751
  19 C :   -1.079714
  20 C :   -1.019591
  21 H :    0.274760
  22 H :    0.326672
  23 H :    0.172971
  24 H :    0.279344
  25 H :    0.208989
  26 H :    0.285617
  27 C :   -0.565569
  28 C :    0.852951
  29 N :   -1.080898
  30 C :    0.839381
  31 N :   -1.086324
  32 H :    0.299808
  33 H :    0.295171
  34 H :    0.176866
  35 H :    0.275287
Sum of atomic charges:   -0.0000000

LOEWDIN ATOMIC CHARGES
----------------------
   0 C :   -0.077615
   1 C :    0.122858
   2 C :    0.379703
   3 C :    0.409466
   4 C :    0.381325
   5 C :    0.385248
   6 C :    0.365895
   7 H :   -0.331307
   8 H :   -0.325172
   9 H :   -0.328870
  10 H :   -0.326795
  11 C :    0.407885
  12 C :    0.121166
  13 H :   -0.270207
  14 C :   -0.058168
  15 C :    0.086700
  16 H :   -0.256461
  17 C :    0.437296
  18 C :    0.001798
  19 C :    0.912687
  20 C :    0.919209
  21 H :   -0.317197
  22 H :   -0.269900
  23 H :   -0.268289
  24 H :   -0.324821
  25 H :   -0.272886
  26 H :   -0.275008
  27 C :   -0.422106
  28 C :   -0.298477
  29 N :    0.476411
  30 C :   -0.309876
  31 N :    0.483579
  32 H :   -0.305842
  33 H :   -0.260700
  34 H :   -0.301106
  35 H :   -0.290423

  Mayer bond orders larger than 0.100000
B(  0-C ,  1-C ) :   0.1555 B(  0-C ,  2-C ) :   1.5344 B(  0-C ,  3-C ) :   0.3408
B(  0-C ,  4-C ) :  -0.3695 B(  0-C , 12-C ) :  -0.2331 B(  0-C , 13-H ) :  -0.1077
B(  0-C , 27-C ) :   0.2641 B(  0-C , 28-C ) :  -0.3973 B(  0-C , 30-C ) :  -0.3056
B(  0-C , 31-N ) :  -0.1185 B(  0-C , 32-H ) :  -0.1260 B(  1-C ,  2-C ) :  -0.5139
B(  1-C ,  3-C ) :   0.2877 B(  1-C ,  5-C ) :  -0.6244 B(  1-C , 12-C ) :   0.7531
B(  1-C , 13-H ) :   1.0027 B(  1-C , 15-C ) :   0.2524 B(  1-C , 27-C ) :  -0.1045
B(  2-C ,  4-C ) :   1.0182 B(  2-C , 10-H ) :  -0.1158 B(  2-C , 27-C ) :  -0.2524
B(  2-C , 28-C ) :   0.1004 B(  2-C , 32-H ) :   0.9708 B(  3-C ,  4-C ) :   0.1059
B(  3-C ,  5-C ) :   1.7611 B(  3-C ,  7-H ) :   0.7546 B(  3-C , 12-C ) :   0.1084
B(  3-C , 13-H ) :  -0.1127 B(  3-C , 14-C ) :   0.1262 B(  4-C ,  6-C ) :   1.6280
B(  4-C , 10-H ) :   1.0314 B(  5-C ,  6-C ) :   1.0923 B(  5-C ,  7-H ) :  -0.1100
B(  5-C ,  8-H ) :   1.0343 B(  5-C , 12-C ) :   0.2317 B(  6-C ,  9-H ) :   0.9755
B( 11-C , 12-C ) :  -0.1716 B( 11-C , 14-C ) :   0.9307 B( 11-C , 15-C ) :  -0.1687
B( 11-C , 17-C ) :   1.7186 B( 11-C , 18-C ) :  -0.3724 B( 11-C , 34-H ) :   1.1957
B( 11-C , 35-H ) :  -0.1272 B( 12-C , 14-C ) :   0.6010 B( 12-C , 15-C ) :   0.5131
B( 12-C , 16-H ) :   1.0651 B( 12-C , 18-C ) :  -0.3689 B( 14-C , 15-C ) :   0.1989
B( 14-C , 16-H ) :  -0.1926 B( 14-C , 17-C ) :  -0.4535 B( 14-C , 18-C ) :   1.0153
B( 14-C , 20-C ) :   0.1313 B( 14-C , 24-H ) :   0.1033 B( 15-C , 17-C ) :   0.9677
B( 15-C , 27-C ) :   0.8952 B( 15-C , 28-C ) :  -0.2388 B( 15-C , 30-C ) :  -0.2229
B( 15-C , 31-N ) :  -0.1209 B( 15-C , 33-H ) :   0.9140 B( 17-C , 34-H ) :  -0.1198
B( 17-C , 35-H ) :   1.1143 B( 18-C , 19-C ) :   0.6080 B( 18-C , 20-C ) :   0.5114
B( 18-C , 24-H ) :  -0.1352 B( 18-C , 25-H ) :  -0.1529 B( 18-C , 26-H ) :  -0.1257
B( 19-C , 24-H ) :   1.0355 B( 19-C , 25-H ) :   1.0790 B( 19-C , 26-H ) :   1.0321
B( 20-C , 21-H ) :   1.0317 B( 20-C , 22-H ) :   0.9692 B( 20-C , 23-H ) :   1.0706
B( 27-C , 28-C ) :   1.7858 B( 27-C , 29-N ) :   0.4256 B( 27-C , 30-C ) :   1.6558
B( 27-C , 31-N ) :   0.5591 B( 28-C , 29-N ) :   1.6817 B( 28-C , 30-C ) :  -0.1201
B( 30-C , 31-N ) :   1.5793

MP2 TOTAL ENERGY:     -803.525135827 Eh
FINAL SINGLE POINT ENERGY      -803.525135826913

DIPOLE MOMENT
-------------
                                X             Y             Z
Electronic contribution:     19.80375      -7.71946      -0.89358
Nuclear contribution   :    -21.97442       8.94315       0.85353
                        -----------------------------------------
Total Dipole Moment    :     -2.17067       1.22369      -0.04005
                        -----------------------------------------
Magnitude (a.u.)       :      2.49215
Magnitude (Debye)      :      6.33455

Rotational constants in cm-1:     0.016208     0.010437     0.008172
Rotational constants in MHz :   485.915885   312.883064   244.976514

                             ****ORCA TERMINATED NORMALLY****
TOTAL RUN TIME: 0 days 9 hours 18 minutes 27 seconds 82 msec
