                         Program Version 4.2.1 -  RELEASE  -
|  1> %pal
|  2>  nprocs 32
|  3> end
|  4> !RI-MP2 aug-cc-pVQZ aug-cc-pVQZ/C TightSCF
|  5> %maxcore 4500
|  6> *xyzfile 0 1  06_11TS.xyz
|  7>
|  8>
|  9>                          ****END OF INPUT****

CARTESIAN COORDINATES (ANGSTROEM)
---------------------------------
  C     -1.707965    1.004765   -0.597139
  C     -0.474269   -0.848354    0.778063
  C     -2.823491    1.043222    0.473101
  H     -2.627934    1.905613    1.120309
  H     -3.794528    1.231379    0.000182
  H      0.433158   -1.168462    1.298744
  H     -1.679116    2.000081   -1.055235
  H     -0.125825    1.408220    1.147304
  C     -1.596682   -0.793210    1.839018
  H     -1.774097   -1.797451    2.241610
  H     -1.232128   -0.185799    2.673962
  B     -0.381883    0.659239    0.223244
  C      1.057145    1.882515   -0.290856
  C      1.179758    0.699896   -0.916300
  H      0.751028    0.548693   -1.897593
  C      1.195420    3.125213    0.060183
  H      1.945050    3.722229   -0.447400
  H      0.592334    3.583596    0.829523
  C      2.227134   -0.281668   -0.532439
  O      2.547537   -1.211041   -1.224565
  O      2.775807   -0.006791    0.653603
  C      3.764154   -0.935167    1.110624
  H      4.597957   -0.977905    0.410561
  H      4.091007   -0.560616    2.076573
  H      3.328970   -1.929312    1.211008
  C     -0.752332   -1.851457   -0.357223
  H      0.156228   -1.961773   -0.954693
  H     -0.945877   -2.842348    0.070458
  C     -1.964719   -0.013633   -1.721388
  H     -1.222865    0.147896   -2.513141
  H     -2.933771    0.185211   -2.193940
  C     -2.936519   -0.214772    1.351705
  H     -3.488214   -0.984594    0.812803
  H     -3.552756    0.022274    2.224554
  C     -1.915383   -1.488688   -1.294775
  H     -1.847483   -2.112353   -2.191350
  H     -2.861986   -1.760090   -0.828205

 Total Charge           Charge          ....    0
 Multiplicity           Mult            ....    1
 Number of Electrons    NEL             ....  120
 Basis Dimension        Dim             .... 2246

ORBITAL ENERGIES
----------------

  NO   OCC          E(Eh)            E(eV)
   0   2.0000     -20.609008      -560.7996
   1   2.0000     -20.548959      -559.1656
   2   2.0000     -11.392752      -310.0125
   3   2.0000     -11.332608      -308.3759
   4   2.0000     -11.290245      -307.2232
   5   2.0000     -11.277807      -306.8847
   6   2.0000     -11.274974      -306.8076
   7   2.0000     -11.201034      -304.7956
   8   2.0000     -11.200536      -304.7821
   9   2.0000     -11.199346      -304.7497
  10   2.0000     -11.197919      -304.7109
  11   2.0000     -11.196196      -304.6640
  12   2.0000     -11.193338      -304.5862
  13   2.0000     -11.184439      -304.3441
  14   2.0000     -11.179561      -304.2113
  15   2.0000      -7.553926      -205.5528
  16   2.0000      -1.474772       -40.1306
  17   2.0000      -1.370935       -37.3050
  18   2.0000      -1.149318       -31.2745
  19   2.0000      -1.095094       -29.7990
  20   2.0000      -1.037199       -28.2236
  21   2.0000      -1.023510       -27.8511
  22   2.0000      -1.010506       -27.4973
  23   2.0000      -0.972360       -26.4593
  24   2.0000      -0.913944       -24.8697
  25   2.0000      -0.897626       -24.4256
  26   2.0000      -0.829153       -22.5624
  27   2.0000      -0.779786       -21.2191
  28   2.0000      -0.768319       -20.9070
  29   2.0000      -0.764215       -20.7954
  30   2.0000      -0.739699       -20.1282
  31   2.0000      -0.710429       -19.3318
  32   2.0000      -0.695117       -18.9151
  33   2.0000      -0.690181       -18.7808
  34   2.0000      -0.674047       -18.3418
  35   2.0000      -0.656342       -17.8600
  36   2.0000      -0.644172       -17.5288
  37   2.0000      -0.624427       -16.9915
  38   2.0000      -0.598344       -16.2818
  39   2.0000      -0.581276       -15.8173
  40   2.0000      -0.575983       -15.6733
  41   2.0000      -0.566251       -15.4085
  42   2.0000      -0.559887       -15.2353
  43   2.0000      -0.553705       -15.0671
  44   2.0000      -0.542251       -14.7554
  45   2.0000      -0.538218       -14.6456
  46   2.0000      -0.523009       -14.2318
  47   2.0000      -0.487354       -13.2616
  48   2.0000      -0.484984       -13.1971
  49   2.0000      -0.478933       -13.0324
  50   2.0000      -0.469230       -12.7684
  51   2.0000      -0.456800       -12.4302
  52   2.0000      -0.453526       -12.3411
  53   2.0000      -0.452035       -12.3005
  54   2.0000      -0.440564       -11.9884
  55   2.0000      -0.428230       -11.6527
  56   2.0000      -0.409880       -11.1534
  57   2.0000      -0.386641       -10.5210
  58   2.0000      -0.384347       -10.4586
  59   2.0000      -0.364149        -9.9090
  60   0.0000       0.016192         0.4406
  61   0.0000       0.024950         0.6789
  62   0.0000       0.026883         0.7315
  63   0.0000       0.028883         0.7859
  64   0.0000       0.037728         1.0266

MULLIKEN ATOMIC CHARGES
-----------------------
   0 C :    0.088989
   1 C :   -0.036275
   2 C :   -0.761124
   3 H :    0.099463
   4 H :    0.095187
   5 H :    0.464082
   6 H :    0.338744
   7 H :   -0.458817
   8 C :   -0.725509
   9 H :    0.100708
  10 H :    0.120161
  11 B :    1.967015
  12 C :   -0.080114
  13 C :   -0.007860
  14 H :    0.586743
  15 C :   -0.974572
  16 H :    0.240517
  17 H :    0.276455
  18 C :    1.623847
  19 O :   -1.104155
  20 O :   -0.880212
  21 C :   -1.008774
  22 H :    0.348539
  23 H :    0.387971
  24 H :    0.386502
  25 C :   -0.535680
  26 H :    0.122291
  27 H :    0.053218
  28 C :   -0.574485
  29 H :    0.111414
  30 H :    0.087061
  31 C :   -0.504302
  32 H :    0.125877
  33 H :    0.203766
  34 C :   -0.522177
  35 H :    0.169775
  36 H :    0.175730
Sum of atomic charges:    0.0000000

LOEWDIN ATOMIC CHARGES
----------------------
   0 C :    0.295686
   1 C :    0.295681
   2 C :    0.569797
   3 H :   -0.258579
   4 H :   -0.247969
   5 H :   -0.281193
   6 H :   -0.263683
   7 H :   -0.166115
   8 C :    0.573859
   9 H :   -0.248595
  10 H :   -0.259250
  11 B :   -0.726910
  12 C :    0.187607
  13 C :    0.277675
  14 H :   -0.314300
  15 C :    0.889804
  16 H :   -0.323537
  17 H :   -0.318422
  18 C :   -1.085451
  19 O :    0.767414
  20 O :    0.875117
  21 C :    0.599163
  22 H :   -0.309588
  23 H :   -0.314882
  24 H :   -0.307348
  25 C :    0.567622
  26 H :   -0.316042
  27 H :   -0.247563
  28 C :    0.568899
  29 H :   -0.275331
  30 H :   -0.248859
  31 C :    0.581496
  32 H :   -0.307122
  33 H :   -0.252903
  34 C :    0.582363
  35 H :   -0.251698
  36 H :   -0.306844

  Mayer bond orders larger than 0.100000
B(  0-C ,  1-C ) :   0.2167 B(  0-C ,  2-C ) :   0.6234 B(  0-C ,  3-H ) :  -0.1245
B(  0-C ,  6-H ) :   0.8942 B(  0-C , 11-B ) :   0.9109 B(  0-C , 28-C ) :   0.4565
B(  0-C , 29-H ) :  -0.1726 B(  0-C , 30-H ) :  -0.1426 B(  1-C ,  5-H ) :   0.7371
B(  1-C ,  8-C ) :   0.4558 B(  1-C ,  9-H ) :  -0.1574 B(  1-C , 10-H ) :  -0.1589
B(  1-C , 11-B ) :   0.7760 B(  1-C , 19-O ) :   0.1871 B(  1-C , 20-O ) :  -0.1171
B(  1-C , 25-C ) :   0.4438 B(  1-C , 26-H ) :  -0.1477 B(  1-C , 27-H ) :  -0.1269
B(  1-C , 34-C ) :  -0.1198 B(  2-C ,  3-H ) :   1.2439 B(  2-C ,  4-H ) :   1.1912
B(  2-C , 11-B ) :  -0.2172 B(  2-C , 31-C ) :   0.8361 B(  5-H ,  8-C ) :  -0.1876
B(  6-H , 28-C ) :  -0.1116 B(  7-H , 11-B ) :   0.4306 B(  8-C ,  9-H ) :   1.2063
B(  8-C , 10-H ) :   1.2322 B(  8-C , 11-B ) :  -0.1138 B(  8-C , 31-C ) :   0.8539
B( 11-B , 15-C ) :  -0.1229 B( 11-B , 18-C ) :  -0.1673 B( 11-B , 20-O ) :  -0.1026
B( 11-B , 28-C ) :  -0.1058 B( 11-B , 31-C ) :  -0.1830 B( 11-B , 32-H ) :  -0.1125
B( 12-C , 13-C ) :   0.9273 B( 12-C , 15-C ) :   1.5639 B( 12-C , 16-H ) :  -0.2463
B( 12-C , 17-H ) :  -0.1909 B( 12-C , 18-C ) :  -0.1527 B( 13-C , 14-H ) :   0.6178
B( 13-C , 15-C ) :  -0.5079 B( 13-C , 18-C ) :   1.4925 B( 13-C , 19-O ) :   0.1939
B( 13-C , 20-O ) :   0.1146 B( 14-H , 18-C ) :   0.1035 B( 15-C , 16-H ) :   1.1612
B( 15-C , 17-H ) :   1.1302 B( 18-C , 19-O ) :   0.5684 B( 18-C , 20-O ) :   0.8765
B( 18-C , 21-C ) :  -0.1586 B( 19-O , 20-O ) :   0.1400 B( 20-O , 21-C ) :   0.9700
B( 21-C , 22-H ) :   0.9236 B( 21-C , 23-H ) :   0.9123 B( 21-C , 24-H ) :   0.8429
B( 25-C , 26-H ) :   1.2201 B( 25-C , 27-H ) :   1.2049 B( 25-C , 34-C ) :   0.7709
B( 28-C , 29-H ) :   1.2683 B( 28-C , 30-H ) :   1.1871 B( 28-C , 34-C ) :   0.8206
B( 31-C , 32-H ) :   1.1333 B( 31-C , 33-H ) :   1.0253 B( 34-C , 35-H ) :   1.0757
B( 34-C , 36-H ) :   1.1473

MP2 TOTAL ENERGY:     -682.067304952 Eh
FINAL SINGLE POINT ENERGY      -682.067304952093

DIPOLE MOMENT
-------------
                                X             Y             Z
Electronic contribution:     12.91978       3.39046      -3.47831
Nuclear contribution   :    -12.08061      -2.12544       3.93890
                        -----------------------------------------
Total Dipole Moment    :      0.83917       1.26503       0.46059
                        -----------------------------------------
Magnitude (a.u.)       :      1.58639
Magnitude (Debye)      :      4.03229

Rotational constants in cm-1:     0.026755     0.013514     0.012170
Rotational constants in MHz :   802.101448   405.152984   364.841762

                             ****ORCA TERMINATED NORMALLY****
TOTAL RUN TIME: 0 days 6 hours 27 minutes 38 seconds 669 msec
