                         Program Version 4.2.1 -  RELEASE  -
|  1> %pal
|  2>  nprocs 32
|  3> end
|  4> !RI-MP2 aug-cc-pVQZ aug-cc-pVQZ/C TightSCF
|  5> %maxcore 4500
|  6> *xyzfile 0 1  02_23TS.xyz
|  7>
|  8>
|  9>                          ****END OF INPUT****

CARTESIAN COORDINATES (ANGSTROEM)
---------------------------------
  O     -4.233978    0.356902    0.103768
  C     -3.109672    1.208239    0.196074
  C     -2.088650    0.793656   -0.827948
  C     -0.729318    1.084308   -0.805768
  C     -0.051404    1.710792    0.375301
  O      1.366134    1.621669    0.169956
  H     -0.317886    1.229437    1.318936
  H     -0.286750    2.774423    0.457459
  H     -2.685310    1.200617    1.208939
  H     -3.490442    2.211773   -0.007222
  C     -3.842601   -1.009676    0.253644
  C      1.998231    0.598917    0.800378
  C      2.777375   -0.246324   -0.192201
  O      1.889952    0.392444    1.975021
  C     -2.453603   -1.223866   -0.283738
  H     -4.597685   -1.597668   -0.268950
  H     -3.865475   -1.275447    1.317602
  C     -1.431528   -1.581393    0.582906
  C     -0.084337   -1.475285    0.254071
  H     -2.357409   -1.476003   -1.333010
  H     -1.678661   -1.737356    1.629080
  C      0.339749   -0.922318   -0.941831
  H      0.624648   -1.614467    1.058752
  C      1.782956   -0.659136   -1.313486
  H     -0.299507   -1.050562   -1.806839
  H      1.786335    0.122069   -2.076571
  H      2.187256   -1.554134   -1.801110
  C      3.397512   -1.455529    0.506244
  H      4.026929   -1.139265    1.338593
  H      4.015860   -2.009018   -0.203878
  H      2.645920   -2.137209    0.901774
  C      3.891347    0.611157   -0.811435
  H      4.391652    0.046655   -1.601804
  H      4.639599    0.877723   -0.062106
  H      3.488185    1.527814   -1.241947
  H     -2.525528    0.712826   -1.819645
  H     -0.254936    1.318411   -1.751268

 Total Charge           Charge          ....    0
 Multiplicity           Mult            ....    1
 Number of Electrons    NEL             ....  128
 Basis Dimension        Dim             .... 2280

ORBITAL ENERGIES
----------------

  NO   OCC          E(Eh)            E(eV)
   0   2.0000     -20.582101      -560.0675
   1   2.0000     -20.553376      -559.2858
   2   2.0000     -20.544129      -559.0342
   3   2.0000     -11.372607      -309.4644
   4   2.0000     -11.293975      -307.3247
   5   2.0000     -11.280863      -306.9679
   6   2.0000     -11.277860      -306.8862
   7   2.0000     -11.256979      -306.3180
   8   2.0000     -11.255394      -306.2749
   9   2.0000     -11.245070      -305.9939
  10   2.0000     -11.244813      -305.9869
  11   2.0000     -11.242911      -305.9352
  12   2.0000     -11.242319      -305.9191
  13   2.0000     -11.227024      -305.5028
  14   2.0000     -11.226615      -305.4917
  15   2.0000     -11.223385      -305.4038
  16   2.0000     -11.217465      -305.2427
  17   2.0000      -1.455356       -39.6022
  18   2.0000      -1.377725       -37.4898
  19   2.0000      -1.361781       -37.0560
  20   2.0000      -1.134718       -30.8772
  21   2.0000      -1.113431       -30.2980
  22   2.0000      -1.075344       -29.2616
  23   2.0000      -1.034457       -28.1490
  24   2.0000      -0.992970       -27.0201
  25   2.0000      -0.968516       -26.3547
  26   2.0000      -0.942743       -25.6533
  27   2.0000      -0.911400       -24.8005
  28   2.0000      -0.874881       -23.8067
  29   2.0000      -0.844826       -22.9889
  30   2.0000      -0.813514       -22.1368
  31   2.0000      -0.777358       -21.1530
  32   2.0000      -0.756985       -20.5986
  33   2.0000      -0.719706       -19.5842
  34   2.0000      -0.691751       -18.8235
  35   2.0000      -0.684899       -18.6371
  36   2.0000      -0.675276       -18.3752
  37   2.0000      -0.668996       -18.2043
  38   2.0000      -0.659787       -17.9537
  39   2.0000      -0.647764       -17.6266
  40   2.0000      -0.631314       -17.1789
  41   2.0000      -0.621251       -16.9051
  42   2.0000      -0.603406       -16.4195
  43   2.0000      -0.592571       -16.1247
  44   2.0000      -0.589988       -16.0544
  45   2.0000      -0.574901       -15.6438
  46   2.0000      -0.559586       -15.2271
  47   2.0000      -0.553330       -15.0569
  48   2.0000      -0.547806       -14.9066
  49   2.0000      -0.541438       -14.7333
  50   2.0000      -0.536072       -14.5873
  51   2.0000      -0.524687       -14.2775
  52   2.0000      -0.518651       -14.1132
  53   2.0000      -0.511965       -13.9313
  54   2.0000      -0.496309       -13.5052
  55   2.0000      -0.484515       -13.1843
  56   2.0000      -0.476476       -12.9656
  57   2.0000      -0.466295       -12.6885
  58   2.0000      -0.461126       -12.5479
  59   2.0000      -0.453117       -12.3299
  60   2.0000      -0.433246       -11.7892
  61   2.0000      -0.425821       -11.5872
  62   2.0000      -0.319410        -8.6916
  63   2.0000      -0.300707        -8.1827
  64   0.0000       0.019659         0.5349
  65   0.0000       0.026070         0.7094
  66   0.0000       0.027492         0.7481
  67   0.0000       0.028812         0.7840
  68   0.0000       0.036123         0.9829

MULLIKEN ATOMIC CHARGES
-----------------------
   0 O :   -1.209908
   1 C :   -0.245914
   2 C :    0.116996
   3 C :    0.106103
   4 C :   -0.225071
   5 O :   -1.321652
   6 H :    0.134424
   7 H :    0.415357
   8 H :    0.115758
   9 H :    0.416680
  10 C :   -0.117396
  11 C :    1.918851
  12 C :    1.228923
  13 O :   -1.166354
  14 C :   -0.268183
  15 H :    0.406499
  16 H :    0.197049
  17 C :   -0.516271
  18 C :   -0.178086
  19 H :    0.256370
  20 H :    0.039990
  21 C :    0.160736
  22 H :    0.203743
  23 C :   -0.741105
  24 H :    0.257167
  25 H :    0.176005
  26 H :    0.306625
  27 C :   -1.215527
  28 H :    0.228397
  29 H :    0.160829
  30 H :    0.256978
  31 C :   -1.114068
  32 H :    0.205170
  33 H :    0.229935
  34 H :    0.277297
  35 H :    0.158708
  36 H :    0.344944
Sum of atomic charges:    0.0000000

LOEWDIN ATOMIC CHARGES
----------------------
   0 O :    0.907480
   1 C :    0.154133
   2 C :    0.271406
   3 C :    0.309885
   4 C :    0.192145
   5 O :    0.897272
   6 H :   -0.338976
   7 H :   -0.275741
   8 H :   -0.297372
   9 H :   -0.297407
  10 C :    0.192535
  11 C :   -1.093776
  12 C :   -0.330952
  13 O :    0.787631
  14 C :    0.251078
  15 H :   -0.299127
  16 H :   -0.316021
  17 C :    0.379428
  18 C :    0.366557
  19 H :   -0.312376
  20 H :   -0.310115
  21 C :    0.332076
  22 H :   -0.381505
  23 C :    0.517065
  24 H :   -0.328260
  25 H :   -0.299057
  26 H :   -0.257233
  27 C :    0.899640
  28 H :   -0.270367
  29 H :   -0.265774
  30 H :   -0.292476
  31 C :    0.918041
  32 H :   -0.261870
  33 H :   -0.258810
  34 H :   -0.282782
  35 H :   -0.293525
  36 H :   -0.312848

  Mayer bond orders larger than 0.100000
B(  0-O ,  1-C ) :   0.6808 B(  0-O ,  2-C ) :  -0.2818 B(  0-O , 10-C ) :   0.5703
B(  0-O , 14-C ) :   0.2215 B(  1-C ,  2-C ) :   0.6172 B(  1-C ,  8-H ) :   1.1648
B(  1-C ,  9-H ) :   0.8803 B(  2-C ,  3-C ) :   1.2041 B(  2-C ,  8-H ) :  -0.1549
B(  2-C , 14-C ) :   0.2358 B(  2-C , 35-H ) :   1.1334 B(  2-C , 36-H ) :  -0.1062
B(  3-C ,  4-C ) :   0.7408 B(  3-C ,  7-H ) :  -0.1025 B(  3-C , 17-C ) :   0.1224
B(  3-C , 21-C ) :   0.2491 B(  3-C , 36-H ) :   0.8967 B(  4-C ,  5-O ) :   0.6258
B(  4-C ,  6-H ) :   1.1277 B(  4-C ,  7-H ) :   0.8311 B(  4-C , 13-O ) :   0.1027
B(  5-O , 11-C ) :   0.5578 B(  5-O , 12-C ) :  -0.2879 B(  5-O , 13-O ) :   0.1291
B(  5-O , 23-C ) :   0.2492 B( 10-C , 14-C ) :   0.7862 B( 10-C , 15-H ) :   0.8572
B( 10-C , 16-H ) :   1.0773 B( 11-C , 12-C ) :   0.8531 B( 11-C , 13-O ) :   0.6455
B( 12-C , 13-O ) :   0.1776 B( 12-C , 23-C ) :   0.6671 B( 12-C , 27-C ) :  -0.1411
B( 12-C , 28-H ) :  -0.2093 B( 12-C , 29-H ) :  -0.2884 B( 12-C , 30-H ) :  -0.2255
B( 12-C , 31-C ) :   0.1063 B( 12-C , 32-H ) :  -0.1701 B( 12-C , 33-H ) :  -0.1957
B( 12-C , 34-H ) :  -0.1436 B( 14-C , 16-H ) :  -0.1484 B( 14-C , 17-C ) :   1.4242
B( 14-C , 18-C ) :  -0.4301 B( 14-C , 19-H ) :   0.9936 B( 17-C , 18-C ) :   0.7679
B( 17-C , 20-H ) :   1.3009 B( 17-C , 21-C ) :  -0.5159 B( 17-C , 22-H ) :  -0.2201
B( 18-C , 20-H ) :  -0.1925 B( 18-C , 21-C ) :   1.2602 B( 18-C , 22-H ) :   1.1120
B( 18-C , 23-C ) :  -0.2708 B( 21-C , 23-C ) :   0.3610 B( 21-C , 24-H ) :   1.0757
B( 21-C , 25-H ) :  -0.1533 B( 21-C , 26-H ) :  -0.1737 B( 23-C , 24-H ) :  -0.1848
B( 23-C , 25-H ) :   1.2082 B( 23-C , 26-H ) :   1.0291 B( 27-C , 28-H ) :   1.1422
B( 27-C , 29-H ) :   1.2176 B( 27-C , 30-H ) :   1.1267 B( 27-C , 31-C ) :   0.1268
B( 31-C , 32-H ) :   1.1191 B( 31-C , 33-H ) :   1.0981 B( 31-C , 34-H ) :   1.0505

MP2 TOTAL ENERGY:     -769.853633744 Eh
FINAL SINGLE POINT ENERGY      -769.853633743664

DIPOLE MOMENT
-------------
                                X             Y             Z
Electronic contribution:     -5.18252       3.40493       3.68243
Nuclear contribution   :      5.52521      -3.59302      -4.78910
                        -----------------------------------------
Total Dipole Moment    :      0.34269      -0.18809      -1.10667
                        -----------------------------------------
Magnitude (a.u.)       :      1.17368
Magnitude (Debye)      :      2.98326

Rotational constants in cm-1:     0.035308     0.010097     0.009360
Rotational constants in MHz :  1058.496562   302.706455   280.615256

                             ****ORCA TERMINATED NORMALLY****
TOTAL RUN TIME: 0 days 7 hours 17 minutes 0 seconds 292 msec
