                         Program Version 4.2.1 -  RELEASE  -
|  1> %pal
|  2>  nprocs 32
|  3> end
|  4> !RI-MP2 aug-cc-pVQZ aug-cc-pVQZ/C TightSCF
|  5> %maxcore 4500
|  6> *xyzfile 0 2  01_13P.xyz
|  7>
|  8>
|  9>                          ****END OF INPUT****

CARTESIAN COORDINATES (ANGSTROEM)
---------------------------------
  C     -1.751028   -0.897076   -0.459836
  N     -0.584272   -0.676683    0.381914
  H     -1.668730   -1.869713   -0.947607
  H     -1.893823   -0.133820   -1.242160
  H     -2.646791   -0.912978    0.162830
  C     -0.617542    0.624996    1.052060
  C     -0.060834    1.659681    0.045578
  H      0.029174    0.576714    1.931234
  H     -1.627486    0.850396    1.395804
  C      0.769789    0.814823   -0.944287
  H      0.538782    2.418383    0.549564
  H     -0.868070    2.180448   -0.471848
  C      0.665906   -0.635268   -0.389353
  H      1.806997    1.143769   -1.011853
  H      0.348462    0.867069   -1.949448
  C      1.823738   -1.003744    0.468603
  H      2.834385   -0.771409    0.156444
  H      1.667826   -1.636514    1.332266
  H      0.589007   -1.356039   -1.215210

 Total Charge           Charge          ....    0
 Multiplicity           Mult            ....    2
 Number of Electrons    NEL             ....   55
 Basis Dimension        Dim             .... 1112

ORBITAL ENERGIES
----------------
                 SPIN UP ORBITALS
  NO   OCC          E(Eh)            E(eV)
   0   1.0000     -15.536674      -422.7744
   1   1.0000     -11.248208      -306.0793
   2   1.0000     -11.237718      -305.7939
   3   1.0000     -11.237615      -305.7911
   4   1.0000     -11.221888      -305.3631
   5   1.0000     -11.215643      -305.1932
   6   1.0000     -11.213897      -305.1456
   7   1.0000      -1.238960       -33.7138
   8   1.0000      -1.046357       -28.4728
   9   1.0000      -1.012489       -27.5512
  10   1.0000      -0.936663       -25.4879
  11   1.0000      -0.885404       -24.0931
  12   1.0000      -0.788852       -21.4657
  13   1.0000      -0.755808       -20.5666
  14   1.0000      -0.665160       -18.0999
  15   1.0000      -0.650782       -17.7087
  16   1.0000      -0.619761       -16.8646
  17   1.0000      -0.597876       -16.2690
  18   1.0000      -0.557320       -15.1654
  19   1.0000      -0.548907       -14.9365
  20   1.0000      -0.544804       -14.8249
  21   1.0000      -0.501678       -13.6514
  22   1.0000      -0.489676       -13.3248
  23   1.0000      -0.476462       -12.9652
  24   1.0000      -0.473919       -12.8960
  25   1.0000      -0.459599       -12.5063
  26   1.0000      -0.355359        -9.6698
  27   1.0000      -0.347894        -9.4667
  28   0.0000       0.026398         0.7183
  29   0.0000       0.031906         0.8682
  30   0.0000       0.032522         0.8850
  31   0.0000       0.035263         0.9596
  32   0.0000       0.047171         1.2836

                 SPIN DOWN ORBITALS
  NO   OCC          E(Eh)            E(eV)
   0   1.0000     -15.536275      -422.7635
   1   1.0000     -11.251410      -306.1664
   2   1.0000     -11.237689      -305.7931
   3   1.0000     -11.237612      -305.7910
   4   1.0000     -11.214618      -305.1653
   5   1.0000     -11.213897      -305.1457
   6   1.0000     -11.198481      -304.7262
   7   1.0000      -1.237029       -33.6613
   8   1.0000      -1.039885       -28.2967
   9   1.0000      -0.992884       -27.0177
  10   1.0000      -0.929313       -25.2879
  11   1.0000      -0.845031       -22.9945
  12   1.0000      -0.787174       -21.4201
  13   1.0000      -0.740072       -20.1384
  14   1.0000      -0.657933       -17.9033
  15   1.0000      -0.649030       -17.6610
  16   1.0000      -0.613986       -16.7074
  17   1.0000      -0.592840       -16.1320
  18   1.0000      -0.556488       -15.1428
  19   1.0000      -0.543056       -14.7773
  20   1.0000      -0.539753       -14.6874
  21   1.0000      -0.487762       -13.2727
  22   1.0000      -0.484861       -13.1937
  23   1.0000      -0.475120       -12.9287
  24   1.0000      -0.468999       -12.7621
  25   1.0000      -0.455986       -12.4080
  26   1.0000      -0.353767        -9.6265
  27   0.0000       0.026551         0.7225
  28   0.0000       0.031854         0.8668
  29   0.0000       0.032712         0.8901
  30   0.0000       0.035259         0.9594
  31   0.0000       0.047113         1.2820

MULLIKEN ATOMIC CHARGES AND SPIN POPULATIONS
--------------------------------------------
   0 C :   -0.911931   -0.003705
   1 N :   -0.381713    0.019545
   2 H :    0.313105   -0.001429
   3 H :    0.254526    0.000073
   4 H :    0.304559    0.000279
   5 C :   -0.479751   -0.002644
   6 C :   -0.509130   -0.000333
   7 H :    0.328180   -0.000105
   8 H :    0.280298    0.000739
   9 C :   -0.584829    0.034247
  10 H :    0.300717    0.000516
  11 H :    0.261030   -0.000884
  12 C :    0.290121   -0.235344
  13 H :    0.330069   -0.002059
  14 H :    0.249619    0.001637
  15 C :   -1.099305    1.257552
  16 H :    0.325900   -0.087927
  17 H :    0.314657   -0.076619
  18 H :    0.413878    0.096461
Sum of atomic charges         :   -0.0000000

LOEWDIN ATOMIC CHARGES AND SPIN POPULATIONS
-------------------------------------------
   0 C :    0.747453    0.002193
   1 N :    0.493901    0.008611
   2 H :   -0.287977    0.001252
   3 H :   -0.271888    0.000220
   4 H :   -0.289011    0.000021
   5 C :    0.352450    0.011830
   6 C :    0.552975    0.005728
   7 H :   -0.280928    0.009806
   8 H :   -0.275532    0.000903
   9 C :    0.529926    0.018548
  10 H :   -0.262634    0.000671
  11 H :   -0.268674   -0.000037
  12 C :   -0.112588    0.139762
  13 H :   -0.277261    0.005548
  14 H :   -0.267100    0.003353
  15 C :    0.865411    0.457741
  16 H :   -0.324984    0.150704
  17 H :   -0.324334    0.150611
  18 H :   -0.299205    0.032533

  Mayer bond orders larger than 0.100000
B(  0-C ,  1-N ) :   0.8155 B(  0-C ,  2-H ) :   0.9572 B(  0-C ,  3-H ) :   0.9607
B(  0-C ,  4-H ) :   0.9614 B(  1-N ,  5-C ) :   0.8779 B(  1-N , 12-C ) :   0.7166
B(  5-C ,  6-C ) :   1.0679 B(  5-C ,  7-H ) :   0.8993 B(  5-C ,  8-H ) :   0.9057
B(  6-C ,  9-C ) :   1.0131 B(  6-C , 10-H ) :   0.8832 B(  6-C , 11-H ) :   0.9178
B(  9-C , 12-C ) :   0.9893 B(  9-C , 13-H ) :   0.8730 B(  9-C , 14-H ) :   0.9495
B( 12-C , 15-C ) :   0.4640 B( 12-C , 16-H ) :  -0.1030 B( 12-C , 18-H ) :   0.7694
B( 15-C , 16-H ) :   1.0196 B( 15-C , 17-H ) :   1.0168

MP2 TOTAL ENERGY:     -289.993768153 Eh
FINAL SINGLE POINT ENERGY      -289.993768152892

DIPOLE MOMENT
-------------
                                X             Y             Z
Electronic contribution:      0.89729      -1.12997       1.07218
Nuclear contribution   :     -0.94035       1.42293      -1.37602
                        -----------------------------------------
Total Dipole Moment    :     -0.04306       0.29296      -0.30383
                        -----------------------------------------
Magnitude (a.u.)       :      0.42426
Magnitude (Debye)      :      1.07838

Rotational constants in cm-1:     0.110870     0.093425     0.072458
Rotational constants in MHz :  3323.805215  2800.817154  2172.235310

                             ****ORCA TERMINATED NORMALLY****
TOTAL RUN TIME: 0 days 0 hours 52 minutes 26 seconds 586 msec
