                         Program Version 4.2.1 -  RELEASE  -
|  1> %pal
|  2>  nprocs 32
|  3> end
|  4> !RI-MP2 aug-cc-pVQZ aug-cc-pVQZ/C TightSCF
|  5> %maxcore 4500
|  6> *xyzfile 0 1  04_38R1.xyz
|  7>
|  8>
|  9>                          ****END OF INPUT****

CARTESIAN COORDINATES (ANGSTROEM)
---------------------------------
  C      0.909978    1.167119    0.509896
  C      1.570914    0.098771   -0.356077
  O      0.508287   -0.819938   -0.662567
  C     -0.705230   -0.102676   -0.808790
  C     -0.510034    1.183405   -0.007622
  C      2.699877   -0.668099    0.285052
  H      1.913221    0.550251   -1.297126
  H      2.365630   -1.124174    1.219390
  H      3.536869   -0.001753    0.503245
  H      3.051014   -1.457117   -0.381205
  C     -1.848326   -0.956007   -0.291767
  H     -0.883008    0.168643   -1.859150
  O     -1.593818   -1.394624    1.025087
  H     -2.003952   -1.803961   -0.967916
  H     -2.757470   -0.354701   -0.266824
  H     -0.752098   -1.862435    1.006595
  O     -1.341814    2.032948    0.142906
  H      1.368849    2.153376    0.457853
  H      0.876623    0.849703    1.557581

 Total Charge           Charge          ....    0
 Multiplicity           Mult            ....    1
 Number of Electrons    NEL             ....   70
 Basis Dimension        Dim             .... 1180

ORBITAL ENERGIES
----------------

  NO   OCC          E(Eh)            E(eV)
   0   2.0000     -20.576309      -559.9098
   1   2.0000     -20.559855      -559.4621
   2   2.0000     -20.556505      -559.3709
   3   2.0000     -11.337162      -308.4999
   4   2.0000     -11.303373      -307.5804
   5   2.0000     -11.296145      -307.3837
   6   2.0000     -11.284336      -307.0624
   7   2.0000     -11.245617      -306.0088
   8   2.0000     -11.232829      -305.6608
   9   2.0000      -1.418913       -38.6106
  10   2.0000      -1.396084       -37.9894
  11   2.0000      -1.364741       -37.1365
  12   2.0000      -1.084477       -29.5101
  13   2.0000      -1.046707       -28.4823
  14   2.0000      -0.981070       -26.6963
  15   2.0000      -0.878353       -23.9012
  16   2.0000      -0.826542       -22.4914
  17   2.0000      -0.767715       -20.8906
  18   2.0000      -0.710674       -19.3384
  19   2.0000      -0.695714       -18.9313
  20   2.0000      -0.674368       -18.3505
  21   2.0000      -0.662948       -18.0397
  22   2.0000      -0.630195       -17.1485
  23   2.0000      -0.604621       -16.4526
  24   2.0000      -0.596070       -16.2199
  25   2.0000      -0.590716       -16.0742
  26   2.0000      -0.565470       -15.3872
  27   2.0000      -0.554058       -15.0767
  28   2.0000      -0.538462       -14.6523
  29   2.0000      -0.515577       -14.0296
  30   2.0000      -0.510022       -13.8784
  31   2.0000      -0.492766       -13.4088
  32   2.0000      -0.467922       -12.7328
  33   2.0000      -0.442191       -12.0326
  34   2.0000      -0.404282       -11.0011
  35   0.0000       0.021072         0.5734
  36   0.0000       0.027339         0.7439
  37   0.0000       0.030113         0.8194
  38   0.0000       0.035266         0.9596
  39   0.0000       0.044550         1.2123

MULLIKEN ATOMIC CHARGES
-----------------------
   0 C :   -0.772292
   1 C :    0.416735
   2 O :   -0.920093
   3 C :    0.264386
   4 C :    0.949577
   5 C :   -0.890023
   6 H :    0.272385
   7 H :    0.233228
   8 H :    0.235983
   9 H :    0.245720
  10 C :   -0.094505
  11 H :    0.418933
  12 O :   -0.903784
  13 H :    0.222807
  14 H :    0.311715
  15 H :    0.374470
  16 O :   -0.938954
  17 H :    0.338412
  18 H :    0.235302
Sum of atomic charges:   -0.0000000

LOEWDIN ATOMIC CHARGES
----------------------
   0 C :    0.505033
   1 C :   -0.236420
   2 O :    0.908128
   3 C :   -0.274317
   4 C :   -0.658333
   5 C :    0.921466
   6 H :   -0.276804
   7 H :   -0.285645
   8 H :   -0.274706
   9 H :   -0.278211
  10 C :    0.164228
  11 H :   -0.282380
  12 O :    1.286621
  13 H :   -0.285865
  14 H :   -0.314539
  15 H :   -0.827953
  16 O :    0.746927
  17 H :   -0.263078
  18 H :   -0.274151

  Mayer bond orders larger than 0.100000
B(  0-C ,  1-C ) :   0.9223 B(  0-C ,  4-C ) :   1.1712 B(  0-C , 16-O ) :   0.2633
B(  0-C , 17-H ) :   0.8535 B(  0-C , 18-H ) :   0.8630 B(  1-C ,  2-O ) :   0.6803
B(  1-C ,  4-C ) :  -0.1705 B(  1-C ,  5-C ) :   0.6548 B(  1-C ,  6-H ) :   0.9531
B(  1-C ,  8-H ) :  -0.1072 B(  1-C ,  9-H ) :  -0.1104 B(  2-O ,  3-C ) :   0.6255
B(  3-C ,  4-C ) :   1.0015 B(  3-C , 10-C ) :   0.8109 B(  3-C , 11-H ) :   0.7363
B(  3-C , 16-O ) :   0.1436 B(  4-C , 16-O ) :   0.8473 B(  5-C ,  7-H ) :   0.9405
B(  5-C ,  8-H ) :   1.0468 B(  5-C ,  9-H ) :   1.0317 B( 10-C , 12-O ) :   0.5625
B( 10-C , 13-H ) :   1.0145 B( 10-C , 14-H ) :   0.9382 B( 12-O , 15-H ) :   0.8394

MP2 TOTAL ENERGY:     -459.643737139 Eh
FINAL SINGLE POINT ENERGY      -459.643737139095

DIPOLE MOMENT
-------------
                                X             Y             Z
Electronic contribution:     -5.37969       2.53387      -0.54400
Nuclear contribution   :      6.74525      -2.91434      -0.01979
                        -----------------------------------------
Total Dipole Moment    :      1.36556      -0.38046      -0.56379
                        -----------------------------------------
Magnitude (a.u.)       :      1.52557
Magnitude (Debye)      :      3.87769

Rotational constants in cm-1:     0.075281     0.048429     0.035754
Rotational constants in MHz :  2256.853306  1451.861108  1071.877106

                             ****ORCA TERMINATED NORMALLY****
TOTAL RUN TIME: 0 days 0 hours 42 minutes 8 seconds 830 msec
