                         Program Version 4.2.1 -  RELEASE  -
|  1> %pal
|  2>  nprocs 32
|  3> end
|  4> !RI-MP2 aug-cc-pVQZ aug-cc-pVQZ/C TightSCF
|  5> %maxcore 4500
|  6> *xyzfile 0 1  03_35R1.xyz
|  7>
|  8>
|  9>                          ****END OF INPUT****

CARTESIAN COORDINATES (ANGSTROEM)
---------------------------------
  C      1.540973    0.000279    0.155954
  C      0.674752   -1.247681   -0.012071
  C      0.739592    1.242859   -0.229513
  C      2.150325    0.104490    1.546039
  H      2.744819   -0.781035    1.772599
  H      1.371396    0.196313    2.305276
  H      2.795688    0.980398    1.615538
  C     -0.648276   -1.117418    0.745788
  H      1.219785   -2.128863    0.333627
  H      0.458814   -1.386100   -1.073566
  C     -0.580774    1.317628    0.536571
  H      0.521183    1.207521   -1.298661
  H      1.333047    2.140444   -0.043330
  N     -1.347001    0.094070    0.354796
  H     -0.470202   -1.095844    1.827254
  H     -1.266211   -1.987676    0.546236
  C     -2.592129    0.151912   -0.207528
  H     -1.187051    2.143179    0.173534
  H     -0.404852    1.475249    1.606436
  O     -3.097378    1.209916   -0.539141
  C     -3.332724   -1.153614   -0.404903
  H     -2.794726   -1.823495   -1.078669
  H     -4.297910   -0.913615   -0.842453
  H     -3.489623   -1.675997    0.540673
  Cl     2.939026   -0.145825   -1.019821

 Total Charge           Charge          ....    0
 Multiplicity           Mult            ....    1
 Number of Electrons    NEL             ....   94
 Basis Dimension        Dim             .... 1528

ORBITAL ENERGIES
----------------

  NO   OCC          E(Eh)            E(eV)
   0   2.0000    -104.815194     -2852.1664
   1   2.0000     -20.512172      -558.1646
   2   2.0000     -15.586189      -424.1218
   3   2.0000     -11.349582      -308.8378
   4   2.0000     -11.310878      -307.7846
   5   2.0000     -11.281809      -306.9936
   6   2.0000     -11.264065      -306.5108
   7   2.0000     -11.244998      -305.9919
   8   2.0000     -11.237712      -305.7937
   9   2.0000     -11.237686      -305.7930
  10   2.0000     -11.235278      -305.7275
  11   2.0000     -10.541318      -286.8438
  12   2.0000      -8.008229      -217.9150
  13   2.0000      -8.006734      -217.8743
  14   2.0000      -8.006730      -217.8742
  15   2.0000      -1.383059       -37.6349
  16   2.0000      -1.261818       -34.3358
  17   2.0000      -1.163110       -31.6498
  18   2.0000      -1.052220       -28.6324
  19   2.0000      -1.048601       -28.5339
  20   2.0000      -1.007727       -27.4217
  21   2.0000      -0.974611       -26.5205
  22   2.0000      -0.896193       -24.3866
  23   2.0000      -0.880129       -23.9495
  24   2.0000      -0.784903       -21.3583
  25   2.0000      -0.730147       -19.8683
  26   2.0000      -0.692676       -18.8487
  27   2.0000      -0.663912       -18.0660
  28   2.0000      -0.649829       -17.6827
  29   2.0000      -0.638963       -17.3871
  30   2.0000      -0.631918       -17.1954
  31   2.0000      -0.622235       -16.9319
  32   2.0000      -0.594312       -16.1720
  33   2.0000      -0.583647       -15.8819
  34   2.0000      -0.572068       -15.5668
  35   2.0000      -0.559610       -15.2278
  36   2.0000      -0.547007       -14.8848
  37   2.0000      -0.541915       -14.7462
  38   2.0000      -0.518764       -14.1163
  39   2.0000      -0.515845       -14.0369
  40   2.0000      -0.493821       -13.4376
  41   2.0000      -0.486560       -13.2400
  42   2.0000      -0.481423       -13.1002
  43   2.0000      -0.432740       -11.7755
  44   2.0000      -0.431213       -11.7339
  45   2.0000      -0.419792       -11.4231
  46   2.0000      -0.374832       -10.1997
  47   0.0000       0.018760         0.5105
  48   0.0000       0.025591         0.6964
  49   0.0000       0.030534         0.8309
  50   0.0000       0.031832         0.8662
  51   0.0000       0.039227         1.0674

MULLIKEN ATOMIC CHARGES
-----------------------
   0 C :    0.931297
   1 C :   -0.481712
   2 C :   -0.560644
   3 C :   -1.006198
   4 H :    0.231340
   5 H :    0.235357
   6 H :    0.242590
   7 C :   -0.491817
   8 H :    0.311591
   9 H :    0.276826
  10 C :   -0.565087
  11 H :    0.271696
  12 H :    0.310610
  13 N :   -0.378933
  14 H :    0.319525
  15 H :    0.279591
  16 C :    1.088680
  17 H :    0.306775
  18 H :    0.304085
  19 O :   -0.931729
  20 C :   -0.714108
  21 H :    0.227855
  22 H :    0.224148
  23 H :    0.238655
  24 Cl:   -0.670393
Sum of atomic charges:    0.0000000

LOEWDIN ATOMIC CHARGES
----------------------
   0 C :   -0.877446
   1 C :    0.429589
   2 C :    0.430870
   3 C :    0.813912
   4 H :   -0.291004
   5 H :   -0.296778
   6 H :   -0.290597
   7 C :    0.387762
   8 H :   -0.275396
   9 H :   -0.295273
  10 C :    0.378635
  11 H :   -0.292730
  12 H :   -0.275755
  13 N :    0.465513
  14 H :   -0.259939
  15 H :   -0.331172
  16 C :   -0.799539
  17 H :   -0.344187
  18 H :   -0.262030
  19 O :    0.736057
  20 C :    0.895854
  21 H :   -0.283469
  22 H :   -0.318355
  23 H :   -0.283723
  24 Cl:    1.239202

  Mayer bond orders larger than 0.100000
B(  0-C ,  1-C ) :   0.6445 B(  0-C ,  2-C ) :   0.6642 B(  0-C ,  3-C ) :   0.5525
B(  0-C ,  4-H ) :  -0.1183 B(  0-C ,  6-H ) :  -0.1202 B(  0-C , 24-Cl) :   0.2627
B(  1-C ,  7-C ) :   0.9118 B(  1-C ,  8-H ) :   0.9307 B(  1-C ,  9-H ) :   0.9325
B(  2-C , 10-C ) :   0.9852 B(  2-C , 11-H ) :   0.9337 B(  2-C , 12-H ) :   0.9363
B(  3-C ,  4-H ) :   1.0723 B(  3-C ,  5-H ) :   0.9850 B(  3-C ,  6-H ) :   1.0621
B(  7-C , 13-N ) :   0.8060 B(  7-C , 14-H ) :   0.8668 B(  7-C , 15-H ) :   0.9215
B( 10-C , 13-N ) :   0.8353 B( 10-C , 17-H ) :   0.9068 B( 10-C , 18-H ) :   0.8854
B( 13-N , 16-C ) :   1.2239 B( 13-N , 19-O ) :   0.4159 B( 16-C , 19-O ) :   0.9451
B( 16-C , 20-C ) :   0.8054 B( 20-C , 21-H ) :   0.9733 B( 20-C , 22-H ) :   1.0185
B( 20-C , 23-H ) :   0.9830

MP2 TOTAL ENERGY:     -902.280286084 Eh
FINAL SINGLE POINT ENERGY      -902.280286084176

DIPOLE MOMENT
-------------
                                X             Y             Z
Electronic contribution:      7.93368       2.31024      -6.81621
Nuclear contribution   :     -7.76602      -3.43841       7.87634
                        -----------------------------------------
Total Dipole Moment    :      0.16766      -1.12817       1.06013
                        -----------------------------------------
Magnitude (a.u.)       :      1.55716
Magnitude (Debye)      :      3.95800

Rotational constants in cm-1:     0.066369     0.017279     0.016610
Rotational constants in MHz :  1989.693914   518.019142   497.960496

                             ****ORCA TERMINATED NORMALLY****
TOTAL RUN TIME: 0 days 1 hours 57 minutes 10 seconds 652 msec
