                         Program Version 4.2.1 -  RELEASE  -
|  1> %pal
|  2>  nprocs 32
|  3> end
|  4> !RI-MP2 aug-cc-pVQZ aug-cc-pVQZ/C TightSCF
|  5> %maxcore 4500
|  6> *xyzfile 0 1  06_10R2.xyz
|  7>
|  8>
|  9>                          ****END OF INPUT****

CARTESIAN COORDINATES (ANGSTROEM)
---------------------------------
  C     -0.004175    1.297467    0.706683
  C     -0.004185   -1.297467    0.706683
  C     -1.287618    1.287234   -0.174055
  H     -2.150528    1.445120    0.483636
  H     -1.266469    2.148245   -0.851023
  H     -0.031724   -2.215011    1.300830
  H     -0.031707    2.215011    1.300831
  H     -0.444351    0.000001    2.721408
  C     -1.287635   -1.287220   -0.174047
  H     -2.150544   -1.445087    0.483650
  H     -1.266504   -2.148236   -0.851009
  B     -0.136935    0.000000    1.565978
  C      1.316343   -1.287602   -0.093432
  H      2.135029   -1.450854    0.617181
  H      1.341783   -2.143176   -0.777862
  C      1.316359    1.287588   -0.093423
  H      2.135044    1.450821    0.617196
  H      1.341816    2.143167   -0.777846
  C     -1.515361    0.000006   -0.980270
  H     -0.879740   -0.000001   -1.864476
  H     -2.541732    0.000012   -1.359190
  C      1.601385   -0.000006   -0.878454
  H      2.651891   -0.000011   -1.184187
  H      1.031732    0.000001   -1.807138

 Total Charge           Charge          ....    0
 Multiplicity           Mult            ....    1
 Number of Electrons    NEL             ....   68
 Basis Dimension        Dim             .... 1410

ORBITAL ENERGIES
----------------

  NO   OCC          E(Eh)            E(eV)
   0   2.0000     -11.219626      -305.3015
   1   2.0000     -11.219611      -305.3011
   2   2.0000     -11.214658      -305.1664
   3   2.0000     -11.214629      -305.1656
   4   2.0000     -11.213075      -305.1233
   5   2.0000     -11.210217      -305.0455
   6   2.0000     -11.191565      -304.5380
   7   2.0000     -11.191557      -304.5377
   8   2.0000      -7.572624      -206.0616
   9   2.0000      -1.113363       -30.2961
  10   2.0000      -1.040853       -28.3231
  11   2.0000      -1.023987       -27.8641
  12   2.0000      -0.931181       -25.3387
  13   2.0000      -0.912518       -24.8309
  14   2.0000      -0.791168       -21.5288
  15   2.0000      -0.779515       -21.2117
  16   2.0000      -0.750839       -20.4314
  17   2.0000      -0.672240       -18.2926
  18   2.0000      -0.644222       -17.5302
  19   2.0000      -0.595195       -16.1961
  20   2.0000      -0.583237       -15.8707
  21   2.0000      -0.576543       -15.6885
  22   2.0000      -0.570860       -15.5339
  23   2.0000      -0.559322       -15.2199
  24   2.0000      -0.540189       -14.6993
  25   2.0000      -0.502479       -13.6732
  26   2.0000      -0.481393       -13.0994
  27   2.0000      -0.476998       -12.9798
  28   2.0000      -0.473281       -12.8786
  29   2.0000      -0.470913       -12.8142
  30   2.0000      -0.455570       -12.3967
  31   2.0000      -0.420560       -11.4440
  32   2.0000      -0.394987       -10.7482
  33   2.0000      -0.387690       -10.5496
  34   0.0000       0.020449         0.5565
  35   0.0000       0.028631         0.7791
  36   0.0000       0.029930         0.8144
  37   0.0000       0.030527         0.8307
  38   0.0000       0.042666         1.1610

MULLIKEN ATOMIC CHARGES
-----------------------
   0 C :   -0.048619
   1 C :   -0.049061
   2 C :   -0.588053
   3 H :    0.130211
   4 H :    0.238654
   5 H :    0.296398
   6 H :    0.296823
   7 H :   -0.761022
   8 C :   -0.587999
   9 H :    0.130384
  10 H :    0.238610
  11 B :    0.966730
  12 C :   -0.636090
  13 H :    0.106517
  14 H :    0.208152
  15 C :   -0.636430
  16 H :    0.106514
  17 H :    0.208211
  18 C :   -0.327183
  19 H :    0.218890
  20 H :    0.286587
  21 C :   -0.291104
  22 H :    0.273812
  23 H :    0.219068
Sum of atomic charges:   -0.0000000

LOEWDIN ATOMIC CHARGES
----------------------
   0 C :    0.291439
   1 C :    0.291439
   2 C :    0.558639
   3 H :   -0.251982
   4 H :   -0.248209
   5 H :   -0.279347
   6 H :   -0.279346
   7 H :   -0.087252
   8 C :    0.558640
   9 H :   -0.251981
  10 H :   -0.248209
  11 B :   -0.159476
  12 C :    0.557215
  13 H :   -0.255839
  14 H :   -0.252262
  15 C :    0.557214
  16 H :   -0.255838
  17 H :   -0.252262
  18 C :    0.568108
  19 H :   -0.307001
  20 H :   -0.252516
  21 C :    0.561181
  22 H :   -0.254835
  23 H :   -0.307520

  Mayer bond orders larger than 0.100000
B(  0-C ,  2-C ) :   0.7721 B(  0-C ,  6-H ) :   0.8924 B(  0-C ,  7-H ) :   0.1158
B(  0-C , 11-B ) :   1.0170 B(  0-C , 15-C ) :   0.6771 B(  0-C , 16-H ) :  -0.1020
B(  1-C ,  5-H ) :   0.8926 B(  1-C ,  7-H ) :   0.1163 B(  1-C ,  8-C ) :   0.7723
B(  1-C , 11-B ) :   1.0167 B(  1-C , 12-C ) :   0.6771 B(  1-C , 13-H ) :  -0.1021
B(  2-C ,  3-H ) :   1.0916 B(  2-C ,  4-H ) :   0.9503 B(  2-C , 18-C ) :   0.8398
B(  7-H , 11-B ) :   0.2029 B(  8-C ,  9-H ) :   1.0914 B(  8-C , 10-H ) :   0.9502
B(  8-C , 18-C ) :   0.8398 B( 12-C , 13-H ) :   1.1341 B( 12-C , 14-H ) :   1.0071
B( 12-C , 21-C ) :   0.8504 B( 15-C , 16-H ) :   1.1341 B( 15-C , 17-H ) :   1.0071
B( 15-C , 21-C ) :   0.8507 B( 18-C , 19-H ) :   1.0000 B( 18-C , 20-H ) :   0.9238
B( 21-C , 22-H ) :   0.9362 B( 21-C , 23-H ) :   0.9919

MP2 TOTAL ENERGY:     -338.049715203 Eh
FINAL SINGLE POINT ENERGY      -338.049715203227

DIPOLE MOMENT
-------------
                                X             Y             Z
Electronic contribution:      0.02631      -0.00000       3.17208
Nuclear contribution   :     -0.01639       0.00000      -3.35958
                        -----------------------------------------
Total Dipole Moment    :      0.00992      -0.00000      -0.18750
                        -----------------------------------------
Magnitude (a.u.)       :      0.18776
Magnitude (Debye)      :      0.47724

Rotational constants in cm-1:     0.069656     0.063349     0.049868
Rotational constants in MHz :  2088.232802  1899.151347  1494.990520

                             ****ORCA TERMINATED NORMALLY****
TOTAL RUN TIME: 0 days 1 hours 29 minutes 9 seconds 557 msec
