                         Program Version 4.2.1 -  RELEASE  -
|  1> %pal
|  2>  nprocs 32
|  3> end
|  4> !RI-MP2 aug-cc-pVQZ aug-cc-pVQZ/C TightSCF
|  5> %maxcore 4500
|  6> *xyzfile 0 1  02_1TS.xyz
|  7>
|  8>
|  9>                          ****END OF INPUT****

CARTESIAN COORDINATES (ANGSTROEM)
---------------------------------
  C     -0.331769   -2.252634    0.690984
  O     -1.609255   -2.498417    0.933591
  C      0.331857   -1.320442    1.460668
  C      1.623130   -0.878531    1.200003
  C      2.223553    0.189975    2.066855
  C      2.317574   -1.323651    0.054167
  C      3.765228   -0.977290   -0.158952
  C      1.268285   -0.502188   -1.473152
  C     -0.028075   -1.041790   -1.534651
  C     -1.183740   -0.315984   -1.111885
  O     -2.338440   -0.767411   -1.253803
  C     -0.976688    0.996167   -0.467431
  C      0.288669    1.602919   -0.457193
  C      1.434186    0.935583   -1.131991
  O      2.469323    1.527477   -1.369589
  C      0.483480    2.833313    0.147404
  C     -0.588543    3.461065    0.771719
  C     -1.845365    2.886162    0.768442
  C     -2.059155    1.659980    0.136279
  C     -2.233457   -3.500768    0.128774
  O     -3.294348    1.151530    0.128275
  H     -0.250529   -0.832872    2.234198
  H      2.564528    1.041850    1.475114
  H      1.505411    0.551555    2.801474
  H      3.097909   -0.195707    2.599610
  H      4.126089   -1.383454   -1.104459
  H      3.931510    0.099711   -0.181113
  H      4.378035   -1.401508    0.642485
  H     -0.214483   -1.938852   -2.112419
  H      1.466095    3.284296    0.116513
  H     -0.443174    4.418594    1.257538
  H     -2.691499    3.372209    1.237466
  H      1.996129   -0.847030   -2.199370
  H      2.060012   -2.316935   -0.293867
  H      0.179834   -2.957720    0.048723
  H     -3.249786    0.315794   -0.403852
  H     -3.213965   -3.671016    0.564973
  H     -2.344186   -3.130089   -0.889617
  H     -1.651191   -4.425590    0.158564

 Total Charge           Charge          ....    0
 Multiplicity           Mult            ....    1
 Number of Electrons    NEL             ....  152
 Basis Dimension        Dim             .... 2508

ORBITAL ENERGIES
----------------

  NO   OCC          E(Eh)            E(eV)
   0   2.0000     -20.612905      -560.9057
   1   2.0000     -20.558683      -559.4302
   2   2.0000     -20.544459      -559.0431
   3   2.0000     -20.518331      -558.3322
   4   2.0000     -11.347213      -308.7734
   5   2.0000     -11.337958      -308.5215
   6   2.0000     -11.324672      -308.1600
   7   2.0000     -11.307108      -307.6821
   8   2.0000     -11.292322      -307.2797
   9   2.0000     -11.276181      -306.8405
  10   2.0000     -11.273386      -306.7644
  11   2.0000     -11.265777      -306.5574
  12   2.0000     -11.252588      -306.1985
  13   2.0000     -11.248060      -306.0753
  14   2.0000     -11.241206      -305.8888
  15   2.0000     -11.237786      -305.7957
  16   2.0000     -11.236529      -305.7615
  17   2.0000     -11.232965      -305.6645
  18   2.0000     -11.232506      -305.6520
  19   2.0000     -11.228121      -305.5327
  20   2.0000     -11.227116      -305.5054
  21   2.0000      -1.447819       -39.3972
  22   2.0000      -1.399731       -38.0886
  23   2.0000      -1.392082       -37.8805
  24   2.0000      -1.356100       -36.9013
  25   2.0000      -1.170963       -31.8635
  26   2.0000      -1.151602       -31.3367
  27   2.0000      -1.098245       -29.8848
  28   2.0000      -1.057104       -28.7653
  29   2.0000      -1.032892       -28.1064
  30   2.0000      -1.019255       -27.7353
  31   2.0000      -1.002896       -27.2902
  32   2.0000      -0.959006       -26.0959
  33   2.0000      -0.938921       -25.5493
  34   2.0000      -0.893432       -24.3115
  35   2.0000      -0.867125       -23.5957
  36   2.0000      -0.859205       -23.3802
  37   2.0000      -0.844658       -22.9843
  38   2.0000      -0.788440       -21.4545
  39   2.0000      -0.752195       -20.4683
  40   2.0000      -0.722766       -19.6675
  41   2.0000      -0.722122       -19.6499
  42   2.0000      -0.713140       -19.4055
  43   2.0000      -0.704171       -19.1615
  44   2.0000      -0.694931       -18.9100
  45   2.0000      -0.679278       -18.4841
  46   2.0000      -0.664760       -18.0890
  47   2.0000      -0.641058       -17.4441
  48   2.0000      -0.637560       -17.3489
  49   2.0000      -0.623594       -16.9688
  50   2.0000      -0.617853       -16.8126
  51   2.0000      -0.617170       -16.7940
  52   2.0000      -0.603058       -16.4100
  53   2.0000      -0.592379       -16.1194
  54   2.0000      -0.585182       -15.9236
  55   2.0000      -0.577017       -15.7014
  56   2.0000      -0.566839       -15.4245
  57   2.0000      -0.562278       -15.3004
  58   2.0000      -0.554375       -15.0853
  59   2.0000      -0.553785       -15.0693
  60   2.0000      -0.546732       -14.8773
  61   2.0000      -0.537002       -14.6126
  62   2.0000      -0.534642       -14.5484
  63   2.0000      -0.531309       -14.4576
  64   2.0000      -0.527475       -14.3533
  65   2.0000      -0.516946       -14.0668
  66   2.0000      -0.512689       -13.9510
  67   2.0000      -0.502044       -13.6613
  68   2.0000      -0.477055       -12.9813
  69   2.0000      -0.462538       -12.5863
  70   2.0000      -0.431912       -11.7529
  71   2.0000      -0.407519       -11.0892
  72   2.0000      -0.358232        -9.7480
  73   2.0000      -0.349740        -9.5169
  74   2.0000      -0.317177        -8.6308
  75   2.0000      -0.284689        -7.7468
  76   0.0000       0.015368         0.4182
  77   0.0000       0.022746         0.6190
  78   0.0000       0.026233         0.7138
  79   0.0000       0.029401         0.8000
  80   0.0000       0.035500         0.9660

MULLIKEN ATOMIC CHARGES
-----------------------
   0 C :    1.079559
   1 O :   -1.017510
   2 C :   -0.583781
   3 C :    0.777753
   4 C :   -1.152612
   5 C :    0.364365
   6 C :   -1.115924
   7 C :   -0.653936
   8 C :   -0.699045
   9 C :    1.544869
  10 O :   -1.070478
  11 C :   -0.127501
  12 C :    0.545497
  13 C :    1.717816
  14 O :   -1.136362
  15 C :   -0.950175
  16 C :   -0.359278
  17 C :   -0.859201
  18 C :    1.376342
  19 C :   -0.895938
  20 O :   -1.090053
  21 H :    0.058742
  22 H :    0.204381
  23 H :    0.216744
  24 H :    0.275859
  25 H :    0.197171
  26 H :    0.165731
  27 H :    0.201662
  28 H :    0.128465
  29 H :    0.199970
  30 H :    0.193604
  31 H :    0.282353
  32 H :    0.266016
  33 H :    0.366099
  34 H :    0.080045
  35 H :    0.338883
  36 H :    0.420557
  37 H :    0.346929
  38 H :    0.362381
Sum of atomic charges:    0.0000000

LOEWDIN ATOMIC CHARGES
----------------------
   0 C :   -0.060753
   1 O :    0.915337
   2 C :    0.360428
   3 C :   -0.041893
   4 C :    0.927250
   5 C :    0.244109
   6 C :    0.919618
   7 C :    0.209819
   8 C :    0.285055
   9 C :   -0.630971
  10 O :    0.885979
  11 C :   -0.109041
  12 C :   -0.140439
  13 C :   -0.684658
  14 O :    0.798885
  15 C :    0.331925
  16 C :    0.363456
  17 C :    0.355074
  18 C :   -0.427992
  19 C :    0.628898
  20 O :    1.290620
  21 H :   -0.319063
  22 H :   -0.303927
  23 H :   -0.283729
  24 H :   -0.258926
  25 H :   -0.267636
  26 H :   -0.346903
  27 H :   -0.262692
  28 H :   -0.314520
  29 H :   -0.331296
  30 H :   -0.311423
  31 H :   -0.320491
  32 H :   -0.315482
  33 H :   -0.337041
  34 H :   -0.348382
  35 H :   -1.145681
  36 H :   -0.302664
  37 H :   -0.356369
  38 H :   -0.294483

  Mayer bond orders larger than 0.100000
B(  0-C ,  2-C ) :   1.2230 B(  0-C ,  3-C ) :  -0.3264 B(  0-C ,  5-C ) :  -0.1536
B(  0-C , 19-C ) :  -0.3221 B(  0-C , 34-H ) :   1.2487 B(  1-O ,  9-C ) :   0.1182
B(  1-O , 19-C ) :   0.9722 B(  2-C ,  3-C ) :   0.6778 B(  2-C ,  5-C ) :  -0.5252
B(  2-C , 21-H ) :   1.2854 B(  2-C , 34-H ) :  -0.1409 B(  3-C ,  4-C ) :   0.1871
B(  3-C ,  5-C ) :   0.8628 B(  3-C ,  7-C ) :   0.1731 B(  3-C , 21-H ) :  -0.1411
B(  3-C , 22-H ) :  -0.1324 B(  3-C , 23-H ) :  -0.1892 B(  3-C , 24-H ) :  -0.2348
B(  3-C , 33-H ) :  -0.1444 B(  4-C , 22-H ) :   1.0816 B(  4-C , 23-H ) :   1.1477
B(  4-C , 24-H ) :   1.1389 B(  5-C ,  6-C ) :   0.2355 B(  5-C ,  7-C ) :   0.3303
B(  5-C ,  8-C ) :   0.1410 B(  5-C , 12-C ) :   0.1065 B(  5-C , 25-H ) :  -0.1923
B(  5-C , 26-H ) :  -0.2292 B(  5-C , 27-H ) :  -0.1793 B(  5-C , 33-H ) :   0.8898
B(  6-C , 25-H ) :   1.1475 B(  6-C , 26-H ) :   1.1540 B(  6-C , 27-H ) :   1.1471
B(  7-C ,  8-C ) :   1.1470 B(  7-C , 12-C ) :  -0.1403 B(  7-C , 13-C ) :   1.4746
B(  7-C , 14-O ) :   0.5943 B(  7-C , 15-C ) :   0.1082 B(  7-C , 32-H ) :   0.9836
B(  8-C ,  9-C ) :   1.4405 B(  8-C , 10-O ) :   0.3550 B(  8-C , 11-C ) :  -0.3738
B(  8-C , 13-C ) :   0.2055 B(  8-C , 28-H ) :   1.1608 B(  8-C , 32-H ) :  -0.2237
B(  9-C , 10-O ) :  -0.3689 B(  9-C , 11-C ) :   0.6116 B(  9-C , 12-C ) :  -0.2484
B(  9-C , 17-C ) :   0.1040 B(  9-C , 18-C ) :  -0.1583 B(  9-C , 35-H ) :  -0.1346
B( 10-O , 11-C ) :   0.4995 B( 10-O , 35-H ) :   0.2267 B( 11-C , 12-C ) :   0.2471
B( 11-C , 13-C ) :  -0.6307 B( 11-C , 14-O ) :   0.1218 B( 11-C , 15-C ) :  -0.4435
B( 11-C , 16-C ) :   0.1569 B( 11-C , 17-C ) :  -0.1586 B( 11-C , 18-C ) :   1.5339
B( 11-C , 20-O ) :   0.6612 B( 11-C , 28-H ) :  -0.1130 B( 11-C , 35-H ) :   0.2416
B( 12-C , 13-C ) :   0.6071 B( 12-C , 14-O ) :   0.1641 B( 12-C , 15-C ) :   1.4374
B( 12-C , 16-C ) :  -0.4833 B( 12-C , 18-C ) :  -0.6798 B( 13-C , 14-O ) :  -0.3694
B( 13-C , 15-C ) :  -0.3355 B( 13-C , 16-C ) :   0.1291 B( 13-C , 18-C ) :   0.1166
B( 13-C , 32-H ) :   0.1119 B( 15-C , 16-C ) :   1.3283 B( 15-C , 17-C ) :   0.2802
B( 15-C , 18-C ) :   0.1122 B( 15-C , 29-H ) :   1.0344 B( 15-C , 30-H ) :  -0.2251
B( 16-C , 17-C ) :   1.3234 B( 16-C , 18-C ) :  -0.2801 B( 16-C , 30-H ) :   1.2688
B( 17-C , 18-C ) :   1.0213 B( 17-C , 20-O ) :   0.3639 B( 17-C , 30-H ) :  -0.1963
B( 17-C , 31-H ) :   0.9680 B( 18-C , 20-O ) :  -0.7237 B( 18-C , 35-H ) :  -0.1074
B( 19-C , 36-H ) :   0.8837 B( 19-C , 37-H ) :   0.8370 B( 19-C , 38-H ) :   0.8655
B( 20-O , 35-H ) :   0.7275

MP2 TOTAL ENERGY:     -957.971897077 Eh
FINAL SINGLE POINT ENERGY      -957.971897077106

DIPOLE MOMENT
-------------
                                X             Y             Z
Electronic contribution:    -10.08316       8.42796      -5.01485
Nuclear contribution   :     11.13795      -9.99590       5.90954
                        -----------------------------------------
Total Dipole Moment    :      1.05479      -1.56794       0.89469
                        -----------------------------------------
Magnitude (a.u.)       :      2.09082
Magnitude (Debye)      :      5.31443

Rotational constants in cm-1:     0.012923     0.012130     0.008137
Rotational constants in MHz :   387.424925   363.645211   243.945130

                             ****ORCA TERMINATED NORMALLY****
TOTAL RUN TIME: 0 days 11 hours 33 minutes 2 seconds 852 msec
