                         Program Version 4.2.1 -  RELEASE  -
|  1> %pal
|  2>  nprocs 32
|  3> end
|  4> !RI-MP2 aug-cc-pVQZ aug-cc-pVQZ/C TightSCF
|  5> %maxcore 4500
|  6> *xyzfile 0 2  04_82TS.xyz
|  7>
|  8>
|  9>                          ****END OF INPUT****

CARTESIAN COORDINATES (ANGSTROEM)
---------------------------------
  O      0.850131   -0.634097   -0.420136
  C     -0.478685   -0.068110   -0.443397
  C     -0.309339    1.449449   -0.211514
  C      1.180628    1.667558   -0.489799
  C      1.770821    0.351308    0.023983
  C     -1.307610   -0.779784    0.585686
  H     -0.872335   -0.249742   -1.447640
  H     -1.028860   -0.561802    1.612810
  H     -1.434657   -1.841707    0.386217
  O     -0.525969    1.842075    1.125088
  O      1.705330    2.810678    0.106857
  N      3.076250    0.027078   -0.469673
  H      1.850998    0.368465    1.114342
  C      4.163449   -0.319509    0.299793
  C      3.493483   -0.069756   -1.780551
  H      1.353645    1.738512   -1.566337
  H     -0.946268    2.029257   -0.881679
  H     -1.464053    2.083135    1.213540
  H      1.203751    2.948130    0.922994
  O     -3.184419    2.224361    0.638940
  C     -3.944092    1.409484    0.161066
  O     -4.796352    1.771599   -0.787639
  C     -3.892281   -0.023259    0.592065
  C     -4.543619   -1.126348   -0.223770
  H     -2.605805   -0.314650    0.545539
  H     -4.060590   -0.103177    1.664795
  C     -6.048731   -1.073093   -0.230088
  H     -4.223801   -2.094949    0.157711
  H     -4.222010   -1.058730   -1.267470
  C     -8.059222   -2.183791    0.252455
  H     -8.434871   -1.373462    0.875111
  H     -8.331316   -3.149836    0.666221
  H     -8.442370   -2.072212   -0.760561
  O     -6.679561   -0.116445   -0.632909
  N      4.735946   -0.430434   -1.905149
  C      5.177319   -0.590449   -0.605655
  C      6.413210   -0.963322   -0.058312
  N      6.529559   -1.035280    1.269851
  C      5.462464   -0.750155    2.022915
  N      4.251188   -0.385995    1.626909
  N      7.480554   -1.257021   -0.828576
  H      7.423319   -1.159034   -1.827313
  H      8.356236   -1.472467   -0.384367
  H      5.614086   -0.827462    3.094475
  H      2.821235    0.128915   -2.600716
  H     -5.531720    1.124064   -0.892217
  O     -6.619892   -2.167049    0.238769

 Total Charge           Charge          ....    0
 Multiplicity           Mult            ....    2
 Number of Electrons    NEL             ....  201
 Basis Dimension        Dim             .... 3080

ORBITAL ENERGIES
----------------
                 SPIN UP ORBITALS
  NO   OCC          E(Eh)            E(eV)
   0   1.0000     -20.648158      -561.8649
   1   1.0000     -20.607282      -560.7527
   2   1.0000     -20.590615      -560.2991
   3   1.0000     -20.572019      -559.7931
   4   1.0000     -20.557212      -559.3902
   5   1.0000     -20.555158      -559.3343
   6   1.0000     -20.554522      -559.3170
   7   1.0000     -15.614028      -424.8793
   8   1.0000     -15.573417      -423.7742
   9   1.0000     -15.554452      -423.2582
  10   1.0000     -15.542380      -422.9297
  11   1.0000     -15.536609      -422.7726
  12   1.0000     -11.427541      -310.9592
  13   1.0000     -11.403230      -310.2977
  14   1.0000     -11.326719      -308.2157
  15   1.0000     -11.325283      -308.1766
  16   1.0000     -11.318505      -307.9922
  17   1.0000     -11.307364      -307.6890
  18   1.0000     -11.301738      -307.5359
  19   1.0000     -11.301731      -307.5357
  20   1.0000     -11.297979      -307.4336
  21   1.0000     -11.292323      -307.2797
  22   1.0000     -11.292237      -307.2774
  23   1.0000     -11.290002      -307.2166
  24   1.0000     -11.288957      -307.1881
  25   1.0000     -11.259855      -306.3962
  26   1.0000     -11.236841      -305.7700
  27   1.0000      -1.515486       -41.2385
  28   1.0000      -1.473977       -40.1090
  29   1.0000      -1.419128       -38.6164
  30   1.0000      -1.410616       -38.3848
  31   1.0000      -1.383726       -37.6531
  32   1.0000      -1.373917       -37.3862
  33   1.0000      -1.359316       -36.9889
  34   1.0000      -1.352403       -36.8007
  35   1.0000      -1.294129       -35.2150
  36   1.0000      -1.240436       -33.7540
  37   1.0000      -1.191310       -32.4172
  38   1.0000      -1.147344       -31.2208
  39   1.0000      -1.132180       -30.8082
  40   1.0000      -1.068707       -29.0810
  41   1.0000      -1.040186       -28.3049
  42   1.0000      -1.029870       -28.0242
  43   1.0000      -1.022775       -27.8311
  44   1.0000      -0.962431       -26.1891
  45   1.0000      -0.948982       -25.8231
  46   1.0000      -0.886718       -24.1288
  47   1.0000      -0.868800       -23.6412
  48   1.0000      -0.857989       -23.3471
  49   1.0000      -0.851714       -23.1763
  50   1.0000      -0.817796       -22.2534
  51   1.0000      -0.813265       -22.1301
  52   1.0000      -0.788552       -21.4576
  53   1.0000      -0.774073       -21.0636
  54   1.0000      -0.765578       -20.8324
  55   1.0000      -0.746233       -20.3060
  56   1.0000      -0.736602       -20.0440
  57   1.0000      -0.733241       -19.9525
  58   1.0000      -0.722789       -19.6681
  59   1.0000      -0.710261       -19.3272
  60   1.0000      -0.704682       -19.1754
  61   1.0000      -0.693614       -18.8742
  62   1.0000      -0.691507       -18.8169
  63   1.0000      -0.678109       -18.4523
  64   1.0000      -0.668273       -18.1846
  65   1.0000      -0.659529       -17.9467
  66   1.0000      -0.654638       -17.8136
  67   1.0000      -0.642343       -17.4791
  68   1.0000      -0.632146       -17.2016
  69   1.0000      -0.623033       -16.9536
  70   1.0000      -0.617841       -16.8123
  71   1.0000      -0.612925       -16.6785
  72   1.0000      -0.610558       -16.6141
  73   1.0000      -0.604677       -16.4541
  74   1.0000      -0.597806       -16.2671
  75   1.0000      -0.591620       -16.0988
  76   1.0000      -0.585526       -15.9330
  77   1.0000      -0.580462       -15.7952
  78   1.0000      -0.574235       -15.6257
  79   1.0000      -0.568144       -15.4600
  80   1.0000      -0.562784       -15.3141
  81   1.0000      -0.550111       -14.9693
  82   1.0000      -0.546275       -14.8649
  83   1.0000      -0.543726       -14.7955
  84   1.0000      -0.529981       -14.4215
  85   1.0000      -0.510935       -13.9033
  86   1.0000      -0.500478       -13.6187
  87   1.0000      -0.497204       -13.5296
  88   1.0000      -0.494282       -13.4501
  89   1.0000      -0.490577       -13.3493
  90   1.0000      -0.484154       -13.1745
  91   1.0000      -0.471833       -12.8392
  92   1.0000      -0.466517       -12.6946
  93   1.0000      -0.446018       -12.1368
  94   1.0000      -0.438912       -11.9434
  95   1.0000      -0.434611       -11.8264
  96   1.0000      -0.403056       -10.9677
  97   1.0000      -0.399342       -10.8667
  98   1.0000      -0.366419        -9.9708
  99   1.0000      -0.356133        -9.6909
 100   1.0000      -0.300639        -8.1808
 101   0.0000       0.009914         0.2698
 102   0.0000       0.018762         0.5105
 103   0.0000       0.022825         0.6211
 104   0.0000       0.026623         0.7244
 105   0.0000       0.030099         0.8190

MULLIKEN ATOMIC CHARGES AND SPIN POPULATIONS
--------------------------------------------
   0 O :   -1.157262    0.034558
   1 C :    0.194860   -0.082584
   2 C :    0.570751    0.012413
   3 C :    0.428804   -0.003515
   4 C :    1.564635    0.012836
   5 C :   -0.854514    0.873079
   6 H :    0.125913    0.013853
   7 H :    0.276376   -0.056395
   8 H :    0.202636   -0.039200
   9 O :   -0.994668   -0.001945
  10 O :   -1.242085   -0.000006
  11 N :   -0.943036   -0.004076
  12 H :    0.314007    0.008586
  13 C :    1.080918   -0.001720
  14 C :    0.474838   -0.000780
  15 H :    0.035943    0.000283
  16 H :    0.467059    0.000065
  17 H :    0.307736    0.000166
  18 H :    0.346672    0.000017
  19 O :   -1.013959    0.049111
  20 C :    1.564248   -0.054058
  21 O :   -1.000909    0.010083
  22 C :   -0.433136    0.698974
  23 C :   -0.591021   -0.072515
  24 H :    0.295687   -0.378438
  25 H :    0.385104   -0.061267
  26 C :    1.480647    0.015665
  27 H :    0.259165    0.011706
  28 H :    0.286314    0.013925
  29 C :   -0.781743    0.001029
  30 H :    0.335511   -0.000172
  31 H :    0.458847    0.000091
  32 H :    0.341524   -0.000115
  33 O :   -0.874319    0.003831
  34 N :   -1.040047   -0.000237
  35 C :   -0.383577    0.001163
  36 C :    1.083274   -0.000216
  37 N :   -0.981578    0.000390
  38 C :   -0.009625   -0.000894
  39 N :   -0.948218   -0.000452
  40 N :   -0.840950   -0.000053
  41 H :    0.309212   -0.000005
  42 H :    0.265616    0.000024
  43 H :    0.584057    0.000070
  44 H :    0.509025   -0.000061
  45 H :    0.365845   -0.002676
  46 O :   -0.824577   -0.000538
Sum of atomic charges         :   -0.0000000

LOEWDIN ATOMIC CHARGES AND SPIN POPULATIONS
-------------------------------------------
   0 O :    0.933893    0.034289
   1 C :   -0.174798    0.057716
   2 C :   -0.197684   -0.000299
   3 C :   -0.242460   -0.000641
   4 C :   -0.369672    0.003478
   5 C :    0.853044    0.273429
   6 H :   -0.287876    0.000649
   7 H :   -0.264482    0.069880
   8 H :   -0.247515    0.069909
   9 O :    1.332042   -0.000256
  10 O :    1.328342   -0.000100
  11 N :    0.430166    0.001601
  12 H :   -0.321507   -0.000161
  13 C :   -0.594633    0.000231
  14 C :   -0.031709    0.000439
  15 H :   -0.309460   -0.000099
  16 H :   -0.278425   -0.000291
  17 H :   -1.018641   -0.000169
  18 H :   -0.871334   -0.000009
  19 O :    0.826076    0.030725
  20 C :   -0.929139    0.039258
  21 O :    1.271157    0.003589
  22 C :    0.410438    0.210257
  23 C :    0.490863    0.036739
  24 H :   -0.588554    0.100967
  25 H :   -0.252986    0.046335
  26 C :   -0.964129    0.009957
  27 H :   -0.301033   -0.000063
  28 H :   -0.271000    0.001592
  29 C :    0.614577    0.000326
  30 H :   -0.308928    0.000069
  31 H :   -0.315763    0.000159
  32 H :   -0.309263    0.000058
  33 O :    0.881647    0.005549
  34 N :    0.624028   -0.000096
  35 C :   -0.427187    0.000163
  36 C :   -0.504033   -0.000008
  37 N :    0.590794    0.000108
  38 C :   -0.180550   -0.000104
  39 N :    0.629967    0.000139
  40 N :    1.262254   -0.000057
  41 H :   -0.485675   -0.000006
  42 H :   -0.488533   -0.000008
  43 H :   -0.384448   -0.000058
  44 H :   -0.305282    0.000082
  45 H :   -1.131330    0.003650
  46 O :    0.878739    0.001078

  Mayer bond orders larger than 0.100000
B(  0-O ,  1-C ) :   0.5778 B(  0-O ,  3-C ) :   0.3134 B(  0-O , 11-N ) :   0.1924
B(  1-C ,  2-C ) :   0.8582 B(  1-C ,  3-C ) :   0.2683 B(  1-C ,  5-C ) :   0.6700
B(  1-C ,  6-H ) :   1.0616 B(  1-C ,  8-H ) :  -0.1163 B(  1-C ,  9-O ) :   0.1508
B(  2-C ,  3-C ) :   1.0198 B(  2-C , 10-O ) :   0.3816 B(  2-C , 16-H ) :   0.7755
B(  3-C ,  4-C ) :   0.5254 B(  3-C ,  9-O ) :   0.1590 B(  3-C , 10-O ) :  -0.5011
B(  3-C , 11-N ) :   0.1375 B(  3-C , 15-H ) :   1.2071 B(  4-C , 10-O ) :   0.1629
B(  4-C , 11-N ) :   0.7408 B(  4-C , 12-H ) :   0.6872 B(  4-C , 39-N ) :  -0.2059
B(  5-C ,  7-H ) :   0.8636 B(  5-C ,  8-H ) :   1.0738 B(  5-C , 22-C ) :   0.1236
B(  5-C , 24-H ) :   0.3290 B(  9-O , 17-H ) :   0.9517 B(  9-O , 18-H ) :   0.1041
B( 10-O , 11-N ) :   0.1077 B( 10-O , 15-H ) :   0.1092 B( 10-O , 18-H ) :   0.8228
B( 11-N , 13-C ) :   0.9421 B( 11-N , 14-C ) :   1.2445 B( 11-N , 34-N ) :   0.1104
B( 11-N , 39-N ) :   0.1752 B( 13-C , 14-C ) :   0.4547 B( 13-C , 34-N ) :   0.3251
B( 13-C , 35-C ) :   0.8672 B( 13-C , 36-C ) :  -0.4114 B( 13-C , 38-C ) :  -0.1346
B( 13-C , 39-N ) :   0.6449 B( 14-C , 34-N ) :   0.7623 B( 14-C , 35-C ) :   0.1822
B( 14-C , 44-H ) :   0.6759 B( 19-O , 20-C ) :   1.0614 B( 19-O , 21-O ) :   0.1537
B( 19-O , 22-C ) :   0.1988 B( 20-C , 21-O ) :   0.4074 B( 20-C , 22-C ) :   1.1440
B( 21-O , 45-H ) :   0.7363 B( 22-C , 23-C ) :   0.9766 B( 22-C , 24-H ) :   0.2225
B( 22-C , 25-H ) :   0.8289 B( 22-C , 26-C ) :  -0.1010 B( 23-C , 24-H ) :  -0.1703
B( 23-C , 26-C ) :   1.1767 B( 23-C , 27-H ) :   0.8774 B( 23-C , 28-H ) :   0.8869
B( 23-C , 33-O ) :   0.2072 B( 26-C , 29-C ) :  -0.1753 B( 26-C , 33-O ) :   0.9403
B( 26-C , 46-O ) :   0.7927 B( 29-C , 30-H ) :   0.8999 B( 29-C , 31-H ) :   0.8174
B( 29-C , 32-H ) :   0.8907 B( 29-C , 46-O ) :   0.8863 B( 33-O , 45-H ) :   0.1146
B( 33-O , 46-O ) :   0.1460 B( 34-N , 35-C ) :   0.4235 B( 34-N , 44-H ) :  -0.1055
B( 35-C , 36-C ) :   1.4630 B( 35-C , 37-N ) :   0.2341 B( 35-C , 38-C ) :   0.2526
B( 36-C , 37-N ) :   0.7204 B( 36-C , 38-C ) :   0.1109 B( 36-C , 40-N ) :   0.8393
B( 37-N , 38-C ) :   1.2342 B( 37-N , 39-N ) :   0.1215 B( 37-N , 40-N ) :   0.1614
B( 38-C , 39-N ) :   1.6207 B( 38-C , 43-H ) :   0.7053 B( 40-N , 41-H ) :   0.9085
B( 40-N , 42-H ) :   0.9897

MP2 TOTAL ENERGY:    -1381.955159898 Eh
FINAL SINGLE POINT ENERGY     -1381.955159897662

DIPOLE MOMENT
-------------
                                X             Y             Z
Electronic contribution:     19.48988       3.53848      -1.12885
Nuclear contribution   :    -22.83184      -5.71294       0.61991
                        -----------------------------------------
Total Dipole Moment    :     -3.34196      -2.17445      -0.50893
                        -----------------------------------------
Magnitude (a.u.)       :      4.01945
Magnitude (Debye)      :     10.21663

Rotational constants in cm-1:     0.016781     0.002023     0.001937
Rotational constants in MHz :   503.087552    60.644018    58.081711

                             ****ORCA TERMINATED NORMALLY****
TOTAL RUN TIME: 0 days 21 hours 8 minutes 33 seconds 904 msec
