                         Program Version 4.2.1 -  RELEASE  -
|  1> %pal
|  2>  nprocs 32
|  3> end
|  4> !RI-MP2 aug-cc-pVQZ aug-cc-pVQZ/C TightSCF
|  5> %maxcore 4500
|  6> *xyzfile 0 1  09_3R1.xyz
|  7>
|  8>
|  9>                          ****END OF INPUT****

CARTESIAN COORDINATES (ANGSTROEM)
---------------------------------
  C      1.415908    0.000000    0.000000
  C      0.219363    0.000004   -0.000005
  C     -1.236411   -0.000001    0.000002
  H     -1.623862    0.872272    0.529665
  H     -1.623864    0.022561   -1.020240
  H     -1.623856   -0.894841    0.490583
  H      2.478421   -0.000009    0.000011

 Total Charge           Charge          ....    0
 Multiplicity           Mult            ....    1
 Number of Electrons    NEL             ....   22
 Basis Dimension        Dim             ....  424

ORBITAL ENERGIES
----------------

  NO   OCC          E(Eh)            E(eV)
   0   2.0000     -11.249134      -306.1045
   1   2.0000     -11.232203      -305.6438
   2   2.0000     -11.215857      -305.1990
   3   2.0000      -1.059010       -28.8171
   4   2.0000      -0.959195       -26.1010
   5   2.0000      -0.717863       -19.5341
   6   2.0000      -0.623669       -16.9709
   7   2.0000      -0.592419       -16.1205
   8   2.0000      -0.592419       -16.1205
   9   2.0000      -0.386346       -10.5130
  10   2.0000      -0.386346       -10.5130
  11   0.0000       0.025864         0.7038
  12   0.0000       0.030661         0.8343
  13   0.0000       0.043455         1.1825
  14   0.0000       0.043455         1.1825
  15   0.0000       0.067220         1.8291

MULLIKEN ATOMIC CHARGES
-----------------------
   0 C :   -0.821483
   1 C :    0.075950
   2 C :   -0.524896
   3 H :    0.256721
   4 H :    0.256720
   5 H :    0.256722
   6 H :    0.500267
Sum of atomic charges:   -0.0000000

LOEWDIN ATOMIC CHARGES
----------------------
   0 C :    0.543699
   1 C :    0.076245
   2 C :    0.816020
   3 H :   -0.320378
   4 H :   -0.320378
   5 H :   -0.320377
   6 H :   -0.474831

  Mayer bond orders larger than 0.100000
B(  0-C ,  1-C ) :   2.6849 B(  0-C ,  6-H ) :   0.8220 B(  1-C ,  2-C ) :   0.8049
B(  2-C ,  3-H ) :   0.9497 B(  2-C ,  4-H ) :   0.9497 B(  2-C ,  5-H ) :   0.9497

MP2 TOTAL ENERGY:     -116.430476035 Eh
FINAL SINGLE POINT ENERGY      -116.430476035180

DIPOLE MOMENT
-------------
                                X             Y             Z
Electronic contribution:      2.15921       0.00001      -0.00001
Nuclear contribution   :     -2.46798      -0.00002       0.00002
                        -----------------------------------------
Total Dipole Moment    :     -0.30877      -0.00001       0.00001
                        -----------------------------------------
Magnitude (a.u.)       :      0.30877
Magnitude (Debye)      :      0.78483

Rotational constants in cm-1:     5.352979     0.287584     0.287584
Rotational constants in MHz : 160478.282957  8621.558559  8621.558286

                             ****ORCA TERMINATED NORMALLY****
TOTAL RUN TIME: 0 days 0 hours 1 minutes 14 seconds 342 msec
