                         Program Version 4.2.1 -  RELEASE  -
|  1> %pal
|  2>  nprocs 32
|  3> end
|  4> !RI-MP2 aug-cc-pVQZ aug-cc-pVQZ/C TightSCF
|  5> %maxcore 4500
|  6> *xyzfile 0 1  04_35P2.xyz
|  7>
|  8>
|  9>                          ****END OF INPUT****

CARTESIAN COORDINATES (ANGSTROEM)
---------------------------------
  S      0.000000    0.227448   -0.443016
  C      1.354260   -0.801428    0.184664
  H      1.257899   -0.891884    1.266726
  H      1.331934   -1.778302   -0.299472
  H      2.281547   -0.286871   -0.060773
  C     -1.354260   -0.801429    0.184664
  O      0.000000    1.486512    0.382416
  H     -1.331933   -1.778304   -0.299471
  H     -2.281547   -0.286872   -0.060774
  H     -1.257899   -0.891883    1.266726

 Total Charge           Charge          ....    0
 Multiplicity           Mult            ....    1
 Number of Electrons    NEL             ....   42
 Basis Dimension        Dim             ....  600

ORBITAL ENERGIES
----------------

  NO   OCC          E(Eh)            E(eV)
   0   2.0000     -92.066486     -2505.2565
   1   2.0000     -20.501110      -557.8636
   2   2.0000     -11.262989      -306.4815
   3   2.0000     -11.262978      -306.4812
   4   2.0000      -9.053698      -246.3636
   5   2.0000      -6.735886      -183.2928
   6   2.0000      -6.735576      -183.2843
   7   2.0000      -6.734234      -183.2478
   8   2.0000      -1.328420       -36.1481
   9   2.0000      -1.062665       -28.9166
  10   2.0000      -0.976479       -26.5713
  11   2.0000      -0.817439       -22.2437
  12   2.0000      -0.642010       -17.4700
  13   2.0000      -0.627642       -17.0790
  14   2.0000      -0.621268       -16.9056
  15   2.0000      -0.588061       -16.0020
  16   2.0000      -0.561107       -15.2685
  17   2.0000      -0.545530       -14.8446
  18   2.0000      -0.513114       -13.9625
  19   2.0000      -0.418751       -11.3948
  20   2.0000      -0.368829       -10.0364
  21   0.0000       0.021195         0.5767
  22   0.0000       0.031487         0.8568
  23   0.0000       0.037481         1.0199
  24   0.0000       0.042307         1.1512
  25   0.0000       0.053149         1.4463

MULLIKEN ATOMIC CHARGES
-----------------------
   0 S :    1.160826
   1 C :   -1.016939
   2 H :    0.303279
   3 H :    0.316116
   4 H :    0.391728
   5 C :   -1.016938
   6 O :   -1.149196
   7 H :    0.316116
   8 H :    0.391728
   9 H :    0.303279
Sum of atomic charges:    0.0000000

LOEWDIN ATOMIC CHARGES
----------------------
   0 S :    0.647917
   1 C :    0.710135
   2 H :   -0.351031
   3 H :   -0.352330
   4 H :   -0.361551
   5 C :    0.710136
   6 O :    0.061636
   7 H :   -0.352329
   8 H :   -0.361551
   9 H :   -0.351031

  Mayer bond orders larger than 0.100000
B(  0-S ,  1-C ) :   0.9729 B(  0-S ,  5-C ) :   0.9729 B(  0-S ,  6-O ) :   1.2313
B(  1-C ,  2-H ) :   0.8807 B(  1-C ,  3-H ) :   0.8889 B(  1-C ,  4-H ) :   0.8406
B(  5-C ,  7-H ) :   0.8889 B(  5-C ,  8-H ) :   0.8406 B(  5-C ,  9-H ) :   0.8807

MP2 TOTAL ENERGY:     -552.518830367 Eh
FINAL SINGLE POINT ENERGY      -552.518830366779

DIPOLE MOMENT
-------------
                                X             Y             Z
Electronic contribution:     -0.00000       4.13567      -2.09281
Nuclear contribution   :      0.00000      -5.95432       1.85025
                        -----------------------------------------
Total Dipole Moment    :      0.00000      -1.81865      -0.24255
                        -----------------------------------------
Magnitude (a.u.)       :      1.83475
Magnitude (Debye)      :      4.66357

Rotational constants in cm-1:     0.230997     0.227453     0.138748
Rotational constants in MHz :  6925.118025  6818.878939  4159.574044

                             ****ORCA TERMINATED NORMALLY****
TOTAL RUN TIME: 0 days 0 hours 4 minutes 52 seconds 271 msec
