                         Program Version 4.2.1 -  RELEASE  -
|  1> %pal
|  2>  nprocs 32
|  3> end
|  4> !RI-MP2 aug-cc-pVQZ aug-cc-pVQZ/C TightSCF
|  5> %maxcore 4500
|  6> *xyzfile 0 2  01_4R.xyz
|  7>
|  8>
|  9>                          ****END OF INPUT****

CARTESIAN COORDINATES (ANGSTROEM)
---------------------------------
  C     -1.634109   -0.134287   -0.149704
  C      2.044898   -0.735680   -0.569704
  C      1.308406   -0.302328    0.646250
  C      0.504672    0.985529    0.451869
  C     -0.632896    0.842118   -0.568434
  N     -2.409755   -0.904410    0.198810
  H      2.019747   -0.132598    1.469179
  H      0.647874   -1.102311    0.994391
  H      1.167532    1.782412    0.103386
  H      0.089972    1.310765    1.408504
  H     -0.236125    0.525195   -1.536070
  H     -1.135581    1.799556   -0.720673
  H      2.246090   -1.780955   -0.761275
  H      2.522945   -0.003308   -1.210769

 Total Charge           Charge          ....    0
 Multiplicity           Mult            ....    2
 Number of Electrons    NEL             ....   45
 Basis Dimension        Dim             ....  848

ORBITAL ENERGIES
----------------
                 SPIN UP ORBITALS
  NO   OCC          E(Eh)            E(eV)
   0   1.0000     -15.561677      -423.4548
   1   1.0000     -11.278609      -306.9065
   2   1.0000     -11.267020      -306.5912
   3   1.0000     -11.251622      -306.1722
   4   1.0000     -11.240821      -305.8783
   5   1.0000     -11.237002      -305.7744
   6   1.0000      -1.220389       -33.2085
   7   1.0000      -1.114058       -30.3151
   8   1.0000      -1.030051       -28.0291
   9   1.0000      -0.918813       -25.0022
  10   1.0000      -0.815626       -22.1943
  11   1.0000      -0.697456       -18.9787
  12   1.0000      -0.662736       -18.0340
  13   1.0000      -0.644601       -17.5405
  14   1.0000      -0.592629       -16.1262
  15   1.0000      -0.579551       -15.7704
  16   1.0000      -0.550462       -14.9788
  17   1.0000      -0.541109       -14.7243
  18   1.0000      -0.512588       -13.9482
  19   1.0000      -0.501121       -13.6362
  20   1.0000      -0.456555       -12.4235
  21   1.0000      -0.455557       -12.3963
  22   1.0000      -0.364517        -9.9190
  23   0.0000       0.020543         0.5590
  24   0.0000       0.029661         0.8071
  25   0.0000       0.029940         0.8147
  26   0.0000       0.037063         1.0085
  27   0.0000       0.048601         1.3225

                 SPIN DOWN ORBITALS
  NO   OCC          E(Eh)            E(eV)
   0   1.0000     -15.561682      -423.4549
   1   1.0000     -11.278525      -306.9043
   2   1.0000     -11.267016      -306.5911
   3   1.0000     -11.250697      -306.1470
   4   1.0000     -11.240164      -305.8604
   5   1.0000     -11.217236      -305.2365
   6   1.0000      -1.220343       -33.2072
   7   1.0000      -1.107057       -30.1246
   8   1.0000      -1.008421       -27.4405
   9   1.0000      -0.885725       -24.1018
  10   1.0000      -0.787601       -21.4317
  11   1.0000      -0.694924       -18.9098
  12   1.0000      -0.656259       -17.8577
  13   1.0000      -0.635723       -17.2989
  14   1.0000      -0.586401       -15.9568
  15   1.0000      -0.573080       -15.5943
  16   1.0000      -0.547342       -14.8939
  17   1.0000      -0.523540       -14.2462
  18   1.0000      -0.505519       -13.7559
  19   1.0000      -0.498137       -13.5550
  20   1.0000      -0.455862       -12.4046
  21   1.0000      -0.454677       -12.3724
  22   0.0000       0.020780         0.5655
  23   0.0000       0.029591         0.8052
  24   0.0000       0.030285         0.8241
  25   0.0000       0.036866         1.0032
  26   0.0000       0.047594         1.2951

MULLIKEN ATOMIC CHARGES AND SPIN POPULATIONS
--------------------------------------------
   0 C :    0.387113   -0.001417
   1 C :   -0.889196    1.238826
   2 C :   -0.354154   -0.212017
   3 C :   -0.374628    0.033887
   4 C :   -0.428482    0.000101
   5 N :   -0.691888    0.000090
   6 H :    0.278440    0.090551
   7 H :    0.234179    0.011906
   8 H :    0.268430   -0.004001
   9 H :    0.270899   -0.005846
  10 H :    0.251078   -0.001089
  11 H :    0.350943   -0.000612
  12 H :    0.372930   -0.075079
  13 H :    0.324336   -0.075299
Sum of atomic charges         :   -0.0000000

LOEWDIN ATOMIC CHARGES AND SPIN POPULATIONS
-------------------------------------------
   0 C :   -0.271139    0.002879
   1 C :    0.857339    0.461482
   2 C :    0.453329    0.143705
   3 C :    0.481789    0.016867
   4 C :    0.436881    0.012355
   5 N :    0.424370    0.000093
   6 H :   -0.279334    0.034278
   7 H :   -0.309014    0.011195
   8 H :   -0.272223    0.000525
   9 H :   -0.266865    0.002361
  10 H :   -0.306509    0.012151
  11 H :   -0.291165    0.000839
  12 H :   -0.327328    0.151139
  13 H :   -0.330132    0.150132

  Mayer bond orders larger than 0.100000
B(  0-C ,  4-C ) :   1.0884 B(  0-C ,  5-N ) :   2.4884 B(  1-C ,  2-C ) :   0.9430
B(  1-C , 12-H ) :   0.8928 B(  1-C , 13-H ) :   0.9105 B(  2-C ,  3-C ) :   0.8887
B(  2-C ,  6-H ) :   0.8611 B(  2-C ,  7-H ) :   0.9110 B(  3-C ,  4-C ) :   0.9083
B(  3-C ,  8-H ) :   0.8858 B(  3-C ,  9-H ) :   0.8859 B(  4-C , 10-H ) :   0.8935
B(  4-C , 11-H ) :   0.8760

MP2 TOTAL ENERGY:     -249.569770685 Eh
FINAL SINGLE POINT ENERGY      -249.569770684780

DIPOLE MOMENT
-------------
                                X             Y             Z
Electronic contribution:     -6.24506      -1.39778      -0.05437
Nuclear contribution   :      7.52075       2.46302      -0.25949
                        -----------------------------------------
Total Dipole Moment    :      1.27569       1.06524      -0.31386
                        -----------------------------------------
Magnitude (a.u.)       :      1.69135
Magnitude (Debye)      :      4.29906

Rotational constants in cm-1:     0.215077     0.071262     0.064219
Rotational constants in MHz :  6447.836347  2136.391764  1925.224443

                             ****ORCA TERMINATED NORMALLY****
TOTAL RUN TIME: 0 days 0 hours 18 minutes 21 seconds 951 msec
