                         Program Version 4.2.1 -  RELEASE  -
|  1> %pal
|  2>  nprocs 32
|  3> end
|  4> !RI-MP2 aug-cc-pVQZ aug-cc-pVQZ/C TightSCF
|  5> %maxcore 4500
|  6> *xyzfile 0 2  04_22P1.xyz
|  7>
|  8>
|  9>                          ****END OF INPUT****

CARTESIAN COORDINATES (ANGSTROEM)
---------------------------------
  C     -3.208573   -0.404650   -0.000005
  C     -0.870521   -0.498291    0.000023
  C      0.364386    0.333733    0.000003
  C      0.284661    1.812953    0.000010
  C      1.604499   -0.401572   -0.000003
  O      2.717652    0.373256   -0.000012
  O      1.676963   -1.615944    0.000001
  H     -3.287685   -1.039334   -0.891488
  H     -3.287704   -1.039251    0.891535
  H     -4.025732    0.314622   -0.000047
  H     -0.278287    2.162994   -0.871079
  H      1.273385    2.264263   -0.000022
  H     -0.278223    2.162990    0.871144
  H     -0.869795   -1.164210    0.877990
  H     -0.869772   -1.164291   -0.877880
  H      3.471735   -0.230759   -0.000016
  O     -2.006445    0.327682   -0.000027

 Total Charge           Charge          ....    0
 Multiplicity           Mult            ....    2
 Number of Electrons    NEL             ....   63
 Basis Dimension        Dim             .... 1054

ORBITAL ENERGIES
----------------
                 SPIN UP ORBITALS
  NO   OCC          E(Eh)            E(eV)
   0   1.0000     -20.603240      -560.6427
   1   1.0000     -20.564387      -559.5854
   2   1.0000     -20.551930      -559.2464
   3   1.0000     -11.373812      -309.4972
   4   1.0000     -11.285793      -307.1020
   5   1.0000     -11.276736      -306.8556
   6   1.0000     -11.268021      -306.6184
   7   1.0000     -11.224074      -305.4226
   8   1.0000      -1.462467       -39.7957
   9   1.0000      -1.390521       -37.8380
  10   1.0000      -1.363651       -37.1068
  11   1.0000      -1.111414       -30.2431
  12   1.0000      -0.970213       -26.4008
  13   1.0000      -0.931071       -25.3357
  14   1.0000      -0.878389       -23.9022
  15   1.0000      -0.772707       -21.0264
  16   1.0000      -0.708978       -19.2923
  17   1.0000      -0.693469       -18.8703
  18   1.0000      -0.689939       -18.7742
  19   1.0000      -0.649129       -17.6637
  20   1.0000      -0.644959       -17.5502
  21   1.0000      -0.631444       -17.1825
  22   1.0000      -0.586881       -15.9699
  23   1.0000      -0.573979       -15.6188
  24   1.0000      -0.567802       -15.4507
  25   1.0000      -0.557163       -15.1612
  26   1.0000      -0.520285       -14.1577
  27   1.0000      -0.512912       -13.9571
  28   1.0000      -0.493325       -13.4240
  29   1.0000      -0.463197       -12.6042
  30   1.0000      -0.442510       -12.0413
  31   1.0000      -0.356711        -9.7066
  32   0.0000       0.024879         0.6770
  33   0.0000       0.028997         0.7891
  34   0.0000       0.034133         0.9288
  35   0.0000       0.036216         0.9855
  36   0.0000       0.043692         1.1889

                 SPIN DOWN ORBITALS
  NO   OCC          E(Eh)            E(eV)
   0   1.0000     -20.603384      -560.6466
   1   1.0000     -20.564440      -559.5869
   2   1.0000     -20.540500      -558.9354
   3   1.0000     -11.378898      -309.6355
   4   1.0000     -11.288563      -307.1774
   5   1.0000     -11.276787      -306.8570
   6   1.0000     -11.247003      -306.0465
   7   1.0000     -11.226769      -305.4959
   8   1.0000      -1.456663       -39.6378
   9   1.0000      -1.390478       -37.8368
  10   1.0000      -1.345306       -36.6076
  11   1.0000      -1.068162       -29.0662
  12   1.0000      -0.968945       -26.3663
  13   1.0000      -0.921559       -25.0769
  14   1.0000      -0.875499       -23.8236
  15   1.0000      -0.757438       -20.6109
  16   1.0000      -0.702559       -19.1176
  17   1.0000      -0.685002       -18.6399
  18   1.0000      -0.674780       -18.3617
  19   1.0000      -0.647019       -17.6063
  20   1.0000      -0.622523       -16.9397
  21   1.0000      -0.621695       -16.9172
  22   1.0000      -0.568487       -15.4693
  23   1.0000      -0.566984       -15.4284
  24   1.0000      -0.562466       -15.3055
  25   1.0000      -0.545730       -14.8501
  26   1.0000      -0.516266       -14.0483
  27   1.0000      -0.490250       -13.3404
  28   1.0000      -0.457399       -12.4465
  29   1.0000      -0.450292       -12.2531
  30   1.0000      -0.431651       -11.7458
  31   0.0000       0.024980         0.6798
  32   0.0000       0.029030         0.7900
  33   0.0000       0.034198         0.9306
  34   0.0000       0.036118         0.9828
  35   0.0000       0.043779         1.1913

MULLIKEN ATOMIC CHARGES AND SPIN POPULATIONS
--------------------------------------------
   0 C :   -0.713452   -0.001093
   1 C :    0.611016   -0.174619
   2 C :   -0.729998    1.057042
   3 C :   -0.816799   -0.144254
   4 C :    1.509272   -0.218348
   5 O :   -0.707614   -0.001837
   6 O :   -0.823001    0.263656
   7 H :    0.276219   -0.000607
   8 H :    0.276215   -0.000607
   9 H :    0.365187   -0.000218
  10 H :    0.193676    0.058382
  11 H :    0.359010    0.000289
  12 H :    0.193676    0.058386
  13 H :    0.229443    0.055173
  14 H :    0.229438    0.055168
  15 H :    0.310770   -0.003329
  16 O :   -0.763060   -0.003183
Sum of atomic charges         :   -0.0000000

LOEWDIN ATOMIC CHARGES AND SPIN POPULATIONS
-------------------------------------------
   0 C :    0.573481    0.001466
   1 C :    0.074508    0.109050
   2 C :   -0.071336    0.390972
   3 C :    0.891469    0.121253
   4 C :   -1.042334    0.118237
   5 O :    1.244819   -0.004238
   6 O :    0.715069    0.174375
   7 H :   -0.304974    0.000579
   8 H :   -0.304974    0.000579
   9 H :   -0.322222   -0.000107
  10 H :   -0.285729    0.022465
  11 H :   -0.333912    0.006265
  12 H :   -0.285722    0.022466
  13 H :   -0.302178    0.021112
  14 H :   -0.302184    0.021110
  15 H :   -0.818168   -0.003949
  16 O :    0.874388   -0.001633

  Mayer bond orders larger than 0.100000
B(  0-C ,  1-C ) :  -0.1247 B(  0-C ,  7-H ) :   0.9249 B(  0-C ,  8-H ) :   0.9249
B(  0-C ,  9-H ) :   0.9154 B(  0-C , 16-O ) :   0.9293 B(  1-C ,  2-C ) :   0.7434
B(  1-C ,  4-C ) :  -0.1774 B(  1-C , 13-H ) :   0.9041 B(  1-C , 14-H ) :   0.9041
B(  1-C , 16-O ) :   0.6756 B(  2-C ,  3-C ) :   0.7183 B(  2-C ,  4-C ) :   1.4102
B(  2-C ,  5-O ) :   0.1808 B(  2-C ,  6-O ) :   0.4121 B(  2-C , 11-H ) :  -0.1062
B(  3-C , 10-H ) :   0.9953 B(  3-C , 11-H ) :   0.9775 B(  3-C , 12-H ) :   0.9953
B(  4-C ,  5-O ) :   0.6046 B(  4-C ,  6-O ) :   1.0687 B(  5-O ,  6-O ) :   0.1203
B(  5-O , 15-H ) :   0.9532

MP2 TOTAL ENERGY:     -420.965186986 Eh
FINAL SINGLE POINT ENERGY      -420.965186985653

DIPOLE MOMENT
-------------
                                X             Y             Z
Electronic contribution:      7.81885      -1.96655      -0.00011
Nuclear contribution   :     -8.19719       2.27557       0.00014
                        -----------------------------------------
Total Dipole Moment    :     -0.37834       0.30903       0.00002
                        -----------------------------------------
Magnitude (a.u.)       :      0.48851
Magnitude (Debye)      :      1.24169

Rotational constants in cm-1:     0.143433     0.037318     0.030109
Rotational constants in MHz :  4300.003809  1118.755248   902.637817

                             ****ORCA TERMINATED NORMALLY****
TOTAL RUN TIME: 0 days 0 hours 50 minutes 58 seconds 397 msec
