                         Program Version 4.2.1 -  RELEASE  -
|  1> %pal
|  2>  nprocs 32
|  3> end
|  4> !RI-MP2 aug-cc-pVQZ aug-cc-pVQZ/C TightSCF
|  5> %maxcore 4500
|  6> *xyzfile 1 1  05_36R2.xyz
|  7>
|  8>
|  9>                          ****END OF INPUT****

CARTESIAN COORDINATES (ANGSTROEM)
---------------------------------
  N      0.608670    1.922774   -0.058101
  C     -0.604506    1.162829    0.076551
  C     -0.765524    0.283068    1.144008
  C     -1.940946   -0.418684    1.267114
  C     -2.972538   -0.244839    0.334715
  C     -2.809070    0.654597   -0.719035
  C     -1.620401    1.359622   -0.840306
  O     -4.072804   -0.975716    0.544769
  C     -5.177479   -0.842804   -0.342497
  C      1.844715    1.512675   -0.048690
  C      2.218725    0.103625   -0.105675
  C      3.366533   -0.328351    0.569148
  C      3.758339   -1.652935    0.496050
  C      3.036400   -2.547016   -0.283203
  C      1.915360   -2.118702   -0.985108
  C      1.495641   -0.806383   -0.888632
  C      2.907048    2.556867    0.002968
  H     -4.898543   -1.130951   -1.358906
  H      1.366162   -2.812788   -1.607867
  H     -5.564041    0.179025   -0.333113
  H     -5.938343   -1.521808    0.031019
  H      4.632872   -1.985994    1.039506
  H      3.352239   -3.580629   -0.350602
  H      3.649887    2.376135   -0.773943
  H      3.423903    2.502822    0.964384
  H      2.500527    3.562343   -0.103273
  H      3.943459    0.359519    1.173046
  H      0.623184   -0.484365   -1.439494
  H      0.023956    0.151452    1.872774
  H     -1.490971    2.053265   -1.663171
  H     -3.593649    0.814121   -1.443709
  H     -2.099844   -1.105594    2.087646
  H      0.477160    2.928345   -0.110194

 Total Charge           Charge          ....    1
 Multiplicity           Mult            ....    1
 Number of Electrons    NEL             ....  120
 Basis Dimension        Dim             .... 2096

ORBITAL ENERGIES
----------------

  NO   OCC          E(Eh)            E(eV)
   0   2.0000     -20.690979      -563.0302
   1   2.0000     -15.802395      -430.0050
   2   2.0000     -11.511793      -313.2518
   3   2.0000     -11.424399      -310.8737
   4   2.0000     -11.407396      -310.4110
   5   2.0000     -11.396061      -310.1026
   6   2.0000     -11.393530      -310.0337
   7   2.0000     -11.385547      -309.8165
   8   2.0000     -11.383054      -309.7487
   9   2.0000     -11.377988      -309.6108
  10   2.0000     -11.375397      -309.5403
  11   2.0000     -11.374046      -309.5035
  12   2.0000     -11.371758      -309.4413
  13   2.0000     -11.363840      -309.2258
  14   2.0000     -11.363208      -309.2086
  15   2.0000     -11.353128      -308.9343
  16   2.0000     -11.349874      -308.8458
  17   2.0000      -1.526286       -41.5324
  18   2.0000      -1.476949       -40.1898
  19   2.0000      -1.307057       -35.5668
  20   2.0000      -1.285227       -34.9728
  21   2.0000      -1.217531       -33.1307
  22   2.0000      -1.163948       -31.6726
  23   2.0000      -1.158473       -31.5237
  24   2.0000      -1.155513       -31.4431
  25   2.0000      -1.130893       -30.7732
  26   2.0000      -1.061483       -28.8844
  27   2.0000      -1.031646       -28.0725
  28   2.0000      -0.976422       -26.5698
  29   2.0000      -0.973310       -26.4851
  30   2.0000      -0.962897       -26.2018
  31   2.0000      -0.928057       -25.2537
  32   2.0000      -0.878385       -23.9021
  33   2.0000      -0.861776       -23.4501
  34   2.0000      -0.830619       -22.6023
  35   2.0000      -0.817032       -22.2326
  36   2.0000      -0.804439       -21.8899
  37   2.0000      -0.777235       -21.1496
  38   2.0000      -0.762644       -20.7526
  39   2.0000      -0.760571       -20.6962
  40   2.0000      -0.750374       -20.4187
  41   2.0000      -0.749679       -20.3998
  42   2.0000      -0.737095       -20.0574
  43   2.0000      -0.726571       -19.7710
  44   2.0000      -0.723508       -19.6877
  45   2.0000      -0.710394       -19.3308
  46   2.0000      -0.701453       -19.0875
  47   2.0000      -0.681124       -18.5343
  48   2.0000      -0.669713       -18.2238
  49   2.0000      -0.654876       -17.8201
  50   2.0000      -0.645330       -17.5603
  51   2.0000      -0.638658       -17.3788
  52   2.0000      -0.632369       -17.2076
  53   2.0000      -0.626687       -17.0530
  54   2.0000      -0.597707       -16.2644
  55   2.0000      -0.585400       -15.9296
  56   2.0000      -0.489108       -13.3093
  57   2.0000      -0.479509       -13.0481
  58   2.0000      -0.468366       -12.7449
  59   2.0000      -0.433016       -11.7830
  60   0.0000      -0.092165        -2.5079
  61   0.0000      -0.072460        -1.9717
  62   0.0000      -0.056611        -1.5405
  63   0.0000      -0.054839        -1.4923
  64   0.0000      -0.050457        -1.3730

MULLIKEN ATOMIC CHARGES
-----------------------
   0 N :   -0.540424
   1 C :    1.317903
   2 C :   -0.675538
   3 C :   -0.467765
   4 C :    1.341894
   5 C :   -0.492985
   6 C :   -0.523766
   7 O :   -0.890278
   8 C :   -0.753757
   9 C :    0.629237
  10 C :    0.452495
  11 C :   -0.367931
  12 C :   -0.359262
  13 C :   -0.328418
  14 C :   -0.460825
  15 C :   -0.413068
  16 C :   -0.842360
  17 H :    0.266520
  18 H :    0.228873
  19 H :    0.291791
  20 H :    0.504198
  21 H :    0.247217
  22 H :    0.337829
  23 H :    0.297296
  24 H :    0.288985
  25 H :    0.337134
  26 H :    0.330895
  27 H :    0.441902
  28 H :    0.212975
  29 H :    0.183169
  30 H :    0.191204
  31 H :    0.183101
  32 H :    0.031756
Sum of atomic charges:    1.0000000

LOEWDIN ATOMIC CHARGES
----------------------
   0 N :    0.911289
   1 C :   -0.222369
   2 C :    0.347901
   3 C :    0.363659
   4 C :   -0.445905
   5 C :    0.362757
   6 C :    0.369478
   7 O :    0.893568
   8 C :    0.612040
   9 C :   -0.092805
  10 C :   -0.064814
  11 C :    0.361927
  12 C :    0.394298
  13 C :    0.388061
  14 C :    0.399002
  15 C :    0.353714
  16 C :    0.990440
  17 H :   -0.298823
  18 H :   -0.301088
  19 H :   -0.297846
  20 H :   -0.306907
  21 H :   -0.303333
  22 H :   -0.295389
  23 H :   -0.245566
  24 H :   -0.263898
  25 H :   -0.271096
  26 H :   -0.317967
  27 H :   -0.323727
  28 H :   -0.296095
  29 H :   -0.291217
  30 H :   -0.343906
  31 H :   -0.307861
  32 H :   -0.457524

  Mayer bond orders larger than 0.100000
B(  0-N ,  1-C ) :   0.1713 B(  0-N ,  9-C ) :   1.1895 B(  0-N , 16-C ) :  -0.1299
B(  0-N , 32-H ) :   1.3037 B(  1-C ,  2-C ) :   0.8551 B(  1-C ,  3-C ) :  -0.3028
B(  1-C ,  5-C ) :  -0.3918 B(  1-C ,  6-C ) :   1.2131 B(  1-C ,  9-C ) :  -0.1559
B(  1-C , 32-H ) :  -0.1089 B(  2-C ,  3-C ) :   1.3191 B(  2-C ,  4-C ) :  -0.2269
B(  2-C , 28-H ) :   1.1332 B(  3-C ,  4-C ) :   1.1070 B(  3-C ,  6-C ) :   0.1789
B(  3-C ,  7-O ) :   0.3229 B(  3-C , 28-H ) :  -0.1396 B(  3-C , 31-H ) :   1.0755
B(  4-C ,  5-C ) :   1.2918 B(  4-C ,  6-C ) :  -0.1369 B(  4-C ,  7-O ) :  -0.1506
B(  4-C ,  8-C ) :  -0.2304 B(  4-C , 30-H ) :  -0.1072 B(  4-C , 31-H ) :  -0.1048
B(  5-C ,  6-C ) :   1.0330 B(  5-C ,  7-O ) :   0.2219 B(  5-C ,  8-C ) :   0.1918
B(  5-C , 29-H ) :  -0.1736 B(  5-C , 30-H ) :   1.1519 B(  6-C , 29-H ) :   1.0814
B(  6-C , 30-H ) :  -0.1296 B(  7-O ,  8-C ) :   0.9448 B(  8-C , 17-H ) :   0.9076
B(  8-C , 19-H ) :   0.8986 B(  8-C , 20-H ) :   0.7529 B(  9-C , 10-C ) :   0.6942
B(  9-C , 11-C ) :  -0.4446 B(  9-C , 15-C ) :  -0.4258 B(  9-C , 16-C ) :   0.6193
B(  9-C , 23-H ) :  -0.1007 B(  9-C , 24-H ) :  -0.1625 B(  9-C , 27-H ) :   0.1159
B(  9-C , 32-H ) :  -0.1240 B( 10-C , 11-C ) :   1.0977 B( 10-C , 12-C ) :  -0.3566
B( 10-C , 14-C ) :  -0.3869 B( 10-C , 15-C ) :   0.9361 B( 10-C , 26-H ) :  -0.1128
B( 10-C , 27-H ) :  -0.1575 B( 11-C , 12-C ) :   1.2792 B( 11-C , 14-C ) :   0.1552
B( 11-C , 21-H ) :  -0.1333 B( 11-C , 26-H ) :   0.9053 B( 12-C , 13-C ) :   1.1529
B( 12-C , 21-H ) :   1.1238 B( 13-C , 14-C ) :   1.2343 B( 13-C , 22-H ) :   1.0256
B( 14-C , 15-C ) :   1.3198 B( 14-C , 18-H ) :   1.1292 B( 14-C , 22-H ) :  -0.1035
B( 14-C , 27-H ) :  -0.1147 B( 15-C , 18-H ) :  -0.1082 B( 15-C , 27-H ) :   0.7961
B( 16-C , 23-H ) :   1.0196 B( 16-C , 24-H ) :   1.0125 B( 16-C , 25-H ) :   0.9338

MP2 TOTAL ENERGY:     -709.734952431 Eh
FINAL SINGLE POINT ENERGY      -709.734952430539

DIPOLE MOMENT
-------------
                                X             Y             Z
Electronic contribution:      1.18995      -0.76763       1.54202
Nuclear contribution   :      0.34878       2.31044      -2.01606
                        -----------------------------------------
Total Dipole Moment    :      1.53873       1.54281      -0.47404
                        -----------------------------------------
Magnitude (a.u.)       :      2.22995
Magnitude (Debye)      :      5.66809

Rotational constants in cm-1:     0.029012     0.008995     0.007541
Rotational constants in MHz :   869.762743   269.656739   226.076689

                             ****ORCA TERMINATED NORMALLY****
TOTAL RUN TIME: 0 days 4 hours 30 minutes 54 seconds 922 msec
