                         Program Version 4.2.1 -  RELEASE  -
|  1> %pal
|  2>  nprocs 32
|  3> end
|  4> !RI-MP2 aug-cc-pVQZ aug-cc-pVQZ/C TightSCF
|  5> %maxcore 4500
|  6> *xyzfile -1 1  08_3TS.xyz
|  7>
|  8>
|  9>                          ****END OF INPUT****

CARTESIAN COORDINATES (ANGSTROEM)
---------------------------------
  C      1.092843    1.390814   -0.207725
  N      2.308843    0.865587    0.261595
  C      2.563479   -0.461604    0.369642
  N      1.705393   -1.356335    0.027498
  C      0.486861   -0.930385   -0.438877
  C      0.116185    0.404054   -0.595451
  N     -1.117055    0.750818   -1.061192
  C     -2.696413    0.340552    0.209729
  O     -4.105295    0.150297    1.438136
  H     -3.736689    0.181683    2.324908
  O     -3.081789   -0.811853   -0.447627
  H     -1.943049    0.286072    0.980080
  O      0.961785    2.616732   -0.251263
  N      3.808234   -0.816214    0.921691
  H      4.590689   -0.400872    0.429997
  H      3.891363   -1.824210    0.914063
  H      2.954350    1.547848    0.632135
  H     -1.144807    1.765373   -1.119547
  N     -0.378560   -1.927177   -0.838461
  H     -0.219452   -2.814357   -0.388609
  H     -1.351386   -1.641997   -0.906380
  H     -3.808074   -1.102650    0.132109
  H     -3.096253    1.284363   -0.114540

 Total Charge           Charge          ....   -1
 Multiplicity           Mult            ....    1
 Number of Electrons    NEL             ....  100
 Basis Dimension        Dim             .... 1500

ORBITAL ENERGIES
----------------

  NO   OCC          E(Eh)            E(eV)
   0   2.0000     -20.417024      -555.5755
   1   2.0000     -20.373533      -554.3920
   2   2.0000     -20.325449      -553.0836
   3   2.0000     -15.495032      -421.6413
   4   2.0000     -15.486990      -421.4224
   5   2.0000     -15.429033      -419.8453
   6   2.0000     -15.414352      -419.4458
   7   2.0000     -15.323140      -416.9638
   8   2.0000     -11.241915      -305.9081
   9   2.0000     -11.208810      -305.0072
  10   2.0000     -11.205711      -304.9229
  11   2.0000     -11.161421      -303.7177
  12   2.0000     -11.093961      -301.8820
  13   2.0000      -1.252508       -34.0825
  14   2.0000      -1.241719       -33.7889
  15   2.0000      -1.203851       -32.7584
  16   2.0000      -1.114172       -30.3182
  17   2.0000      -1.090532       -29.6749
  18   2.0000      -1.070973       -29.1426
  19   2.0000      -1.032846       -28.1052
  20   2.0000      -0.986730       -26.8503
  21   2.0000      -0.835468       -22.7342
  22   2.0000      -0.754514       -20.5314
  23   2.0000      -0.732383       -19.9291
  24   2.0000      -0.727181       -19.7876
  25   2.0000      -0.642937       -17.4952
  26   2.0000      -0.604959       -16.4618
  27   2.0000      -0.581301       -15.8180
  28   2.0000      -0.561622       -15.2825
  29   2.0000      -0.551094       -14.9960
  30   2.0000      -0.527190       -14.3456
  31   2.0000      -0.514243       -13.9933
  32   2.0000      -0.505443       -13.7538
  33   2.0000      -0.492387       -13.3985
  34   2.0000      -0.467874       -12.7315
  35   2.0000      -0.465207       -12.6589
  36   2.0000      -0.432419       -11.7667
  37   2.0000      -0.411005       -11.1840
  38   2.0000      -0.390745       -10.6327
  39   2.0000      -0.383817       -10.4442
  40   2.0000      -0.331928        -9.0322
  41   2.0000      -0.327519        -8.9122
  42   2.0000      -0.322068        -8.7639
  43   2.0000      -0.305545        -8.3143
  44   2.0000      -0.297848        -8.1048
  45   2.0000      -0.265907        -7.2357
  46   2.0000      -0.261820        -7.1245
  47   2.0000      -0.246047        -6.6953
  48   2.0000      -0.225802        -6.1444
  49   2.0000      -0.081589        -2.2201
  50   0.0000       0.083567         2.2740
  51   0.0000       0.101116         2.7515
  52   0.0000       0.110812         3.0153
  53   0.0000       0.116888         3.1807
  54   0.0000       0.123135         3.3507

MULLIKEN ATOMIC CHARGES
-----------------------
   0 C :    1.451472
   1 N :   -0.664543
   2 C :    0.730256
   3 N :   -0.775427
   4 C :    1.101137
   5 C :   -0.179488
   6 N :   -0.952929
   7 C :    0.418536
   8 O :   -1.038644
   9 H :    0.258640
  10 O :   -0.813990
  11 H :    0.244404
  12 O :   -1.015318
  13 N :   -0.816157
  14 H :    0.285341
  15 H :    0.287722
  16 H :    0.047924
  17 H :    0.153354
  18 N :   -0.936528
  19 H :    0.234823
  20 H :    0.274967
  21 H :    0.313291
  22 H :    0.391156
Sum of atomic charges:   -1.0000000

LOEWDIN ATOMIC CHARGES
----------------------
   0 C :   -0.894904
   1 N :    0.782169
   2 C :   -0.665766
   3 N :    0.583038
   4 C :   -0.534266
   5 C :   -0.429951
   6 N :    0.843580
   7 C :    0.044253
   8 O :    1.043436
   9 H :   -0.995829
  10 O :    1.298682
  11 H :   -0.369037
  12 O :    0.651485
  13 N :    1.252402
  14 H :   -0.507400
  15 H :   -0.551640
  16 H :   -0.511001
  17 H :   -0.704986
  18 N :    1.236227
  19 H :   -0.517200
  20 H :   -0.709580
  21 H :   -0.980605
  22 H :   -0.363108

  Mayer bond orders larger than 0.100000
B(  0-C ,  1-N ) :   0.9678 B(  0-C ,  4-C ) :  -0.2897 B(  0-C ,  5-C ) :   1.4479
B(  0-C , 12-O ) :   0.5383 B(  1-N ,  2-C ) :   1.0528 B(  1-N , 12-O ) :   0.2324
B(  1-N , 16-H ) :   1.2094 B(  2-C ,  3-N ) :   1.5965 B(  2-C , 13-N ) :   0.9587
B(  3-N ,  4-C ) :   0.5583 B(  3-N ,  5-C ) :   0.1078 B(  4-C ,  5-C ) :   1.4449
B(  4-C ,  6-N ) :   0.1300 B(  4-C , 18-N ) :   0.6651 B(  5-C ,  6-N ) :   0.5845
B(  5-C , 12-O ) :   0.5121 B(  6-N ,  7-C ) :   0.3386 B(  6-N , 17-H ) :   0.9792
B(  7-C ,  8-O ) :   0.1635 B(  7-C , 10-O ) :   0.6573 B(  7-C , 11-H ) :   0.9192
B(  7-C , 22-H ) :   0.8460 B(  8-O ,  9-H ) :   0.9850 B( 10-O , 21-H ) :   0.8817
B( 13-N , 14-H ) :   0.9069 B( 13-N , 15-H ) :   0.8816 B( 18-N , 19-H ) :   0.9841
B( 18-N , 20-H ) :   0.8730

MP2 TOTAL ENERGY:     -695.031969339 Eh
FINAL SINGLE POINT ENERGY      -695.031969338706

DIPOLE MOMENT
-------------
                                X             Y             Z
Electronic contribution:      7.80123       1.38226      -2.05808
Nuclear contribution   :     -3.87764      -2.67036       2.85743
                        -----------------------------------------
Total Dipole Moment    :      3.92359      -1.28811       0.79936
                        -----------------------------------------
Magnitude (a.u.)       :      4.20627
Magnitude (Debye)      :     10.69149

Rotational constants in cm-1:     0.043974     0.014739     0.012610
Rotational constants in MHz :  1318.292701   441.849482   378.030046

                             ****ORCA TERMINATED NORMALLY****
TOTAL RUN TIME: 0 days 1 hours 31 minutes 3 seconds 854 msec
