                         Program Version 4.2.1 -  RELEASE  -
|  1> %pal
|  2>  nprocs 32
|  3> end
|  4> !RI-MP2 aug-cc-pVQZ aug-cc-pVQZ/C TightSCF
|  5> %maxcore 4500
|  6> *xyzfile 0 1  05_5R1.xyz
|  7>
|  8>
|  9>                          ****END OF INPUT****

CARTESIAN COORDINATES (ANGSTROEM)
---------------------------------
  H     -1.373367   -1.850974   -0.228650
  C     -0.418297    1.337126   -0.094394
  C      0.898623    1.115437   -0.063960
  H      2.474692   -0.406878    0.273122
  H      0.889056   -2.288410   -0.010493
  H     -1.575352    0.177250    1.303184
  H     -0.827314    2.320957   -0.287732
  H      1.594540    1.927889   -0.240282
  C     -1.367504    0.208821    0.217602
  C      1.418882   -0.227081    0.135415
  N     -0.774631   -1.042852   -0.238308
  C      0.562168   -1.255508   -0.003001
  H     -2.323063    0.347366   -0.290974

 Total Charge           Charge          ....    0
 Multiplicity           Mult            ....    1
 Number of Electrons    NEL             ....   44
 Basis Dimension        Dim             ....  802

ORBITAL ENERGIES
----------------

  NO   OCC          E(Eh)            E(eV)
   0   2.0000     -15.566538      -423.5870
   1   2.0000     -11.268040      -306.6190
   2   2.0000     -11.262112      -306.4576
   3   2.0000     -11.222493      -305.3796
   4   2.0000     -11.215257      -305.1827
   5   2.0000     -11.201365      -304.8046
   6   2.0000      -1.247118       -33.9358
   7   2.0000      -1.067716       -29.0540
   8   2.0000      -1.021121       -27.7861
   9   2.0000      -0.882090       -24.0029
  10   2.0000      -0.822519       -22.3819
  11   2.0000      -0.727555       -19.7978
  12   2.0000      -0.678425       -18.4609
  13   2.0000      -0.625878       -17.0310
  14   2.0000      -0.618281       -16.8243
  15   2.0000      -0.598557       -16.2876
  16   2.0000      -0.577578       -15.7167
  17   2.0000      -0.507428       -13.8078
  18   2.0000      -0.490040       -13.3347
  19   2.0000      -0.459517       -12.5041
  20   2.0000      -0.393327       -10.7030
  21   2.0000      -0.271163        -7.3787
  22   0.0000       0.023630         0.6430
  23   0.0000       0.030796         0.8380
  24   0.0000       0.032643         0.8883
  25   0.0000       0.041467         1.1284
  26   0.0000       0.044423         1.2088

MULLIKEN ATOMIC CHARGES
-----------------------
   0 H :    0.173693
   1 C :   -0.439434
   2 C :   -0.408026
   3 H :    0.303150
   4 H :    0.434980
   5 H :    0.246928
   6 H :    0.388296
   7 H :    0.331313
   8 C :   -0.248641
   9 C :   -0.370952
  10 N :   -0.469094
  11 C :   -0.238196
  12 H :    0.295983
Sum of atomic charges:    0.0000000

LOEWDIN ATOMIC CHARGES
----------------------
   0 H :   -0.486607
   1 C :    0.363432
   2 C :    0.311609
   3 H :   -0.353240
   4 H :   -0.311930
   5 H :   -0.270685
   6 H :   -0.320176
   7 H :   -0.331787
   8 C :    0.333229
   9 C :    0.325762
  10 N :    0.844493
  11 C :    0.192879
  12 H :   -0.296978

  Mayer bond orders larger than 0.100000
B(  0-H , 10-N ) :   1.0541 B(  1-C ,  2-C ) :   1.6096 B(  1-C ,  6-H ) :   0.8577
B(  1-C ,  8-C ) :   1.0152 B(  2-C ,  7-H ) :   0.9802 B(  2-C ,  9-C ) :   0.9143
B(  3-H ,  9-C ) :   0.9930 B(  4-H , 11-C ) :   0.8762 B(  5-H ,  8-C ) :   0.8664
B(  8-C , 10-N ) :   0.8356 B(  8-C , 12-H ) :   0.9435 B(  9-C , 11-C ) :   1.6018
B( 10-N , 11-C ) :   0.9776

MP2 TOTAL ENERGY:     -249.008173696 Eh
FINAL SINGLE POINT ENERGY      -249.008173695724

DIPOLE MOMENT
-------------
                                X             Y             Z
Electronic contribution:      0.71747      -0.64421      -0.41837
Nuclear contribution   :     -1.16678       0.22521       0.52644
                        -----------------------------------------
Total Dipole Moment    :     -0.44931      -0.41900       0.10807
                        -----------------------------------------
Magnitude (a.u.)       :      0.62379
Magnitude (Debye)      :      1.58556

Rotational constants in cm-1:     0.180184     0.178027     0.093313
Rotational constants in MHz :  5401.785424  5337.110879  2797.444090

                             ****ORCA TERMINATED NORMALLY****
TOTAL RUN TIME: 0 days 0 hours 13 minutes 44 seconds 960 msec
