                         Program Version 4.2.1 -  RELEASE  -
|  1> %pal
|  2>  nprocs 32
|  3> end
|  4> !RI-MP2 aug-cc-pVQZ aug-cc-pVQZ/C TightSCF
|  5> %maxcore 4500
|  6> *xyzfile -1 1  09_24R.xyz
|  7>
|  8>
|  9>                          ****END OF INPUT****

CARTESIAN COORDINATES (ANGSTROEM)
---------------------------------
  C      3.021312   -0.098898   -0.262210
  C      2.232577    1.209891   -0.313972
  C      0.854298    1.088921   -0.977880
  H      2.806281    1.965911   -0.858749
  H      2.129673    1.588542    0.707947
  C     -0.079156    0.111825   -0.305121
  H      0.973022    0.800431   -2.026506
  H      0.370833    2.076841   -0.973185
  C     -0.702230   -0.833586   -1.007573
  C     -0.236328    0.298293    1.176968
  H      0.711399    0.098303    1.684973
  H     -1.005040   -0.340945    1.607698
  H     -0.499243    1.337745    1.399110
  C     -1.683228   -1.856397   -0.514404
  C     -3.150576   -1.472108   -0.812799
  H     -1.561119   -2.038120    0.555247
  H     -1.475900   -2.812379   -1.006257
  C     -3.643049   -0.330041    0.039612
  H     -3.789089   -2.348866   -0.651444
  H     -3.232966   -1.206904   -1.870319
  C     -3.639332    0.915143   -0.431499
  C     -3.995559    2.180956    0.284880
  H     -3.296241    1.051818   -1.454103
  H     -4.365750    2.011496    1.295533
  H     -4.761831    2.738944   -0.262567
  H     -3.120096    2.834132    0.357107
  C     -4.054562   -0.715890    1.433415
  H     -3.255510   -1.272997    1.930795
  H     -4.926839   -1.377596    1.403349
  H     -4.300344    0.138312    2.061791
  C      4.247754   -0.089078    0.604977
  H      3.284218   -0.362685   -1.331581
  H      2.349575   -0.902615    0.064878
  C      5.266410    0.890957    0.086939
  H      5.565545    0.663146   -0.980822
  H      6.191233    0.867461    0.674859
  H      4.915112    1.928298    0.089916
  C      4.849801   -1.467804    0.630860
  H      5.182503   -1.808804   -0.394689
  H      4.142288   -2.225189    0.989341
  H      5.738325   -1.523801    1.270885
  H     -0.498836   -0.873582   -2.076369

 Total Charge           Charge          ....   -1
 Multiplicity           Mult            ....    1
 Number of Electrons    NEL             ....  118
 Basis Dimension        Dim             .... 2442

ORBITAL ENERGIES
----------------

  NO   OCC          E(Eh)            E(eV)
   0   2.0000     -11.147584      -303.3412
   1   2.0000     -11.145472      -303.2837
   2   2.0000     -11.144990      -303.2706
   3   2.0000     -11.140022      -303.1354
   4   2.0000     -11.137501      -303.0668
   5   2.0000     -11.130973      -302.8892
   6   2.0000     -11.119137      -302.5671
   7   2.0000     -11.105941      -302.2080
   8   2.0000     -11.101448      -302.0858
   9   2.0000     -11.095665      -301.9284
  10   2.0000     -11.064028      -301.0675
  11   2.0000     -11.036336      -300.3140
  12   2.0000     -11.029506      -300.1281
  13   2.0000     -11.029024      -300.1150
  14   2.0000     -10.971171      -298.5407
  15   2.0000      -1.031564       -28.0703
  16   2.0000      -0.992561       -27.0090
  17   2.0000      -0.943097       -25.6630
  18   2.0000      -0.908169       -24.7125
  19   2.0000      -0.891001       -24.2454
  20   2.0000      -0.851529       -23.1713
  21   2.0000      -0.837329       -22.7849
  22   2.0000      -0.810393       -22.0519
  23   2.0000      -0.770580       -20.9685
  24   2.0000      -0.734952       -19.9991
  25   2.0000      -0.728865       -19.8334
  26   2.0000      -0.653601       -17.7854
  27   2.0000      -0.627573       -17.0771
  28   2.0000      -0.597564       -16.2605
  29   2.0000      -0.566983       -15.4284
  30   2.0000      -0.537633       -14.6297
  31   2.0000      -0.532651       -14.4942
  32   2.0000      -0.527605       -14.3569
  33   2.0000      -0.506444       -13.7810
  34   2.0000      -0.486373       -13.2349
  35   2.0000      -0.483898       -13.1675
  36   2.0000      -0.468167       -12.7395
  37   2.0000      -0.464933       -12.6515
  38   2.0000      -0.457277       -12.4432
  39   2.0000      -0.450395       -12.2559
  40   2.0000      -0.437395       -11.9021
  41   2.0000      -0.427107       -11.6222
  42   2.0000      -0.419396       -11.4123
  43   2.0000      -0.415679       -11.3112
  44   2.0000      -0.403812       -10.9883
  45   2.0000      -0.400271       -10.8919
  46   2.0000      -0.387760       -10.5515
  47   2.0000      -0.380875       -10.3641
  48   2.0000      -0.374001       -10.1771
  49   2.0000      -0.355409        -9.6712
  50   2.0000      -0.339595        -9.2409
  51   2.0000      -0.332614        -9.0509
  52   2.0000      -0.317814        -8.6482
  53   2.0000      -0.302207        -8.2235
  54   2.0000      -0.263616        -7.1734
  55   2.0000      -0.260763        -7.0957
  56   2.0000      -0.255944        -6.9646
  57   2.0000      -0.222968        -6.0673
  58   2.0000      -0.033163        -0.9024
  59   0.0000       0.075946         2.0666
  60   0.0000       0.080958         2.2030
  61   0.0000       0.085326         2.3219
  62   0.0000       0.096972         2.6387
  63   0.0000       0.098654         2.6845

MULLIKEN ATOMIC CHARGES
-----------------------
   0 C :   -0.364143
   1 C :   -0.346637
   2 C :   -0.506323
   3 H :    0.169659
   4 H :    0.221845
   5 C :    0.965792
   6 H :    0.173864
   7 H :    0.227179
   8 C :   -0.481842
   9 C :   -1.143391
  10 H :    0.222569
  11 H :    0.472713
  12 H :    0.190474
  13 C :   -0.371627
  14 C :   -0.563699
  15 H :    0.178674
  16 H :    0.253701
  17 C :    0.710624
  18 H :    0.233972
  19 H :    0.237326
  20 C :   -0.482912
  21 C :   -0.929667
  22 H :    0.279997
  23 H :    0.238849
  24 H :    0.317769
  25 H :    0.217778
  26 C :   -1.069904
  27 H :    0.203728
  28 H :    0.333369
  29 H :    0.233689
  30 C :   -0.035123
  31 H :    0.084323
  32 H :    0.574549
  33 C :   -1.260489
  34 H :   -0.005397
  35 H :    0.325410
  36 H :    0.287714
  37 C :   -1.349457
  38 H :    0.026831
  39 H :    0.212831
  40 H :    0.293992
  41 H :    0.021391
Sum of atomic charges:   -1.0000000

LOEWDIN ATOMIC CHARGES
----------------------
   0 C :    0.356250
   1 C :    0.480028
   2 C :    0.494779
   3 H :   -0.286926
   4 H :   -0.304338
   5 C :   -0.016849
   6 H :   -0.305245
   7 H :   -0.268608
   8 C :    0.400967
   9 C :    0.913414
  10 H :   -0.287528
  11 H :   -0.328968
  12 H :   -0.264345
  13 C :    0.509612
  14 C :    0.490439
  15 H :   -0.323498
  16 H :   -0.273201
  17 C :   -0.031020
  18 H :   -0.277206
  19 H :   -0.297782
  20 C :    0.387752
  21 C :    0.904265
  22 H :   -0.324565
  23 H :   -0.334569
  24 H :   -0.290326
  25 H :   -0.286072
  26 C :    0.907092
  27 H :   -0.293318
  28 H :   -0.271460
  29 H :   -0.321583
  30 C :   -0.038215
  31 H :   -0.274229
  32 H :   -0.336272
  33 C :    0.741495
  34 H :   -0.305269
  35 H :   -0.334814
  36 H :   -0.344357
  37 C :    0.734951
  38 H :   -0.309823
  39 H :   -0.334535
  40 H :   -0.337064
  41 H :   -0.319059

  Mayer bond orders larger than 0.100000
B(  0-C ,  1-C ) :   0.8178 B(  0-C ,  5-C ) :   0.1281 B(  0-C , 30-C ) :   0.4882
B(  0-C , 31-H ) :   0.7721 B(  0-C , 32-H ) :   0.8254 B(  0-C , 33-C ) :  -0.1726
B(  0-C , 37-C ) :  -0.1299 B(  1-C ,  2-C ) :   0.8682 B(  1-C ,  3-H ) :   1.0300
B(  1-C ,  4-H ) :   0.9157 B(  1-C ,  5-C ) :  -0.1053 B(  2-C ,  5-C ) :   0.5350
B(  2-C ,  6-H ) :   1.0152 B(  2-C ,  7-H ) :   0.9681 B(  2-C ,  8-C ) :   0.1151
B(  2-C , 30-C ) :  -0.1270 B(  5-C ,  6-H ) :  -0.1025 B(  5-C ,  8-C ) :   1.3138
B(  5-C ,  9-C ) :   0.3238 B(  5-C , 11-H ) :  -0.1313 B(  5-C , 12-H ) :  -0.1229
B(  5-C , 13-C ) :  -0.2675 B(  5-C , 30-C ) :  -0.2850 B(  5-C , 41-H ) :  -0.1343
B(  8-C , 13-C ) :   0.7338 B(  8-C , 14-C ) :  -0.1405 B(  8-C , 16-H ) :  -0.1599
B(  8-C , 41-H ) :   1.2578 B(  9-C , 10-H ) :   1.0005 B(  9-C , 11-H ) :   0.8112
B(  9-C , 12-H ) :   1.1084 B( 10-H , 30-C ) :   0.1276 B( 13-C , 14-C ) :   0.9672
B( 13-C , 15-H ) :   0.9995 B( 13-C , 16-H ) :   0.9963 B( 14-C , 17-C ) :   0.7078
B( 14-C , 18-H ) :   1.0555 B( 14-C , 19-H ) :   1.0116 B( 17-C , 18-H ) :  -0.1677
B( 17-C , 20-C ) :   1.4349 B( 17-C , 26-C ) :   0.4137 B( 17-C , 27-H ) :  -0.1201
B( 17-C , 28-H ) :  -0.1122 B( 17-C , 29-H ) :  -0.1337 B( 20-C , 21-C ) :   0.6867
B( 20-C , 22-H ) :   1.0239 B( 20-C , 24-H ) :  -0.1758 B( 21-C , 23-H ) :   0.9685
B( 21-C , 24-H ) :   1.0270 B( 21-C , 25-H ) :   1.0250 B( 26-C , 27-H ) :   1.0629
B( 26-C , 28-H ) :   0.9725 B( 26-C , 29-H ) :   1.0941 B( 30-C , 31-H ) :   0.2196
B( 30-C , 32-H ) :  -0.2260 B( 30-C , 33-C ) :   1.1070 B( 30-C , 37-C ) :   1.2473
B( 30-C , 40-H ) :  -0.1135 B( 31-H , 33-C ) :   0.1187 B( 31-H , 37-C ) :   0.1007
B( 32-H , 37-C ) :  -0.1634 B( 33-C , 34-H ) :   1.0441 B( 33-C , 35-H ) :   0.9496
B( 33-C , 36-H ) :   0.9445 B( 33-C , 37-C ) :   0.1309 B( 34-H , 37-C ) :   0.1070
B( 37-C , 38-H ) :   1.0017 B( 37-C , 39-H ) :   0.9887 B( 37-C , 40-H ) :   1.0141

MP2 TOTAL ENERGY:     -586.639179032 Eh
FINAL SINGLE POINT ENERGY      -586.639179032415

DIPOLE MOMENT
-------------
                                X             Y             Z
Electronic contribution:    -11.62715      -0.82104      -2.84220
Nuclear contribution   :      4.52564       1.06688       2.33830
                        -----------------------------------------
Total Dipole Moment    :     -7.10151       0.24584      -0.50390
                        -----------------------------------------
Magnitude (a.u.)       :      7.12361
Magnitude (Debye)      :     18.10677

Rotational constants in cm-1:     0.039346     0.007133     0.006685
Rotational constants in MHz :  1179.570677   213.829837   200.410364

                             ****ORCA TERMINATED NORMALLY****
TOTAL RUN TIME: 0 days 6 hours 30 minutes 44 seconds 530 msec
