                         Program Version 4.2.1 -  RELEASE  -
|  1> %pal
|  2>  nprocs 32
|  3> end
|  4> !RI-MP2 aug-cc-pVQZ aug-cc-pVQZ/C TightSCF
|  5> %maxcore 4500
|  6> *xyzfile 0 1  05_40R1.xyz
|  7>
|  8>
|  9>                          ****END OF INPUT****

CARTESIAN COORDINATES (ANGSTROEM)
---------------------------------
  O      3.651402   -0.049156   -0.000098
  C      2.549833    0.456912   -0.000026
  O      2.386464    1.797103    0.000027
  C      3.587059    2.567374   -0.000016
  C      1.259037   -0.232485    0.000017
  C     -0.000000    0.607210    0.000014
  C     -1.259037   -0.232485    0.000009
  C     -1.221633   -1.580883    0.000033
  N     -0.000000   -2.225495    0.000064
  C      1.221633   -1.580883    0.000053
  C     -2.401754   -2.505966    0.000036
  C     -2.549833    0.456912   -0.000017
  O     -2.386464    1.797103   -0.000054
  C     -3.587059    2.567374   -0.000082
  C      2.401754   -2.505966    0.000066
  O     -3.651402   -0.049156   -0.000005
  H     -4.182615    2.349076    0.886509
  H     -4.182635    2.348984   -0.886637
  H     -3.268624    3.606793   -0.000138
  H      0.000000   -3.230770    0.000094
  H      0.000003    1.277448   -0.864026
  H     -0.000003    1.277449    0.864054
  H     -3.032607   -2.332819   -0.870524
  H     -3.032566   -2.332861    0.870635
  H     -2.071998   -3.546911    0.000004
  H      3.032722   -2.332664    0.870509
  H      3.032451   -2.333016   -0.870650
  H      2.071998   -3.546911    0.000320
  H      4.182582    2.349049   -0.886622
  H      4.182669    2.349011    0.886523
  H      3.268625    3.606793    0.000022

 Total Charge           Charge          ....    0
 Multiplicity           Mult            ....    1
 Number of Electrons    NEL             ....  120
 Basis Dimension        Dim             .... 1970

ORBITAL ENERGIES
----------------

  NO   OCC          E(Eh)            E(eV)
   0   2.0000     -20.588646      -560.2455
   1   2.0000     -20.588646      -560.2455
   2   2.0000     -20.522079      -558.4342
   3   2.0000     -20.522079      -558.4342
   4   2.0000     -15.609092      -424.7450
   5   2.0000     -11.366604      -309.3010
   6   2.0000     -11.366603      -309.3010
   7   2.0000     -11.307595      -307.6953
   8   2.0000     -11.307575      -307.6948
   9   2.0000     -11.275428      -306.8200
  10   2.0000     -11.275428      -306.8200
  11   2.0000     -11.234647      -305.7103
  12   2.0000     -11.234647      -305.7103
  13   2.0000     -11.227942      -305.5278
  14   2.0000     -11.224226      -305.4267
  15   2.0000     -11.224167      -305.4251
  16   2.0000      -1.449975       -39.4558
  17   2.0000      -1.449722       -39.4489
  18   2.0000      -1.343907       -36.5696
  19   2.0000      -1.343702       -36.5640
  20   2.0000      -1.300736       -35.3948
  21   2.0000      -1.105548       -30.0835
  22   2.0000      -1.097083       -29.8531
  23   2.0000      -1.002221       -27.2718
  24   2.0000      -0.996153       -27.1067
  25   2.0000      -0.965182       -26.2639
  26   2.0000      -0.937352       -25.5066
  27   2.0000      -0.895216       -24.3601
  28   2.0000      -0.848895       -23.0996
  29   2.0000      -0.823118       -22.3982
  30   2.0000      -0.767449       -20.8833
  31   2.0000      -0.743022       -20.2187
  32   2.0000      -0.695523       -18.9261
  33   2.0000      -0.672889       -18.3102
  34   2.0000      -0.671230       -18.2651
  35   2.0000      -0.669152       -18.2086
  36   2.0000      -0.663511       -18.0550
  37   2.0000      -0.655152       -17.8276
  38   2.0000      -0.645317       -17.5600
  39   2.0000      -0.624185       -16.9849
  40   2.0000      -0.621914       -16.9231
  41   2.0000      -0.586081       -15.9481
  42   2.0000      -0.584517       -15.9055
  43   2.0000      -0.578332       -15.7372
  44   2.0000      -0.570942       -15.5361
  45   2.0000      -0.568868       -15.4797
  46   2.0000      -0.548296       -14.9199
  47   2.0000      -0.539469       -14.6797
  48   2.0000      -0.534637       -14.5482
  49   2.0000      -0.529656       -14.4127
  50   2.0000      -0.527906       -14.3651
  51   2.0000      -0.516510       -14.0550
  52   2.0000      -0.516330       -14.0501
  53   2.0000      -0.502936       -13.6856
  54   2.0000      -0.453914       -12.3516
  55   2.0000      -0.453762       -12.3475
  56   2.0000      -0.446019       -12.1368
  57   2.0000      -0.425173       -11.5696
  58   2.0000      -0.373007       -10.1500
  59   2.0000      -0.296880        -8.0785
  60   0.0000       0.018086         0.4921
  61   0.0000       0.025957         0.7063
  62   0.0000       0.028767         0.7828
  63   0.0000       0.034513         0.9391
  64   0.0000       0.035679         0.9709

MULLIKEN ATOMIC CHARGES
-----------------------
   0 O :   -0.991779
   1 C :    1.894983
   2 O :   -0.797294
   3 C :   -0.871709
   4 C :   -1.141230
   5 C :    0.609556
   6 C :   -1.141846
   7 C :    0.597090
   8 N :   -0.141546
   9 C :    0.597138
  10 C :   -1.072615
  11 C :    1.895572
  12 O :   -0.797348
  13 C :   -0.871801
  14 C :   -1.072276
  15 O :   -0.991767
  16 H :    0.325922
  17 H :    0.325923
  18 H :    0.431400
  19 H :   -0.027179
  20 H :    0.253803
  21 H :    0.253812
  22 H :    0.276195
  23 H :    0.276188
  24 H :    0.272469
  25 H :    0.276189
  26 H :    0.276159
  27 H :    0.272702
  28 H :    0.325935
  29 H :    0.325911
  30 H :    0.431443
Sum of atomic charges:    0.0000000

LOEWDIN ATOMIC CHARGES
----------------------
   0 O :    0.735472
   1 C :   -1.083197
   2 O :    0.850749
   3 C :    0.576052
   4 C :   -0.081294
   5 C :    0.414631
   6 C :   -0.081295
   7 C :   -0.159575
   8 N :    0.885730
   9 C :   -0.159575
  10 C :    0.916731
  11 C :   -1.083197
  12 O :    0.850749
  13 C :    0.576052
  14 C :    0.916731
  15 O :    0.735472
  16 H :   -0.316424
  17 H :   -0.316428
  18 H :   -0.322361
  19 H :   -0.522848
  20 H :   -0.299152
  21 H :   -0.299147
  22 H :   -0.295183
  23 H :   -0.295168
  24 H :   -0.298980
  25 H :   -0.295207
  26 H :   -0.295143
  27 H :   -0.298980
  28 H :   -0.316427
  29 H :   -0.316425
  30 H :   -0.322361

  Mayer bond orders larger than 0.100000
B(  0-O ,  1-C ) :   0.5548 B(  0-O ,  2-O ) :   0.1704 B(  0-O ,  4-C ) :   0.7903
B(  0-O ,  9-C ) :  -0.1696 B(  1-C ,  2-O ) :   0.6785 B(  1-C ,  3-C ) :  -0.2253
B(  1-C ,  4-C ) :   1.6796 B(  1-C ,  5-C ) :  -0.3802 B(  1-C ,  6-C ) :   0.1043
B(  1-C ,  9-C ) :  -0.3178 B(  2-O ,  3-C ) :   0.9049 B(  2-O ,  4-C ) :   0.1289
B(  3-C , 28-H ) :   0.9289 B(  3-C , 29-H ) :   0.9289 B(  3-C , 30-H ) :   0.8489
B(  4-C ,  5-C ) :   0.3529 B(  4-C ,  6-C ) :  -0.3466 B(  4-C ,  7-C ) :   0.2323
B(  4-C ,  9-C ) :   0.8297 B(  4-C , 11-C ) :   0.1041 B(  5-C ,  6-C ) :   0.3535
B(  5-C ,  7-C ) :  -0.2293 B(  5-C ,  9-C ) :  -0.2300 B(  5-C , 11-C ) :  -0.3799
B(  5-C , 20-H ) :   0.8316 B(  5-C , 21-H ) :   0.8315 B(  6-C ,  7-C ) :   0.8300
B(  6-C ,  9-C ) :   0.2321 B(  6-C , 11-C ) :   1.6788 B(  6-C , 12-O ) :   0.1295
B(  6-C , 15-O ) :   0.7901 B(  7-C ,  8-N ) :   0.5554 B(  7-C , 10-C ) :   0.5044
B(  7-C , 11-C ) :  -0.3185 B(  7-C , 15-O ) :  -0.1695 B(  7-C , 19-H ) :  -0.1240
B(  7-C , 22-H ) :  -0.1798 B(  7-C , 23-H ) :  -0.1797 B(  7-C , 24-H ) :  -0.1769
B(  8-N ,  9-C ) :   0.5550 B(  8-N , 10-C ) :  -0.1212 B(  8-N , 14-C ) :  -0.1214
B(  8-N , 19-H ) :   1.2933 B(  9-C , 14-C ) :   0.5045 B(  9-C , 19-H ) :  -0.1243
B(  9-C , 25-H ) :  -0.1797 B(  9-C , 26-H ) :  -0.1797 B(  9-C , 27-H ) :  -0.1767
B( 10-C , 22-H ) :   1.0386 B( 10-C , 23-H ) :   1.0386 B( 10-C , 24-H ) :   1.0286
B( 11-C , 12-O ) :   0.6783 B( 11-C , 13-C ) :  -0.2254 B( 11-C , 15-O ) :   0.5547
B( 12-O , 13-C ) :   0.9049 B( 12-O , 15-O ) :   0.1705 B( 13-C , 16-H ) :   0.9289
B( 13-C , 17-H ) :   0.9289 B( 13-C , 18-H ) :   0.8489 B( 14-C , 25-H ) :   1.0386
B( 14-C , 26-H ) :   1.0386 B( 14-C , 27-H ) :   1.0283

MP2 TOTAL ENERGY:     -782.683018373 Eh
FINAL SINGLE POINT ENERGY      -782.683018372690

DIPOLE MOMENT
-------------
                                X             Y             Z
Electronic contribution:     -0.00000      -0.03066      -0.00002
Nuclear contribution   :      0.00000      -0.44955       0.00007
                        -----------------------------------------
Total Dipole Moment    :      0.00000      -0.48021       0.00005
                        -----------------------------------------
Magnitude (a.u.)       :      0.48021
Magnitude (Debye)      :      1.22060

Rotational constants in cm-1:     0.025158     0.011771     0.008078
Rotational constants in MHz :   754.204331   352.876799   242.180045

                             ****ORCA TERMINATED NORMALLY****
TOTAL RUN TIME: 0 days 3 hours 25 minutes 11 seconds 397 msec
