                         Program Version 4.2.1 -  RELEASE  -
|  1> %pal
|  2>  nprocs 32
|  3> end
|  4> !RI-MP2 aug-cc-pVQZ aug-cc-pVQZ/C TightSCF
|  5> %maxcore 4500
|  6> *xyzfile 0 2  06_33R2.xyz
|  7>
|  8>
|  9>                          ****END OF INPUT****

CARTESIAN COORDINATES (ANGSTROEM)
---------------------------------
  C     -0.286274    0.569342    0.000000
  C      0.181787   -0.000269    1.294031
  Cl    -0.694142    2.260509    0.000000
  C      0.181787   -0.000269   -1.294031
  C      0.181787   -1.532300    1.257445
  C      0.866284   -2.062940    0.000000
  C      0.181787   -1.532300   -1.257445
  H     -0.435915    0.370445    2.114844
  H      1.206143    0.356101    1.494573
  H      1.206143    0.356101   -1.494573
  H     -0.435915    0.370445   -2.114844
  H     -0.852101   -1.891594    1.281347
  H      0.672418   -1.916472    2.154868
  H      0.856738   -3.155703    0.000000
  H      1.919645   -1.757498    0.000000
  H     -0.852101   -1.891594   -1.281347
  H      0.672418   -1.916472   -2.154868

 Total Charge           Charge          ....    0
 Multiplicity           Mult            ....    2
 Number of Electrons    NEL             ....   63
 Basis Dimension        Dim             .... 1024

ORBITAL ENERGIES
----------------
                 SPIN UP ORBITALS
  NO   OCC          E(Eh)            E(eV)
   0   1.0000    -104.826583     -2852.4763
   1   1.0000     -11.289267      -307.1966
   2   1.0000     -11.231691      -305.6298
   3   1.0000     -11.231671      -305.6293
   4   1.0000     -11.226577      -305.4907
   5   1.0000     -11.226515      -305.4890
   6   1.0000     -11.223809      -305.4154
   7   1.0000     -10.552122      -287.1378
   8   1.0000      -8.019317      -218.2167
   9   1.0000      -8.017650      -218.1713
  10   1.0000      -8.017541      -218.1684
  11   1.0000      -1.172619       -31.9086
  12   1.0000      -1.096599       -29.8400
  13   1.0000      -1.022063       -27.8117
  14   1.0000      -0.986252       -26.8373
  15   1.0000      -0.854054       -23.2400
  16   1.0000      -0.821225       -22.3467
  17   1.0000      -0.744383       -20.2557
  18   1.0000      -0.658534       -17.9196
  19   1.0000      -0.624408       -16.9910
  20   1.0000      -0.617667       -16.8076
  21   1.0000      -0.603037       -16.4095
  22   1.0000      -0.567277       -15.4364
  23   1.0000      -0.545323       -14.8390
  24   1.0000      -0.542812       -14.7707
  25   1.0000      -0.498070       -13.5532
  26   1.0000      -0.496867       -13.5204
  27   1.0000      -0.466341       -12.6898
  28   1.0000      -0.462706       -12.5909
  29   1.0000      -0.450740       -12.2653
  30   1.0000      -0.430525       -11.7152
  31   1.0000      -0.332137        -9.0379
  32   0.0000       0.024930         0.6784
  33   0.0000       0.029381         0.7995
  34   0.0000       0.032660         0.8887
  35   0.0000       0.035272         0.9598
  36   0.0000       0.048456         1.3186

                 SPIN DOWN ORBITALS
  NO   OCC          E(Eh)            E(eV)
   0   1.0000    -104.826378     -2852.4708
   1   1.0000     -11.262888      -306.4788
   2   1.0000     -11.234343      -305.7020
   3   1.0000     -11.234320      -305.7014
   4   1.0000     -11.226133      -305.4786
   5   1.0000     -11.226052      -305.4764
   6   1.0000     -11.223928      -305.4186
   7   1.0000     -10.551869      -287.1309
   8   1.0000      -8.020264      -218.2425
   9   1.0000      -8.017397      -218.1645
  10   1.0000      -8.015805      -218.1212
  11   1.0000      -1.147078       -31.2136
  12   1.0000      -1.094589       -29.7853
  13   1.0000      -1.021523       -27.7970
  14   1.0000      -0.972975       -26.4760
  15   1.0000      -0.852428       -23.1957
  16   1.0000      -0.805130       -21.9087
  17   1.0000      -0.713355       -19.4114
  18   1.0000      -0.652018       -17.7423
  19   1.0000      -0.613175       -16.6853
  20   1.0000      -0.610504       -16.6127
  21   1.0000      -0.570329       -15.5195
  22   1.0000      -0.561146       -15.2695
  23   1.0000      -0.542599       -14.7649
  24   1.0000      -0.537721       -14.6321
  25   1.0000      -0.492360       -13.3978
  26   1.0000      -0.477821       -13.0022
  27   1.0000      -0.460839       -12.5401
  28   1.0000      -0.453580       -12.3425
  29   1.0000      -0.447854       -12.1867
  30   1.0000      -0.428129       -11.6500
  31   0.0000       0.024461         0.6656
  32   0.0000       0.029412         0.8003
  33   0.0000       0.032556         0.8859
  34   0.0000       0.035027         0.9531
  35   0.0000       0.048081         1.3084

MULLIKEN ATOMIC CHARGES AND SPIN POPULATIONS
--------------------------------------------
   0 C :    0.108993    1.165885
   1 C :   -0.299770   -0.205587
   2 Cl:   -0.454304   -0.005678
   3 C :   -0.299682   -0.205602
   4 C :   -0.470832    0.025089
   5 C :   -0.390955   -0.007163
   6 C :   -0.470916    0.025092
   7 H :    0.318457    0.013799
   8 H :    0.126437    0.098132
   9 H :    0.126477    0.098127
  10 H :    0.318480    0.013797
  11 H :    0.177630   -0.003848
  12 H :    0.286300   -0.004536
  13 H :    0.287689    0.001630
  14 H :    0.172128   -0.000755
  15 H :    0.177598   -0.003847
  16 H :    0.286269   -0.004535
Sum of atomic charges         :    0.0000000

LOEWDIN ATOMIC CHARGES AND SPIN POPULATIONS
-------------------------------------------
   0 C :   -0.716480    0.495231
   1 C :    0.374906    0.124998
   2 Cl:    1.190170    0.133601
   3 C :    0.374906    0.124998
   4 C :    0.513526    0.012982
   5 C :    0.521113    0.002442
   6 C :    0.513526    0.012982
   7 H :   -0.316712    0.012578
   8 H :   -0.283228    0.027643
   9 H :   -0.283228    0.027643
  10 H :   -0.316712    0.012578
  11 H :   -0.265640    0.004184
  12 H :   -0.259789    0.001350
  13 H :   -0.259019    0.000290
  14 H :   -0.261912    0.000965
  15 H :   -0.265640    0.004184
  16 H :   -0.259789    0.001350

  Mayer bond orders larger than 0.100000
B(  0-C ,  1-C ) :   0.7305 B(  0-C ,  2-Cl) :   0.6778 B(  0-C ,  3-C ) :   0.7304
B(  1-C ,  2-Cl) :  -0.1015 B(  1-C ,  4-C ) :   0.9533 B(  1-C ,  7-H ) :   0.9210
B(  1-C ,  8-H ) :   0.9374 B(  2-Cl,  3-C ) :  -0.1014 B(  3-C ,  6-C ) :   0.9532
B(  3-C ,  9-H ) :   0.9374 B(  3-C , 10-H ) :   0.9210 B(  4-C ,  5-C ) :   0.9128
B(  4-C , 11-H ) :   0.9629 B(  4-C , 12-H ) :   0.9134 B(  5-C ,  6-C ) :   0.9128
B(  5-C , 13-H ) :   0.8774 B(  5-C , 14-H ) :   0.9600 B(  6-C , 15-H ) :   0.9629
B(  6-C , 16-H ) :   0.9134

MP2 TOTAL ENERGY:     -693.896717208 Eh
FINAL SINGLE POINT ENERGY      -693.896717207850

DIPOLE MOMENT
-------------
                                X             Y             Z
Electronic contribution:     -4.64939      13.55952      -0.00000
Nuclear contribution   :      4.98084     -14.39781       0.00000
                        -----------------------------------------
Total Dipole Moment    :      0.33145      -0.83829      -0.00000
                        -----------------------------------------
Magnitude (a.u.)       :      0.90144
Magnitude (Debye)      :      2.29128

Rotational constants in cm-1:     0.144612     0.047120     0.037462
Rotational constants in MHz :  4335.348301  1412.612507  1123.093567

                             ****ORCA TERMINATED NORMALLY****
TOTAL RUN TIME: 0 days 0 hours 43 minutes 18 seconds 607 msec
