                         Program Version 4.2.1 -  RELEASE  -
|  1> %pal
|  2>  nprocs 32
|  3> end
|  4> !RI-MP2 aug-cc-pVQZ aug-cc-pVQZ/C TightSCF
|  5> %maxcore 4500
|  6> *xyzfile 0 2  04_80P1.xyz
|  7>
|  8>
|  9>                          ****END OF INPUT****

CARTESIAN COORDINATES (ANGSTROEM)
---------------------------------
  P     -0.000886   -0.046919   -0.471136
  O      0.033531   -0.338291   -1.924860
  N      1.166564   -0.997003    0.323744
  N     -1.524314   -0.298798    0.159390
  N      0.369497    1.485115    0.083625
  C      1.749232    1.947532   -0.032524
  H      1.961694    2.337892   -1.034691
  H      1.918312    2.746103    0.693788
  H      2.442030    1.137807    0.183380
  C     -0.594476    2.556146   -0.150947
  H     -0.448481    3.338629    0.597972
  H     -0.470544    3.000174   -1.145614
  H     -1.610027    2.176657   -0.066633
  C      1.757756   -2.129255   -0.383555
  H      1.538881   -2.041953   -1.444480
  H      2.841066   -2.123335   -0.238584
  H      1.357896   -3.075773   -0.007294
  C      1.413210   -0.903351    1.682369
  H      1.104776   -0.011703    2.203670
  H      2.165553   -1.556620    2.097827
  C     -1.825418   -0.117613    1.569698
  H     -2.873783    0.175429    1.677715
  H     -1.660534   -1.034983    2.146894
  H     -1.206651    0.671680    1.992008
  C     -2.410167   -1.230120   -0.525842
  H     -2.367845   -2.232656   -0.081407
  H     -3.439870   -0.868344   -0.456355
  H     -2.130478   -1.294115   -1.574791

 Total Charge           Charge          ....    0
 Multiplicity           Mult            ....    2
 Number of Electrons    NEL             ....   97
 Basis Dimension        Dim             .... 1666

ORBITAL ENERGIES
----------------
                 SPIN UP ORBITALS
  NO   OCC          E(Eh)            E(eV)
   0   1.0000     -80.041670     -2178.0446
   1   1.0000     -20.477989      -557.2344
   2   1.0000     -15.569080      -423.6562
   3   1.0000     -15.560951      -423.4350
   4   1.0000     -15.555393      -423.2838
   5   1.0000     -11.256397      -306.3021
   6   1.0000     -11.254625      -306.2539
   7   1.0000     -11.253664      -306.2278
   8   1.0000     -11.250986      -306.1549
   9   1.0000     -11.247216      -306.0523
  10   1.0000     -11.246461      -306.0318
  11   1.0000      -7.563530      -205.8141
  12   1.0000      -5.461602      -148.6177
  13   1.0000      -5.461558      -148.6165
  14   1.0000      -5.460759      -148.5948
  15   1.0000      -1.309736       -35.6397
  16   1.0000      -1.233541       -33.5664
  17   1.0000      -1.220552       -33.2129
  18   1.0000      -1.208102       -32.8741
  19   1.0000      -0.966789       -26.3077
  20   1.0000      -0.966071       -26.2881
  21   1.0000      -0.957130       -26.0448
  22   1.0000      -0.932187       -25.3661
  23   1.0000      -0.861855       -23.4523
  24   1.0000      -0.856719       -23.3125
  25   1.0000      -0.733244       -19.9526
  26   1.0000      -0.684988       -18.6395
  27   1.0000      -0.680758       -18.5244
  28   1.0000      -0.651386       -17.7251
  29   1.0000      -0.636579       -17.3222
  30   1.0000      -0.624725       -16.9996
  31   1.0000      -0.621016       -16.8987
  32   1.0000      -0.607222       -16.5234
  33   1.0000      -0.599249       -16.3064
  34   1.0000      -0.586284       -15.9536
  35   1.0000      -0.554577       -15.0908
  36   1.0000      -0.551536       -15.0081
  37   1.0000      -0.545292       -14.8382
  38   1.0000      -0.529881       -14.4188
  39   1.0000      -0.527706       -14.3596
  40   1.0000      -0.523589       -14.2476
  41   1.0000      -0.521808       -14.1991
  42   1.0000      -0.516883       -14.0651
  43   1.0000      -0.478951       -13.0329
  44   1.0000      -0.453746       -12.3471
  45   1.0000      -0.440133       -11.9766
  46   1.0000      -0.383506       -10.4357
  47   1.0000      -0.379344       -10.3225
  48   1.0000      -0.289042        -7.8652
  49   0.0000       0.022188         0.6038
  50   0.0000       0.027909         0.7594
  51   0.0000       0.029636         0.8064
  52   0.0000       0.033702         0.9171
  53   0.0000       0.041570         1.1312

                 SPIN DOWN ORBITALS
  NO   OCC          E(Eh)            E(eV)
   0   1.0000     -80.041726     -2178.0461
   1   1.0000     -20.477909      -557.2322
   2   1.0000     -15.564414      -423.5292
   3   1.0000     -15.560969      -423.4355
   4   1.0000     -15.555169      -423.2777
   5   1.0000     -11.256371      -306.3014
   6   1.0000     -11.254616      -306.2537
   7   1.0000     -11.253748      -306.2300
   8   1.0000     -11.247800      -306.0682
   9   1.0000     -11.246474      -306.0321
  10   1.0000     -11.229319      -305.5653
  11   1.0000      -7.563592      -205.8158
  12   1.0000      -5.461811      -148.6234
  13   1.0000      -5.461452      -148.6137
  14   1.0000      -5.460793      -148.5957
  15   1.0000      -1.307128       -35.5688
  16   1.0000      -1.228568       -33.4310
  17   1.0000      -1.209542       -32.9133
  18   1.0000      -1.206389       -32.8275
  19   1.0000      -0.966481       -26.2993
  20   1.0000      -0.961836       -26.1729
  21   1.0000      -0.946509       -25.7558
  22   1.0000      -0.917241       -24.9594
  23   1.0000      -0.861422       -23.4405
  24   1.0000      -0.825806       -22.4713
  25   1.0000      -0.727597       -19.7989
  26   1.0000      -0.679841       -18.4994
  27   1.0000      -0.675931       -18.3930
  28   1.0000      -0.648679       -17.6515
  29   1.0000      -0.630808       -17.1652
  30   1.0000      -0.620019       -16.8716
  31   1.0000      -0.615055       -16.7365
  32   1.0000      -0.600795       -16.3485
  33   1.0000      -0.593327       -16.1452
  34   1.0000      -0.584844       -15.9144
  35   1.0000      -0.554194       -15.0804
  36   1.0000      -0.550814       -14.9884
  37   1.0000      -0.541908       -14.7461
  38   1.0000      -0.528063       -14.3693
  39   1.0000      -0.526726       -14.3329
  40   1.0000      -0.522396       -14.2151
  41   1.0000      -0.520063       -14.1516
  42   1.0000      -0.515985       -14.0407
  43   1.0000      -0.453671       -12.3450
  44   1.0000      -0.439301       -11.9540
  45   1.0000      -0.414802       -11.2873
  46   1.0000      -0.380840       -10.3632
  47   1.0000      -0.369182       -10.0459
  48   0.0000       0.022451         0.6109
  49   0.0000       0.028050         0.7633
  50   0.0000       0.029250         0.7959
  51   0.0000       0.033696         0.9169
  52   0.0000       0.041589         1.1317

MULLIKEN ATOMIC CHARGES AND SPIN POPULATIONS
--------------------------------------------
   0 P :    2.826377   -0.016757
   1 O :   -1.467463    0.002946
   2 N :   -0.115881    0.039591
   3 N :   -0.102944    0.002620
   4 N :    0.124736    0.008993
   5 C :   -1.251723   -0.001719
   6 H :    0.315511   -0.000179
   7 H :    0.350551   -0.003967
   8 H :    0.312306   -0.004120
   9 C :   -1.201711    0.000303
  10 H :    0.335663    0.000955
  11 H :    0.288831    0.000209
  12 H :    0.284050   -0.001042
  13 C :   -1.182097   -0.031228
  14 H :    0.359501   -0.000834
  15 H :    0.330172    0.008344
  16 H :    0.319887    0.009149
  17 C :   -0.690972    1.166158
  18 H :    0.308827   -0.083166
  19 H :    0.193322   -0.089159
  20 C :   -1.047643   -0.009260
  21 H :    0.268408    0.006415
  22 H :    0.307524   -0.007988
  23 H :    0.295243    0.003632
  24 C :   -1.126472   -0.000643
  25 H :    0.306405    0.000211
  26 H :    0.319956    0.000279
  27 H :    0.339637    0.000257
Sum of atomic charges         :    0.0000000

LOEWDIN ATOMIC CHARGES AND SPIN POPULATIONS
-------------------------------------------
   0 P :   -0.458632    0.023888
   1 O :    0.422935    0.002637
   2 N :    0.319149    0.199721
   3 N :    0.364761    0.004119
   4 N :    0.368254    0.000835
   5 C :    0.718720    0.003242
   6 H :   -0.265295   -0.000056
   7 H :   -0.282185    0.000277
   8 H :   -0.335189    0.007849
   9 C :    0.721977    0.000106
  10 H :   -0.280673    0.000107
  11 H :   -0.265652   -0.000011
  12 H :   -0.330812    0.000005
  13 C :    0.709654    0.021446
  14 H :   -0.371850    0.001416
  15 H :   -0.288283    0.003625
  16 H :   -0.276876    0.004376
  17 C :    0.610624    0.435679
  18 H :   -0.371786    0.137854
  19 H :   -0.341440    0.139680
  20 C :    0.709827    0.005436
  21 H :   -0.280497    0.000969
  22 H :   -0.270449    0.005783
  23 H :   -0.331081    0.000882
  24 C :    0.718090    0.000173
  25 H :   -0.271230   -0.000038
  26 H :   -0.286953    0.000056
  27 H :   -0.355109   -0.000053

  Mayer bond orders larger than 0.100000
B(  0-P ,  1-O ) :   0.9934 B(  0-P ,  2-N ) :   0.6482 B(  0-P ,  3-N ) :   0.8379
B(  0-P ,  4-N ) :   0.7565 B(  0-P ,  5-C ) :  -0.1714 B(  0-P ,  9-C ) :  -0.1769
B(  0-P , 13-C ) :  -0.2055 B(  0-P , 24-C ) :  -0.2462 B(  1-O ,  2-N ) :  -0.3138
B(  1-O ,  3-N ) :  -0.1697 B(  2-N , 13-C ) :   0.7378 B(  2-N , 17-C ) :   1.1382
B(  3-N ,  4-N ) :  -0.1747 B(  3-N ,  9-C ) :  -0.1155 B(  3-N , 20-C ) :   0.8506
B(  3-N , 22-H ) :  -0.1002 B(  3-N , 24-C ) :   0.7355 B(  4-N ,  5-C ) :   0.8050
B(  4-N ,  9-C ) :   0.8126 B(  4-N , 17-C ) :  -0.1584 B(  4-N , 20-C ) :  -0.1780
B(  5-C ,  6-H ) :   0.9930 B(  5-C ,  7-H ) :   0.9543 B(  5-C ,  8-H ) :   0.9639
B(  9-C , 10-H ) :   0.9496 B(  9-C , 11-H ) :   1.0113 B(  9-C , 12-H ) :   0.9734
B( 13-C , 14-H ) :   0.9670 B( 13-C , 15-H ) :   0.9404 B( 13-C , 16-H ) :   0.9725
B( 17-C , 18-H ) :   0.8990 B( 17-C , 19-H ) :   1.1347 B( 20-C , 21-H ) :   0.9911
B( 20-C , 22-H ) :   0.9813 B( 20-C , 23-H ) :   0.9576 B( 24-C , 25-H ) :   0.9812
B( 24-C , 26-H ) :   0.9520 B( 24-C , 27-H ) :   1.0114

MP2 TOTAL ENERGY:     -818.504326956 Eh
FINAL SINGLE POINT ENERGY      -818.504326956091

DIPOLE MOMENT
-------------
                                X             Y             Z
Electronic contribution:      0.82571      -1.08831      -4.78395
Nuclear contribution   :     -0.89613       1.41627       6.09822
                        -----------------------------------------
Total Dipole Moment    :     -0.07042       0.32796       1.31427
                        -----------------------------------------
Magnitude (a.u.)       :      1.35640
Magnitude (Debye)      :      3.44769

Rotational constants in cm-1:     0.034432     0.033647     0.025581
Rotational constants in MHz :  1032.258864  1008.708393   766.898391

                             ****ORCA TERMINATED NORMALLY****
TOTAL RUN TIME: 0 days 3 hours 32 minutes 41 seconds 237 msec
