                         Program Version 4.2.1 -  RELEASE  -
|  1> %pal
|  2>  nprocs 32
|  3> end
|  4> !RI-MP2 aug-cc-pVQZ aug-cc-pVQZ/C TightSCF
|  5> %maxcore 4500
|  6> *xyzfile -1 1  09_2TS.xyz
|  7>
|  8>
|  9>                          ****END OF INPUT****

CARTESIAN COORDINATES (ANGSTROEM)
---------------------------------
  C      2.704847   -0.396465   -0.270972
  C      1.916031   -1.268560    0.473565
  C      0.598796   -0.942503    0.757180
  C      0.051171    0.252902    0.305084
  C      0.843595    1.124707   -0.427469
  C      2.162516    0.800382   -0.721174
  H      3.734590   -0.650919   -0.497907
  H      2.330256   -2.207491    0.825594
  H     -0.030255   -1.629589    1.314380
  H      0.392238    2.055148   -0.751191
  H      2.772435    1.485927   -1.300587
  C     -1.372623    0.661823    0.657796
  C     -2.318665   -0.749194   -0.386814
  N     -2.987881   -1.516414   -0.943288
  O     -1.763063    1.810376    0.386042
  H     -1.693599    0.180259    1.601211

 Total Charge           Charge          ....   -1
 Multiplicity           Mult            ....    1
 Number of Electrons    NEL             ....   70
 Basis Dimension        Dim             .... 1076

ORBITAL ENERGIES
----------------

  NO   OCC          E(Eh)            E(eV)
   0   2.0000     -20.326779      -553.1198
   1   2.0000     -15.349855      -417.6908
   2   2.0000     -11.180290      -304.2312
   3   2.0000     -11.123223      -302.6783
   4   2.0000     -11.121960      -302.6439
   5   2.0000     -11.120701      -302.6097
   6   2.0000     -11.113697      -302.4191
   7   2.0000     -11.109089      -302.2937
   8   2.0000     -11.106440      -302.2216
   9   2.0000     -11.036635      -300.3221
  10   2.0000      -1.174696       -31.9651
  11   2.0000      -1.037658       -28.2361
  12   2.0000      -0.997676       -27.1481
  13   2.0000      -0.909206       -24.7407
  14   2.0000      -0.899191       -24.4682
  15   2.0000      -0.747386       -20.3374
  16   2.0000      -0.711149       -19.3513
  17   2.0000      -0.653660       -17.7870
  18   2.0000      -0.580463       -15.7952
  19   2.0000      -0.524735       -14.2788
  20   2.0000      -0.507042       -13.7973
  21   2.0000      -0.474453       -12.9105
  22   2.0000      -0.468810       -12.7570
  23   2.0000      -0.451466       -12.2850
  24   2.0000      -0.434664       -11.8278
  25   2.0000      -0.388916       -10.5829
  26   2.0000      -0.385579       -10.4922
  27   2.0000      -0.372523       -10.1369
  28   2.0000      -0.356943        -9.7129
  29   2.0000      -0.266929        -7.2635
  30   2.0000      -0.264208        -7.1895
  31   2.0000      -0.232025        -6.3137
  32   2.0000      -0.229649        -6.2491
  33   2.0000      -0.219823        -5.9817
  34   2.0000      -0.200936        -5.4677
  35   0.0000       0.090050         2.4504
  36   0.0000       0.096996         2.6394
  37   0.0000       0.105798         2.8789
  38   0.0000       0.121164         3.2970
  39   0.0000       0.125454         3.4138

MULLIKEN ATOMIC CHARGES
-----------------------
   0 C :   -0.377568
   1 C :   -0.357571
   2 C :   -0.349730
   3 C :    0.092866
   4 C :   -0.271420
   5 C :   -0.349842
   6 H :    0.300466
   7 H :    0.219374
   8 H :    0.300926
   9 H :    0.301769
  10 H :    0.228917
  11 C :    0.884053
  12 C :    0.029171
  13 N :   -0.733438
  14 O :   -1.066262
  15 H :    0.148291
Sum of atomic charges:   -1.0000000

LOEWDIN ATOMIC CHARGES
----------------------
   0 C :    0.305590
   1 C :    0.320779
   2 C :    0.289637
   3 C :   -0.210697
   4 C :    0.303929
   5 C :    0.322029
   6 H :   -0.337382
   7 H :   -0.332171
   8 H :   -0.324381
   9 H :   -0.353926
  10 H :   -0.333077
  11 C :   -0.622545
  12 C :   -0.334265
  13 N :    0.125452
  14 O :    0.608688
  15 H :   -0.427661

  Mayer bond orders larger than 0.100000
B(  0-C ,  1-C ) :   1.1859 B(  0-C ,  5-C ) :   1.1471 B(  0-C ,  6-H ) :   1.0167
B(  0-C ,  7-H ) :  -0.1081 B(  0-C , 10-H ) :  -0.1067 B(  1-C ,  2-C ) :   1.3221
B(  1-C ,  3-C ) :  -0.3219 B(  1-C ,  4-C ) :   0.1526 B(  1-C ,  5-C ) :  -0.1088
B(  1-C ,  7-H ) :   1.1487 B(  2-C ,  3-C ) :   0.9170 B(  2-C ,  5-C ) :   0.1393
B(  2-C ,  7-H ) :  -0.1354 B(  2-C ,  8-H ) :   0.9374 B(  2-C , 11-C ) :  -0.1806
B(  3-C ,  4-C ) :   1.0819 B(  3-C ,  5-C ) :  -0.2980 B(  3-C , 11-C ) :   0.9505
B(  3-C , 12-C ) :  -0.1640 B(  3-C , 14-O ) :   0.1951 B(  3-C , 15-H ) :  -0.1379
B(  4-C ,  5-C ) :   1.3555 B(  4-C ,  9-H ) :   0.8826 B(  4-C , 10-H ) :  -0.1349
B(  4-C , 11-C ) :  -0.1913 B(  5-C , 10-H ) :   1.1356 B( 11-C , 12-C ) :   0.5191
B( 11-C , 14-O ) :   0.9112 B( 11-C , 15-H ) :   1.0955 B( 12-C , 13-N ) :   2.4415

MP2 TOTAL ENERGY:     -437.720217117 Eh
FINAL SINGLE POINT ENERGY      -437.720217117228

DIPOLE MOMENT
-------------
                                X             Y             Z
Electronic contribution:     -3.40791       0.64939      -0.32837
Nuclear contribution   :      7.31609      -0.73258       1.16900
                        -----------------------------------------
Total Dipole Moment    :      3.90818      -0.08319       0.84063
                        -----------------------------------------
Magnitude (a.u.)       :      3.99843
Magnitude (Debye)      :     10.16320

Rotational constants in cm-1:     0.078051     0.031106     0.025537
Rotational constants in MHz :  2339.895457   932.520583   765.594889

                             ****ORCA TERMINATED NORMALLY****
TOTAL RUN TIME: 0 days 0 hours 30 minutes 7 seconds 241 msec
