                         Program Version 4.2.1 -  RELEASE  -
|  1> %pal
|  2>  nprocs 32
|  3> end
|  4> !RI-MP2 aug-cc-pVQZ aug-cc-pVQZ/C TightSCF
|  5> %maxcore 4500
|  6> *xyzfile 1 1  05_5TS.xyz
|  7>
|  8>
|  9>                          ****END OF INPUT****

CARTESIAN COORDINATES (ANGSTROEM)
---------------------------------
  H     -2.492676   -2.186040   -0.307569
  C     -0.981816    0.332651    1.229137
  C     -1.728350    1.339224    0.696064
  H     -3.319556    1.857156   -0.712125
  H     -3.760620   -0.522592   -1.285577
  H     -0.093345   -1.175779   -0.056413
  H     -0.268157    0.524895    2.019127
  H     -1.599836    2.352331    1.057372
  C     -1.111689   -1.019768    0.735168
  C     -2.719518    1.069055   -0.283018
  N     -2.253411   -1.236278   -0.064019
  C     -2.967691   -0.230259   -0.610005
  H     -0.917123   -1.831003    1.438125
  C      2.994191   -0.466098    0.442116
  H      1.768136    2.368939   -0.769186
  H      0.126575    0.756206   -1.702476
  H      3.872109   -0.782618    0.986128
  H      3.529993    1.528736    0.566718
  C      2.096614   -1.332402   -0.076400
  C      1.811197    1.312749   -0.543826
  N      0.988133   -0.931222   -0.800225
  C      0.922091    0.418764   -1.052275
  H      2.228118   -2.398046    0.054065
  N      2.841879    0.876688    0.219964

 Total Charge           Charge          ....    1
 Multiplicity           Mult            ....    1
 Number of Electrons    NEL             ....   86
 Basis Dimension        Dim             .... 1512

ORBITAL ENERGIES
----------------

  NO   OCC          E(Eh)            E(eV)
   0   2.0000     -15.787890      -429.6103
   1   2.0000     -15.757078      -428.7719
   2   2.0000     -15.750122      -428.5826
   3   2.0000     -11.455943      -311.7321
   4   2.0000     -11.443264      -311.3871
   5   2.0000     -11.428755      -310.9922
   6   2.0000     -11.427390      -310.9551
   7   2.0000     -11.416553      -310.6602
   8   2.0000     -11.414063      -310.5924
   9   2.0000     -11.389597      -309.9267
  10   2.0000     -11.374282      -309.5099
  11   2.0000     -11.353026      -308.9315
  12   2.0000      -1.477590       -40.2073
  13   2.0000      -1.428741       -38.8780
  14   2.0000      -1.384635       -37.6778
  15   2.0000      -1.231854       -33.5205
  16   2.0000      -1.215725       -33.0816
  17   2.0000      -1.185335       -32.2546
  18   2.0000      -1.101966       -29.9860
  19   2.0000      -1.039479       -28.2857
  20   2.0000      -1.030867       -28.0513
  21   2.0000      -0.995982       -27.1020
  22   2.0000      -0.933847       -25.4113
  23   2.0000      -0.897452       -24.4209
  24   2.0000      -0.860709       -23.4211
  25   2.0000      -0.849719       -23.1220
  26   2.0000      -0.823716       -22.4145
  27   2.0000      -0.803932       -21.8761
  28   2.0000      -0.798907       -21.7394
  29   2.0000      -0.775792       -21.1104
  30   2.0000      -0.773324       -21.0432
  31   2.0000      -0.767600       -20.8875
  32   2.0000      -0.744789       -20.2667
  33   2.0000      -0.728639       -19.8273
  34   2.0000      -0.695413       -18.9231
  35   2.0000      -0.669618       -18.2212
  36   2.0000      -0.658997       -17.9322
  37   2.0000      -0.646368       -17.5886
  38   2.0000      -0.614704       -16.7269
  39   2.0000      -0.553573       -15.0635
  40   2.0000      -0.525663       -14.3040
  41   2.0000      -0.507087       -13.7985
  42   2.0000      -0.376621       -10.2484
  43   0.0000      -0.124128        -3.3777
  44   0.0000      -0.075643        -2.0584
  45   0.0000      -0.063501        -1.7279
  46   0.0000      -0.058787        -1.5997
  47   0.0000      -0.053446        -1.4544

MULLIKEN ATOMIC CHARGES
-----------------------
   0 H :    0.048513
   1 C :   -0.457025
   2 C :   -0.201722
   3 H :    0.291223
   4 H :    0.452230
   5 H :    0.170504
   6 H :    0.254164
   7 H :    0.318868
   8 C :    0.581485
   9 C :   -0.265339
  10 N :   -0.703140
  11 C :   -0.260915
  12 H :    0.501784
  13 C :   -0.119813
  14 H :    0.417730
  15 H :    0.605956
  16 H :    0.465445
  17 H :    0.076976
  18 C :   -0.262915
  19 C :    0.007669
  20 N :   -0.700725
  21 C :    0.079442
  22 H :    0.453804
  23 N :   -0.754200
Sum of atomic charges:    1.0000000

LOEWDIN ATOMIC CHARGES
----------------------
   0 H :   -0.426091
   1 C :    0.376669
   2 C :    0.360458
   3 H :   -0.324783
   4 H :   -0.279912
   5 H :   -0.710940
   6 H :   -0.285233
   7 H :   -0.293068
   8 C :    0.284210
   9 C :    0.379391
  10 N :    0.909526
  11 C :    0.269148
  12 H :   -0.229656
  13 C :    0.284110
  14 H :   -0.270381
  15 H :   -0.311472
  16 H :   -0.284596
  17 H :   -0.431783
  18 C :    0.219262
  19 C :    0.285929
  20 N :    0.752356
  21 C :    0.172278
  22 H :   -0.311760
  23 N :    0.866337

  Mayer bond orders larger than 0.100000
B(  0-H ,  8-C ) :  -0.1042 B(  0-H , 10-N ) :   1.3387 B(  1-C ,  2-C ) :   1.4309
B(  1-C ,  5-H ) :   0.1472 B(  1-C ,  6-H ) :   1.0280 B(  1-C ,  8-C ) :   0.9593
B(  1-C , 11-C ) :   0.1127 B(  1-C , 12-H ) :  -0.1286 B(  2-C ,  7-H ) :   1.0033
B(  2-C ,  8-C ) :  -0.1334 B(  2-C ,  9-C ) :   0.9571 B(  2-C , 11-C ) :  -0.1063
B(  3-H ,  9-C ) :   1.0596 B(  3-H , 11-C ) :  -0.1236 B(  4-H , 11-C ) :   0.8928
B(  5-H ,  8-C ) :   0.4547 B(  5-H , 20-N ) :   0.2242 B(  8-C , 10-N ) :   0.6274
B(  8-C , 11-C ) :  -0.1014 B(  8-C , 12-H ) :   0.8507 B(  8-C , 20-N ) :  -0.1360
B(  9-C , 11-C ) :   1.3198 B( 10-N , 11-C ) :   1.1225 B( 10-N , 12-H ) :  -0.1244
B( 13-C , 16-H ) :   0.8635 B( 13-C , 18-C ) :   1.4027 B( 13-C , 23-N ) :   0.9246
B( 14-H , 19-C ) :   0.9225 B( 15-H , 19-C ) :  -0.1213 B( 15-H , 20-N ) :  -0.2153
B( 15-H , 21-C ) :   0.7593 B( 17-H , 23-N ) :   1.2950 B( 18-C , 20-N ) :   1.1731
B( 18-C , 22-H ) :   0.8867 B( 19-C , 21-C ) :   1.3075 B( 19-C , 23-N ) :   0.8645
B( 20-N , 21-C ) :   0.8639 B( 20-N , 22-H ) :  -0.1069

MP2 TOTAL ENERGY:     -513.244779817 Eh
FINAL SINGLE POINT ENERGY      -513.244779817060

DIPOLE MOMENT
-------------
                                X             Y             Z
Electronic contribution:      1.88354      -0.18040      -0.91341
Nuclear contribution   :     -0.92378       0.48812       1.29372
                        -----------------------------------------
Total Dipole Moment    :      0.95976       0.30773       0.38031
                        -----------------------------------------
Magnitude (a.u.)       :      1.07725
Magnitude (Debye)      :      2.73815

Rotational constants in cm-1:     0.066332     0.020681     0.018503
Rotational constants in MHz :  1988.586645   619.992856   554.719840

                             ****ORCA TERMINATED NORMALLY****
TOTAL RUN TIME: 0 days 1 hours 59 minutes 25 seconds 976 msec
