                         Program Version 4.2.1 -  RELEASE  -
|  1> %pal
|  2>  nprocs 32
|  3> end
|  4> !RI-MP2 aug-cc-pVQZ aug-cc-pVQZ/C TightSCF
|  5> %maxcore 4500
|  6> *xyzfile -1 1  09_7TS.xyz
|  7>
|  8>
|  9>                          ****END OF INPUT****

CARTESIAN COORDINATES (ANGSTROEM)
---------------------------------
  C     -2.636889    1.549948    0.191301
  C     -2.593975    0.026153    0.109689
  O     -3.301611   -0.518006   -0.767602
  C     -1.665646   -0.648516    0.914482
  C     -0.157286   -0.821202   -0.655523
  C      1.054474   -0.636528   -0.430232
  C      1.914719   -0.239915    0.684492
  O      3.320136   -0.165254    0.398502
  C      3.610401    0.746331   -0.626058
  H     -3.667961    1.868619    0.367464
  H     -1.993988    1.953747    0.976396
  H     -2.325999    1.963880   -0.772056
  H     -1.760196   -1.723551    1.013261
  H     -1.164239   -0.122508    1.718733
  H     -0.922773   -1.081904   -1.366225
  H      1.596377    0.742267    1.072283
  H      1.844409   -0.962187    1.502127
  H      4.686892    0.708251   -0.803351
  H      3.072375    0.488731   -1.545272
  H      3.332120    1.773101   -0.339466

 Total Charge           Charge          ....   -1
 Multiplicity           Mult            ....    1
 Number of Electrons    NEL             ....   70
 Basis Dimension        Dim             .... 1226

ORBITAL ENERGIES
----------------

  NO   OCC          E(Eh)            E(eV)
   0   2.0000     -20.427417      -555.8583
   1   2.0000     -20.324708      -553.0634
   2   2.0000     -11.153733      -303.5085
   3   2.0000     -11.149527      -303.3940
   4   2.0000     -11.131240      -302.8965
   5   2.0000     -11.089635      -301.7643
   6   2.0000     -11.074909      -301.3636
   7   2.0000     -11.037941      -300.3577
   8   2.0000     -11.025631      -300.0227
   9   2.0000      -1.245623       -33.8951
  10   2.0000      -1.161047       -31.5937
  11   2.0000      -0.899364       -24.4729
  12   2.0000      -0.858286       -23.3551
  13   2.0000      -0.823385       -22.4054
  14   2.0000      -0.773507       -21.0482
  15   2.0000      -0.739309       -20.1176
  16   2.0000      -0.573736       -15.6122
  17   2.0000      -0.549476       -14.9520
  18   2.0000      -0.533474       -14.5166
  19   2.0000      -0.531659       -14.4672
  20   2.0000      -0.498822       -13.5736
  21   2.0000      -0.455093       -12.3837
  22   2.0000      -0.453363       -12.3366
  23   2.0000      -0.438269       -11.9259
  24   2.0000      -0.431461       -11.7407
  25   2.0000      -0.413640       -11.2557
  26   2.0000      -0.383934       -10.4474
  27   2.0000      -0.363887        -9.9019
  28   2.0000      -0.352361        -9.5882
  29   2.0000      -0.320841        -8.7305
  30   2.0000      -0.306845        -8.3497
  31   2.0000      -0.252445        -6.8694
  32   2.0000      -0.226230        -6.1560
  33   2.0000      -0.211984        -5.7684
  34   2.0000      -0.095788        -2.6065
  35   0.0000       0.098409         2.6779
  36   0.0000       0.107905         2.9362
  37   0.0000       0.113846         3.0979
  38   0.0000       0.116639         3.1739
  39   0.0000       0.121278         3.3001

MULLIKEN ATOMIC CHARGES
-----------------------
   0 C :   -0.946869
   1 C :    0.964668
   2 O :   -1.025558
   3 C :   -0.912388
   4 C :   -0.553868
   5 C :   -0.462674
   6 C :    0.218750
   7 O :   -0.860595
   8 C :   -0.667090
   9 H :    0.297647
  10 H :    0.221949
  11 H :    0.215956
  12 H :    0.207510
  13 H :    0.216698
  14 H :    0.519059
  15 H :    0.178501
  16 H :    0.440243
  17 H :    0.467929
  18 H :    0.270060
  19 H :    0.210071
Sum of atomic charges:   -1.0000000

LOEWDIN ATOMIC CHARGES
----------------------
   0 C :    0.816714
   1 C :   -0.862927
   2 O :    0.612463
   3 C :    0.515632
   4 C :    0.405811
   5 C :    0.103755
   6 C :   -0.007619
   7 O :    0.831792
   8 C :    0.491036
   9 H :   -0.319459
  10 H :   -0.330459
  11 H :   -0.313535
  12 H :   -0.379655
  13 H :   -0.385532
  14 H :   -0.468098
  15 H :   -0.340980
  16 H :   -0.356763
  17 H :   -0.339764
  18 H :   -0.356322
  19 H :   -0.316093

  Mayer bond orders larger than 0.100000
B(  0-C ,  1-C ) :   0.8279 B(  0-C ,  2-O ) :   0.1459 B(  0-C ,  9-H ) :   0.9577
B(  0-C , 10-H ) :   1.0092 B(  0-C , 11-H ) :   0.9526 B(  1-C ,  2-O ) :   0.8056
B(  1-C ,  3-C ) :   1.3558 B(  2-O ,  3-C ) :   0.1880 B(  3-C ,  4-C ) :   0.3186
B(  3-C , 12-H ) :   0.9876 B(  3-C , 13-H ) :   1.0084 B(  4-C ,  5-C ) :   2.1959
B(  4-C ,  6-C ) :  -0.1107 B(  4-C , 14-H ) :   0.7144 B(  5-C ,  6-C ) :   0.9601
B(  6-C ,  7-O ) :   0.5725 B(  6-C , 15-H ) :   0.9027 B(  6-C , 16-H ) :   0.7802
B(  7-O ,  8-C ) :   0.9078 B(  8-C , 17-H ) :   0.7886 B(  8-C , 18-H ) :   0.8889
B(  8-C , 19-H ) :   0.9516

MP2 TOTAL ENERGY:     -423.037327183 Eh
FINAL SINGLE POINT ENERGY      -423.037327183285

DIPOLE MOMENT
-------------
                                X             Y             Z
Electronic contribution:     -0.88963      -4.35165      -1.12950
Nuclear contribution   :      2.74873       5.70438       1.85273
                        -----------------------------------------
Total Dipole Moment    :      1.85909       1.35273       0.72323
                        -----------------------------------------
Magnitude (a.u.)       :      2.41022
Magnitude (Debye)      :      6.12630

Rotational constants in cm-1:     0.125821     0.018853     0.018330
Rotational constants in MHz :  3772.008152   565.187038   549.524132

                             ****ORCA TERMINATED NORMALLY****
TOTAL RUN TIME: 0 days 0 hours 44 minutes 41 seconds 387 msec
