                         Program Version 4.2.1 -  RELEASE  -
|  1> %pal
|  2>  nprocs 32
|  3> end
|  4> !RI-MP2 aug-cc-pVQZ aug-cc-pVQZ/C TightSCF
|  5> %maxcore 4500
|  6> *xyzfile -1 1  09_19TS.xyz
|  7>
|  8>
|  9>                          ****END OF INPUT****

CARTESIAN COORDINATES (ANGSTROEM)
---------------------------------
  C      4.162504   -0.774386    1.046443
  C      4.764352   -0.449931   -0.161829
  C      4.003066    0.127119   -1.172274
  C      2.656275    0.385997   -0.972056
  C      2.045235    0.078082    0.242762
  C      2.811556   -0.519851    1.239764
  H      2.337392   -0.784411    2.178385
  H      4.744852   -1.233252    1.837873
  H      5.817541   -0.653862   -0.319837
  H      4.462129    0.368527   -2.124676
  H      2.051438    0.815412   -1.760568
  C      0.609933    0.363545    0.461261
  C      0.065363    1.583699    0.065490
  C     -1.349529    1.720529    0.082363
  C     -2.113616    0.422294    0.140489
  C     -1.529086   -0.813508   -0.281200
  C     -2.407337   -1.901664   -0.496548
  C     -3.755587   -1.813335   -0.216742
  C     -4.310343   -0.622352    0.253609
  C     -3.480781    0.476440    0.398544
  H     -3.879527    1.442911    0.686801
  H     -4.386476   -2.685656   -0.362467
  H     -5.369694   -0.551802    0.472686
  H     -1.969709   -2.825768   -0.856786
  O     -0.246698   -0.997378   -0.474048
  O     -1.968485    2.783330   -0.085069
  H      0.219191   -0.098099    1.365291
  H      0.662299    2.342318   -0.424215

 Total Charge           Charge          ....   -1
 Multiplicity           Mult            ....    1
 Number of Electrons    NEL             ....  118
 Basis Dimension        Dim             .... 1866

ORBITAL ENERGIES
----------------

  NO   OCC          E(Eh)            E(eV)
   0   2.0000     -20.369418      -554.2800
   1   2.0000     -20.341831      -553.5294
   2   2.0000     -11.160208      -303.6847
   3   2.0000     -11.152981      -303.4881
   4   2.0000     -11.150041      -303.4080
   5   2.0000     -11.142119      -303.1925
   6   2.0000     -11.140315      -303.1434
   7   2.0000     -11.138394      -303.0911
   8   2.0000     -11.135979      -303.0254
   9   2.0000     -11.134597      -302.9878
  10   2.0000     -11.129951      -302.8614
  11   2.0000     -11.108555      -302.2791
  12   2.0000     -11.096745      -301.9578
  13   2.0000     -11.083084      -301.5860
  14   2.0000     -11.079569      -301.4904
  15   2.0000     -11.074092      -301.3414
  16   2.0000     -11.029803      -300.1362
  17   2.0000      -1.193337       -32.4724
  18   2.0000      -1.179944       -32.1079
  19   2.0000      -1.061592       -28.8874
  20   2.0000      -0.999058       -27.1858
  21   2.0000      -0.959212       -26.1015
  22   2.0000      -0.920295       -25.0425
  23   2.0000      -0.898624       -24.4528
  24   2.0000      -0.866247       -23.5718
  25   2.0000      -0.849078       -23.1046
  26   2.0000      -0.760886       -20.7048
  27   2.0000      -0.732648       -19.9364
  28   2.0000      -0.698293       -19.0015
  29   2.0000      -0.678599       -18.4656
  30   2.0000      -0.665364       -18.1055
  31   2.0000      -0.601181       -16.3590
  32   2.0000      -0.586048       -15.9472
  33   2.0000      -0.549819       -14.9613
  34   2.0000      -0.542118       -14.7518
  35   2.0000      -0.529473       -14.4077
  36   2.0000      -0.512768       -13.9531
  37   2.0000      -0.493162       -13.4196
  38   2.0000      -0.486418       -13.2361
  39   2.0000      -0.481500       -13.1023
  40   2.0000      -0.469036       -12.7631
  41   2.0000      -0.446466       -12.1489
  42   2.0000      -0.434453       -11.8221
  43   2.0000      -0.419192       -11.4068
  44   2.0000      -0.407854       -11.0983
  45   2.0000      -0.404419       -11.0048
  46   2.0000      -0.393000       -10.6941
  47   2.0000      -0.385792       -10.4979
  48   2.0000      -0.378292       -10.2938
  49   2.0000      -0.373097       -10.1525
  50   2.0000      -0.351509        -9.5650
  51   2.0000      -0.316740        -8.6189
  52   2.0000      -0.307158        -8.3582
  53   2.0000      -0.243380        -6.6227
  54   2.0000      -0.240285        -6.5385
  55   2.0000      -0.233515        -6.3543
  56   2.0000      -0.200593        -5.4584
  57   2.0000      -0.153544        -4.1781
  58   2.0000      -0.133364        -3.6290
  59   0.0000       0.080826         2.1994
  60   0.0000       0.089368         2.4318
  61   0.0000       0.095730         2.6050
  62   0.0000       0.098597         2.6830
  63   0.0000       0.103204         2.8083

MULLIKEN ATOMIC CHARGES
-----------------------
   0 C :   -0.282870
   1 C :   -0.377551
   2 C :   -0.230058
   3 C :   -0.532259
   4 C :    0.621624
   5 C :   -0.674994
   6 H :    0.240064
   7 H :    0.219316
   8 H :    0.324854
   9 H :    0.240674
  10 H :    0.283138
  11 C :    0.689157
  12 C :   -1.110886
  13 C :    1.529259
  14 C :   -0.251579
  15 C :    1.265345
  16 C :   -0.692094
  17 C :   -0.375548
  18 C :   -0.538921
  19 C :   -0.302746
  20 H :    0.203564
  21 H :    0.220506
  22 H :    0.259122
  23 H :    0.250675
  24 O :   -1.140289
  25 O :   -1.054125
  26 H :    0.031181
  27 H :    0.185443
Sum of atomic charges:   -1.0000000

LOEWDIN ATOMIC CHARGES
----------------------
   0 C :    0.330111
   1 C :    0.317127
   2 C :    0.340421
   3 C :    0.339881
   4 C :   -0.101210
   5 C :    0.348659
   6 H :   -0.314211
   7 H :   -0.329923
   8 H :   -0.332286
   9 H :   -0.327361
  10 H :   -0.315773
  11 C :   -0.032615
  12 C :    0.271331
  13 C :   -0.782995
  14 C :   -0.160418
  15 C :   -0.643343
  16 C :    0.280041
  17 C :    0.281741
  18 C :    0.307362
  19 C :    0.268250
  20 H :   -0.357081
  21 H :   -0.336456
  22 H :   -0.351109
  23 H :   -0.356576
  24 O :    0.767439
  25 O :    0.632376
  26 H :   -0.372376
  27 H :   -0.371009

  Mayer bond orders larger than 0.100000
B(  0-C ,  1-C ) :   1.1242 B(  0-C ,  2-C ) :  -0.1102 B(  0-C ,  3-C ) :   0.1772
B(  0-C ,  4-C ) :  -0.4378 B(  0-C ,  5-C ) :   1.4214 B(  0-C ,  7-H ) :   1.1604
B(  1-C ,  2-C ) :   1.1028 B(  1-C ,  5-C ) :   0.1606 B(  1-C ,  7-H ) :  -0.1198
B(  1-C ,  8-H ) :   1.0098 B(  2-C ,  3-C ) :   1.3486 B(  2-C ,  4-C ) :  -0.3653
B(  2-C ,  5-C ) :   0.1821 B(  2-C ,  9-H ) :   1.1185 B(  3-C ,  4-C ) :   1.0065
B(  3-C ,  5-C ) :   0.1388 B(  3-C ,  9-H ) :  -0.1301 B(  3-C , 10-H ) :   0.9910
B(  3-C , 11-C ) :  -0.1944 B(  4-C ,  5-C ) :   0.9607 B(  4-C ,  6-H ) :  -0.1168
B(  4-C , 11-C ) :   0.3380 B(  4-C , 12-C ) :  -0.3189 B(  4-C , 26-H ) :  -0.2214
B(  5-C ,  6-H ) :   1.0323 B(  5-C ,  7-H ) :  -0.1503 B(  5-C ,  8-H ) :  -0.1148
B(  5-C , 11-C ) :  -0.4446 B( 11-C , 12-C ) :   1.3766 B( 11-C , 13-C ) :  -0.3153
B( 11-C , 15-C ) :  -0.1826 B( 11-C , 26-H ) :   1.1977 B( 12-C , 13-C ) :   1.3918
B( 12-C , 15-C ) :  -0.1741 B( 12-C , 24-O ) :   0.1064 B( 12-C , 25-O ) :   0.3813
B( 12-C , 27-H ) :   1.0502 B( 13-C , 14-C ) :   0.9863 B( 13-C , 15-C ) :  -0.2048
B( 13-C , 19-C ) :  -0.2727 B( 13-C , 25-O ) :   0.1634 B( 14-C , 15-C ) :   1.2655
B( 14-C , 16-C ) :  -0.1444 B( 14-C , 17-C ) :   0.1119 B( 14-C , 18-C ) :  -0.2749
B( 14-C , 19-C ) :   1.0299 B( 14-C , 24-O ) :   0.2152 B( 14-C , 25-O ) :   0.3553
B( 15-C , 16-C ) :   0.9591 B( 15-C , 17-C ) :  -0.3261 B( 15-C , 24-O ) :   0.4172
B( 16-C , 17-C ) :   1.3668 B( 16-C , 18-C ) :   0.1365 B( 16-C , 19-C ) :   0.1551
B( 16-C , 21-H ) :  -0.1953 B( 16-C , 23-H ) :   0.9692 B( 16-C , 24-O ) :   0.1839
B( 17-C , 18-C ) :   1.1900 B( 17-C , 21-H ) :   1.1830 B( 18-C , 19-C ) :   1.2650
B( 18-C , 21-H ) :  -0.1247 B( 18-C , 22-H ) :   1.0812 B( 19-C , 20-H ) :   1.0338
B( 19-C , 22-H ) :  -0.1179 B( 20-H , 25-O ) :   0.1029

MP2 TOTAL ENERGY:     -727.471339768 Eh
FINAL SINGLE POINT ENERGY      -727.471339767876

DIPOLE MOMENT
-------------
                                X             Y             Z
Electronic contribution:     -2.23400       2.08422      -0.29846
Nuclear contribution   :      4.58120      -3.77511       0.67290
                        -----------------------------------------
Total Dipole Moment    :      2.34721      -1.69089       0.37445
                        -----------------------------------------
Magnitude (a.u.)       :      2.91697
Magnitude (Debye)      :      7.41434

Rotational constants in cm-1:     0.038063     0.008733     0.007713
Rotational constants in MHz :  1141.101729   261.800808   231.231104

                             ****ORCA TERMINATED NORMALLY****
TOTAL RUN TIME: 0 days 3 hours 22 minutes 5 seconds 837 msec
