                         Program Version 4.2.1 -  RELEASE  -
|  1> %pal
|  2>  nprocs 32
|  3> end
|  4> !RI-MP2 aug-cc-pVQZ aug-cc-pVQZ/C TightSCF
|  5> %maxcore 4500
|  6> *xyzfile 0 1  04_24P2.xyz
|  7>
|  8>
|  9>                          ****END OF INPUT****

CARTESIAN COORDINATES (ANGSTROEM)
---------------------------------
  H     -1.722522    0.107308    0.582494
  O     -1.143952   -0.300896   -0.073398
  O     -0.023077    0.597911   -0.037656
  C      1.127711   -0.214925    0.029489
  H      1.962997    0.485890    0.008570
  H      1.146894   -0.797427    0.954698
  H      1.182599   -0.882338   -0.834262

 Total Charge           Charge          ....    0
 Multiplicity           Mult            ....    1
 Number of Electrons    NEL             ....   26
 Basis Dimension        Dim             ....  424

ORBITAL ENERGIES
----------------

  NO   OCC          E(Eh)            E(eV)
   0   2.0000     -20.621178      -561.1308
   1   2.0000     -20.619695      -561.0904
   2   2.0000     -11.277887      -306.8869
   3   2.0000      -1.478967       -40.2448
   4   2.0000      -1.225992       -33.3609
   5   2.0000      -0.916970       -24.9520
   6   2.0000      -0.725732       -19.7482
   7   2.0000      -0.667707       -18.1692
   8   2.0000      -0.649208       -17.6659
   9   2.0000      -0.588099       -16.0030
  10   2.0000      -0.534119       -14.5341
  11   2.0000      -0.502739       -13.6802
  12   2.0000      -0.442938       -12.0529
  13   0.0000       0.026508         0.7213
  14   0.0000       0.037165         1.0113
  15   0.0000       0.044836         1.2201
  16   0.0000       0.045403         1.2355
  17   0.0000       0.079843         2.1727

MULLIKEN ATOMIC CHARGES
-----------------------
   0 H :    0.346099
   1 O :   -0.407679
   2 O :   -0.364570
   3 C :   -0.432966
   4 H :    0.339683
   5 H :    0.257352
   6 H :    0.262081
Sum of atomic charges:   -0.0000000

LOEWDIN ATOMIC CHARGES
----------------------
   0 H :   -0.899071
   1 O :    0.917101
   2 O :    0.516670
   3 C :    0.485632
   4 H :   -0.354111
   5 H :   -0.332400
   6 H :   -0.333822

  Mayer bond orders larger than 0.100000
B(  0-H ,  1-O ) :   0.9163 B(  1-O ,  2-O ) :   0.8215 B(  2-O ,  3-C ) :   0.8162
B(  3-C ,  4-H ) :   0.8752 B(  3-C ,  5-H ) :   0.9254 B(  3-C ,  6-H ) :   0.9218

MP2 TOTAL ENERGY:     -190.614138285 Eh
FINAL SINGLE POINT ENERGY      -190.614138284814

DIPOLE MOMENT
-------------
                                X             Y             Z
Electronic contribution:     -2.37575       1.00144      -0.24117
Nuclear contribution   :      2.59347      -1.09965       0.72140
                        -----------------------------------------
Total Dipole Moment    :      0.21772      -0.09821       0.48023
                        -----------------------------------------
Magnitude (a.u.)       :      0.53635
Magnitude (Debye)      :      1.36330

Rotational constants in cm-1:     1.480320     0.352600     0.306017
Rotational constants in MHz : 44378.870837 10570.678782  9174.165697

                             ****ORCA TERMINATED NORMALLY****
TOTAL RUN TIME: 0 days 0 hours 1 minutes 12 seconds 795 msec
