                         Program Version 4.2.1 -  RELEASE  -
|  1> %pal
|  2>  nprocs 32
|  3> end
|  4> !RI-MP2 aug-cc-pVQZ aug-cc-pVQZ/C TightSCF
|  5> %maxcore 4500
|  6> *xyzfile 0 1  10_83P.xyz
|  7>
|  8>
|  9>                          ****END OF INPUT****

CARTESIAN COORDINATES (ANGSTROEM)
---------------------------------
  C     -0.588799   -0.767554   -1.273994
  C      0.182657   -0.312204   -0.062735
  C     -0.415033    0.759531    0.826360
  C     -1.960267    0.625826    0.874150
  C     -2.317455   -0.785943    1.304225
  C     -2.404916   -1.570381    0.235416
  C     -2.109528   -0.761199   -1.015920
  H     -0.357367   -0.079964   -2.095919
  H     -0.243578   -1.754245   -1.584671
  H     -2.635346   -1.104875   -1.906820
  C     -2.511721    0.645031   -0.555985
  H     -2.564958   -2.640945    0.240263
  H     -2.392363   -1.101129    2.337077
  C      1.397587   -0.822140    0.217780
  H     -3.597776    0.747097   -0.540258
  H     -2.090766    1.440772   -1.172429
  H     -2.367239    1.406334    1.518682
  C      1.684344    2.678100   -1.522629
  C      2.161242   -0.379757    1.345097
  C      2.008311   -1.818383   -0.609175
  N      2.767003   -0.020051    2.251815
  N      2.490747   -2.616810   -1.278846
  C      0.838040    2.422292   -0.571462
  C      0.003694    2.149913    0.386533
  H      2.746728    2.753233   -1.318355
  H      1.356495    2.828138   -2.545367
  H     -0.436325    2.968625    0.950497
  H     -0.030696    0.616191    1.840557

 Total Charge           Charge          ....    0
 Multiplicity           Mult            ....    1
 Number of Electrons    NEL             ....  110
 Basis Dimension        Dim             .... 1832

ORBITAL ENERGIES
----------------

  NO   OCC          E(Eh)            E(eV)
   0   2.0000     -15.579190      -423.9313
   1   2.0000     -15.578915      -423.9238
   2   2.0000     -11.320322      -308.0416
   3   2.0000     -11.311003      -307.7880
   4   2.0000     -11.286111      -307.1107
   5   2.0000     -11.285624      -307.0974
   6   2.0000     -11.279874      -306.9410
   7   2.0000     -11.269807      -306.6670
   8   2.0000     -11.262735      -306.4746
   9   2.0000     -11.262526      -306.4689
  10   2.0000     -11.261199      -306.4328
  11   2.0000     -11.259214      -306.3788
  12   2.0000     -11.251398      -306.1661
  13   2.0000     -11.247605      -306.0629
  14   2.0000     -11.245777      -306.0131
  15   2.0000     -11.240997      -305.8831
  16   2.0000      -1.247827       -33.9551
  17   2.0000      -1.229079       -33.4450
  18   2.0000      -1.212516       -32.9942
  19   2.0000      -1.145962       -31.1832
  20   2.0000      -1.110627       -30.2217
  21   2.0000      -1.057037       -28.7634
  22   2.0000      -1.034564       -28.1519
  23   2.0000      -0.987347       -26.8671
  24   2.0000      -0.964860       -26.2552
  25   2.0000      -0.897178       -24.4135
  26   2.0000      -0.859300       -23.3827
  27   2.0000      -0.792595       -21.5676
  28   2.0000      -0.773586       -21.0503
  29   2.0000      -0.747542       -20.3417
  30   2.0000      -0.745136       -20.2762
  31   2.0000      -0.710426       -19.3317
  32   2.0000      -0.675846       -18.3907
  33   2.0000      -0.656253       -17.8575
  34   2.0000      -0.640640       -17.4327
  35   2.0000      -0.625197       -17.0125
  36   2.0000      -0.621436       -16.9101
  37   2.0000      -0.606822       -16.5125
  38   2.0000      -0.579347       -15.7648
  39   2.0000      -0.575211       -15.6523
  40   2.0000      -0.573765       -15.6129
  41   2.0000      -0.562068       -15.2946
  42   2.0000      -0.552237       -15.0271
  43   2.0000      -0.548151       -14.9160
  44   2.0000      -0.515908       -14.0386
  45   2.0000      -0.498170       -13.5559
  46   2.0000      -0.496638       -13.5142
  47   2.0000      -0.490387       -13.3441
  48   2.0000      -0.489852       -13.3296
  49   2.0000      -0.481413       -13.0999
  50   2.0000      -0.467005       -12.7079
  51   2.0000      -0.399882       -10.8814
  52   2.0000      -0.391337       -10.6488
  53   2.0000      -0.381358       -10.3773
  54   2.0000      -0.366187        -9.9645
  55   0.0000       0.014634         0.3982
  56   0.0000       0.022167         0.6032
  57   0.0000       0.023118         0.6291
  58   0.0000       0.028662         0.7799
  59   0.0000       0.035520         0.9666

MULLIKEN ATOMIC CHARGES
-----------------------
   0 C :   -0.617378
   1 C :    1.028279
   2 C :    0.429925
   3 C :    0.043888
   4 C :   -0.663146
   5 C :   -0.544964
   6 C :   -0.062972
   7 H :    0.334188
   8 H :    0.202819
   9 H :    0.311772
  10 C :   -0.701869
  11 H :    0.271903
  12 H :    0.278782
  13 C :   -0.616303
  14 H :    0.268223
  15 H :    0.283758
  16 H :    0.228942
  17 C :   -0.713403
  18 C :    0.759747
  19 C :    0.580905
  20 N :   -0.946489
  21 N :   -0.949265
  22 C :   -0.279445
  23 C :   -0.425617
  24 H :    0.391056
  25 H :    0.363442
  26 H :    0.364927
  27 H :    0.378297
Sum of atomic charges:   -0.0000000

LOEWDIN ATOMIC CHARGES
----------------------
   0 C :    0.537365
   1 C :   -0.097399
   2 C :    0.072023
   3 C :    0.115136
   4 C :    0.426700
   5 C :    0.426652
   6 C :    0.138397
   7 H :   -0.243594
   8 H :   -0.302210
   9 H :   -0.240775
  10 C :    0.519529
  11 H :   -0.271733
  12 H :   -0.270675
  13 C :   -0.216678
  14 H :   -0.238665
  15 H :   -0.257310
  16 H :   -0.245845
  17 C :    0.759636
  18 C :   -0.349615
  19 C :   -0.343837
  20 N :    0.460931
  21 N :    0.452273
  22 C :    0.216218
  23 C :    0.340928
  24 H :   -0.370852
  25 H :   -0.373148
  26 H :   -0.319997
  27 H :   -0.323455

  Mayer bond orders larger than 0.100000
B(  0-C ,  1-C ) :   0.4150 B(  0-C ,  6-C ) :   0.9907 B(  0-C ,  7-H ) :   0.8637
B(  0-C ,  8-H ) :   1.1048 B(  1-C ,  2-C ) :   0.5008 B(  1-C ,  4-C ) :   0.1114
B(  1-C ,  5-C ) :   0.1866 B(  1-C ,  8-H ) :  -0.1935 B(  1-C , 13-C ) :   1.1701
B(  1-C , 17-C ) :   0.1416 B(  1-C , 18-C ) :  -0.5404 B(  1-C , 19-C ) :  -0.4280
B(  2-C ,  3-C ) :   0.7573 B(  2-C , 13-C ) :  -0.3629 B(  2-C , 22-C ) :  -0.2043
B(  2-C , 23-C ) :   0.8111 B(  2-C , 27-H ) :   0.8513 B(  3-C ,  4-C ) :   0.7915
B(  3-C ,  5-C ) :  -0.1893 B(  3-C , 10-C ) :   0.7143 B(  3-C , 16-H ) :   1.0827
B(  3-C , 23-C ) :   0.1674 B(  4-C ,  5-C ) :   1.5338 B(  4-C ,  6-C ) :  -0.1613
B(  4-C , 12-H ) :   1.0936 B(  5-C ,  6-C ) :   0.8778 B(  5-C , 11-H ) :   1.0995
B(  6-C ,  9-H ) :   0.9473 B(  6-C , 10-C ) :   0.9582 B( 10-C , 14-H ) :   0.9683
B( 10-C , 15-H ) :   0.9520 B( 13-C , 18-C ) :   1.6066 B( 13-C , 19-C ) :   1.4822
B( 13-C , 23-C ) :   0.1029 B( 17-C , 22-C ) :   1.7900 B( 17-C , 24-H ) :   0.9124
B( 17-C , 25-H ) :   0.9103 B( 18-C , 20-N ) :   2.0986 B( 19-C , 21-N ) :   2.0596
B( 22-C , 23-C ) :   1.8247 B( 22-C , 24-H ) :  -0.1250 B( 23-C , 26-H ) :   0.8371

MP2 TOTAL ENERGY:     -648.948702334 Eh
FINAL SINGLE POINT ENERGY      -648.948702334455

DIPOLE MOMENT
-------------
                                X             Y             Z
Electronic contribution:     10.11379      -4.98903       3.66059
Nuclear contribution   :    -12.48107       6.01496      -4.23666
                        -----------------------------------------
Total Dipole Moment    :     -2.36728       1.02593      -0.57608
                        -----------------------------------------
Magnitude (a.u.)       :      2.64356
Magnitude (Debye)      :      6.71940

Rotational constants in cm-1:     0.023128     0.016962     0.014036
Rotational constants in MHz :   693.369366   508.497985   420.801379

                             ****ORCA TERMINATED NORMALLY****
TOTAL RUN TIME: 0 days 3 hours 30 minutes 13 seconds 490 msec
