                         Program Version 4.2.1 -  RELEASE  -
|  1> %pal
|  2>  nprocs 32
|  3> end
|  4> !RI-MP2 aug-cc-pVQZ aug-cc-pVQZ/C TightSCF
|  5> %maxcore 4500
|  6> *xyzfile 0 2  03_27P1.xyz
|  7>
|  8>
|  9>                          ****END OF INPUT****

CARTESIAN COORDINATES (ANGSTROEM)
---------------------------------
  C      2.188118   -0.182736    0.066647
  C      1.341612   -0.111499   -1.167785
  C     -0.045625    0.393162   -0.795901
  O     -0.298728    1.552653   -0.599821
  C     -2.661401    0.068691    0.017407
  C     -2.575982    0.393302    1.499688
  C      2.715243    1.089271    0.633087
  C      2.118691   -1.396269    0.928144
  H      1.753704    0.606846   -1.881228
  H     -3.542388   -0.531179   -0.213038
  H     -2.698511    0.977067   -0.582770
  H     -2.525146   -0.515229    2.102001
  H     -3.457448    0.960082    1.809866
  H     -1.695290    1.000462    1.709611
  H      3.088916    1.754921   -0.149204
  H      3.520766    0.902228    1.346823
  H      1.930967    1.650048    1.163594
  H      1.962504   -2.304008    0.340724
  H      1.288199   -1.340777    1.648463
  H      3.034580   -1.515444    1.512966
  H      1.263865   -1.090243   -1.646783
  S     -1.251177   -0.906220   -0.590637

 Total Charge           Charge          ....    0
 Multiplicity           Mult            ....    2
 Number of Electrons    NEL             ....   79
 Basis Dimension        Dim             .... 1322

ORBITAL ENERGIES
----------------
                 SPIN UP ORBITALS
  NO   OCC          E(Eh)            E(eV)
   0   1.0000     -91.961822     -2502.4084
   1   1.0000     -20.550571      -559.2095
   2   1.0000     -11.357670      -309.0579
   3   1.0000     -11.260338      -306.4094
   4   1.0000     -11.242843      -305.9333
   5   1.0000     -11.242105      -305.9132
   6   1.0000     -11.221078      -305.3411
   7   1.0000     -11.218665      -305.2754
   8   1.0000     -11.214183      -305.1534
   9   1.0000      -8.965157      -243.9543
  10   1.0000      -6.646656      -180.8647
  11   1.0000      -6.645546      -180.8345
  12   1.0000      -6.644935      -180.8179
  13   1.0000      -1.403849       -38.2007
  14   1.0000      -1.117000       -30.3951
  15   1.0000      -1.079516       -29.3751
  16   1.0000      -1.003314       -27.3016
  17   1.0000      -0.950446       -25.8629
  18   1.0000      -0.942450       -25.6454
  19   1.0000      -0.842595       -22.9282
  20   1.0000      -0.772673       -21.0255
  21   1.0000      -0.722629       -19.6637
  22   1.0000      -0.666728       -18.1426
  23   1.0000      -0.652258       -17.7488
  24   1.0000      -0.628405       -17.0998
  25   1.0000      -0.622174       -16.9302
  26   1.0000      -0.594955       -16.1896
  27   1.0000      -0.582929       -15.8623
  28   1.0000      -0.574541       -15.6340
  29   1.0000      -0.551200       -14.9989
  30   1.0000      -0.542204       -14.7541
  31   1.0000      -0.535885       -14.5822
  32   1.0000      -0.524224       -14.2649
  33   1.0000      -0.506072       -13.7709
  34   1.0000      -0.496533       -13.5113
  35   1.0000      -0.489644       -13.3239
  36   1.0000      -0.456875       -12.4322
  37   1.0000      -0.413570       -11.2538
  38   1.0000      -0.368301       -10.0220
  39   1.0000      -0.319693        -8.6993
  40   0.0000       0.025450         0.6925
  41   0.0000       0.028103         0.7647
  42   0.0000       0.032084         0.8731
  43   0.0000       0.033953         0.9239
  44   0.0000       0.042429         1.1545

                 SPIN DOWN ORBITALS
  NO   OCC          E(Eh)            E(eV)
   0   1.0000     -91.961754     -2502.4065
   1   1.0000     -20.550117      -559.1971
   2   1.0000     -11.355326      -308.9941
   3   1.0000     -11.260336      -306.4093
   4   1.0000     -11.245430      -306.0037
   5   1.0000     -11.221784      -305.3603
   6   1.0000     -11.221076      -305.3410
   7   1.0000     -11.218096      -305.2599
   8   1.0000     -11.217072      -305.2321
   9   1.0000      -8.965072      -243.9520
  10   1.0000      -6.646458      -180.8593
  11   1.0000      -6.645425      -180.8312
  12   1.0000      -6.644910      -180.8172
  13   1.0000      -1.402350       -38.1599
  14   1.0000      -1.090126       -29.6638
  15   1.0000      -1.071544       -29.1582
  16   1.0000      -0.996647       -27.1201
  17   1.0000      -0.950038       -25.8518
  18   1.0000      -0.942015       -25.6335
  19   1.0000      -0.840106       -22.8604
  20   1.0000      -0.740685       -20.1551
  21   1.0000      -0.707427       -19.2501
  22   1.0000      -0.664329       -18.0773
  23   1.0000      -0.638043       -17.3620
  24   1.0000      -0.618725       -16.8364
  25   1.0000      -0.615623       -16.7519
  26   1.0000      -0.591559       -16.0971
  27   1.0000      -0.571725       -15.5574
  28   1.0000      -0.558976       -15.2105
  29   1.0000      -0.547524       -14.8989
  30   1.0000      -0.536314       -14.5939
  31   1.0000      -0.530637       -14.4394
  32   1.0000      -0.522403       -14.2153
  33   1.0000      -0.505038       -13.7428
  34   1.0000      -0.490199       -13.3390
  35   1.0000      -0.484339       -13.1795
  36   1.0000      -0.454548       -12.3689
  37   1.0000      -0.403933       -10.9916
  38   1.0000      -0.367429        -9.9982
  39   0.0000       0.025604         0.6967
  40   0.0000       0.028166         0.7664
  41   0.0000       0.031950         0.8694
  42   0.0000       0.034012         0.9255
  43   0.0000       0.042376         1.1531

MULLIKEN ATOMIC CHARGES AND SPIN POPULATIONS
--------------------------------------------
   0 C :    0.267138    1.167479
   1 C :   -0.412963   -0.186720
   2 C :    0.579799    0.040585
   3 O :   -0.917779    0.010040
   4 C :   -0.505961   -0.001830
   5 C :   -0.971690    0.000076
   6 C :   -0.894202   -0.165743
   7 C :   -0.925211   -0.165013
   8 H :    0.320362    0.030396
   9 H :    0.344419    0.000285
  10 H :    0.315593    0.000524
  11 H :    0.243470   -0.000155
  12 H :    0.342406    0.000106
  13 H :    0.316988    0.000030
  14 H :    0.232290    0.023947
  15 H :    0.296791    0.012527
  16 H :    0.219798    0.078265
  17 H :    0.236514    0.015164
  18 H :    0.278604    0.081723
  19 H :    0.323803    0.024011
  20 H :    0.261055    0.024736
  21 S :    0.048777    0.009565
Sum of atomic charges         :   -0.0000000

LOEWDIN ATOMIC CHARGES AND SPIN POPULATIONS
-------------------------------------------
   0 C :   -0.002353    0.454349
   1 C :    0.361751    0.114314
   2 C :   -1.078144    0.028104
   3 O :    0.685322    0.012084
   4 C :    0.134419    0.001565
   5 C :    0.841717    0.000270
   6 C :    0.893843    0.123983
   7 C :    0.885524    0.126403
   8 H :   -0.311833    0.014638
   9 H :   -0.371487    0.000209
  10 H :   -0.392828    0.000232
  11 H :   -0.301778    0.000200
  12 H :   -0.284451    0.000049
  13 H :   -0.316151    0.000092
  14 H :   -0.292650    0.013728
  15 H :   -0.298028    0.010288
  16 H :   -0.284799    0.027650
  17 H :   -0.300444    0.011007
  18 H :   -0.282662    0.028661
  19 H :   -0.296699    0.014291
  20 H :   -0.346427    0.011763
  21 S :    1.358157    0.006122

  Mayer bond orders larger than 0.100000
B(  0-C ,  1-C ) :   0.7189 B(  0-C ,  6-C ) :   0.7125 B(  0-C ,  7-C ) :   0.7051
B(  0-C , 19-H ) :  -0.1130 B(  1-C ,  2-C ) :   0.7487 B(  1-C ,  3-O ) :   0.1026
B(  1-C ,  8-H ) :   0.9696 B(  1-C , 20-H ) :   0.9599 B(  2-C ,  3-O ) :   1.0681
B(  2-C , 21-S ) :   0.9695 B(  4-C ,  5-C ) :   0.9981 B(  4-C ,  9-H ) :   0.8443
B(  4-C , 10-H ) :   0.8492 B(  4-C , 21-S ) :   1.0270 B(  5-C , 11-H ) :   0.9436
B(  5-C , 12-H ) :   0.8818 B(  5-C , 13-H ) :   0.8866 B(  6-C , 14-H ) :   1.0407
B(  6-C , 15-H ) :   0.9971 B(  6-C , 16-H ) :   0.9175 B(  7-C , 17-H ) :   1.0399
B(  7-C , 18-H ) :   0.8855 B(  7-C , 19-H ) :   0.9889

MP2 TOTAL ENERGY:     -746.878918137 Eh
FINAL SINGLE POINT ENERGY      -746.878918137367

DIPOLE MOMENT
-------------
                                X             Y             Z
Electronic contribution:     -4.03425      -1.12209      -7.14838
Nuclear contribution   :      4.04387       0.62029       7.32420
                        -----------------------------------------
Total Dipole Moment    :      0.00961      -0.50181       0.17581
                        -----------------------------------------
Magnitude (a.u.)       :      0.53180
Magnitude (Debye)      :      1.35173

Rotational constants in cm-1:     0.071259     0.026619     0.025825
Rotational constants in MHz :  2136.291024   798.008443   774.209865

                             ****ORCA TERMINATED NORMALLY****
TOTAL RUN TIME: 0 days 1 hours 25 minutes 20 seconds 267 msec
