                         Program Version 4.2.1 -  RELEASE  -
|  1> %pal
|  2>  nprocs 32
|  3> end
|  4> !RI-MP2 aug-cc-pVQZ aug-cc-pVQZ/C TightSCF
|  5> %maxcore 4500
|  6> *xyzfile 0 1  04_65R2.xyz
|  7>
|  8>
|  9>                          ****END OF INPUT****

CARTESIAN COORDINATES (ANGSTROEM)
---------------------------------
  C      1.021818   -1.220907    0.000050
  C     -0.370246   -1.205798    0.000014
  C     -1.022699    0.025927   -0.000029
  C     -0.322956    1.233059   -0.000035
  C      1.065095    1.191214    0.000005
  C      1.708576   -0.028498    0.000046
  H      1.568769   -2.155117    0.000083
  H      1.647953    2.103553    0.000001
  F      3.062186   -0.053383    0.000082
  O     -2.389320    0.118262   -0.000060
  H     -2.783409   -0.757434   -0.000120
  C     -1.076220    2.530558   -0.000079
  H     -0.390674    3.377747   -0.000131
  H     -1.724059    2.605178   -0.876132
  H     -1.724022    2.605260    0.875995
  C     -1.160417   -2.485426    0.000023
  H     -1.799704   -2.567880   -0.885351
  H     -0.497948   -3.349877    0.000043
  H     -1.799725   -2.567851    0.885383

 Total Charge           Charge          ....    0
 Multiplicity           Mult            ....    1
 Number of Electrons    NEL             ....   74
 Basis Dimension        Dim             .... 1214

ORBITAL ENERGIES
----------------

  NO   OCC          E(Eh)            E(eV)
   0   2.0000     -26.294963      -715.5223
   1   2.0000     -20.588142      -560.2318
   2   2.0000     -11.312693      -307.8340
   3   2.0000     -11.292990      -307.2979
   4   2.0000     -11.250249      -306.1348
   5   2.0000     -11.244958      -305.9909
   6   2.0000     -11.242890      -305.9346
   7   2.0000     -11.236258      -305.7541
   8   2.0000     -11.234233      -305.6990
   9   2.0000     -11.221837      -305.3617
  10   2.0000      -1.612454       -43.8771
  11   2.0000      -1.407021       -38.2870
  12   2.0000      -1.165570       -31.7168
  13   2.0000      -1.075679       -29.2707
  14   2.0000      -1.029320       -28.0092
  15   2.0000      -0.955851       -26.0100
  16   2.0000      -0.943043       -25.6615
  17   2.0000      -0.834442       -22.7063
  18   2.0000      -0.817219       -22.2377
  19   2.0000      -0.748815       -20.3763
  20   2.0000      -0.714274       -19.4364
  21   2.0000      -0.705051       -19.1854
  22   2.0000      -0.683569       -18.6008
  23   2.0000      -0.638815       -17.3830
  24   2.0000      -0.618261       -16.8237
  25   2.0000      -0.601931       -16.3794
  26   2.0000      -0.588164       -16.0048
  27   2.0000      -0.581606       -15.8263
  28   2.0000      -0.580749       -15.8030
  29   2.0000      -0.566374       -15.4118
  30   2.0000      -0.551961       -15.0196
  31   2.0000      -0.537467       -14.6252
  32   2.0000      -0.527241       -14.3470
  33   2.0000      -0.492440       -13.4000
  34   2.0000      -0.477380       -12.9902
  35   2.0000      -0.339276        -9.2322
  36   2.0000      -0.310239        -8.4420
  37   0.0000       0.021164         0.5759
  38   0.0000       0.028072         0.7639
  39   0.0000       0.032312         0.8793
  40   0.0000       0.036543         0.9944
  41   0.0000       0.041290         1.1236

MULLIKEN ATOMIC CHARGES
-----------------------
   0 C :   -0.885456
   1 C :    0.228678
   2 C :    0.907349
   3 C :    0.245631
   4 C :   -0.797188
   5 C :    1.176021
   6 H :    0.318171
   7 H :    0.360619
   8 F :   -0.809200
   9 O :   -0.835118
  10 H :    0.341505
  11 C :   -0.852296
  12 H :    0.276292
  13 H :    0.231656
  14 H :    0.231666
  15 C :   -0.735249
  16 H :    0.188733
  17 H :    0.219423
  18 H :    0.188764
Sum of atomic charges:   -0.0000000

LOEWDIN ATOMIC CHARGES
----------------------
   0 C :    0.300860
   1 C :   -0.079078
   2 C :   -0.420165
   3 C :   -0.101687
   4 C :    0.303158
   5 C :   -0.670873
   6 H :   -0.327078
   7 H :   -0.325976
   8 F :    0.763851
   9 O :    1.305429
  10 H :   -0.846361
  11 C :    0.900401
  12 H :   -0.304566
  13 H :   -0.283295
  14 H :   -0.283290
  15 C :    0.910045
  16 H :   -0.270985
  17 H :   -0.299406
  18 H :   -0.270984

  Mayer bond orders larger than 0.100000
B(  0-C ,  1-C ) :   0.9482 B(  0-C ,  4-C ) :   0.2144 B(  0-C ,  5-C ) :   1.6011
B(  0-C ,  6-H ) :   0.9054 B(  0-C ,  8-F ) :   0.1515 B(  0-C , 15-C ) :  -0.1459
B(  1-C ,  2-C ) :   1.1556 B(  1-C ,  3-C ) :  -0.2004 B(  1-C ,  5-C ) :  -0.5007
B(  1-C ,  9-O ) :   0.3750 B(  1-C , 15-C ) :   0.7084 B(  1-C , 16-H ) :  -0.1076
B(  1-C , 17-H ) :  -0.1202 B(  1-C , 18-H ) :  -0.1076 B(  2-C ,  3-C ) :   1.0882
B(  2-C ,  5-C ) :   0.1988 B(  2-C ,  9-O ) :  -0.3313 B(  2-C , 10-H ) :  -0.1417
B(  2-C , 15-C ) :  -0.1164 B(  3-C ,  4-C ) :   0.9315 B(  3-C ,  5-C ) :  -0.4838
B(  3-C ,  9-O ) :   0.3439 B(  3-C , 11-C ) :   0.7364 B(  4-C ,  5-C ) :   1.5582
B(  4-C ,  7-H ) :   0.8572 B(  4-C ,  8-F ) :   0.1308 B(  4-C , 11-C ) :  -0.1521
B(  5-C ,  8-F ) :  -0.1711 B(  9-O , 10-H ) :   0.9419 B( 11-C , 12-H ) :   1.0260
B( 11-C , 13-H ) :   1.0106 B( 11-C , 14-H ) :   1.0106 B( 15-C , 16-H ) :   1.0371
B( 15-C , 17-H ) :   1.0568 B( 15-C , 18-H ) :   1.0370

MP2 TOTAL ENERGY:     -484.609685768 Eh
FINAL SINGLE POINT ENERGY      -484.609685767900

DIPOLE MOMENT
-------------
                                X             Y             Z
Electronic contribution:      9.64829       0.09798       0.00026
Nuclear contribution   :    -10.47575      -0.64635      -0.00031
                        -----------------------------------------
Total Dipole Moment    :     -0.82747      -0.54837      -0.00005
                        -----------------------------------------
Magnitude (a.u.)       :      0.99268
Magnitude (Debye)      :      2.52318

Rotational constants in cm-1:     0.059225     0.041662     0.024681
Rotational constants in MHz :  1775.516399  1249.006953   739.932043

                             ****ORCA TERMINATED NORMALLY****
TOTAL RUN TIME: 0 days 0 hours 48 minutes 11 seconds 152 msec
