                         Program Version 4.2.1 -  RELEASE  -
|  1> %pal
|  2>  nprocs 32
|  3> end
|  4> !RI-MP2 aug-cc-pVQZ aug-cc-pVQZ/C TightSCF
|  5> %maxcore 4500
|  6> *xyzfile 0 2  04_41R.xyz
|  7>
|  8>
|  9>                          ****END OF INPUT****

CARTESIAN COORDINATES (ANGSTROEM)
---------------------------------
  N      0.669444    0.496811   -0.242991
  S     -0.017765   -0.967308    0.154953
  O     -1.530369   -0.513976    0.334609
  C     -2.268509   -0.078879   -0.839908
  C     -3.629202    0.370049   -0.362093
  H     -2.328340   -0.918625   -1.532380
  H     -1.713106    0.739806   -1.303297
  C     -3.571278    1.573769    0.570655
  H     -4.123993   -0.471708    0.129256
  H     -4.219264    0.606688   -1.252877
  C      2.114415    0.667640   -0.102592
  C      2.940791   -0.584454   -0.416959
  C      2.349762    1.114906    1.356118
  C      2.481132    1.802789   -1.059929
  H      2.301949    1.504965   -2.094214
  H      3.537434    2.055701   -0.951097
  H      1.883798    2.690093   -0.847561
  H      2.749365   -1.387190    0.294728
  H      3.999722   -0.327136   -0.360689
  H      2.727060   -0.952236   -1.420767
  H      2.089561    0.320789    2.054074
  H      1.756640    2.000301    1.588098
  H      3.406486    1.363449    1.472175
  O      0.395762   -1.437119    1.452051
  O      0.096591   -1.807334   -1.018124
  H     -3.097423    2.427769    0.079636
  H     -2.997033    1.341704    1.468284
  H     -4.573247    1.877398    0.878273

 Total Charge           Charge          ....    0
 Multiplicity           Mult            ....    2
 Number of Electrons    NEL             ....  105
 Basis Dimension        Dim             .... 1700

ORBITAL ENERGIES
----------------
                 SPIN UP ORBITALS
  NO   OCC          E(Eh)            E(eV)
   0   1.0000     -92.228367     -2509.6614
   1   1.0000     -20.617617      -561.0339
   2   1.0000     -20.561890      -559.5175
   3   1.0000     -20.560957      -559.4921
   4   1.0000     -15.639817      -425.5811
   5   1.0000     -11.301711      -307.5352
   6   1.0000     -11.293532      -307.3126
   7   1.0000     -11.237013      -305.7747
   8   1.0000     -11.229049      -305.5580
   9   1.0000     -11.228132      -305.5330
  10   1.0000     -11.224249      -305.4274
  11   1.0000     -11.220052      -305.3131
  12   1.0000      -9.189124      -250.0488
  13   1.0000      -6.875729      -187.0981
  14   1.0000      -6.874538      -187.0657
  15   1.0000      -6.873968      -187.0502
  16   1.0000      -1.513885       -41.1949
  17   1.0000      -1.392768       -37.8992
  18   1.0000      -1.360580       -37.0233
  19   1.0000      -1.270052       -34.5599
  20   1.0000      -1.086860       -29.5750
  21   1.0000      -1.071076       -29.1455
  22   1.0000      -0.956914       -26.0390
  23   1.0000      -0.955428       -25.9985
  24   1.0000      -0.954457       -25.9721
  25   1.0000      -0.869999       -23.6739
  26   1.0000      -0.827161       -22.5082
  27   1.0000      -0.773919       -21.0594
  28   1.0000      -0.732905       -19.9434
  29   1.0000      -0.701194       -19.0805
  30   1.0000      -0.690091       -18.7783
  31   1.0000      -0.668016       -18.1776
  32   1.0000      -0.647116       -17.6089
  33   1.0000      -0.637972       -17.3601
  34   1.0000      -0.615747       -16.7553
  35   1.0000      -0.608633       -16.5618
  36   1.0000      -0.600564       -16.3422
  37   1.0000      -0.587646       -15.9907
  38   1.0000      -0.575152       -15.6507
  39   1.0000      -0.561205       -15.2712
  40   1.0000      -0.547916       -14.9095
  41   1.0000      -0.533417       -14.5150
  42   1.0000      -0.529458       -14.4073
  43   1.0000      -0.526328       -14.3221
  44   1.0000      -0.521973       -14.2036
  45   1.0000      -0.511250       -13.9118
  46   1.0000      -0.510147       -13.8818
  47   1.0000      -0.500654       -13.6235
  48   1.0000      -0.494036       -13.4434
  49   1.0000      -0.487975       -13.2785
  50   1.0000      -0.483009       -13.1433
  51   1.0000      -0.455138       -12.3849
  52   1.0000      -0.448684       -12.2093
  53   0.0000       0.021455         0.5838
  54   0.0000       0.026136         0.7112
  55   0.0000       0.030287         0.8241
  56   0.0000       0.033023         0.8986
  57   0.0000       0.038345         1.0434

                 SPIN DOWN ORBITALS
  NO   OCC          E(Eh)            E(eV)
   0   1.0000     -92.229003     -2509.6788
   1   1.0000     -20.617715      -561.0365
   2   1.0000     -20.559990      -559.4658
   3   1.0000     -20.559240      -559.4454
   4   1.0000     -15.608157      -424.7195
   5   1.0000     -11.301728      -307.5356
   6   1.0000     -11.295878      -307.3765
   7   1.0000     -11.237008      -305.7745
   8   1.0000     -11.227709      -305.5215
   9   1.0000     -11.226857      -305.4983
  10   1.0000     -11.223532      -305.4078
  11   1.0000     -11.220053      -305.3132
  12   1.0000      -9.189998      -250.0726
  13   1.0000      -6.876592      -187.1216
  14   1.0000      -6.875944      -187.1039
  15   1.0000      -6.874764      -187.0718
  16   1.0000      -1.509851       -41.0851
  17   1.0000      -1.391209       -37.8567
  18   1.0000      -1.355482       -36.8845
  19   1.0000      -1.197740       -32.5922
  20   1.0000      -1.081927       -29.4407
  21   1.0000      -1.049022       -28.5453
  22   1.0000      -0.954795       -25.9813
  23   1.0000      -0.953057       -25.9340
  24   1.0000      -0.948163       -25.8008
  25   1.0000      -0.863019       -23.4839
  26   1.0000      -0.825439       -22.4613
  27   1.0000      -0.770024       -20.9534
  28   1.0000      -0.726720       -19.7751
  29   1.0000      -0.691829       -18.8256
  30   1.0000      -0.678644       -18.4668
  31   1.0000      -0.658686       -17.9237
  32   1.0000      -0.632016       -17.1980
  33   1.0000      -0.618899       -16.8411
  34   1.0000      -0.613597       -16.6968
  35   1.0000      -0.607085       -16.5196
  36   1.0000      -0.590117       -16.0579
  37   1.0000      -0.578516       -15.7422
  38   1.0000      -0.559800       -15.2329
  39   1.0000      -0.558171       -15.1886
  40   1.0000      -0.540722       -14.7138
  41   1.0000      -0.530020       -14.4226
  42   1.0000      -0.525027       -14.2867
  43   1.0000      -0.513998       -13.9866
  44   1.0000      -0.504611       -13.7312
  45   1.0000      -0.504274       -13.7220
  46   1.0000      -0.497874       -13.5479
  47   1.0000      -0.492617       -13.4048
  48   1.0000      -0.488659       -13.2971
  49   1.0000      -0.485162       -13.2019
  50   1.0000      -0.479076       -13.0363
  51   1.0000      -0.430847       -11.7239
  52   0.0000       0.021496         0.5849
  53   0.0000       0.026152         0.7116
  54   0.0000       0.029088         0.7915
  55   0.0000       0.033045         0.8992
  56   0.0000       0.038124         1.0374

MULLIKEN ATOMIC CHARGES AND SPIN POPULATIONS
--------------------------------------------
   0 N :   -0.888482    1.086654
   1 S :    3.429826   -0.104281
   2 O :   -1.149818   -0.009217
   3 C :   -0.084483   -0.003275
   4 C :   -0.495459    0.000618
   5 H :    0.351330   -0.000162
   6 H :    0.290181    0.002423
   7 C :   -0.850120   -0.000413
   8 H :    0.233485    0.000107
   9 H :    0.280196   -0.000034
  10 C :    1.794635   -0.179252
  11 C :   -1.102664    0.034231
  12 C :   -1.185122    0.097438
  13 C :   -1.155682    0.008607
  14 H :    0.222816   -0.003971
  15 H :    0.310450   -0.004279
  16 H :    0.268972   -0.002802
  17 H :    0.239769   -0.002230
  18 H :    0.289585   -0.002301
  19 H :    0.211332    0.003669
  20 H :    0.273040    0.007305
  21 H :    0.287541   -0.001511
  22 H :    0.301265    0.007312
  23 O :   -1.347804    0.017536
  24 O :   -1.285884    0.048237
  25 H :    0.173479   -0.000198
  26 H :    0.227528   -0.000140
  27 H :    0.360085   -0.000071
Sum of atomic charges         :   -0.0000000

LOEWDIN ATOMIC CHARGES AND SPIN POPULATIONS
-------------------------------------------
   0 N :    0.482901    0.638414
   1 S :   -0.757127    0.117440
   2 O :    0.624469   -0.002781
   3 C :    0.126865   -0.001371
   4 C :    0.487989   -0.000213
   5 H :   -0.310036   -0.000300
   6 H :   -0.323793   -0.000907
   7 C :    0.920450   -0.000137
   8 H :   -0.275816   -0.000058
   9 H :   -0.275011   -0.000015
  10 C :   -0.599734    0.124065
  11 C :    0.873220    0.006549
  12 C :    0.885555    0.030996
  13 C :    0.876166    0.004936
  14 H :   -0.272297    0.002544
  15 H :   -0.274269    0.000148
  16 H :   -0.281665   -0.001222
  17 H :   -0.315464    0.000531
  18 H :   -0.271349    0.001339
  19 H :   -0.282476    0.002318
  20 H :   -0.316056    0.005356
  21 H :   -0.271486    0.008512
  22 H :   -0.271489    0.008670
  23 O :    0.337760    0.014364
  24 O :    0.339938    0.040898
  25 H :   -0.282680   -0.000018
  26 H :   -0.293936   -0.000048
  27 H :   -0.280629   -0.000007

  Mayer bond orders larger than 0.100000
B(  0-N ,  1-S ) :   0.8333 B(  0-N ,  2-O ) :  -0.2073 B(  0-N , 12-C ) :   0.1339
B(  0-N , 13-C ) :   0.1719 B(  1-S ,  2-O ) :   0.3557 B(  1-S , 23-O ) :   0.7200
B(  1-S , 24-O ) :   0.9794 B(  2-O ,  3-C ) :   0.6897 B(  3-C ,  4-C ) :   0.9140
B(  3-C ,  5-H ) :   0.8330 B(  3-C ,  6-H ) :   0.8349 B(  4-C ,  7-C ) :   0.9566
B(  4-C ,  8-H ) :   0.8968 B(  4-C ,  9-H ) :   0.9220 B(  7-C , 25-H ) :   0.9872
B(  7-C , 26-H ) :   0.9406 B(  7-C , 27-H ) :   0.9079 B( 10-C , 11-C ) :   0.4463
B( 10-C , 12-C ) :   0.4745 B( 10-C , 13-C ) :   0.2076 B( 10-C , 14-H ) :  -0.1532
B( 10-C , 16-H ) :  -0.1595 B( 10-C , 17-H ) :  -0.1034 B( 10-C , 19-H ) :  -0.1118
B( 11-C , 12-C ) :   0.1226 B( 11-C , 13-C ) :   0.1019 B( 11-C , 17-H ) :   1.0536
B( 11-C , 18-H ) :   0.9543 B( 11-C , 19-H ) :   1.0418 B( 12-C , 13-C ) :   0.1254
B( 12-C , 20-H ) :   1.0076 B( 12-C , 21-H ) :   0.9907 B( 12-C , 22-H ) :   0.9289
B( 13-C , 14-H ) :   1.0670 B( 13-C , 15-H ) :   0.9663 B( 13-C , 16-H ) :   1.0355

MP2 TOTAL ENERGY:     -953.632158076 Eh
FINAL SINGLE POINT ENERGY      -953.632158076131

DIPOLE MOMENT
-------------
                                X             Y             Z
Electronic contribution:     -1.43487     -11.62110       1.25833
Nuclear contribution   :      1.40864      13.03893      -1.81947
                        -----------------------------------------
Total Dipole Moment    :     -0.02623       1.41783      -0.56114
                        -----------------------------------------
Magnitude (a.u.)       :      1.52506
Magnitude (Debye)      :      3.87639

Rotational constants in cm-1:     0.043842     0.016790     0.014972
Rotational constants in MHz :  1314.347405   503.341953   448.848558

                             ****ORCA TERMINATED NORMALLY****
TOTAL RUN TIME: 0 days 3 hours 39 minutes 15 seconds 100 msec
