                         Program Version 4.2.1 -  RELEASE  -
|  1> %pal
|  2>  nprocs 32
|  3> end
|  4> !RI-MP2 aug-cc-pVQZ aug-cc-pVQZ/C TightSCF
|  5> %maxcore 4500
|  6> *xyzfile 0 1  03_12P2.xyz
|  7>
|  8>
|  9>                          ****END OF INPUT****

CARTESIAN COORDINATES (ANGSTROEM)
---------------------------------
  F      0.051621    1.086746    0.000000
  S      0.051621   -0.568097    0.000000
  H     -1.290526   -0.691168    0.000000

 Total Charge           Charge          ....    0
 Multiplicity           Mult            ....    1
 Number of Electrons    NEL             ....   26
 Basis Dimension        Dim             ....  210

ORBITAL ENERGIES
----------------

  NO   OCC          E(Eh)            E(eV)
   0   2.0000     -92.047578     -2504.7419
   1   2.0000     -26.311767      -715.9796
   2   2.0000      -9.041605      -246.0346
   3   2.0000      -6.723041      -182.9432
   4   2.0000      -6.721344      -182.8971
   5   2.0000      -6.719986      -182.8601
   6   2.0000      -1.599921       -43.5361
   7   2.0000      -0.980986       -26.6940
   8   2.0000      -0.705884       -19.2081
   9   2.0000      -0.686295       -18.6750
  10   2.0000      -0.666071       -18.1247
  11   2.0000      -0.526245       -14.3199
  12   2.0000      -0.398820       -10.8525
  13   0.0000       0.025392         0.6909
  14   0.0000       0.046503         1.2654
  15   0.0000       0.071193         1.9372
  16   0.0000       0.079299         2.1578
  17   0.0000       0.112594         3.0638

MULLIKEN ATOMIC CHARGES
-----------------------
   0 F :   -0.550446
   1 S :    0.410978
   2 H :    0.139469
Sum of atomic charges:   -0.0000000

LOEWDIN ATOMIC CHARGES
----------------------
   0 F :   -0.008594
   1 S :    0.902862
   2 H :   -0.894268

  Mayer bond orders larger than 0.100000
B(  0-F ,  1-S ) :   0.6465 B(  1-S ,  2-H ) :   0.9544

MP2 TOTAL ENERGY:     -498.056764377 Eh
FINAL SINGLE POINT ENERGY      -498.056764376615

DIPOLE MOMENT
-------------
                                X             Y             Z
Electronic contribution:      0.88048       1.02517       0.00000
Nuclear contribution   :     -1.25962      -1.63832       0.00000
                        -----------------------------------------
Total Dipole Moment    :     -0.37914      -0.61315       0.00000
                        -----------------------------------------
Magnitude (a.u.)       :      0.72090
Magnitude (Debye)      :      1.83239

Rotational constants in cm-1:     9.632529     0.507180     0.481811
Rotational constants in MHz : 288775.969432 15204.868679 14444.333795

                             ****ORCA TERMINATED NORMALLY****
TOTAL RUN TIME: 0 days 0 hours 0 minutes 17 seconds 948 msec
