                         Program Version 4.2.1 -  RELEASE  -
|  1> %pal
|  2>  nprocs 32
|  3> end
|  4> !RI-MP2 aug-cc-pVQZ aug-cc-pVQZ/C TightSCF
|  5> %maxcore 4500
|  6> *xyzfile 1 1  10_32P.xyz
|  7>
|  8>
|  9>                          ****END OF INPUT****

CARTESIAN COORDINATES (ANGSTROEM)
---------------------------------
  C     -1.447179   -2.686809   -0.538473
  C     -0.579338   -1.633536    0.160196
  C     -2.629054   -0.914214    0.593373
  C     -2.883467   -2.144611   -0.284272
  H     -1.201794   -2.761546   -1.595503
  H     -1.304659   -3.666432   -0.082377
  H     -3.419842   -1.892924   -1.201756
  H     -3.505006   -2.853774    0.261356
  C     -1.408301   -1.317197    1.410976
  H     -1.005975   -0.533559    2.048422
  H     -1.612425   -2.198668    2.016850
  H      0.463408   -1.896273    0.295120
  H     -3.491189   -0.482124    1.094676
  N     -2.009499    0.132909   -0.322468
  N     -0.687048   -0.404804   -0.669373
  C      0.268761    0.724378   -0.505450
  C      1.675285    0.249067   -0.243926
  C      2.190424    0.091254    1.040200
  C      2.479283   -0.066634   -1.335880
  C      3.482647   -0.378893    1.226464
  H      1.597003    0.337565    1.911996
  C      3.769088   -0.541681   -1.151884
  H      2.091050    0.061689   -2.340133
  C      4.272920   -0.699183    0.131516
  H      3.874574   -0.489929    2.229747
  H      4.383114   -0.781412   -2.010826
  H      5.282033   -1.063041    0.278588
  C     -1.862380    1.550207    0.241444
  C     -0.357015    1.674833    0.519425
  C      0.203536    3.087354    0.447952
  H     -0.292288    3.752067    1.157177
  H      1.265038    3.072479    0.696178
  H      0.103522    3.514675   -0.550959
  C     -2.449593    2.528942   -0.758396
  H     -3.500590    2.303617   -0.954646
  H     -2.406454    3.540725   -0.358162
  H     -1.906107    2.519899   -1.705808
  H      0.277253    1.237977   -1.471993
  H     -0.174902    1.289289    1.522533
  H     -2.438217    1.569840    1.166194
  H     -2.555424    0.183463   -1.183379

 Total Charge           Charge          ....    1
 Multiplicity           Mult            ....    1
 Number of Electrons    NEL             ....  132
 Basis Dimension        Dim             .... 2498

ORBITAL ENERGIES
----------------

  NO   OCC          E(Eh)            E(eV)
   0   2.0000     -15.843175      -431.1147
   1   2.0000     -15.744835      -428.4387
   2   2.0000     -11.436164      -311.1938
   3   2.0000     -11.434995      -311.1620
   4   2.0000     -11.405382      -310.3562
   5   2.0000     -11.402150      -310.2683
   6   2.0000     -11.375625      -309.5465
   7   2.0000     -11.372922      -309.4730
   8   2.0000     -11.370101      -309.3962
   9   2.0000     -11.367418      -309.3232
  10   2.0000     -11.354382      -308.9685
  11   2.0000     -11.353103      -308.9336
  12   2.0000     -11.343963      -308.6849
  13   2.0000     -11.340740      -308.5972
  14   2.0000     -11.340232      -308.5834
  15   2.0000     -11.337216      -308.5013
  16   2.0000     -11.335612      -308.4577
  17   2.0000     -11.334292      -308.4218
  18   2.0000      -1.529124       -41.6096
  19   2.0000      -1.310044       -35.6481
  20   2.0000      -1.300274       -35.3823
  21   2.0000      -1.259024       -34.2598
  22   2.0000      -1.226615       -33.3779
  23   2.0000      -1.158204       -31.5163
  24   2.0000      -1.130371       -30.7590
  25   2.0000      -1.123784       -30.5797
  26   2.0000      -1.122496       -30.5447
  27   2.0000      -1.078936       -29.3593
  28   2.0000      -1.053796       -28.6753
  29   2.0000      -1.003654       -27.3108
  30   2.0000      -0.969192       -26.3731
  31   2.0000      -0.946857       -25.7653
  32   2.0000      -0.929959       -25.3055
  33   2.0000      -0.919995       -25.0343
  34   2.0000      -0.907148       -24.6847
  35   2.0000      -0.858205       -23.3529
  36   2.0000      -0.844621       -22.9833
  37   2.0000      -0.837404       -22.7869
  38   2.0000      -0.801994       -21.8234
  39   2.0000      -0.786609       -21.4047
  40   2.0000      -0.767235       -20.8775
  41   2.0000      -0.749720       -20.4009
  42   2.0000      -0.744358       -20.2550
  43   2.0000      -0.739297       -20.1173
  44   2.0000      -0.725542       -19.7430
  45   2.0000      -0.703420       -19.1410
  46   2.0000      -0.698342       -19.0028
  47   2.0000      -0.696649       -18.9568
  48   2.0000      -0.691110       -18.8061
  49   2.0000      -0.689062       -18.7503
  50   2.0000      -0.679348       -18.4860
  51   2.0000      -0.670715       -18.2511
  52   2.0000      -0.667606       -18.1665
  53   2.0000      -0.651287       -17.7224
  54   2.0000      -0.646060       -17.5802
  55   2.0000      -0.626027       -17.0351
  56   2.0000      -0.620338       -16.8803
  57   2.0000      -0.619170       -16.8485
  58   2.0000      -0.610257       -16.6059
  59   2.0000      -0.607600       -16.5336
  60   2.0000      -0.605978       -16.4895
  61   2.0000      -0.594288       -16.1714
  62   2.0000      -0.588533       -16.0148
  63   2.0000      -0.528962       -14.3938
  64   2.0000      -0.445457       -12.1215
  65   2.0000      -0.444278       -12.0894
  66   0.0000      -0.069909        -1.9023
  67   0.0000      -0.061437        -1.6718
  68   0.0000      -0.053382        -1.4526
  69   0.0000      -0.052280        -1.4226
  70   0.0000      -0.041182        -1.1206

MULLIKEN ATOMIC CHARGES
-----------------------
   0 C :   -0.878262
   1 C :    0.318278
   2 C :   -0.090648
   3 C :   -0.723550
   4 H :    0.293281
   5 H :    0.204989
   6 H :    0.239268
   7 H :    0.197247
   8 C :   -0.793735
   9 H :    0.314924
  10 H :    0.107225
  11 H :    0.464888
  12 H :    0.403745
  13 N :    1.159160
  14 N :   -0.463291
  15 C :    0.686682
  16 C :    0.896424
  17 C :   -0.124873
  18 C :   -0.922373
  19 C :   -0.590611
  20 H :    0.205923
  21 C :   -0.497074
  22 H :    0.167458
  23 C :   -0.449789
  24 H :    0.227973
  25 H :    0.218064
  26 H :    0.356796
  27 C :    0.011341
  28 C :    0.547280
  29 C :   -1.195164
  30 H :    0.179108
  31 H :    0.201844
  32 H :    0.123474
  33 C :   -1.103660
  34 H :    0.165671
  35 H :    0.152192
  36 H :    0.223247
  37 H :    0.400050
  38 H :    0.261602
  39 H :    0.333011
  40 H :   -0.228115
Sum of atomic charges:    1.0000000

LOEWDIN ATOMIC CHARGES
----------------------
   0 C :    0.597458
   1 C :    0.030982
   2 C :    0.137289
   3 C :    0.607486
   4 H :   -0.245177
   5 H :   -0.239444
   6 H :   -0.238383
   7 H :   -0.236021
   8 C :    0.598297
   9 H :   -0.259517
  10 H :   -0.221954
  11 H :   -0.263944
  12 H :   -0.206251
  13 N :    0.691623
  14 N :    0.580429
  15 C :   -0.008677
  16 C :   -0.071116
  17 C :    0.354798
  18 C :    0.374888
  19 C :    0.380064
  20 H :   -0.320416
  21 C :    0.376664
  22 H :   -0.298182
  23 C :    0.366809
  24 H :   -0.306615
  25 H :   -0.307513
  26 H :   -0.308072
  27 C :    0.148175
  28 C :    0.150988
  29 C :    0.981912
  30 H :   -0.244470
  31 H :   -0.252685
  32 H :   -0.270968
  33 C :    0.989671
  34 H :   -0.243491
  35 H :   -0.260170
  36 H :   -0.249509
  37 H :   -0.310639
  38 H :   -0.326421
  39 H :   -0.247333
  40 H :   -0.430566

  Mayer bond orders larger than 0.100000
B(  0-C ,  1-C ) :   0.1197 B(  0-C ,  2-C ) :  -0.2024 B(  0-C ,  3-C ) :   1.2020
B(  0-C ,  4-H ) :   1.0434 B(  0-C ,  5-H ) :   1.1130 B(  1-C ,  3-C ) :  -0.3028
B(  1-C ,  4-H ) :  -0.1082 B(  1-C ,  5-H ) :  -0.1108 B(  1-C ,  8-C ) :   0.7955
B(  1-C , 11-H ) :   0.7445 B(  1-C , 14-N ) :   0.5654 B(  1-C , 18-C ) :  -0.1675
B(  2-C ,  3-C ) :   0.5501 B(  2-C ,  8-C ) :   0.8153 B(  2-C , 12-H ) :   0.9597
B(  2-C , 13-N ) :   0.9186 B(  3-C ,  6-H ) :   1.0275 B(  3-C ,  7-H ) :   1.0939
B(  8-C ,  9-H ) :   0.9908 B(  8-C , 10-H ) :   1.1348 B(  8-C , 13-N ) :  -0.1435
B(  8-C , 27-C ) :   0.1018 B(  8-C , 28-C ) :  -0.1541 B(  9-H , 28-C ) :  -0.1039
B( 11-H , 16-C ) :   0.1259 B( 13-N , 14-N ) :   0.4614 B( 13-N , 15-C ) :   0.1327
B( 13-N , 27-C ) :   0.6739 B( 13-N , 40-H ) :   1.1480 B( 14-N , 15-C ) :   0.9480
B( 14-N , 16-C ) :   0.1846 B( 15-C , 16-C ) :  -0.1803 B( 15-C , 18-C ) :  -0.4269
B( 15-C , 28-C ) :   0.7389 B( 15-C , 37-H ) :   0.9659 B( 16-C , 17-C ) :   0.6854
B( 16-C , 18-C ) :   0.7805 B( 16-C , 19-C ) :  -0.2296 B( 16-C , 21-C ) :  -0.4775
B( 16-C , 28-C ) :   0.1679 B( 16-C , 37-H ) :  -0.1709 B( 17-C , 18-C ) :  -0.1444
B( 17-C , 19-C ) :   1.2248 B( 17-C , 20-H ) :   1.1302 B( 17-C , 21-C ) :   0.1589
B( 17-C , 23-C ) :  -0.1190 B( 17-C , 24-H ) :  -0.1060 B( 18-C , 19-C ) :   0.1800
B( 18-C , 21-C ) :   1.5214 B( 18-C , 22-H ) :   1.1806 B( 18-C , 25-H ) :  -0.1185
B( 19-C , 23-C ) :   1.2435 B( 19-C , 24-H ) :   1.1345 B( 19-C , 26-H ) :  -0.1226
B( 21-C , 23-C ) :   1.1923 B( 21-C , 25-H ) :   1.1799 B( 23-C , 25-H ) :  -0.1014
B( 23-C , 26-H ) :   1.0188 B( 27-C , 28-C ) :   1.0350 B( 27-C , 33-C ) :   0.1825
B( 27-C , 34-H ) :  -0.1403 B( 27-C , 36-H ) :  -0.2481 B( 27-C , 39-H ) :   0.9431
B( 28-C , 29-C ) :  -0.1625 B( 28-C , 30-H ) :  -0.2296 B( 28-C , 31-H ) :  -0.1900
B( 28-C , 32-H ) :  -0.3706 B( 28-C , 33-C ) :  -0.1270 B( 28-C , 38-H ) :   0.9673
B( 29-C , 30-H ) :   1.2250 B( 29-C , 31-H ) :   1.1370 B( 29-C , 32-H ) :   1.2639
B( 33-C , 34-H ) :   1.1564 B( 33-C , 35-H ) :   1.1932 B( 33-C , 36-H ) :   1.1305

MP2 TOTAL ENERGY:     -731.493246227 Eh
FINAL SINGLE POINT ENERGY      -731.493246227137

DIPOLE MOMENT
-------------
                                X             Y             Z
Electronic contribution:      7.36790      -4.69831      -1.00500
Nuclear contribution   :     -9.74374       4.88742       1.24954
                        -----------------------------------------
Total Dipole Moment    :     -2.37584       0.18911       0.24454
                        -----------------------------------------
Magnitude (a.u.)       :      2.39586
Magnitude (Debye)      :      6.08980

Rotational constants in cm-1:     0.022129     0.011729     0.009086
Rotational constants in MHz :   663.406742   351.622685   272.379498

                             ****ORCA TERMINATED NORMALLY****
TOTAL RUN TIME: 0 days 7 hours 55 minutes 56 seconds 139 msec
