                         Program Version 4.2.1 -  RELEASE  -
|  1> %pal
|  2>  nprocs 32
|  3> end
|  4> !RI-MP2 aug-cc-pVQZ aug-cc-pVQZ/C TightSCF
|  5> %maxcore 4500
|  6> *xyzfile 0 2  04_18P.xyz
|  7>
|  8>
|  9>                          ****END OF INPUT****

CARTESIAN COORDINATES (ANGSTROEM)
---------------------------------
  C     -0.185423    1.540666   -0.169841
  H      0.355422    2.369660    0.310915
  C     -2.512563    0.440119   -0.183571
  H     -3.502096    0.552602    0.260850
  H     -0.372058    1.842073   -1.203551
  H     -2.590591    0.754040   -1.226241
  C     -1.509532    1.314481    0.562856
  H     -1.972907    2.294662    0.712171
  H     -1.319429    0.899100    1.555009
  C      0.722365    0.359802   -0.200432
  C      2.713505   -0.550583   -0.625847
  C      2.476573   -0.607460    0.880962
  H      2.463217   -1.497305   -1.113362
  H      3.718497   -0.243185   -0.906091
  H      2.538987   -1.615086    1.291027
  H      3.146295    0.055655    1.432968
  S     -2.204407   -1.360619   -0.122152
  O      1.798693    0.457233   -1.045097
  O      1.139017   -0.123101    1.020142
  H     -0.926052   -1.297517   -0.544381

 Total Charge           Charge          ....    0
 Multiplicity           Mult            ....    2
 Number of Electrons    NEL             ....   79
 Basis Dimension        Dim             .... 1230

ORBITAL ENERGIES
----------------
                 SPIN UP ORBITALS
  NO   OCC          E(Eh)            E(eV)
   0   1.0000     -91.935582     -2501.6944
   1   1.0000     -20.584989      -560.1460
   2   1.0000     -20.580217      -560.0162
   3   1.0000     -11.328069      -308.2524
   4   1.0000     -11.294971      -307.3518
   5   1.0000     -11.293338      -307.3074
   6   1.0000     -11.253649      -306.2274
   7   1.0000     -11.231133      -305.6147
   8   1.0000     -11.229021      -305.5572
   9   1.0000      -8.938168      -243.2199
  10   1.0000      -6.620204      -180.1449
  11   1.0000      -6.618965      -180.1112
  12   1.0000      -6.617884      -180.0818
  13   1.0000      -1.470829       -40.0233
  14   1.0000      -1.359092       -36.9828
  15   1.0000      -1.101755       -29.9803
  16   1.0000      -1.049654       -28.5625
  17   1.0000      -0.989108       -26.9150
  18   1.0000      -0.910697       -24.7813
  19   1.0000      -0.874813       -23.8049
  20   1.0000      -0.825652       -22.4671
  21   1.0000      -0.787301       -21.4235
  22   1.0000      -0.728730       -19.8298
  23   1.0000      -0.704751       -19.1773
  24   1.0000      -0.654074       -17.7983
  25   1.0000      -0.637791       -17.3552
  26   1.0000      -0.617886       -16.8135
  27   1.0000      -0.608010       -16.5448
  28   1.0000      -0.587785       -15.9944
  29   1.0000      -0.555332       -15.1114
  30   1.0000      -0.543947       -14.8015
  31   1.0000      -0.536090       -14.5878
  32   1.0000      -0.524192       -14.2640
  33   1.0000      -0.516358       -14.0508
  34   1.0000      -0.491231       -13.3671
  35   1.0000      -0.475744       -12.9457
  36   1.0000      -0.464255       -12.6330
  37   1.0000      -0.440995       -12.0001
  38   1.0000      -0.345718        -9.4075
  39   1.0000      -0.315965        -8.5979
  40   0.0000       0.023272         0.6333
  41   0.0000       0.027287         0.7425
  42   0.0000       0.033194         0.9032
  43   0.0000       0.034917         0.9501
  44   0.0000       0.042493         1.1563

                 SPIN DOWN ORBITALS
  NO   OCC          E(Eh)            E(eV)
   0   1.0000     -91.935221     -2501.6845
   1   1.0000     -20.580630      -560.0274
   2   1.0000     -20.575187      -559.8793
   3   1.0000     -11.302910      -307.5678
   4   1.0000     -11.295108      -307.3555
   5   1.0000     -11.293499      -307.3117
   6   1.0000     -11.253680      -306.2282
   7   1.0000     -11.231587      -305.6270
   8   1.0000     -11.228756      -305.5500
   9   1.0000      -8.937774      -243.2092
  10   1.0000      -6.619231      -180.1184
  11   1.0000      -6.618124      -180.0883
  12   1.0000      -6.617662      -180.0757
  13   1.0000      -1.454577       -39.5811
  14   1.0000      -1.346747       -36.6468
  15   1.0000      -1.094014       -29.7696
  16   1.0000      -1.041526       -28.3414
  17   1.0000      -0.986557       -26.8456
  18   1.0000      -0.901049       -24.5188
  19   1.0000      -0.871789       -23.7226
  20   1.0000      -0.810394       -22.0519
  21   1.0000      -0.773074       -21.0364
  22   1.0000      -0.706776       -19.2323
  23   1.0000      -0.696287       -18.9469
  24   1.0000      -0.638359       -17.3706
  25   1.0000      -0.630807       -17.1651
  26   1.0000      -0.609173       -16.5764
  27   1.0000      -0.595103       -16.1936
  28   1.0000      -0.570598       -15.5268
  29   1.0000      -0.537221       -14.6185
  30   1.0000      -0.533521       -14.5178
  31   1.0000      -0.526460       -14.3257
  32   1.0000      -0.516595       -14.0573
  33   1.0000      -0.509737       -13.8706
  34   1.0000      -0.489824       -13.3288
  35   1.0000      -0.469253       -12.7690
  36   1.0000      -0.440988       -11.9999
  37   1.0000      -0.436476       -11.8771
  38   1.0000      -0.344432        -9.3725
  39   0.0000       0.023053         0.6273
  40   0.0000       0.027071         0.7366
  41   0.0000       0.033251         0.9048
  42   0.0000       0.034947         0.9510
  43   0.0000       0.042238         1.1494

MULLIKEN ATOMIC CHARGES AND SPIN POPULATIONS
--------------------------------------------
   0 C :   -0.545944   -0.125013
   1 H :    0.242331    0.106869
   2 C :   -0.473008    0.003556
   3 H :    0.273013   -0.001229
   4 H :    0.313704   -0.016633
   5 H :    0.218419    0.002553
   6 C :   -0.438315    0.005254
   7 H :    0.254784   -0.008558
   8 H :    0.304832    0.005990
   9 C :    1.292008    0.910554
  10 C :   -0.453324   -0.006571
  11 C :   -0.424617   -0.012950
  12 H :    0.317688    0.001731
  13 H :    0.429126   -0.002040
  14 H :    0.335135    0.004809
  15 H :    0.363938    0.003118
  16 S :   -0.190387    0.035020
  17 O :   -0.954478    0.070820
  18 O :   -0.802418    0.066629
  19 H :   -0.062486   -0.043910
Sum of atomic charges         :    0.0000000

LOEWDIN ATOMIC CHARGES AND SPIN POPULATIONS
-------------------------------------------
   0 C :    0.444256    0.101271
   1 H :   -0.276069    0.025360
   2 C :    0.120523    0.007166
   3 H :   -0.382736    0.000756
   4 H :   -0.302037    0.009306
   5 H :   -0.361348    0.000384
   6 C :    0.429906    0.008788
   7 H :   -0.278249    0.001058
   8 H :   -0.300081    0.000905
   9 C :   -0.778024    0.456385
  10 C :    0.172293    0.011860
  11 C :    0.185971    0.010031
  12 H :   -0.290846    0.001684
  13 H :   -0.296513    0.000756
  14 H :   -0.294934    0.000232
  15 H :   -0.293760    0.002987
  16 S :    1.612354    0.025986
  17 O :    0.857373    0.147316
  18 O :    0.856331    0.148997
  19 H :   -0.824410    0.038774

  Mayer bond orders larger than 0.100000
B(  0-C ,  1-H ) :   0.8822 B(  0-C ,  4-H ) :   0.9041 B(  0-C ,  6-C ) :   0.9383
B(  0-C ,  9-C ) :   0.8060 B(  0-C , 17-O ) :   0.1173 B(  2-C ,  3-H ) :   0.9372
B(  2-C ,  5-H ) :   0.9498 B(  2-C ,  6-C ) :   0.9657 B(  2-C , 16-S ) :   0.8625
B(  6-C ,  7-H ) :   0.9321 B(  6-C ,  8-H ) :   0.8307 B(  6-C ,  9-C ) :  -0.1265
B(  9-C , 11-C ) :  -0.1337 B(  9-C , 17-O ) :   0.5408 B(  9-C , 18-O ) :   0.6379
B( 10-C , 11-C ) :   1.2887 B( 10-C , 12-H ) :   0.8470 B( 10-C , 13-H ) :   0.7997
B( 10-C , 17-O ) :   0.8434 B( 11-C , 14-H ) :   0.8600 B( 11-C , 15-H ) :   0.8184
B( 11-C , 17-O ) :   0.1172 B( 11-C , 18-O ) :   0.9136 B( 16-S , 19-H ) :   1.0629

MP2 TOTAL ENERGY:     -782.758763190 Eh
FINAL SINGLE POINT ENERGY      -782.758763190381

DIPOLE MOMENT
-------------
                                X             Y             Z
Electronic contribution:     -0.73314      -3.79012      -0.52384
Nuclear contribution   :      1.66660       4.19463       0.57719
                        -----------------------------------------
Total Dipole Moment    :      0.93346       0.40450       0.05335
                        -----------------------------------------
Magnitude (a.u.)       :      1.01873
Magnitude (Debye)      :      2.58941

Rotational constants in cm-1:     0.079524     0.026789     0.023759
Rotational constants in MHz :  2384.065362   803.118370   712.262334

                             ****ORCA TERMINATED NORMALLY****
TOTAL RUN TIME: 0 days 1 hours 6 minutes 20 seconds 751 msec
