                         Program Version 4.2.1 -  RELEASE  -
|  1> %pal
|  2>  nprocs 32
|  3> end
|  4> !RI-MP2 aug-cc-pVQZ aug-cc-pVQZ/C TightSCF
|  5> %maxcore 4500
|  6> *xyzfile 0 1  07_5R.xyz
|  7>
|  8>
|  9>                          ****END OF INPUT****

CARTESIAN COORDINATES (ANGSTROEM)
---------------------------------
  C     -2.213986   -1.203885   -0.333360
  C     -3.565481   -0.911798   -0.414154
  C     -4.044454    0.331828   -0.016588
  C     -3.147538    1.285128    0.446950
  C     -1.788604    1.010047    0.490426
  C     -1.290355   -0.241691    0.098845
  H     -1.849725   -2.187778   -0.604558
  H     -4.256302   -1.667887   -0.770291
  H     -5.104784    0.549991   -0.057608
  H     -3.508145    2.256024    0.768617
  H     -1.095838    1.762897    0.848955
  C      0.128714   -0.563614    0.163929
  C      0.973926    0.254547   -0.493646
  H      0.730874    1.109924   -1.137236
  H      3.196946   -0.855607   -1.454233
  P      2.673589   -0.145144   -0.352329
  C      3.004636   -1.191317    1.071456
  H      2.871834   -0.603408    1.979327
  H      2.250720   -1.977752    1.072716
  H      4.015558   -1.597320    1.025315
  C      3.742096    1.317192   -0.279317
  H      3.563329    1.941359   -1.155616
  H      3.493119    1.892520    0.612827
  H      4.794836    1.035588   -0.250524

 Total Charge           Charge          ....    0
 Multiplicity           Mult            ....    1
 Number of Electrons    NEL             ....   88
 Basis Dimension        Dim             .... 1482

ORBITAL ENERGIES
----------------

  NO   OCC          E(Eh)            E(eV)
   0   2.0000     -80.019316     -2177.4363
   1   2.0000     -11.264701      -306.5281
   2   2.0000     -11.250013      -306.1284
   3   2.0000     -11.208412      -304.9964
   4   2.0000     -11.207376      -304.9682
   5   2.0000     -11.206586      -304.9467
   6   2.0000     -11.200392      -304.7782
   7   2.0000     -11.199464      -304.7529
   8   2.0000     -11.197495      -304.6993
   9   2.0000     -11.196757      -304.6792
  10   2.0000     -11.176962      -304.1406
  11   2.0000      -7.558146      -205.6676
  12   2.0000      -5.453979      -148.4103
  13   2.0000      -5.453869      -148.4073
  14   2.0000      -5.452882      -148.3805
  15   2.0000      -1.127664       -30.6853
  16   2.0000      -1.077497       -29.3202
  17   2.0000      -1.025151       -27.8958
  18   2.0000      -0.986094       -26.8330
  19   2.0000      -0.984921       -26.8011
  20   2.0000      -0.956276       -26.0216
  21   2.0000      -0.837875       -22.7997
  22   2.0000      -0.796702       -21.6794
  23   2.0000      -0.778125       -21.1739
  24   2.0000      -0.707354       -19.2481
  25   2.0000      -0.661008       -17.9869
  26   2.0000      -0.642550       -17.4847
  27   2.0000      -0.625193       -17.0124
  28   2.0000      -0.616050       -16.7636
  29   2.0000      -0.596317       -16.2266
  30   2.0000      -0.595370       -16.2008
  31   2.0000      -0.590481       -16.0678
  32   2.0000      -0.564934       -15.3726
  33   2.0000      -0.556846       -15.1525
  34   2.0000      -0.539678       -14.6854
  35   2.0000      -0.518511       -14.1094
  36   2.0000      -0.514921       -14.0117
  37   2.0000      -0.480350       -13.0710
  38   2.0000      -0.466720       -12.7001
  39   2.0000      -0.456398       -12.4192
  40   2.0000      -0.359774        -9.7899
  41   2.0000      -0.326832        -8.8936
  42   2.0000      -0.311431        -8.4745
  43   2.0000      -0.253474        -6.8974
  44   0.0000       0.013247         0.3605
  45   0.0000       0.024267         0.6603
  46   0.0000       0.025917         0.7052
  47   0.0000       0.032828         0.8933
  48   0.0000       0.037928         1.0321

MULLIKEN ATOMIC CHARGES
-----------------------
   0 C :   -0.508841
   1 C :   -0.211662
   2 C :   -0.376800
   3 C :   -0.254009
   4 C :   -0.581089
   5 C :    0.463134
   6 H :    0.268333
   7 H :    0.244597
   8 H :    0.335455
   9 H :    0.250607
  10 H :    0.256192
  11 C :   -0.159250
  12 C :   -1.223926
  13 H :    0.343944
  14 H :   -0.135172
  15 P :    1.673038
  16 C :   -1.231373
  17 H :    0.299829
  18 H :    0.378448
  19 H :    0.391115
  20 C :   -1.270889
  21 H :    0.357755
  22 H :    0.331189
  23 H :    0.359375
Sum of atomic charges:    0.0000000

LOEWDIN ATOMIC CHARGES
----------------------
   0 C :    0.293331
   1 C :    0.319157
   2 C :    0.317615
   3 C :    0.321886
   4 C :    0.290458
   5 C :   -0.247121
   6 H :   -0.332853
   7 H :   -0.326931
   8 H :   -0.332581
   9 H :   -0.326710
  10 H :   -0.333137
  11 C :    0.102552
  12 C :    0.147625
  13 H :   -0.400518
  14 H :   -0.237032
  15 P :    0.939565
  16 C :    0.885485
  17 H :   -0.320942
  18 H :   -0.362314
  19 H :   -0.320783
  20 C :    0.904579
  21 H :   -0.327996
  22 H :   -0.326796
  23 H :   -0.326541

  Mayer bond orders larger than 0.100000
B(  0-C ,  1-C ) :   1.3562 B(  0-C ,  3-C ) :   0.1666 B(  0-C ,  4-C ) :   0.1743
B(  0-C ,  5-C ) :   1.1530 B(  0-C ,  6-H ) :   0.9861 B(  0-C ,  7-H ) :  -0.1401
B(  0-C , 11-C ) :  -0.4281 B(  1-C ,  2-C ) :   1.0987 B(  1-C ,  3-C ) :  -0.1219
B(  1-C ,  4-C ) :   0.1311 B(  1-C ,  5-C ) :  -0.2959 B(  1-C ,  7-H ) :   1.1270
B(  2-C ,  3-C ) :   1.1733 B(  2-C ,  7-H ) :  -0.1080 B(  2-C ,  8-H ) :   0.9835
B(  3-C ,  4-C ) :   1.2788 B(  3-C ,  5-C ) :  -0.2827 B(  3-C ,  9-H ) :   1.1115
B(  4-C ,  5-C ) :   1.1109 B(  4-C ,  9-H ) :  -0.1238 B(  4-C , 10-H ) :   0.9675
B(  4-C , 11-C ) :  -0.1345 B(  5-C , 11-C ) :   0.9335 B(  5-C , 12-C ) :  -0.3086
B( 11-C , 12-C ) :   1.0491 B( 11-C , 13-H ) :   0.1158 B( 12-C , 13-H ) :   0.8918
B( 12-C , 15-P ) :   0.7867 B( 14-H , 15-P ) :   0.7757 B( 15-P , 16-C ) :   0.9554
B( 15-P , 20-C ) :   0.9642 B( 16-C , 17-H ) :   0.8758 B( 16-C , 18-H ) :   0.8439
B( 16-C , 19-H ) :   0.9000 B( 20-C , 21-H ) :   0.8553 B( 20-C , 22-H ) :   0.8523
B( 20-C , 23-H ) :   0.9130

MP2 TOTAL ENERGY:     -728.958174283 Eh
FINAL SINGLE POINT ENERGY      -728.958174283487

DIPOLE MOMENT
-------------
                                X             Y             Z
Electronic contribution:     -3.72994      -1.27811      -1.48952
Nuclear contribution   :      6.59939       1.80863       1.22124
                        -----------------------------------------
Total Dipole Moment    :      2.86946       0.53052      -0.26829
                        -----------------------------------------
Magnitude (a.u.)       :      2.93039
Magnitude (Debye)      :      7.44847

Rotational constants in cm-1:     0.092403     0.013073     0.012186
Rotational constants in MHz :  2770.186357   391.918309   365.318177

                             ****ORCA TERMINATED NORMALLY****
TOTAL RUN TIME: 0 days 1 hours 36 minutes 29 seconds 452 msec
