                         Program Version 4.2.1 -  RELEASE  -
|  1> %pal
|  2>  nprocs 32
|  3> end
|  4> !RI-MP2 aug-cc-pVQZ aug-cc-pVQZ/C TightSCF
|  5> %maxcore 4500
|  6> *xyzfile 0 1  04_16P2.xyz
|  7>
|  8>
|  9>                          ****END OF INPUT****

CARTESIAN COORDINATES (ANGSTROEM)
---------------------------------
  H      0.822981    0.902774    0.416863
  O      0.000000    0.717085   -0.052108
  O      0.000000   -0.717085   -0.052108
  H     -0.822981   -0.902774    0.416863

 Total Charge           Charge          ....    0
 Multiplicity           Mult            ....    1
 Number of Electrons    NEL             ....   18
 Basis Dimension        Dim             ....  252

ORBITAL ENERGIES
----------------

  NO   OCC          E(Eh)            E(eV)
   0   2.0000     -20.628938      -561.3419
   1   2.0000     -20.628633      -561.3336
   2   2.0000      -1.482136       -40.3310
   3   2.0000      -1.212148       -32.9842
   4   2.0000      -0.716426       -19.4949
   5   2.0000      -0.713782       -19.4230
   6   2.0000      -0.616523       -16.7764
   7   2.0000      -0.522453       -14.2167
   8   2.0000      -0.479248       -13.0410
   9   0.0000       0.030066         0.8181
  10   0.0000       0.037780         1.0280
  11   0.0000       0.092556         2.5186
  12   0.0000       0.112128         3.0512
  13   0.0000       0.137279         3.7355

MULLIKEN ATOMIC CHARGES
-----------------------
   0 H :    0.335542
   1 O :   -0.335542
   2 O :   -0.335542
   3 H :    0.335542
Sum of atomic charges:   -0.0000000

LOEWDIN ATOMIC CHARGES
----------------------
   0 H :   -0.903634
   1 O :    0.903634
   2 O :    0.903634
   3 H :   -0.903634

  Mayer bond orders larger than 0.100000
B(  0-H ,  1-O ) :   0.9251 B(  1-O ,  2-O ) :   0.8270 B(  2-O ,  3-H ) :   0.9251

MP2 TOTAL ENERGY:     -151.390758474 Eh
FINAL SINGLE POINT ENERGY      -151.390758474174

DIPOLE MOMENT
-------------
                                X             Y             Z
Electronic contribution:      0.00000      -0.00000      -0.16897
Nuclear contribution   :      0.00000      -0.00000       0.82698
                        -----------------------------------------
Total Dipole Moment    :      0.00000      -0.00000       0.65800
                        -----------------------------------------
Magnitude (a.u.)       :      0.65800
Magnitude (Debye)      :      1.67251

Rotational constants in cm-1:    10.219792     0.904045     0.866174
Rotational constants in MHz : 306381.659127 27102.601827 25967.240468

                             ****ORCA TERMINATED NORMALLY****
TOTAL RUN TIME: 0 days 0 hours 0 minutes 19 seconds 508 msec
