                         Program Version 4.2.1 -  RELEASE  -
|  1> %pal
|  2>  nprocs 32
|  3> end
|  4> !RI-MP2 aug-cc-pVQZ aug-cc-pVQZ/C TightSCF
|  5> %maxcore 4500
|  6> *xyzfile 0 2  04_85TS.xyz
|  7>
|  8>
|  9>                          ****END OF INPUT****

CARTESIAN COORDINATES (ANGSTROEM)
---------------------------------
  O      1.028531    0.092391   -1.009408
  C     -0.361465   -0.019441   -0.634614
  C     -0.372581   -0.610180    0.784327
  C      0.999977   -0.196964    1.312831
  C      1.856673   -0.358911    0.050573
  C     -1.085397   -0.830585   -1.667593
  H     -0.764232    0.999775   -0.602851
  H     -0.793789   -1.877447   -1.689629
  H     -1.096049   -0.372306   -2.654352
  O     -0.388002   -2.016289    0.810961
  O      1.436315   -0.941348    2.405918
  N      3.079229    0.394415    0.047877
  H      2.141925   -1.405199   -0.082728
  C      4.343069   -0.116356   -0.139740
  C      3.236538    1.757786    0.173896
  H      0.989871    0.854903    1.608898
  H     -1.190551   -0.201652    1.385183
  H     -1.310681   -2.323133    0.760507
  H      1.105404   -1.840998    2.274776
  O     -3.082490   -2.495518    0.610550
  C     -3.944150   -1.978183   -0.061072
  O     -5.206325   -2.382215    0.032155
  C     -3.700520   -0.860837   -1.037462
  C     -4.014513    0.535722   -0.535451
  H     -2.381465   -0.869485   -1.329133
  H     -4.163769   -1.078355   -1.999228
  C     -5.433446    0.670698    0.059495
  H     -3.900746    1.234773   -1.369343
  H     -3.302010    0.842024    0.232040
  C     -5.773146    2.136931    0.254144
  O     -4.938147    2.725942    1.123081
  N     -6.416268   -0.032089   -0.756957
  N      4.473949    2.148885    0.095242
  C      5.188017    0.982259   -0.099647
  C      6.555603    0.718102   -0.261252
  N      6.946597   -0.545295   -0.443026
  C      6.017561   -1.506702   -0.464534
  N      4.705873   -1.384781   -0.321270
  N      7.483113    1.697045   -0.243381
  H      7.208742    2.649672   -0.078109
  H      8.453236    1.450659   -0.335924
  H      6.392069   -2.513309   -0.618345
  H      2.387986    2.410969    0.306902
  H     -5.793346   -1.736124   -0.437089
  H     -5.433325    0.208863    1.051284
  H     -6.443104    0.356949   -1.695203
  H     -7.348200    0.099804   -0.376367
  H     -5.194669    3.655886    1.206283
  O     -6.667890    2.712844   -0.299554

 Total Charge           Charge          ....    0
 Multiplicity           Mult            ....    2
 Number of Electrons    NEL             ....  209
 Basis Dimension        Dim             .... 3206

ORBITAL ENERGIES
----------------
                 SPIN UP ORBITALS
  NO   OCC          E(Eh)            E(eV)
   0   1.0000     -20.646760      -561.8269
   1   1.0000     -20.610915      -560.8515
   2   1.0000     -20.584948      -560.1449
   3   1.0000     -20.569559      -559.7261
   4   1.0000     -20.563037      -559.5487
   5   1.0000     -20.556242      -559.3638
   6   1.0000     -20.555032      -559.3309
   7   1.0000     -15.613137      -424.8550
   8   1.0000     -15.604913      -424.6313
   9   1.0000     -15.572956      -423.7617
  10   1.0000     -15.554425      -423.2574
  11   1.0000     -15.541180      -422.8970
  12   1.0000     -15.535700      -422.7479
  13   1.0000     -11.418081      -310.7018
  14   1.0000     -11.404450      -310.3309
  15   1.0000     -11.326080      -308.1983
  16   1.0000     -11.324781      -308.1629
  17   1.0000     -11.324626      -308.1587
  18   1.0000     -11.307104      -307.6820
  19   1.0000     -11.301049      -307.5172
  20   1.0000     -11.299758      -307.4821
  21   1.0000     -11.296938      -307.4053
  22   1.0000     -11.293473      -307.3110
  23   1.0000     -11.290191      -307.2217
  24   1.0000     -11.286432      -307.1194
  25   1.0000     -11.285696      -307.0994
  26   1.0000     -11.251381      -306.1657
  27   1.0000     -11.236240      -305.7536
  28   1.0000      -1.506311       -40.9888
  29   1.0000      -1.478251       -40.2253
  30   1.0000      -1.417667       -38.5767
  31   1.0000      -1.403174       -38.1823
  32   1.0000      -1.384226       -37.6667
  33   1.0000      -1.378361       -37.5071
  34   1.0000      -1.359323       -36.9891
  35   1.0000      -1.352028       -36.7906
  36   1.0000      -1.293321       -35.1931
  37   1.0000      -1.256361       -34.1873
  38   1.0000      -1.239682       -33.7335
  39   1.0000      -1.190390       -32.3922
  40   1.0000      -1.146448       -31.1964
  41   1.0000      -1.120331       -30.4858
  42   1.0000      -1.067773       -29.0556
  43   1.0000      -1.040339       -28.3091
  44   1.0000      -1.027412       -27.9573
  45   1.0000      -1.021598       -27.7991
  46   1.0000      -0.950650       -25.8685
  47   1.0000      -0.919669       -25.0255
  48   1.0000      -0.886177       -24.1141
  49   1.0000      -0.867972       -23.6187
  50   1.0000      -0.854926       -23.2637
  51   1.0000      -0.849050       -23.1038
  52   1.0000      -0.836697       -22.7677
  53   1.0000      -0.817850       -22.2548
  54   1.0000      -0.787860       -21.4388
  55   1.0000      -0.767263       -20.8783
  56   1.0000      -0.759939       -20.6790
  57   1.0000      -0.748563       -20.3694
  58   1.0000      -0.744088       -20.2477
  59   1.0000      -0.737893       -20.0791
  60   1.0000      -0.731704       -19.9107
  61   1.0000      -0.723653       -19.6916
  62   1.0000      -0.703876       -19.1534
  63   1.0000      -0.696673       -18.9574
  64   1.0000      -0.691491       -18.8164
  65   1.0000      -0.676335       -18.4040
  66   1.0000      -0.671954       -18.2848
  67   1.0000      -0.660641       -17.9769
  68   1.0000      -0.657282       -17.8855
  69   1.0000      -0.655450       -17.8357
  70   1.0000      -0.650670       -17.7056
  71   1.0000      -0.640371       -17.4254
  72   1.0000      -0.632452       -17.2099
  73   1.0000      -0.630751       -17.1636
  74   1.0000      -0.621567       -16.9137
  75   1.0000      -0.611043       -16.6273
  76   1.0000      -0.608804       -16.5664
  77   1.0000      -0.597549       -16.2601
  78   1.0000      -0.591682       -16.1005
  79   1.0000      -0.587270       -15.9804
  80   1.0000      -0.575523       -15.6608
  81   1.0000      -0.571417       -15.5491
  82   1.0000      -0.565096       -15.3770
  83   1.0000      -0.552505       -15.0344
  84   1.0000      -0.550000       -14.9663
  85   1.0000      -0.544281       -14.8106
  86   1.0000      -0.543331       -14.7848
  87   1.0000      -0.529885       -14.4189
  88   1.0000      -0.521559       -14.1923
  89   1.0000      -0.505191       -13.7469
  90   1.0000      -0.494845       -13.4654
  91   1.0000      -0.493759       -13.4359
  92   1.0000      -0.489656       -13.3242
  93   1.0000      -0.483318       -13.1517
  94   1.0000      -0.475190       -12.9306
  95   1.0000      -0.467403       -12.7187
  96   1.0000      -0.465346       -12.6627
  97   1.0000      -0.443556       -12.0698
  98   1.0000      -0.438042       -11.9197
  99   1.0000      -0.434400       -11.8206
 100   1.0000      -0.401375       -10.9220
 101   1.0000      -0.398536       -10.8447
 102   1.0000      -0.364020        -9.9055
 103   1.0000      -0.354154        -9.6370
 104   1.0000      -0.299997        -8.1633
 105   0.0000       0.009000         0.2449
 106   0.0000       0.015304         0.4164
 107   0.0000       0.020002         0.5443
 108   0.0000       0.029186         0.7942
 109   0.0000       0.030844         0.8393

MULLIKEN ATOMIC CHARGES AND SPIN POPULATIONS
--------------------------------------------
   0 O :   -1.266441    0.024907
   1 C :    0.626793   -0.065270
   2 C :    0.597995    0.012838
   3 C :    0.501714   -0.000991
   4 C :    1.188710    0.007467
   5 C :   -0.900223    0.793567
   6 H :    0.128045    0.014272
   7 H :    0.172608   -0.050124
   8 H :    0.150826   -0.051398
   9 O :   -0.955865   -0.001166
  10 O :   -1.288525   -0.000117
  11 N :   -0.815963   -0.000756
  12 H :    0.262500    0.004431
  13 C :    1.162313   -0.000708
  14 C :    0.435392   -0.001639
  15 H :    0.018944    0.000362
  16 H :    0.464891   -0.000547
  17 H :    0.220466   -0.000075
  18 H :    0.353547    0.000059
  19 O :   -1.035041    0.014458
  20 C :    1.827005   -0.043687
  21 O :   -1.109885    0.024560
  22 C :   -0.263421    0.812016
  23 C :   -0.468402   -0.104731
  24 H :    0.255339   -0.379021
  25 H :    0.215380   -0.055523
  26 C :    0.014011    0.035963
  27 H :    0.229119    0.000061
  28 H :    0.406287    0.025628
  29 C :    1.234083   -0.001978
  30 O :   -0.823720   -0.000781
  31 N :   -0.542345   -0.004034
  32 N :   -1.045843    0.000080
  33 C :   -0.374447    0.000980
  34 C :    1.069375   -0.000170
  35 N :   -0.986333    0.000236
  36 C :    0.001145   -0.000454
  37 N :   -0.961461    0.000303
  38 N :   -0.841228   -0.000058
  39 H :    0.310227   -0.000005
  40 H :    0.264062    0.000066
  41 H :    0.586652    0.000023
  42 H :    0.521786   -0.000514
  43 H :    0.375193   -0.009635
  44 H :    0.353836   -0.002064
  45 H :    0.191992   -0.000084
  46 H :    0.107121   -0.000876
  47 H :    0.325123    0.000099
  48 O :   -0.893342    0.004030
Sum of atomic charges         :   -0.0000000

LOEWDIN ATOMIC CHARGES AND SPIN POPULATIONS
-------------------------------------------
   0 O :    0.939376    0.028074
   1 C :   -0.195338    0.050520
   2 C :   -0.209736   -0.000585
   3 C :   -0.246742   -0.000630
   4 C :   -0.362893    0.003165
   5 C :    0.864421    0.251723
   6 H :   -0.291443    0.000495
   7 H :   -0.264725    0.062573
   8 H :   -0.244071    0.061831
   9 O :    1.335083   -0.000452
  10 O :    1.328942   -0.000140
  11 N :    0.429698    0.001534
  12 H :   -0.323890   -0.000177
  13 C :   -0.594482    0.000232
  14 C :   -0.035994    0.000334
  15 H :   -0.307857   -0.000126
  16 H :   -0.266650   -0.000302
  17 H :   -1.047066   -0.000617
  18 H :   -0.859772   -0.000012
  19 O :    0.843126    0.006294
  20 C :   -0.924498    0.041628
  21 O :    1.278917    0.012714
  22 C :    0.412661    0.245998
  23 C :    0.522483    0.039190
  24 H :   -0.575024    0.110364
  25 H :   -0.258004    0.053385
  26 C :   -0.073724    0.011464
  27 H :   -0.251338   -0.000020
  28 H :   -0.284278    0.001715
  29 C :   -1.014088    0.002288
  30 O :    1.278446   -0.000480
  31 N :    1.296144    0.004368
  32 N :    0.623087    0.000004
  33 C :   -0.427899    0.000153
  34 C :   -0.504578   -0.000002
  35 N :    0.590687    0.000083
  36 C :   -0.180272   -0.000072
  37 N :    0.630169    0.000098
  38 N :    1.261869   -0.000041
  39 H :   -0.485890   -0.000004
  40 H :   -0.488566   -0.000006
  41 H :   -0.384216   -0.000041
  42 H :   -0.304885    0.000047
  43 H :   -0.981044    0.007227
  44 H :   -0.292916    0.002391
  45 H :   -0.451515    0.000978
  46 H :   -0.446270    0.000210
  47 H :   -0.786945   -0.000016
  48 O :    0.731497    0.002641

  Mayer bond orders larger than 0.100000
B(  0-O ,  1-C ) :   0.2478 B(  0-O ,  2-C ) :   0.1511 B(  0-O ,  3-C ) :   0.2396
B(  0-O ,  6-H ) :   0.1408 B(  0-O , 11-N ) :   0.1692 B(  1-C ,  2-C ) :   0.8591
B(  1-C ,  3-C ) :   0.1453 B(  1-C ,  5-C ) :   0.4659 B(  1-C ,  6-H ) :   1.0439
B(  1-C ,  8-H ) :  -0.1337 B(  1-C , 24-H ) :  -0.1123 B(  2-C ,  3-C ) :   1.0619
B(  2-C , 10-O ) :   0.4299 B(  2-C , 16-H ) :   0.7247 B(  3-C ,  4-C ) :   0.6684
B(  3-C ,  9-O ) :   0.2127 B(  3-C , 10-O ) :  -0.6652 B(  3-C , 15-H ) :   1.2124
B(  3-C , 16-H ) :  -0.1245 B(  4-C , 10-O ) :   0.2194 B(  4-C , 11-N ) :   0.8716
B(  4-C , 12-H ) :   0.7549 B(  4-C , 14-C ) :   0.1311 B(  4-C , 33-C ) :  -0.1142
B(  4-C , 37-N ) :  -0.2585 B(  5-C ,  7-H ) :   1.2173 B(  5-C ,  8-H ) :   1.1763
B(  5-C ,  9-O ) :   0.1144 B(  5-C , 24-H ) :   0.2257 B(  7-H , 24-H ) :  -0.2205
B(  9-O , 17-H ) :   1.0045 B(  9-O , 19-O ) :  -0.1169 B( 10-O , 11-N ) :   0.1339
B( 10-O , 15-H ) :   0.1271 B( 10-O , 18-H ) :   0.8197 B( 11-N , 13-C ) :   0.9020
B( 11-N , 14-C ) :   1.1817 B( 11-N , 32-N ) :   0.1321 B( 11-N , 33-C ) :   0.1446
B( 11-N , 37-N ) :   0.1670 B( 12-H , 37-N ) :   0.1054 B( 13-C , 14-C ) :   0.4495
B( 13-C , 32-N ) :   0.3146 B( 13-C , 33-C ) :   0.8687 B( 13-C , 34-C ) :  -0.4172
B( 13-C , 35-N ) :  -0.1000 B( 13-C , 36-C ) :  -0.1291 B( 13-C , 37-N ) :   0.6359
B( 14-C , 32-N ) :   0.7220 B( 14-C , 33-C ) :   0.1855 B( 14-C , 42-H ) :   0.6665
B( 17-H , 19-O ) :   0.1532 B( 19-O , 20-C ) :   0.9028 B( 19-O , 21-O ) :   0.1777
B( 19-O , 22-C ) :   0.1923 B( 20-C , 21-O ) :   0.3283 B( 20-C , 22-C ) :   1.1897
B( 20-C , 24-H ) :  -0.1211 B( 21-O , 22-C ) :   0.1504 B( 21-O , 43-H ) :   0.7117
B( 22-C , 23-C ) :   0.8191 B( 22-C , 24-H ) :   0.2604 B( 22-C , 25-H ) :   1.0064
B( 23-C , 26-C ) :   0.6371 B( 23-C , 27-H ) :   0.9574 B( 23-C , 28-H ) :   0.7938
B( 23-C , 29-C ) :  -0.1570 B( 23-C , 30-O ) :   0.1079 B( 24-H , 25-H ) :  -0.1118
B( 26-C , 29-C ) :   1.3420 B( 26-C , 31-N ) :   0.7162 B( 26-C , 44-H ) :   0.8180
B( 26-C , 48-O ) :   0.2700 B( 28-H , 30-O ) :  -0.1223 B( 29-C , 30-O ) :   0.7430
B( 29-C , 48-O ) :   0.9679 B( 30-O , 47-H ) :   0.9373 B( 30-O , 48-O ) :   0.1757
B( 31-N , 43-H ) :   0.1588 B( 31-N , 45-H ) :   0.9658 B( 31-N , 46-H ) :   1.0910
B( 32-N , 33-C ) :   0.4377 B( 32-N , 42-H ) :  -0.1107 B( 33-C , 34-C ) :   1.4573
B( 33-C , 35-N ) :   0.2421 B( 33-C , 36-C ) :   0.2453 B( 34-C , 35-N ) :   0.7080
B( 34-C , 36-C ) :   0.1107 B( 34-C , 38-N ) :   0.8429 B( 35-N , 36-C ) :   1.2300
B( 35-N , 37-N ) :   0.1275 B( 35-N , 38-N ) :   0.1636 B( 36-C , 37-N ) :   1.5996
B( 36-C , 41-H ) :   0.7034 B( 38-N , 39-H ) :   0.9095 B( 38-N , 40-H ) :   0.9929

MP2 TOTAL ENERGY:    -1437.254010090 Eh
FINAL SINGLE POINT ENERGY     -1437.254010089612

DIPOLE MOMENT
-------------
                                X             Y             Z
Electronic contribution:     17.13837       1.38693       3.58723
Nuclear contribution   :    -20.34714       0.51693      -4.34039
                        -----------------------------------------
Total Dipole Moment    :     -3.20877       1.90386      -0.75317
                        -----------------------------------------
Magnitude (a.u.)       :      3.80633
Magnitude (Debye)      :      9.67492

Rotational constants in cm-1:     0.014017     0.002056     0.001908
Rotational constants in MHz :   420.205044    61.637955    57.191881

                             ****ORCA TERMINATED NORMALLY****
TOTAL RUN TIME: 0 days 22 hours 41 minutes 45 seconds 348 msec
