                         Program Version 4.2.1 -  RELEASE  -
|  1> %pal
|  2>  nprocs 32
|  3> end
|  4> !RI-MP2 aug-cc-pVQZ aug-cc-pVQZ/C TightSCF
|  5> %maxcore 4500
|  6> *xyzfile 1 1  10_14R.xyz
|  7>
|  8>
|  9>                          ****END OF INPUT****

CARTESIAN COORDINATES (ANGSTROEM)
---------------------------------
  C      2.153495   -1.018914    0.065333
  N      0.993643   -0.868047   -0.386478
  N     -0.039038   -0.866085   -0.999128
  C     -1.249938   -0.518937   -0.393989
  C     -1.373853   -0.202763    0.963940
  C     -2.350335   -0.514027   -1.251940
  C     -2.620544    0.115157    1.455558
  H     -0.507071   -0.204479    1.611814
  C     -3.594453   -0.185375   -0.745005
  H     -2.207761   -0.767972   -2.294489
  C     -3.725871    0.125833    0.602320
  H     -2.743905    0.359635    2.502457
  H     -4.459701   -0.174859   -1.394319
  H     -4.700955    0.379371    0.999800
  C      3.139179    0.119310    0.055648
  C      2.551351   -2.349966    0.632913
  H      1.757035   -3.087668    0.542766
  H      3.437940   -2.705153    0.103513
  H      2.818924   -2.229101    1.684548
  C      1.564018    2.078881    0.341410
  C      0.388945    2.495200   -0.107151
  H      1.816179    2.228961    1.389607
  H     -0.324842    2.984402    0.543615
  H      0.107657    2.390761   -1.150366
  C      2.628782    1.444659   -0.504784
  H      3.495607    0.237379    1.084415
  H      4.001164   -0.238130   -0.517412
  H      3.488949    2.117719   -0.561612
  H      2.273887    1.313716   -1.530610

 Total Charge           Charge          ....    1
 Multiplicity           Mult            ....    1
 Number of Electrons    NEL             ....  100
 Basis Dimension        Dim             .... 1810

ORBITAL ENERGIES
----------------

  NO   OCC          E(Eh)            E(eV)
   0   2.0000     -15.859311      -431.5538
   1   2.0000     -15.856060      -431.4653
   2   2.0000     -11.512027      -313.2582
   3   2.0000     -11.422528      -310.8228
   4   2.0000     -11.401303      -310.2452
   5   2.0000     -11.398250      -310.1621
   6   2.0000     -11.392635      -310.0094
   7   2.0000     -11.391036      -309.9659
   8   2.0000     -11.383832      -309.7698
   9   2.0000     -11.372148      -309.4519
  10   2.0000     -11.368453      -309.3513
  11   2.0000     -11.367901      -309.3363
  12   2.0000     -11.354397      -308.9689
  13   2.0000     -11.342773      -308.6525
  14   2.0000      -1.611529       -43.8519
  15   2.0000      -1.375013       -37.4160
  16   2.0000      -1.300984       -35.4016
  17   2.0000      -1.226620       -33.3780
  18   2.0000      -1.192612       -32.4526
  19   2.0000      -1.168965       -31.8092
  20   2.0000      -1.143456       -31.1150
  21   2.0000      -1.135180       -30.8898
  22   2.0000      -1.036457       -28.2034
  23   2.0000      -1.020527       -27.7699
  24   2.0000      -0.982618       -26.7384
  25   2.0000      -0.907455       -24.6931
  26   2.0000      -0.891519       -24.2595
  27   2.0000      -0.859213       -23.3804
  28   2.0000      -0.848113       -23.0783
  29   2.0000      -0.827502       -22.5175
  30   2.0000      -0.822997       -22.3949
  31   2.0000      -0.783132       -21.3101
  32   2.0000      -0.755614       -20.5613
  33   2.0000      -0.754057       -20.5189
  34   2.0000      -0.751505       -20.4495
  35   2.0000      -0.737451       -20.0671
  36   2.0000      -0.733489       -19.9592
  37   2.0000      -0.729318       -19.8458
  38   2.0000      -0.722021       -19.6472
  39   2.0000      -0.683153       -18.5895
  40   2.0000      -0.673585       -18.3292
  41   2.0000      -0.662043       -18.0151
  42   2.0000      -0.646381       -17.5889
  43   2.0000      -0.642518       -17.4838
  44   2.0000      -0.632586       -17.2135
  45   2.0000      -0.611955       -16.6521
  46   2.0000      -0.572674       -15.5833
  47   2.0000      -0.495737       -13.4897
  48   2.0000      -0.484221       -13.1763
  49   2.0000      -0.477440       -12.9918
  50   0.0000      -0.113032        -3.0758
  51   0.0000      -0.070533        -1.9193
  52   0.0000      -0.058626        -1.5953
  53   0.0000      -0.055734        -1.5166
  54   0.0000      -0.052151        -1.4191

MULLIKEN ATOMIC CHARGES
-----------------------
   0 C :    0.673589
   1 N :    0.438026
   2 N :   -0.862688
   3 C :    0.455815
   4 C :   -0.142891
   5 C :   -0.599579
   6 C :   -0.273957
   7 H :    0.346220
   8 C :   -0.403980
   9 H :    0.399383
  10 C :   -0.321817
  11 H :    0.281825
  12 H :    0.279378
  13 H :    0.334505
  14 C :   -0.328759
  15 C :   -0.919080
  16 H :    0.264137
  17 H :    0.337748
  18 H :    0.316045
  19 C :   -0.319705
  20 C :   -0.788342
  21 H :    0.252380
  22 H :    0.350410
  23 H :    0.339032
  24 C :   -0.351404
  25 H :    0.296623
  26 H :    0.385431
  27 H :    0.342103
  28 H :    0.219553
Sum of atomic charges:    1.0000000

LOEWDIN ATOMIC CHARGES
----------------------
   0 C :   -0.165664
   1 N :    0.390050
   2 N :    0.491493
   3 C :   -0.342912
   4 C :    0.319767
   5 C :    0.336190
   6 C :    0.384085
   7 H :   -0.313478
   8 C :    0.385161
   9 H :   -0.303108
  10 C :    0.385010
  11 H :   -0.303927
  12 H :   -0.305277
  13 H :   -0.294520
  14 C :    0.536706
  15 C :    0.976629
  16 H :   -0.276294
  17 H :   -0.262367
  18 H :   -0.262149
  19 C :    0.364634
  20 C :    0.794955
  21 H :   -0.306636
  22 H :   -0.327542
  23 H :   -0.328190
  24 C :    0.495278
  25 H :   -0.262534
  26 H :   -0.255984
  27 H :   -0.260501
  28 H :   -0.288875

  Mayer bond orders larger than 0.100000
B(  0-C ,  1-N ) :   1.0642 B(  0-C ,  2-N ) :  -0.3564 B(  0-C , 14-C ) :   0.5631
B(  0-C , 15-C ) :   0.6162 B(  0-C , 16-H ) :  -0.1176 B(  0-C , 24-C ) :  -0.1466
B(  1-N ,  2-N ) :   0.7381 B(  2-N ,  3-C ) :   0.5797 B(  2-N ,  4-C ) :  -0.1128
B(  2-N ,  5-C ) :   0.1221 B(  3-C ,  4-C ) :   1.1484 B(  3-C ,  5-C ) :   1.1717
B(  3-C ,  6-C ) :  -0.2775 B(  3-C ,  8-C ) :  -0.3664 B(  4-C ,  6-C ) :   1.1778
B(  4-C ,  7-H ) :   0.8714 B(  4-C ,  8-C ) :   0.1038 B(  5-C ,  6-C ) :   0.1428
B(  5-C ,  8-C ) :   1.3990 B(  5-C ,  9-H ) :   0.8301 B(  5-C , 10-C ) :   0.1013
B(  5-C , 12-H ) :  -0.1197 B(  6-C , 10-C ) :   1.1729 B(  6-C , 11-H ) :   1.0664
B(  6-C , 13-H ) :  -0.1074 B(  8-C , 10-C ) :   1.1367 B(  8-C , 12-H ) :   1.0977
B(  8-C , 13-H ) :  -0.1050 B( 10-C , 13-H ) :   1.0304 B( 14-C , 24-C ) :   1.0280
B( 14-C , 25-H ) :   0.8603 B( 14-C , 26-H ) :   0.8419 B( 15-C , 16-H ) :   1.0598
B( 15-C , 17-H ) :   0.9388 B( 15-C , 18-H ) :   0.8853 B( 19-C , 20-C ) :   1.7070
B( 19-C , 21-H ) :   1.0195 B( 19-C , 22-H ) :  -0.1012 B( 19-C , 24-C ) :   0.8267
B( 20-C , 22-H ) :   0.9561 B( 20-C , 23-H ) :   0.8888 B( 20-C , 24-C ) :  -0.1183
B( 24-C , 27-H ) :   0.9114 B( 24-C , 28-H ) :   0.9238

MP2 TOTAL ENERGY:     -574.452964461 Eh
FINAL SINGLE POINT ENERGY      -574.452964461196

DIPOLE MOMENT
-------------
                                X             Y             Z
Electronic contribution:     -7.28440      -3.50870      -2.59974
Nuclear contribution   :      8.36541       2.62792       3.04442
                        -----------------------------------------
Total Dipole Moment    :      1.08101      -0.88077       0.44469
                        -----------------------------------------
Magnitude (a.u.)       :      1.46359
Magnitude (Debye)      :      3.72015

Rotational constants in cm-1:     0.039175     0.014767     0.012692
Rotational constants in MHz :  1174.437479   442.705285   380.503586

                             ****ORCA TERMINATED NORMALLY****
TOTAL RUN TIME: 0 days 2 hours 46 minutes 57 seconds 839 msec
