                         Program Version 4.2.1 -  RELEASE  -
|  1> %pal
|  2>  nprocs 32
|  3> end
|  4> !RI-MP2 aug-cc-pVQZ aug-cc-pVQZ/C TightSCF
|  5> %maxcore 4500
|  6> *xyzfile 0 1  04_51P2.xyz
|  7>
|  8>
|  9>                          ****END OF INPUT****

CARTESIAN COORDINATES (ANGSTROEM)
---------------------------------
  N      0.000000   -0.269244   -0.068612
  C     -1.218590    0.517573    0.021956
  C      1.218590    0.517573    0.021957
  C     -2.449377   -0.370448   -0.032906
  H      1.229071    1.214567   -0.822067
  H     -1.229071    1.214566   -0.822069
  H     -1.245434    1.135582    0.936209
  C      2.449377   -0.370448   -0.032907
  H      1.245434    1.135581    0.936211
  H     -2.459746   -0.953548   -0.955258
  H      2.459746   -0.953546   -0.955260
  H     -3.363038    0.225426    0.013828
  H     -2.466567   -1.069009    0.808679
  H      2.466567   -1.069011    0.808677
  H      3.363038    0.225426    0.013829
  H      0.000000   -0.986836    0.648912

 Total Charge           Charge          ....    0
 Multiplicity           Mult            ....    1
 Number of Electrons    NEL             ....   42
 Basis Dimension        Dim             ....  906

ORBITAL ENERGIES
----------------

  NO   OCC          E(Eh)            E(eV)
   0   2.0000     -15.533147      -422.6784
   1   2.0000     -11.242257      -305.9174
   2   2.0000     -11.242240      -305.9169
   3   2.0000     -11.209547      -305.0273
   4   2.0000     -11.209546      -305.0273
   5   2.0000      -1.204342       -32.7718
   6   2.0000      -1.027671       -27.9643
   7   2.0000      -0.961836       -26.1729
   8   2.0000      -0.829225       -22.5644
   9   2.0000      -0.819213       -22.2919
  10   2.0000      -0.659895       -17.9567
  11   2.0000      -0.627976       -17.0881
  12   2.0000      -0.597498       -16.2587
  13   2.0000      -0.590005       -16.0548
  14   2.0000      -0.552584       -15.0366
  15   2.0000      -0.519969       -14.1491
  16   2.0000      -0.507209       -13.8019
  17   2.0000      -0.489243       -13.3130
  18   2.0000      -0.481313       -13.0972
  19   2.0000      -0.475043       -12.9266
  20   2.0000      -0.364030        -9.9058
  21   0.0000       0.026988         0.7344
  22   0.0000       0.031529         0.8579
  23   0.0000       0.034074         0.9272
  24   0.0000       0.036566         0.9950
  25   0.0000       0.048062         1.3078

MULLIKEN ATOMIC CHARGES
-----------------------
   0 N :   -0.488801
   1 C :   -0.216163
   2 C :   -0.216164
   3 C :   -0.880143
   4 H :    0.274219
   5 H :    0.274220
   6 H :    0.226814
   7 C :   -0.880143
   8 H :    0.226816
   9 H :    0.228153
  10 H :    0.228153
  11 H :    0.286868
  12 H :    0.212167
  13 H :    0.212166
  14 H :    0.286868
  15 H :    0.224971
Sum of atomic charges:   -0.0000000

LOEWDIN ATOMIC CHARGES
----------------------
   0 N :    0.882563
   1 C :    0.324832
   2 C :    0.324832
   3 C :    0.915449
   4 H :   -0.292130
   5 H :   -0.292129
   6 H :   -0.270200
   7 C :    0.915449
   8 H :   -0.270199
   9 H :   -0.286201
  10 H :   -0.286201
  11 H :   -0.286403
  12 H :   -0.286815
  13 H :   -0.286815
  14 H :   -0.286403
  15 H :   -0.519629

  Mayer bond orders larger than 0.100000
B(  0-N ,  1-C ) :   0.8588 B(  0-N ,  2-C ) :   0.8588 B(  0-N , 15-H ) :   0.9248
B(  1-C ,  3-C ) :   0.9113 B(  1-C ,  5-H ) :   0.8851 B(  1-C ,  6-H ) :   0.9041
B(  2-C ,  4-H ) :   0.8851 B(  2-C ,  7-C ) :   0.9113 B(  2-C ,  8-H ) :   0.9041
B(  3-C ,  9-H ) :   0.9582 B(  3-C , 11-H ) :   0.9890 B(  3-C , 12-H ) :   0.9568
B(  7-C , 10-H ) :   0.9582 B(  7-C , 13-H ) :   0.9568 B(  7-C , 14-H ) :   0.9890

MP2 TOTAL ENERGY:     -213.399294247 Eh
FINAL SINGLE POINT ENERGY      -213.399294246717

DIPOLE MOMENT
-------------
                                X             Y             Z
Electronic contribution:     -0.00000       0.01930      -0.31433
Nuclear contribution   :     -0.00000       0.12685       0.65926
                        -----------------------------------------
Total Dipole Moment    :     -0.00000       0.14615       0.34493
                        -----------------------------------------
Magnitude (a.u.)       :      0.37462
Magnitude (Debye)      :      0.95221

Rotational constants in cm-1:     0.594579     0.070233     0.066166
Rotational constants in MHz : 17825.015033  2105.518676  1983.595619

                             ****ORCA TERMINATED NORMALLY****
TOTAL RUN TIME: 0 days 0 hours 12 minutes 27 seconds 451 msec
