                         Program Version 4.2.1 -  RELEASE  -
|  1> %pal
|  2>  nprocs 32
|  3> end
|  4> !RI-MP2 aug-cc-pVQZ aug-cc-pVQZ/C TightSCF
|  5> %maxcore 4500
|  6> *xyzfile 0 1  10_22P.xyz
|  7>
|  8>
|  9>                          ****END OF INPUT****

CARTESIAN COORDINATES (ANGSTROEM)
---------------------------------
  C      0.381842   -0.081428    0.118161
  C      1.363402   -0.539952   -0.957388
  C     -0.616280   -1.270851    0.203680
  N     -0.015213   -2.325623   -0.653539
  N      1.002941   -1.953441   -1.229835
  C     -2.085050   -1.103573   -0.001358
  C     -2.688445   -1.544532   -1.174450
  C     -2.848861   -0.437708    0.953089
  C     -4.038715   -1.312120   -1.393877
  H     -2.104358   -2.083197   -1.909782
  C     -4.196353   -0.204629    0.731299
  H     -2.392207   -0.099718    1.875660
  C     -4.793853   -0.639410   -0.444244
  H     -4.501940   -1.663104   -2.307929
  H     -4.781870    0.314328    1.480070
  H     -5.848215   -0.459900   -0.615887
  C      2.806524   -0.383382   -0.604030
  C      3.374587    0.964479   -0.228985
  C      3.716675   -1.345943   -0.524862
  C      4.894242    0.712031   -0.246006
  H      3.019557    1.253426    0.766153
  H      3.068590    1.760362   -0.913651
  C      5.053251   -0.813832   -0.082319
  H      3.521895   -2.392988   -0.716142
  H      5.423934    1.278817    0.520054
  H      5.884834   -1.213995   -0.666834
  C     -0.053751   -1.409279    1.627205
  C     -0.125531    1.320168    0.035035
  C     -0.784843    1.744193   -1.116835
  C      0.029529    2.202124    1.097023
  C     -1.277210    3.035553   -1.205479
  H     -0.935848    1.058634   -1.942564
  C     -0.460810    3.497981    1.003632
  H      0.533523    1.870100    1.994688
  C     -1.114067    3.917895   -0.144971
  H     -1.795439    3.352163   -2.102237
  H     -0.331595    4.179957    1.835222
  H     -1.498641    4.928026   -0.214567
  O      0.871320   -0.422047    1.460562
  O     -0.257602   -2.065370    2.586456
  H      5.239437   -1.093574    0.961030
  H      5.298515    1.013684   -1.214723
  H      1.158298    0.003063   -1.887009

 Total Charge           Charge          ....    0
 Multiplicity           Mult            ....    1
 Number of Electrons    NEL             ....  174
 Basis Dimension        Dim             .... 2828

ORBITAL ENERGIES
----------------

  NO   OCC          E(Eh)            E(eV)
   0   2.0000     -20.613903      -560.9328
   1   2.0000     -20.565287      -559.6099
   2   2.0000     -15.643817      -425.6899
   3   2.0000     -15.642295      -425.6485
   4   2.0000     -11.394733      -310.0665
   5   2.0000     -11.332103      -308.3622
   6   2.0000     -11.307905      -307.7037
   7   2.0000     -11.290668      -307.2347
   8   2.0000     -11.261234      -306.4338
   9   2.0000     -11.259333      -306.3820
  10   2.0000     -11.251167      -306.1598
  11   2.0000     -11.248737      -306.0937
  12   2.0000     -11.247889      -306.0706
  13   2.0000     -11.247195      -306.0517
  14   2.0000     -11.246774      -306.0403
  15   2.0000     -11.246467      -306.0319
  16   2.0000     -11.246105      -306.0221
  17   2.0000     -11.245469      -306.0048
  18   2.0000     -11.243826      -305.9601
  19   2.0000     -11.243337      -305.9468
  20   2.0000     -11.237046      -305.7756
  21   2.0000     -11.227441      -305.5142
  22   2.0000     -11.224374      -305.4307
  23   2.0000     -11.223623      -305.4103
  24   2.0000     -11.222508      -305.3800
  25   2.0000      -1.488988       -40.5174
  26   2.0000      -1.409216       -38.3467
  27   2.0000      -1.390928       -37.8491
  28   2.0000      -1.182060       -32.1655
  29   2.0000      -1.176441       -32.0126
  30   2.0000      -1.153846       -31.3978
  31   2.0000      -1.104426       -30.0530
  32   2.0000      -1.090885       -29.6845
  33   2.0000      -1.039751       -28.2931
  34   2.0000      -1.033332       -28.1184
  35   2.0000      -1.030905       -28.0523
  36   2.0000      -1.008863       -27.4526
  37   2.0000      -0.968785       -26.3620
  38   2.0000      -0.956895       -26.0384
  39   2.0000      -0.905608       -24.6428
  40   2.0000      -0.867058       -23.5938
  41   2.0000      -0.848944       -23.1009
  42   2.0000      -0.844888       -22.9906
  43   2.0000      -0.830714       -22.6049
  44   2.0000      -0.811832       -22.0911
  45   2.0000      -0.795155       -21.6373
  46   2.0000      -0.754276       -20.5249
  47   2.0000      -0.748062       -20.3558
  48   2.0000      -0.741000       -20.1636
  49   2.0000      -0.712090       -19.3770
  50   2.0000      -0.701096       -19.0778
  51   2.0000      -0.689047       -18.7499
  52   2.0000      -0.682790       -18.5797
  53   2.0000      -0.665018       -18.0961
  54   2.0000      -0.659069       -17.9342
  55   2.0000      -0.646508       -17.5924
  56   2.0000      -0.640889       -17.4395
  57   2.0000      -0.638244       -17.3675
  58   2.0000      -0.635070       -17.2811
  59   2.0000      -0.611734       -16.6461
  60   2.0000      -0.607857       -16.5406
  61   2.0000      -0.602428       -16.3929
  62   2.0000      -0.599368       -16.3096
  63   2.0000      -0.584230       -15.8977
  64   2.0000      -0.583335       -15.8734
  65   2.0000      -0.556779       -15.1507
  66   2.0000      -0.551082       -14.9957
  67   2.0000      -0.541138       -14.7251
  68   2.0000      -0.527194       -14.3457
  69   2.0000      -0.521090       -14.1796
  70   2.0000      -0.518504       -14.1092
  71   2.0000      -0.510886       -13.9019
  72   2.0000      -0.510083       -13.8801
  73   2.0000      -0.509273       -13.8580
  74   2.0000      -0.501691       -13.6517
  75   2.0000      -0.493654       -13.4330
  76   2.0000      -0.487324       -13.2608
  77   2.0000      -0.485531       -13.2120
  78   2.0000      -0.480343       -13.0708
  79   2.0000      -0.475688       -12.9441
  80   2.0000      -0.447502       -12.1772
  81   2.0000      -0.407359       -11.0848
  82   2.0000      -0.357069        -9.7164
  83   2.0000      -0.352179        -9.5833
  84   2.0000      -0.350774        -9.5450
  85   2.0000      -0.345550        -9.4029
  86   2.0000      -0.337945        -9.1960
  87   0.0000       0.015957         0.4342
  88   0.0000       0.022305         0.6069
  89   0.0000       0.024091         0.6556
  90   0.0000       0.027135         0.7384
  91   0.0000       0.032099         0.8735

MULLIKEN ATOMIC CHARGES
-----------------------
   0 C :    1.246486
   1 C :    1.004811
   2 C :    1.338418
   3 N :   -0.796707
   4 N :   -0.620738
   5 C :    0.298066
   6 C :   -0.382439
   7 C :   -0.561983
   8 C :   -0.367008
   9 H :    0.216359
  10 C :   -0.437975
  11 H :    0.316996
  12 C :   -0.396865
  13 H :    0.231509
  14 H :    0.210062
  15 H :    0.359546
  16 C :    0.211190
  17 C :   -0.413017
  18 C :   -0.967938
  19 C :   -0.645950
  20 H :    0.180293
  21 H :    0.287725
  22 C :   -0.535257
  23 H :    0.226357
  24 H :    0.328033
  25 H :    0.295161
  26 C :    1.882189
  27 C :    0.348707
  28 C :   -0.680030
  29 C :   -0.317684
  30 C :   -0.332823
  31 H :    0.140076
  32 C :   -0.354563
  33 H :    0.209318
  34 C :   -0.414725
  35 H :    0.222156
  36 H :    0.191722
  37 H :    0.332210
  38 O :   -1.442161
  39 O :   -1.204030
  40 H :    0.227982
  41 H :    0.203521
  42 H :    0.362999
Sum of atomic charges:    0.0000000

LOEWDIN ATOMIC CHARGES
----------------------
   0 C :   -0.681027
   1 C :   -0.107700
   2 C :   -0.549696
   3 N :    0.407195
   4 N :    0.424055
   5 C :   -0.101779
   6 C :    0.343123
   7 C :    0.344126
   8 C :    0.361015
   9 H :   -0.332804
  10 C :    0.368208
  11 H :   -0.309302
  12 C :    0.349963
  13 H :   -0.315781
  14 H :   -0.311964
  15 H :   -0.316820
  16 C :   -0.040006
  17 C :    0.518175
  18 C :    0.422621
  19 C :    0.532703
  20 H :   -0.270152
  21 H :   -0.252588
  22 C :    0.521069
  23 H :   -0.296028
  24 H :   -0.255586
  25 H :   -0.270539
  26 C :   -1.058104
  27 C :   -0.094173
  28 C :    0.344070
  29 C :    0.347902
  30 C :    0.369579
  31 H :   -0.302998
  32 C :    0.364424
  33 H :   -0.332097
  34 C :    0.351716
  35 H :   -0.311183
  36 H :   -0.313925
  37 H :   -0.316953
  38 O :    0.904850
  39 O :    0.711319
  40 H :   -0.265960
  41 H :   -0.267851
  42 H :   -0.311097

  Mayer bond orders larger than 0.100000
B(  0-C ,  1-C ) :   1.1272 B(  0-C ,  2-C ) :   0.7842 B(  0-C ,  3-N ) :   0.4240
B(  0-C ,  5-C ) :  -0.1649 B(  0-C ,  7-C ) :  -0.1678 B(  0-C , 16-C ) :  -0.1024
B(  0-C , 26-C ) :  -0.2965 B(  0-C , 27-C ) :  -0.3110 B(  0-C , 28-C ) :  -0.1451
B(  0-C , 29-C ) :  -0.2216 B(  0-C , 38-O ) :  -1.1195 B(  0-C , 39-O ) :   0.6035
B(  1-C ,  3-N ) :  -0.1714 B(  1-C ,  4-N ) :   0.1414 B(  1-C , 16-C ) :   0.4188
B(  1-C , 18-C ) :  -0.5871 B(  1-C , 27-C ) :  -0.1694 B(  1-C , 38-O ) :   0.1932
B(  1-C , 42-H ) :   0.7519 B(  2-C ,  3-N ) :  -0.1945 B(  2-C ,  4-N ) :  -0.2243
B(  2-C ,  6-C ) :  -0.5195 B(  2-C ,  7-C ) :  -0.2887 B(  2-C , 26-C ) :   1.4842
B(  2-C , 28-C ) :  -0.1068 B(  2-C , 39-O ) :   0.2526 B(  3-N ,  4-N ) :   1.2822
B(  3-N ,  5-C ) :  -0.2004 B(  3-N , 26-C ) :   0.1215 B(  4-N , 16-C ) :   0.1206
B(  5-C ,  6-C ) :   1.1815 B(  5-C ,  7-C ) :   1.0403 B(  5-C ,  8-C ) :  -0.3651
B(  5-C , 10-C ) :  -0.3310 B(  5-C , 27-C ) :   0.1931 B(  5-C , 39-O ) :   0.1895
B(  6-C ,  8-C ) :   1.2326 B(  6-C ,  9-H ) :   1.0263 B(  6-C , 13-H ) :  -0.1460
B(  7-C ,  8-C ) :   0.1118 B(  7-C , 10-C ) :   1.2940 B(  7-C , 11-H ) :   1.0116
B(  7-C , 14-H ) :  -0.1311 B(  7-C , 26-C ) :   0.1230 B(  8-C , 12-C ) :   1.1922
B(  8-C , 13-H ) :   1.1753 B( 10-C , 12-C ) :   1.1701 B( 10-C , 14-H ) :   1.1990
B( 12-C , 15-H ) :   0.9962 B( 16-C , 17-C ) :   0.5942 B( 16-C , 18-C ) :   1.2088
B( 16-C , 19-C ) :  -0.1321 B( 16-C , 22-C ) :  -0.5028 B( 16-C , 38-O ) :  -0.1696
B( 17-C , 18-C ) :  -0.1387 B( 17-C , 19-C ) :   0.8362 B( 17-C , 20-H ) :   0.9345
B( 17-C , 21-H ) :   0.9168 B( 17-C , 41-H ) :  -0.1039 B( 18-C , 22-C ) :   1.0898
B( 18-C , 23-H ) :   1.1709 B( 19-C , 22-C ) :   1.0767 B( 19-C , 24-H ) :   0.9332
B( 19-C , 41-H ) :   1.0229 B( 22-C , 25-H ) :   0.9742 B( 22-C , 40-H ) :   0.9544
B( 26-C , 38-O ) :   1.3092 B( 26-C , 39-O ) :  -0.1035 B( 27-C , 28-C ) :   0.5915
B( 27-C , 29-C ) :   1.1462 B( 27-C , 30-C ) :  -0.3249 B( 27-C , 31-H ) :  -0.1045
B( 27-C , 32-C ) :  -0.2762 B( 27-C , 38-O ) :   0.1601 B( 28-C , 30-C ) :   1.5269
B( 28-C , 31-H ) :   1.1781 B( 28-C , 32-C ) :   0.1826 B( 29-C , 30-C ) :   0.1504
B( 29-C , 32-C ) :   1.3436 B( 29-C , 33-H ) :   1.0403 B( 29-C , 36-H ) :  -0.1210
B( 30-C , 34-C ) :   1.0460 B( 30-C , 35-H ) :   1.1566 B( 30-C , 37-H ) :  -0.1165
B( 32-C , 34-C ) :   1.1055 B( 32-C , 36-H ) :   1.1932 B( 32-C , 37-H ) :  -0.1147
B( 34-C , 35-H ) :  -0.1100 B( 34-C , 37-H ) :   1.0565 B( 38-O , 39-O ) :   0.1376

MP2 TOTAL ENERGY:    -1069.178388794 Eh
FINAL SINGLE POINT ENERGY     -1069.178388793933

DIPOLE MOMENT
-------------
                                X             Y             Z
Electronic contribution:     -9.29854      -9.90974       3.89043
Nuclear contribution   :      8.87610      11.81155      -4.95113
                        -----------------------------------------
Total Dipole Moment    :     -0.42244       1.90181      -1.06069
                        -----------------------------------------
Magnitude (a.u.)       :      2.21820
Magnitude (Debye)      :      5.63822

Rotational constants in cm-1:     0.012167     0.006387     0.005161
Rotational constants in MHz :   364.749880   191.485818   154.714365

                             ****ORCA TERMINATED NORMALLY****
TOTAL RUN TIME: 0 days 13 hours 2 minutes 39 seconds 884 msec
