                         Program Version 4.2.1 -  RELEASE  -
|  1> %pal
|  2>  nprocs 32
|  3> end
|  4> !RI-MP2 aug-cc-pVQZ aug-cc-pVQZ/C TightSCF
|  5> %maxcore 4500
|  6> *xyzfile 0 2  01_36R.xyz
|  7>
|  8>
|  9>                          ****END OF INPUT****

CARTESIAN COORDINATES (ANGSTROEM)
---------------------------------
  C      0.682795   -1.161521    0.403499
  C      2.003995   -1.177099    1.073130
  C      3.166887   -0.738674    0.166497
  H      2.215787   -2.195933    1.422939
  H      1.954872   -0.534852    1.953905
  C      3.075485    0.719651   -0.296825
  H      3.227338   -1.397219   -0.707539
  H      4.098935   -0.877169    0.720920
  C      2.038251    0.964917   -1.351191
  H      4.050414    1.009983   -0.704619
  H      2.886447    1.368654    0.563127
  C      1.052790    1.847888   -1.269003
  C     -0.385468   -0.294443    0.886136
  H      0.527762   -1.809427   -0.449268
  O     -0.253539    0.344467    1.931214
  N     -1.543673   -0.220779    0.158787
  C     -2.316191   -2.192583   -1.152281
  C     -1.718348   -0.790503   -1.168463
  H     -3.280469   -2.197447   -0.639998
  H     -1.659300   -2.891469   -0.630975
  H     -2.470405   -2.558884   -2.170089
  H     -2.372738   -0.116651   -1.727332
  H     -0.765224   -0.779644   -1.696979
  C     -2.521406    2.059788    0.282392
  C     -2.629829    0.594797    0.686931
  H     -3.370826    2.627547    0.669172
  H     -2.507004    2.173136   -0.804542
  H     -1.606165    2.490242    0.688848
  H     -3.569961    0.165506    0.330670
  H     -2.613654    0.509807    1.772329
  H      2.137848    0.368966   -2.257647
  H      0.909096    2.451947   -0.379695
  H      0.347508    1.989309   -2.079380

 Total Charge           Charge          ....    0
 Multiplicity           Mult            ....    2
 Number of Electrons    NEL             ....  101
 Basis Dimension        Dim             .... 1960

ORBITAL ENERGIES
----------------
                 SPIN UP ORBITALS
  NO   OCC          E(Eh)            E(eV)
   0   1.0000     -20.504916      -557.9671
   1   1.0000     -15.567235      -423.6060
   2   1.0000     -11.329850      -308.3009
   3   1.0000     -11.265750      -306.5566
   4   1.0000     -11.249900      -306.1253
   5   1.0000     -11.246334      -306.0283
   6   1.0000     -11.227625      -305.5192
   7   1.0000     -11.225844      -305.4707
   8   1.0000     -11.223129      -305.3969
   9   1.0000     -11.222496      -305.3796
  10   1.0000     -11.218169      -305.2619
  11   1.0000     -11.217863      -305.2536
  12   1.0000     -11.207694      -304.9768
  13   1.0000      -1.372192       -37.3393
  14   1.0000      -1.238715       -33.7071
  15   1.0000      -1.105522       -30.0828
  16   1.0000      -1.059486       -28.8301
  17   1.0000      -1.036445       -28.2031
  18   1.0000      -1.009720       -27.4759
  19   1.0000      -0.981605       -26.7108
  20   1.0000      -0.908746       -24.7282
  21   1.0000      -0.870419       -23.6853
  22   1.0000      -0.850773       -23.1507
  23   1.0000      -0.796384       -21.6707
  24   1.0000      -0.755817       -20.5668
  25   1.0000      -0.717026       -19.5113
  26   1.0000      -0.702131       -19.1060
  27   1.0000      -0.664637       -18.0857
  28   1.0000      -0.641689       -17.4613
  29   1.0000      -0.630467       -17.1559
  30   1.0000      -0.617757       -16.8100
  31   1.0000      -0.608419       -16.5559
  32   1.0000      -0.600000       -16.3268
  33   1.0000      -0.598954       -16.2984
  34   1.0000      -0.578703       -15.7473
  35   1.0000      -0.561339       -15.2748
  36   1.0000      -0.545025       -14.8309
  37   1.0000      -0.542108       -14.7515
  38   1.0000      -0.534223       -14.5369
  39   1.0000      -0.521353       -14.1867
  40   1.0000      -0.513125       -13.9629
  41   1.0000      -0.502766       -13.6809
  42   1.0000      -0.500788       -13.6271
  43   1.0000      -0.497562       -13.5393
  44   1.0000      -0.484153       -13.1745
  45   1.0000      -0.472679       -12.8623
  46   1.0000      -0.471714       -12.8360
  47   1.0000      -0.422975       -11.5097
  48   1.0000      -0.394362       -10.7311
  49   1.0000      -0.368034       -10.0147
  50   1.0000      -0.336758        -9.1636
  51   0.0000       0.020504         0.5580
  52   0.0000       0.025964         0.7065
  53   0.0000       0.028843         0.7848
  54   0.0000       0.030065         0.8181
  55   0.0000       0.037831         1.0294

                 SPIN DOWN ORBITALS
  NO   OCC          E(Eh)            E(eV)
   0   1.0000     -20.496852      -557.7477
   1   1.0000     -15.566457      -423.5848
   2   1.0000     -11.334203      -308.4193
   3   1.0000     -11.265757      -306.5568
   4   1.0000     -11.250033      -306.1290
   5   1.0000     -11.231831      -305.6336
   6   1.0000     -11.224441      -305.4326
   7   1.0000     -11.224364      -305.4305
   8   1.0000     -11.222669      -305.3844
   9   1.0000     -11.222517      -305.3802
  10   1.0000     -11.220917      -305.3367
  11   1.0000     -11.213195      -305.1266
  12   1.0000     -11.207586      -304.9739
  13   1.0000      -1.358696       -36.9720
  14   1.0000      -1.233430       -33.5633
  15   1.0000      -1.097563       -29.8662
  16   1.0000      -1.042775       -28.3754
  17   1.0000      -1.035163       -28.1682
  18   1.0000      -1.003478       -27.3060
  19   1.0000      -0.962735       -26.1974
  20   1.0000      -0.896489       -24.3947
  21   1.0000      -0.869979       -23.6733
  22   1.0000      -0.843220       -22.9452
  23   1.0000      -0.787511       -21.4293
  24   1.0000      -0.756903       -20.5964
  25   1.0000      -0.709941       -19.3185
  26   1.0000      -0.695166       -18.9164
  27   1.0000      -0.660787       -17.9809
  28   1.0000      -0.636391       -17.3171
  29   1.0000      -0.622605       -16.9419
  30   1.0000      -0.612861       -16.6768
  31   1.0000      -0.605370       -16.4729
  32   1.0000      -0.596667       -16.2361
  33   1.0000      -0.595008       -16.1910
  34   1.0000      -0.573007       -15.5923
  35   1.0000      -0.558402       -15.1949
  36   1.0000      -0.543618       -14.7926
  37   1.0000      -0.535549       -14.5730
  38   1.0000      -0.525294       -14.2940
  39   1.0000      -0.512475       -13.9451
  40   1.0000      -0.503505       -13.7011
  41   1.0000      -0.498811       -13.5733
  42   1.0000      -0.495940       -13.4952
  43   1.0000      -0.489423       -13.3179
  44   1.0000      -0.480474       -13.0744
  45   1.0000      -0.471184       -12.8216
  46   1.0000      -0.469427       -12.7738
  47   1.0000      -0.412286       -11.2189
  48   1.0000      -0.360189        -9.8013
  49   1.0000      -0.346684        -9.4337
  50   0.0000       0.020524         0.5585
  51   0.0000       0.025842         0.7032
  52   0.0000       0.028646         0.7795
  53   0.0000       0.030101         0.8191
  54   0.0000       0.037853         1.0300

MULLIKEN ATOMIC CHARGES AND SPIN POPULATIONS
--------------------------------------------
   0 C :   -0.272718    1.147635
   1 C :   -0.467322   -0.189418
   2 C :   -0.473642    0.043494
   3 H :    0.276099    0.064144
   4 H :    0.257742    0.007071
   5 C :   -0.391631    0.038014
   6 H :    0.247340   -0.005308
   7 H :    0.221240   -0.003025
   8 C :   -0.129986   -0.246914
   9 H :    0.292436   -0.014886
  10 H :    0.208418    0.001836
  11 C :   -0.797095    0.270082
  12 C :    1.656443   -0.212425
  13 H :    0.180275   -0.114602
  14 O :   -1.065137    0.192357
  15 N :   -0.296665    0.024523
  16 C :   -0.971971    0.000046
  17 C :   -0.400960    0.005105
  18 H :    0.220682    0.000001
  19 H :    0.241424   -0.000809
  20 H :    0.340086   -0.000351
  21 H :    0.268673    0.002051
  22 H :    0.313276    0.010395
  23 C :   -0.921002    0.003039
  24 C :   -0.721127   -0.004780
  25 H :    0.317998    0.000474
  26 H :    0.200889    0.000521
  27 H :    0.243020   -0.001444
  28 H :    0.306270    0.000058
  29 H :    0.335973   -0.001053
  30 H :    0.219716    0.025439
  31 H :    0.260771   -0.020781
  32 H :    0.300486   -0.020487
Sum of atomic charges         :    0.0000000

LOEWDIN ATOMIC CHARGES AND SPIN POPULATIONS
-------------------------------------------
   0 C :    0.381555    0.401336
   1 C :    0.498035    0.111764
   2 C :    0.526383    0.018217
   3 H :   -0.268090    0.023436
   4 H :   -0.337117    0.003385
   5 C :    0.491517   -0.012492
   6 H :   -0.271873    0.003269
   7 H :   -0.267701    0.004012
   8 C :    0.350862   -0.033810
   9 H :   -0.274123   -0.004366
  10 H :   -0.292833   -0.000985
  11 C :    0.785562    0.058997
  12 C :   -0.850320    0.121102
  13 H :   -0.330952    0.130397
  14 O :    0.754730    0.123402
  15 N :    0.429710    0.009839
  16 C :    0.956145    0.000856
  17 C :    0.342294    0.004343
  18 H :   -0.279167    0.000031
  19 H :   -0.286437    0.001883
  20 H :   -0.272526   -0.000011
  21 H :   -0.288171    0.000013
  22 H :   -0.322719    0.003716
  23 C :    0.936003    0.000489
  24 C :    0.338284   -0.000069
  25 H :   -0.273881    0.000221
  26 H :   -0.285534    0.000254
  27 H :   -0.297330    0.000429
  28 H :   -0.285248    0.000029
  29 H :   -0.320448   -0.000626
  30 H :   -0.309257   -0.019836
  31 H :   -0.338778    0.025210
  32 H :   -0.338573    0.025563

  Mayer bond orders larger than 0.100000
B(  0-C ,  1-C ) :   0.4176 B(  0-C ,  2-C ) :  -0.1371 B(  0-C ,  3-H ) :  -0.1361
B(  0-C , 12-C ) :   0.9046 B(  0-C , 13-H ) :   1.1024 B(  0-C , 14-O ) :   0.3052
B(  1-C ,  2-C ) :   0.9484 B(  1-C ,  3-H ) :   0.9805 B(  1-C ,  4-H ) :   1.0161
B(  2-C ,  5-C ) :   0.9237 B(  2-C ,  6-H ) :   0.9053 B(  2-C ,  7-H ) :   1.0116
B(  2-C ,  8-C ) :  -0.1004 B(  5-C ,  8-C ) :   0.7282 B(  5-C ,  9-H ) :   0.9314
B(  5-C , 10-H ) :   0.9845 B(  8-C , 11-C ) :   1.5279 B(  8-C , 30-H ) :   1.0352
B(  8-C , 32-H ) :  -0.1779 B( 11-C , 31-H ) :   0.9749 B( 11-C , 32-H ) :   1.0347
B( 12-C , 14-O ) :   0.2860 B( 12-C , 15-N ) :   1.3268 B( 14-O , 15-N ) :   0.4954
B( 15-N , 16-C ) :  -0.1020 B( 15-N , 17-C ) :   0.3852 B( 15-N , 23-C ) :  -0.2431
B( 15-N , 24-C ) :   0.7413 B( 16-C , 17-C ) :   0.7421 B( 16-C , 18-H ) :   1.0347
B( 16-C , 19-H ) :   1.0037 B( 16-C , 20-H ) :   0.9407 B( 17-C , 21-H ) :   0.9934
B( 17-C , 22-H ) :   0.9262 B( 23-C , 24-C ) :   1.1223 B( 23-C , 25-H ) :   0.9562
B( 23-C , 26-H ) :   0.9830 B( 23-C , 27-H ) :   0.9467 B( 23-C , 29-H ) :   0.1070
B( 24-C , 28-H ) :   0.8929 B( 24-C , 29-H ) :   0.8668

MP2 TOTAL ENERGY:     -560.138569621 Eh
FINAL SINGLE POINT ENERGY      -560.138569620930

DIPOLE MOMENT
-------------
                                X             Y             Z
Electronic contribution:      1.79671      -0.46086       5.10862
Nuclear contribution   :     -1.94881      -0.20756      -6.34214
                        -----------------------------------------
Total Dipole Moment    :     -0.15209      -0.66841      -1.23352
                        -----------------------------------------
Magnitude (a.u.)       :      1.41120
Magnitude (Debye)      :      3.58698

Rotational constants in cm-1:     0.034727     0.017198     0.015828
Rotational constants in MHz :  1041.079637   515.578931   474.513718

                             ****ORCA TERMINATED NORMALLY****
TOTAL RUN TIME: 0 days 8 hours 57 minutes 19 seconds 88 msec
