                         Program Version 4.2.1 -  RELEASE  -
|  1> %pal
|  2>  nprocs 32
|  3> end
|  4> !RI-MP2 aug-cc-pVQZ aug-cc-pVQZ/C TightSCF
|  5> %maxcore 4500
|  6> *xyzfile 0 1  08_13R2.xyz
|  7>
|  8>
|  9>                          ****END OF INPUT****

CARTESIAN COORDINATES (ANGSTROEM)
---------------------------------
  N      0.746120   -0.000001   -0.116045
  C     -0.706140   -0.000001    0.017647
  H     -1.114347    0.877695   -0.486648
  H     -1.114365   -0.877610   -0.486786
  H     -1.077156   -0.000077    1.051562
  H      1.159936   -0.817242    0.314152
  H      1.159933    0.817242    0.314153

 Total Charge           Charge          ....    0
 Multiplicity           Mult            ....    1
 Number of Electrons    NEL             ....   18
 Basis Dimension        Dim             ....  390

ORBITAL ENERGIES
----------------

  NO   OCC          E(Eh)            E(eV)
   0   2.0000     -15.536606      -422.7725
   1   2.0000     -11.240680      -305.8744
   2   2.0000      -1.168472       -31.7957
   3   2.0000      -0.895063       -24.3559
   4   2.0000      -0.663626       -18.0582
   5   2.0000      -0.602606       -16.3977
   6   2.0000      -0.559211       -15.2169
   7   2.0000      -0.516833       -14.0637
   8   2.0000      -0.387621       -10.5477
   9   0.0000       0.026329         0.7165
  10   0.0000       0.038638         1.0514
  11   0.0000       0.039500         1.0748
  12   0.0000       0.044474         1.2102
  13   0.0000       0.062457         1.6995

MULLIKEN ATOMIC CHARGES
-----------------------
   0 N :   -0.613117
   1 C :   -0.641892
   2 H :    0.265448
   3 H :    0.265448
   4 H :    0.235622
   5 H :    0.244244
   6 H :    0.244247
Sum of atomic charges:    0.0000000

LOEWDIN ATOMIC CHARGES
----------------------
   0 N :    1.241918
   1 C :    0.737030
   2 H :   -0.316004
   3 H :   -0.316003
   4 H :   -0.295132
   5 H :   -0.525904
   6 H :   -0.525904

  Mayer bond orders larger than 0.100000
B(  0-N ,  1-C ) :   0.9753 B(  0-N ,  5-H ) :   0.9311 B(  0-N ,  6-H ) :   0.9311
B(  1-C ,  2-H ) :   0.9261 B(  1-C ,  3-H ) :   0.9261 B(  1-C ,  4-H ) :   0.9471

MP2 TOTAL ENERGY:      -95.695763651 Eh
FINAL SINGLE POINT ENERGY       -95.695763650553

DIPOLE MOMENT
-------------
                                X             Y             Z
Electronic contribution:      0.97687      -0.00001      -0.25741
Nuclear contribution   :     -1.06845       0.00001       0.76818
                        -----------------------------------------
Total Dipole Moment    :     -0.09158       0.00000       0.51077
                        -----------------------------------------
Magnitude (a.u.)       :      0.51891
Magnitude (Debye)      :      1.31897

Rotational constants in cm-1:     3.480462     0.762472     0.730897
Rotational constants in MHz : 104341.624587 22858.350189 21911.733527

                             ****ORCA TERMINATED NORMALLY****
TOTAL RUN TIME: 0 days 0 hours 0 minutes 51 seconds 471 msec
