                         Program Version 4.2.1 -  RELEASE  -
|  1> %pal
|  2>  nprocs 32
|  3> end
|  4> !RI-MP2 aug-cc-pVQZ aug-cc-pVQZ/C TightSCF
|  5> %maxcore 4500
|  6> *xyzfile 0 1  10_41TS.xyz
|  7>
|  8>
|  9>                          ****END OF INPUT****

CARTESIAN COORDINATES (ANGSTROEM)
---------------------------------
  C     -0.781186   -1.792929    0.530569
  H     -0.548820   -2.301698    1.484789
  C     -1.784898   -0.690839    0.780530
  C     -0.021574    1.009588    0.286835
  H      0.227017    1.340277   -0.724385
  H      0.169890    1.859665    0.948706
  C      0.918829   -0.144114    0.634967
  H      0.859019   -0.338360    1.723519
  N      0.436079   -1.314022   -0.091976
  C     -2.441775    1.455884   -0.202598
  C     -3.035573   -1.028095    1.272667
  H     -3.448282   -0.393672    2.036057
  H     -3.293265   -2.079856    1.378041
  C     -3.721557    1.020051   -0.571886
  C     -4.553350    0.082692    0.027324
  C     -1.477740    0.614937    0.386973
  H     -4.855475    0.245112    1.045413
  H     -4.027911    1.362376   -1.562430
  C     -5.585193   -0.641932   -0.796713
  H     -5.758153   -1.645512   -0.403043
  H     -6.547841   -0.119627   -0.773173
  H     -5.271963   -0.741324   -1.837065
  C      1.421820   -2.366869   -0.231388
  H      1.797270   -2.704211    0.752519
  H      0.939448   -3.225395   -0.704246
  C      2.358564    0.203186    0.316073
  C      3.141202   -0.598504   -0.513455
  C      2.572906   -1.870181   -1.084293
  H      2.207685   -1.693428   -2.100578
  H      3.355548   -2.630534   -1.146273
  H     -1.243968   -2.541184   -0.122357
  C      4.456584   -0.224244   -0.782672
  H      5.060535   -0.855216   -1.426343
  C      2.922316    1.347863    0.879681
  H      2.328852    1.962355    1.546799
  C      5.001774    0.924320   -0.236634
  H      6.026607    1.198471   -0.456142
  C      4.229309    1.712518    0.607587
  H      4.646634    2.606285    1.055509
  C     -1.974028    2.753215   -0.825171
  H     -1.230772    2.594717   -1.611362
  H     -1.510713    3.399499   -0.075731
  H     -2.812464    3.300137   -1.254771

 Total Charge           Charge          ....    0
 Multiplicity           Mult            ....    1
 Number of Electrons    NEL             ....  144
 Basis Dimension        Dim             .... 2658

ORBITAL ENERGIES
----------------

  NO   OCC          E(Eh)            E(eV)
   0   2.0000     -15.541387      -422.9026
   1   2.0000     -11.256006      -306.2915
   2   2.0000     -11.248259      -306.0807
   3   2.0000     -11.246004      -306.0193
   4   2.0000     -11.242246      -305.9171
   5   2.0000     -11.234677      -305.7111
   6   2.0000     -11.232208      -305.6439
   7   2.0000     -11.230975      -305.6104
   8   2.0000     -11.226563      -305.4903
   9   2.0000     -11.225813      -305.4699
  10   2.0000     -11.224835      -305.4433
  11   2.0000     -11.224112      -305.4236
  12   2.0000     -11.223326      -305.4022
  13   2.0000     -11.222074      -305.3682
  14   2.0000     -11.221457      -305.3514
  15   2.0000     -11.221341      -305.3482
  16   2.0000     -11.216929      -305.2281
  17   2.0000     -11.216745      -305.2231
  18   2.0000     -11.214127      -305.1519
  19   2.0000     -11.212829      -305.1166
  20   2.0000      -1.251395       -34.0522
  21   2.0000      -1.154834       -31.4246
  22   2.0000      -1.131655       -30.7939
  23   2.0000      -1.073058       -29.1994
  24   2.0000      -1.059298       -28.8250
  25   2.0000      -1.046549       -28.4781
  26   2.0000      -1.029537       -28.0151
  27   2.0000      -0.996927       -27.1278
  28   2.0000      -0.971037       -26.4233
  29   2.0000      -0.932031       -25.3618
  30   2.0000      -0.916863       -24.9491
  31   2.0000      -0.884356       -24.0645
  32   2.0000      -0.855016       -23.2662
  33   2.0000      -0.834563       -22.7096
  34   2.0000      -0.809806       -22.0359
  35   2.0000      -0.794848       -21.6289
  36   2.0000      -0.766012       -20.8443
  37   2.0000      -0.743713       -20.2374
  38   2.0000      -0.692986       -18.8571
  39   2.0000      -0.669481       -18.2175
  40   2.0000      -0.665112       -18.0986
  41   2.0000      -0.654352       -17.8058
  42   2.0000      -0.637718       -17.3532
  43   2.0000      -0.626901       -17.0588
  44   2.0000      -0.614702       -16.7269
  45   2.0000      -0.606104       -16.4929
  46   2.0000      -0.593819       -16.1586
  47   2.0000      -0.586637       -15.9632
  48   2.0000      -0.579399       -15.7662
  49   2.0000      -0.574957       -15.6454
  50   2.0000      -0.566528       -15.4160
  51   2.0000      -0.563338       -15.3292
  52   2.0000      -0.554219       -15.0811
  53   2.0000      -0.546675       -14.8758
  54   2.0000      -0.543354       -14.7854
  55   2.0000      -0.527676       -14.3588
  56   2.0000      -0.521221       -14.1831
  57   2.0000      -0.517956       -14.0943
  58   2.0000      -0.513177       -13.9643
  59   2.0000      -0.511337       -13.9142
  60   2.0000      -0.494167       -13.4470
  61   2.0000      -0.489670       -13.3246
  62   2.0000      -0.475402       -12.9364
  63   2.0000      -0.473217       -12.8769
  64   2.0000      -0.452744       -12.3198
  65   2.0000      -0.446027       -12.1370
  66   2.0000      -0.423303       -11.5186
  67   2.0000      -0.359329        -9.7779
  68   2.0000      -0.326755        -8.8915
  69   2.0000      -0.319640        -8.6978
  70   2.0000      -0.292279        -7.9533
  71   2.0000      -0.280237        -7.6256
  72   0.0000       0.021598         0.5877
  73   0.0000       0.024919         0.6781
  74   0.0000       0.025799         0.7020
  75   0.0000       0.028613         0.7786
  76   0.0000       0.032516         0.8848

MULLIKEN ATOMIC CHARGES
-----------------------
   0 C :   -0.232648
   1 H :    0.259289
   2 C :   -0.026191
   3 C :    0.231387
   4 H :    0.181899
   5 H :    0.095928
   6 C :    1.529751
   7 H :    0.148983
   8 N :   -0.206137
   9 C :    0.376133
  10 C :   -1.057459
  11 H :    0.268495
  12 H :    0.148196
  13 C :   -0.507383
  14 C :   -0.108202
  15 C :    0.139961
  16 H :    0.272115
  17 H :    0.230347
  18 C :   -0.913302
  19 H :    0.235076
  20 H :    0.289765
  21 H :    0.233697
  22 C :   -0.796864
  23 H :    0.263796
  24 H :    0.230953
  25 C :    0.499873
  26 C :    0.282623
  27 C :   -0.718088
  28 H :    0.222880
  29 H :    0.194593
  30 H :    0.166187
  31 C :   -0.669267
  32 H :    0.228397
  33 C :   -0.800391
  34 H :    0.091485
  35 C :   -0.426086
  36 H :    0.263882
  37 C :   -0.448270
  38 H :    0.216263
  39 C :   -1.103062
  40 H :    0.197216
  41 H :    0.204950
  42 H :    0.309227
Sum of atomic charges:   -0.0000000

LOEWDIN ATOMIC CHARGES
----------------------
   0 C :    0.335251
   1 H :   -0.258839
   2 C :   -0.037240
   3 C :    0.492318
   4 H :   -0.290805
   5 H :   -0.274905
   6 C :   -0.050647
   7 H :   -0.254921
   8 N :    0.535976
   9 C :   -0.011226
  10 C :    0.731954
  11 H :   -0.360538
  12 H :   -0.281174
  13 C :    0.362240
  14 C :    0.332990
  15 C :   -0.005021
  16 H :   -0.372420
  17 H :   -0.329715
  18 C :    0.922106
  19 H :   -0.292401
  20 H :   -0.280427
  21 H :   -0.299635
  22 C :    0.353214
  23 H :   -0.239938
  24 H :   -0.273043
  25 C :   -0.028957
  26 C :   -0.037744
  27 C :    0.524230
  28 H :   -0.255499
  29 H :   -0.274645
  30 H :   -0.272474
  31 C :    0.357978
  32 H :   -0.313130
  33 C :    0.360411
  34 H :   -0.316784
  35 C :    0.348621
  36 H :   -0.320996
  37 C :    0.356201
  38 H :   -0.319881
  39 C :    0.900215
  40 H :   -0.284802
  41 H :   -0.276635
  42 H :   -0.299263

  Mayer bond orders larger than 0.100000
B(  0-C ,  1-H ) :   1.0667 B(  0-C ,  2-C ) :   0.3565 B(  0-C ,  8-N ) :   1.0856
B(  0-C , 10-C ) :  -0.2440 B(  0-C , 30-H ) :   1.0960 B(  1-H ,  2-C ) :  -0.1574
B(  2-C ,  3-C ) :  -0.2760 B(  2-C ,  9-C ) :  -0.2975 B(  2-C , 10-C ) :   1.4240
B(  2-C , 11-H ) :  -0.1216 B(  2-C , 12-H ) :  -0.1662 B(  2-C , 15-C ) :   0.9452
B(  3-C ,  4-H ) :   1.1023 B(  3-C ,  5-H ) :   0.9567 B(  3-C ,  6-C ) :   0.7158
B(  3-C ,  8-N ) :   0.1170 B(  3-C ,  9-C ) :  -0.5229 B(  3-C , 25-C ) :  -0.1626
B(  3-C , 33-C ) :   0.1171 B(  4-H ,  5-H ) :   0.1061 B(  6-C ,  7-H ) :   0.9991
B(  6-C ,  8-N ) :   0.4404 B(  6-C , 15-C ) :  -0.2184 B(  6-C , 22-C ) :  -0.1042
B(  6-C , 25-C ) :  -0.2736 B(  6-C , 26-C ) :  -0.5423 B(  6-C , 33-C ) :  -0.7082
B(  8-N , 15-C ) :  -0.1399 B(  8-N , 22-C ) :   0.7004 B(  8-N , 23-H ) :  -0.1310
B(  9-C , 10-C ) :   0.2826 B(  9-C , 13-C ) :   0.7386 B(  9-C , 14-C ) :  -0.3845
B(  9-C , 15-C ) :   1.2783 B(  9-C , 17-H ) :  -0.1400 B(  9-C , 39-C ) :   0.6751
B(  9-C , 40-H ) :  -0.1300 B(  9-C , 41-H ) :  -0.1520 B(  9-C , 42-H ) :  -0.1180
B( 10-C , 11-H ) :   1.0455 B( 10-C , 12-H ) :   1.1925 B( 10-C , 14-C ) :   0.4349
B( 10-C , 15-C ) :  -0.2386 B( 13-C , 14-C ) :   1.2076 B( 13-C , 15-C ) :  -0.1957
B( 13-C , 17-H ) :   1.0312 B( 13-C , 39-C ) :  -0.1840 B( 14-C , 15-C ) :   0.2047
B( 14-C , 16-H ) :   0.9277 B( 14-C , 18-C ) :   0.7227 B( 15-C , 39-C ) :   0.1035
B( 18-C , 19-H ) :   1.0267 B( 18-C , 20-H ) :   0.9972 B( 18-C , 21-H ) :   0.9921
B( 22-C , 23-H ) :   0.9782 B( 22-C , 24-H ) :   1.0082 B( 22-C , 27-C ) :   1.2079
B( 25-C , 26-C ) :   1.1050 B( 25-C , 27-C ) :  -0.1076 B( 25-C , 31-C ) :  -0.5621
B( 25-C , 33-C ) :   1.0671 B( 25-C , 34-H ) :  -0.1421 B( 25-C , 37-C ) :  -0.2891
B( 26-C , 27-C ) :   0.3944 B( 26-C , 29-H ) :  -0.1654 B( 26-C , 31-C ) :   1.0816
B( 26-C , 32-H ) :  -0.1020 B( 26-C , 35-C ) :  -0.2728 B( 27-C , 28-H ) :   1.0276
B( 27-C , 29-H ) :   1.1415 B( 31-C , 32-H ) :   1.0663 B( 31-C , 33-C ) :   0.1736
B( 31-C , 35-C ) :   1.2718 B( 31-C , 36-H ) :  -0.1971 B( 31-C , 37-C ) :   0.1278
B( 33-C , 34-H ) :   1.2905 B( 33-C , 37-C ) :   1.2364 B( 33-C , 38-H ) :  -0.1823
B( 35-C , 36-H ) :   1.1475 B( 35-C , 37-C ) :   1.1936 B( 36-H , 37-C ) :  -0.1223
B( 37-C , 38-H ) :   1.1906 B( 39-C , 40-H ) :   1.0769 B( 39-C , 41-H ) :   1.1179
B( 39-C , 42-H ) :   0.9938

MP2 TOTAL ENERGY:     -791.090846839 Eh
FINAL SINGLE POINT ENERGY      -791.090846838918

DIPOLE MOMENT
-------------
                                X             Y             Z
Electronic contribution:     12.98253       1.15182       2.32339
Nuclear contribution   :    -13.17420      -1.43560      -2.26940
                        -----------------------------------------
Total Dipole Moment    :     -0.19167      -0.28378       0.05399
                        -----------------------------------------
Magnitude (a.u.)       :      0.34667
Magnitude (Debye)      :      0.88118

Rotational constants in cm-1:     0.026028     0.006296     0.005523
Rotational constants in MHz :   780.289826   188.763448   165.571264

                             ****ORCA TERMINATED NORMALLY****
TOTAL RUN TIME: 0 days 9 hours 20 minutes 27 seconds 875 msec
