                         Program Version 4.2.1 -  RELEASE  -
|  1> %pal
|  2>  nprocs 32
|  3> end
|  4> !RI-MP2 aug-cc-pVQZ aug-cc-pVQZ/C TightSCF
|  5> %maxcore 4500
|  6> *xyzfile 0 1  10_66P.xyz
|  7>
|  8>
|  9>                          ****END OF INPUT****

CARTESIAN COORDINATES (ANGSTROEM)
---------------------------------
  C     -1.282963    0.787250   -0.500451
  C      0.161913    1.165691   -0.679473
  C     -2.254181    1.692113   -0.345848
  C      0.634339    1.715466    0.635828
  C     -2.005802    3.100928   -0.137561
  C      0.155768    2.877988    1.095467
  C     -0.933446    3.624930    0.500617
  H      1.366831    1.156203    1.203225
  H      0.585364    3.297034    2.000389
  H     -0.948718    4.692922    0.696179
  H     -2.807507    3.779229   -0.411241
  C      1.731908   -2.076514   -0.256501
  C      0.865414   -0.082869   -1.270921
  H      0.199184    1.987745   -1.403117
  C      2.071474   -0.682601   -0.555450
  C     -0.183652   -1.232083   -1.317401
  H      1.161083    0.156619   -2.293562
  C      0.516006   -2.404902   -0.691288
  C      3.248205   -0.077979   -0.353525
  C      4.413500   -0.740278    0.324737
  C      3.521983    1.326955   -0.808070
  H      2.712761    1.750302   -1.400121
  H      4.434833    1.354439   -1.411426
  H      3.690094    1.990174    0.046455
  H      4.187735   -1.737839    0.695315
  H      4.753040   -0.136149    1.172111
  H      5.262295   -0.818652   -0.362135
  C     -1.469176   -0.721069   -0.558573
  C     -2.682622   -1.088356   -1.284430
  N     -3.616408   -1.345963   -1.897356
  C     -1.528740   -1.352664    0.839678
  O     -2.227189   -2.279123    1.138813
  O     -0.662518   -0.765149    1.658699
  C     -0.538642   -1.339711    2.962730
  H      0.179281   -0.715991    3.488077
  H     -1.501362   -1.332530    3.471859
  H     -0.176508   -2.364751    2.886070
  H     -3.290516    1.367587   -0.354798
  H     -0.488082   -1.453456   -2.341193
  H      0.059252   -3.382423   -0.607730
  H      2.405755   -2.768312    0.229655

 Total Charge           Charge          ....    0
 Multiplicity           Mult            ....    1
 Number of Electrons    NEL             ....  156
 Basis Dimension        Dim             .... 2634

ORBITAL ENERGIES
----------------

  NO   OCC          E(Eh)            E(eV)
   0   2.0000     -20.613672      -560.9265
   1   2.0000     -20.555604      -559.3464
   2   2.0000     -15.562557      -423.4787
   3   2.0000     -11.395152      -310.0778
   4   2.0000     -11.306410      -307.6631
   5   2.0000     -11.294665      -307.3435
   6   2.0000     -11.267098      -306.5933
   7   2.0000     -11.265913      -306.5611
   8   2.0000     -11.259946      -306.3987
   9   2.0000     -11.250342      -306.1374
  10   2.0000     -11.249150      -306.1049
  11   2.0000     -11.245349      -306.0015
  12   2.0000     -11.244466      -305.9775
  13   2.0000     -11.243827      -305.9601
  14   2.0000     -11.242282      -305.9181
  15   2.0000     -11.241875      -305.9070
  16   2.0000     -11.240320      -305.8647
  17   2.0000     -11.239446      -305.8409
  18   2.0000     -11.238896      -305.8259
  19   2.0000     -11.230686      -305.6025
  20   2.0000     -11.230047      -305.5851
  21   2.0000     -11.228450      -305.5417
  22   2.0000      -1.483011       -40.3548
  23   2.0000      -1.379163       -37.5289
  24   2.0000      -1.227034       -33.3893
  25   2.0000      -1.197375       -32.5822
  26   2.0000      -1.148869       -31.2623
  27   2.0000      -1.116010       -30.3682
  28   2.0000      -1.079514       -29.3751
  29   2.0000      -1.062695       -28.9174
  30   2.0000      -1.035332       -28.1728
  31   2.0000      -0.992211       -26.9994
  32   2.0000      -0.984433       -26.7878
  33   2.0000      -0.951905       -25.9027
  34   2.0000      -0.948406       -25.8074
  35   2.0000      -0.897459       -24.4211
  36   2.0000      -0.863289       -23.4913
  37   2.0000      -0.830574       -22.6011
  38   2.0000      -0.809421       -22.0255
  39   2.0000      -0.778922       -21.1955
  40   2.0000      -0.757503       -20.6127
  41   2.0000      -0.737806       -20.0767
  42   2.0000      -0.735715       -20.0198
  43   2.0000      -0.700424       -19.0595
  44   2.0000      -0.697359       -18.9761
  45   2.0000      -0.687044       -18.6954
  46   2.0000      -0.684658       -18.6305
  47   2.0000      -0.669864       -18.2279
  48   2.0000      -0.652444       -17.7539
  49   2.0000      -0.636134       -17.3101
  50   2.0000      -0.615515       -16.7490
  51   2.0000      -0.606425       -16.5017
  52   2.0000      -0.601987       -16.3809
  53   2.0000      -0.595649       -16.2084
  54   2.0000      -0.593288       -16.1442
  55   2.0000      -0.579379       -15.7657
  56   2.0000      -0.567882       -15.4528
  57   2.0000      -0.556753       -15.1500
  58   2.0000      -0.551097       -14.9961
  59   2.0000      -0.549037       -14.9401
  60   2.0000      -0.547045       -14.8859
  61   2.0000      -0.538018       -14.6402
  62   2.0000      -0.531476       -14.4622
  63   2.0000      -0.524867       -14.2824
  64   2.0000      -0.521034       -14.1781
  65   2.0000      -0.513943       -13.9851
  66   2.0000      -0.503088       -13.6897
  67   2.0000      -0.488739       -13.2993
  68   2.0000      -0.477535       -12.9944
  69   2.0000      -0.473700       -12.8900
  70   2.0000      -0.465868       -12.6769
  71   2.0000      -0.457084       -12.4379
  72   2.0000      -0.451663       -12.2904
  73   2.0000      -0.440957       -11.9990
  74   2.0000      -0.427099       -11.6220
  75   2.0000      -0.360314        -9.8047
  76   2.0000      -0.315722        -8.5912
  77   2.0000      -0.311239        -8.4693
  78   0.0000       0.014722         0.4006
  79   0.0000       0.022062         0.6003
  80   0.0000       0.022653         0.6164
  81   0.0000       0.027431         0.7464
  82   0.0000       0.032568         0.8862

MULLIKEN ATOMIC CHARGES
-----------------------
   0 C :    0.115489
   1 C :    1.192262
   2 C :   -0.632493
   3 C :   -0.792264
   4 C :   -0.543365
   5 C :   -0.604068
   6 C :   -0.407999
   7 H :    0.518135
   8 H :    0.190732
   9 H :    0.356057
  10 H :    0.314236
  11 C :   -0.977791
  12 C :    0.438539
  13 H :    0.623292
  14 C :    0.274282
  15 C :   -0.206385
  16 H :    0.503643
  17 C :   -0.436351
  18 C :    0.469929
  19 C :   -1.140321
  20 C :   -1.027073
  21 H :    0.211226
  22 H :    0.293812
  23 H :    0.176486
  24 H :    0.270976
  25 H :    0.185474
  26 H :    0.270527
  27 C :   -0.448470
  28 C :    1.099988
  29 N :   -1.257661
  30 C :    2.112015
  31 O :   -1.218503
  32 O :   -0.893973
  33 C :   -1.159018
  34 H :    0.403818
  35 H :    0.405294
  36 H :    0.360937
  37 H :    0.279612
  38 H :    0.440580
  39 H :    0.051365
  40 H :    0.187029
Sum of atomic charges:    0.0000000

LOEWDIN ATOMIC CHARGES
----------------------
   0 C :   -0.079185
   1 C :    0.109448
   2 C :    0.388280
   3 C :    0.368234
   4 C :    0.378228
   5 C :    0.382905
   6 C :    0.364370
   7 H :   -0.326939
   8 H :   -0.324972
   9 H :   -0.330482
  10 H :   -0.328322
  11 C :    0.406910
  12 C :    0.141580
  13 H :   -0.289757
  14 C :   -0.030048
  15 C :    0.114943
  16 H :   -0.253742
  17 C :    0.414458
  18 C :   -0.008836
  19 C :    0.911655
  20 C :    0.908855
  21 H :   -0.318016
  22 H :   -0.268491
  23 H :   -0.268398
  24 H :   -0.328150
  25 H :   -0.275289
  26 H :   -0.273169
  27 C :   -0.385504
  28 C :   -0.334719
  29 N :    0.479616
  30 C :   -1.124003
  31 O :    0.771217
  32 O :    0.881954
  33 C :    0.611245
  34 H :   -0.309904
  35 H :   -0.304975
  36 H :   -0.302038
  37 H :   -0.320129
  38 H :   -0.264731
  39 H :   -0.274785
  40 H :   -0.309312

  Mayer bond orders larger than 0.100000
B(  0-C ,  2-C ) :   1.9980 B(  0-C ,  3-C ) :   0.2455 B(  0-C ,  4-C ) :  -0.2972
B(  0-C , 12-C ) :   0.1012 B(  0-C , 13-H ) :  -0.3369 B(  0-C , 15-C ) :   0.1366
B(  0-C , 28-C ) :  -0.6943 B(  0-C , 29-N ) :  -0.1595 B(  0-C , 30-C ) :   0.1535
B(  0-C , 31-O ) :   0.1866 B(  0-C , 32-O ) :   0.1278 B(  1-C ,  2-C ) :  -0.7622
B(  1-C ,  3-C ) :   0.6146 B(  1-C ,  5-C ) :  -0.5540 B(  1-C , 12-C ) :   0.7533
B(  1-C , 13-H ) :   0.9374 B(  1-C , 14-C ) :   0.1801 B(  1-C , 32-O ) :  -0.1267
B(  2-C ,  4-C ) :   1.0180 B(  2-C , 10-H ) :  -0.1259 B(  2-C , 13-H ) :  -0.1639
B(  2-C , 27-C ) :  -0.3563 B(  2-C , 28-C ) :   0.1207 B(  2-C , 37-H ) :   0.9854
B(  3-C ,  4-C ) :   0.1085 B(  3-C ,  5-C ) :   1.9463 B(  3-C ,  7-H ) :   0.7079
B(  3-C , 13-H ) :  -0.2359 B(  3-C , 32-O ) :   0.1002 B(  4-C ,  6-C ) :   1.5789
B(  4-C , 10-H ) :   1.0266 B(  5-C ,  6-C ) :   1.0290 B(  5-C ,  7-H ) :  -0.1232
B(  5-C ,  8-H ) :   1.0940 B(  6-C ,  9-H ) :   0.9637 B( 11-C , 12-C ) :  -0.4373
B( 11-C , 14-C ) :   1.1095 B( 11-C , 16-H ) :  -0.1077 B( 11-C , 17-C ) :   1.4432
B( 11-C , 18-C ) :  -0.4665 B( 11-C , 27-C ) :  -0.1314 B( 11-C , 39-H ) :  -0.1734
B( 11-C , 40-H ) :   1.1646 B( 12-C , 13-H ) :  -0.1521 B( 12-C , 15-C ) :   0.9214
B( 12-C , 16-H ) :   1.0331 B( 12-C , 18-C ) :  -0.2701 B( 12-C , 27-C ) :   0.2070
B( 14-C , 15-C ) :   0.3519 B( 14-C , 16-H ) :  -0.3719 B( 14-C , 17-C ) :  -0.3539
B( 14-C , 18-C ) :   0.7278 B( 15-C , 17-C ) :   0.9803 B( 15-C , 18-C ) :  -0.1637
B( 15-C , 27-C ) :   0.8259 B( 15-C , 28-C ) :  -0.1582 B( 15-C , 31-O ) :   0.1090
B( 15-C , 32-O ) :  -0.1323 B( 15-C , 38-H ) :   0.9524 B( 15-C , 39-H ) :  -0.1201
B( 16-H , 18-C ) :  -0.1078 B( 17-C , 18-C ) :   0.1031 B( 17-C , 27-C ) :   0.1689
B( 17-C , 38-H ) :  -0.2613 B( 17-C , 39-H ) :   1.4096 B( 18-C , 19-C ) :   0.4861
B( 18-C , 20-C ) :   0.5090 B( 18-C , 21-H ) :  -0.1548 B( 18-C , 22-H ) :  -0.1329
B( 18-C , 23-H ) :  -0.1222 B( 18-C , 24-H ) :  -0.1184 B( 18-C , 25-H ) :  -0.1673
B( 18-C , 26-H ) :  -0.1555 B( 19-C , 24-H ) :   1.0428 B( 19-C , 25-H ) :   1.1036
B( 19-C , 26-H ) :   1.0855 B( 20-C , 21-H ) :   1.0793 B( 20-C , 22-H ) :   0.9982
B( 20-C , 23-H ) :   1.0862 B( 27-C , 28-C ) :   2.0113 B( 27-C , 29-N ) :   0.7212
B( 27-C , 30-C ) :   1.0142 B( 27-C , 31-O ) :   0.3303 B( 27-C , 32-O ) :   0.1419
B( 27-C , 38-H ) :  -0.1704 B( 28-C , 29-N ) :   1.0269 B( 28-C , 30-C ) :  -0.1843
B( 30-C , 31-O ) :  -0.1265 B( 30-C , 32-O ) :   0.8926 B( 30-C , 33-C ) :  -0.1431
B( 31-O , 32-O ) :   0.4191 B( 31-O , 33-C ) :   0.1013 B( 32-O , 33-C ) :   0.8358
B( 33-C , 34-H ) :   0.8836 B( 33-C , 35-H ) :   0.9217 B( 33-C , 36-H ) :   0.9276

MP2 TOTAL ENERGY:     -939.003555023 Eh
FINAL SINGLE POINT ENERGY      -939.003555022669

DIPOLE MOMENT
-------------
                                X             Y             Z
Electronic contribution:    -19.28345      -5.81844      -4.35068
Nuclear contribution   :     21.68941       6.75734       5.32994
                        -----------------------------------------
Total Dipole Moment    :      2.40596       0.93890       0.97926
                        -----------------------------------------
Magnitude (a.u.)       :      2.76209
Magnitude (Debye)      :      7.02067

Rotational constants in cm-1:     0.012754     0.009843     0.007574
Rotational constants in MHz :   382.345018   295.083495   227.050958

                             ****ORCA TERMINATED NORMALLY****
TOTAL RUN TIME: 0 days 12 hours 50 minutes 24 seconds 538 msec
