                         Program Version 4.2.1 -  RELEASE  -
|  1> %pal
|  2>  nprocs 32
|  3> end
|  4> !RI-MP2 aug-cc-pVQZ aug-cc-pVQZ/C TightSCF
|  5> %maxcore 4500
|  6> *xyzfile 0 2  06_21R2.xyz
|  7>
|  8>
|  9>                          ****END OF INPUT****

CARTESIAN COORDINATES (ANGSTROEM)
---------------------------------
  S     -1.456914   -0.302030    0.067278
  C     -0.134035    0.878284   -0.256825
  C      1.215005    0.460348    0.312317
  O      1.652915   -0.776189   -0.201351
  H     -0.071722    0.949779   -1.348750
  H     -0.439058    1.862015    0.109158
  H      1.969690    1.196569    0.029097
  H      1.163056    0.436641    1.407647
  H      0.979517   -1.434798    0.004262

 Total Charge           Charge          ....    0
 Multiplicity           Mult            ....    2
 Number of Electrons    NEL             ....   41
 Basis Dimension        Dim             ....  554

ORBITAL ENERGIES
----------------
                 SPIN UP ORBITALS
  NO   OCC          E(Eh)            E(eV)
   0   1.0000     -91.979394     -2502.8866
   1   1.0000     -20.559235      -559.4452
   2   1.0000     -11.287764      -307.1557
   3   1.0000     -11.271516      -306.7135
   4   1.0000      -8.981427      -244.3971
   5   1.0000      -6.677350      -181.6999
   6   1.0000      -6.658853      -181.1966
   7   1.0000      -6.657473      -181.1591
   8   1.0000      -1.368998       -37.2523
   9   1.0000      -1.079303       -29.3693
  10   1.0000      -0.945512       -25.7287
  11   1.0000      -0.823399       -22.4058
  12   1.0000      -0.704781       -19.1781
  13   1.0000      -0.650250       -17.6942
  14   1.0000      -0.611554       -16.6412
  15   1.0000      -0.587145       -15.9770
  16   1.0000      -0.526106       -14.3161
  17   1.0000      -0.479211       -13.0400
  18   1.0000      -0.461652       -12.5622
  19   1.0000      -0.437831       -11.9140
  20   1.0000      -0.382783       -10.4161
  21   0.0000       0.026065         0.7093
  22   0.0000       0.035481         0.9655
  23   0.0000       0.037990         1.0338
  24   0.0000       0.041672         1.1340
  25   0.0000       0.056437         1.5357

                 SPIN DOWN ORBITALS
  NO   OCC          E(Eh)            E(eV)
   0   1.0000     -91.970267     -2502.6382
   1   1.0000     -20.559234      -559.4452
   2   1.0000     -11.287655      -307.1527
   3   1.0000     -11.272512      -306.7406
   4   1.0000      -8.971375      -244.1235
   5   1.0000      -6.653757      -181.0579
   6   1.0000      -6.652184      -181.0151
   7   1.0000      -6.636223      -180.5808
   8   1.0000      -1.368970       -37.2516
   9   1.0000      -1.058278       -28.7972
  10   1.0000      -0.907534       -24.6953
  11   1.0000      -0.784266       -21.3410
  12   1.0000      -0.702304       -19.1107
  13   1.0000      -0.645357       -17.5611
  14   1.0000      -0.607585       -16.5332
  15   1.0000      -0.569410       -15.4944
  16   1.0000      -0.521941       -14.2027
  17   1.0000      -0.469821       -12.7845
  18   1.0000      -0.457787       -12.4570
  19   1.0000      -0.364108        -9.9079
  20   0.0000       0.009643         0.2624
  21   0.0000       0.026739         0.7276
  22   0.0000       0.037163         1.0113
  23   0.0000       0.039184         1.0663
  24   0.0000       0.041881         1.1397

MULLIKEN ATOMIC CHARGES AND SPIN POPULATIONS
--------------------------------------------
   0 S :   -0.126030    1.103519
   1 C :   -0.505447   -0.170735
   2 C :   -0.005660    0.020005
   3 O :   -0.799410   -0.002032
   4 H :    0.242588    0.039563
   5 H :    0.278208    0.013874
   6 H :    0.303264   -0.001997
   7 H :    0.245813   -0.000769
   8 H :    0.366673   -0.001428
Sum of atomic charges         :   -0.0000000

LOEWDIN ATOMIC CHARGES AND SPIN POPULATIONS
-------------------------------------------
   0 S :    1.085598    0.750472
   1 C :   -0.058530    0.186761
   2 C :    0.046541    0.011762
   3 O :    1.248600    0.000646
   4 H :   -0.403213    0.028512
   5 H :   -0.393408    0.015406
   6 H :   -0.324121    0.000330
   7 H :   -0.318317    0.003597
   8 H :   -0.883151    0.002515

  Mayer bond orders larger than 0.100000
B(  0-S ,  1-C ) :   0.9470 B(  1-C ,  2-C ) :   1.0379 B(  1-C ,  4-H ) :   0.8754
B(  1-C ,  5-H ) :   0.9004 B(  2-C ,  3-O ) :   0.7130 B(  2-C ,  6-H ) :   0.8543
B(  2-C ,  7-H ) :   0.9153 B(  3-O ,  8-H ) :   0.8531

MP2 TOTAL ENERGY:     -551.896097729 Eh
FINAL SINGLE POINT ENERGY      -551.896097729156

DIPOLE MOMENT
-------------
                                X             Y             Z
Electronic contribution:     -3.81078      -2.41010      -0.01419
Nuclear contribution   :      3.66678       3.00261       0.19586
                        -----------------------------------------
Total Dipole Moment    :     -0.14400       0.59251       0.18166
                        -----------------------------------------
Magnitude (a.u.)       :      0.63624
Magnitude (Debye)      :      1.61720

Rotational constants in cm-1:     0.432850     0.118236     0.100117
Rotational constants in MHz : 12976.508690  3544.639631  3001.428107

                             ****ORCA TERMINATED NORMALLY****
TOTAL RUN TIME: 0 days 0 hours 18 minutes 55 seconds 763 msec
