                         Program Version 4.2.1 -  RELEASE  -
|  1> %pal
|  2>  nprocs 32
|  3> end
|  4> !RI-MP2 aug-cc-pVQZ aug-cc-pVQZ/C TightSCF
|  5> %maxcore 4500
|  6> *xyzfile 0 1  03_40R1.xyz
|  7>
|  8>
|  9>                          ****END OF INPUT****

CARTESIAN COORDINATES (ANGSTROEM)
---------------------------------
  Cl    -2.255519   -1.052391   -0.198672
  C     -1.251120    0.478745    0.020711
  C     -1.859217    1.533672   -0.890036
  C      0.182643    0.172496   -0.407945
  C     -1.363163    0.885663    1.481295
  H     -2.393811    1.140267    1.729555
  H     -0.736607    1.764161    1.659743
  H     -1.039233    0.089353    2.149467
  H     -1.804403    1.226982   -1.934985
  H     -1.308724    2.471355   -0.775125
  H     -2.904083    1.712736   -0.635586
  H      0.731474    1.119861   -0.378771
  H      0.164325   -0.143992   -1.455064
  C      0.931960   -0.863394    0.419448
  H      1.027631   -0.529092    1.454825
  C      2.334402   -1.144084   -0.135554
  H      0.371326   -1.800202    0.431806
  H      2.257775   -1.503848   -1.166471
  H      2.800649   -1.948518    0.439288
  C      3.211129    0.023077   -0.104855
  C      3.917612    0.988938   -0.067060
  H      4.552022    1.840910   -0.037292

 Total Charge           Charge          ....    0
 Multiplicity           Mult            ....    1
 Number of Electrons    NEL             ....   78
 Basis Dimension        Dim             .... 1322

ORBITAL ENERGIES
----------------

  NO   OCC          E(Eh)            E(eV)
   0   2.0000    -104.807224     -2851.9495
   1   2.0000     -11.304762      -307.6182
   2   2.0000     -11.253689      -306.2285
   3   2.0000     -11.233457      -305.6779
   4   2.0000     -11.232192      -305.6435
   5   2.0000     -11.231533      -305.6256
   6   2.0000     -11.227243      -305.5088
   7   2.0000     -11.226735      -305.4950
   8   2.0000     -11.219632      -305.3017
   9   2.0000     -10.533445      -286.6296
  10   2.0000      -8.000346      -217.7005
  11   2.0000      -7.998906      -217.6613
  12   2.0000      -7.998899      -217.6611
  13   2.0000      -1.159446       -31.5501
  14   2.0000      -1.094437       -29.7811
  15   2.0000      -1.030348       -28.0372
  16   2.0000      -1.009274       -27.4637
  17   2.0000      -0.953611       -25.9491
  18   2.0000      -0.947711       -25.7885
  19   2.0000      -0.844731       -22.9863
  20   2.0000      -0.749474       -20.3942
  21   2.0000      -0.719908       -19.5897
  22   2.0000      -0.664365       -18.0783
  23   2.0000      -0.643317       -17.5055
  24   2.0000      -0.629035       -17.1169
  25   2.0000      -0.613674       -16.6989
  26   2.0000      -0.591133       -16.0855
  27   2.0000      -0.576099       -15.6765
  28   2.0000      -0.560211       -15.2441
  29   2.0000      -0.540683       -14.7127
  30   2.0000      -0.520633       -14.1672
  31   2.0000      -0.507089       -13.7986
  32   2.0000      -0.487605       -13.2684
  33   2.0000      -0.481374       -13.0988
  34   2.0000      -0.470174       -12.7941
  35   2.0000      -0.425531       -11.5793
  36   2.0000      -0.424112       -11.5407
  37   2.0000      -0.388998       -10.5852
  38   2.0000      -0.388109       -10.5610
  39   0.0000       0.022652         0.6164
  40   0.0000       0.028369         0.7719
  41   0.0000       0.029429         0.8008
  42   0.0000       0.031557         0.8587
  43   0.0000       0.044183         1.2023

MULLIKEN ATOMIC CHARGES
-----------------------
   0 Cl:   -0.625699
   1 C :    0.831433
   2 C :   -1.083484
   3 C :   -0.144186
   4 C :   -1.047524
   5 H :    0.342731
   6 H :    0.208073
   7 H :    0.250434
   8 H :    0.245245
   9 H :    0.223382
  10 H :    0.292152
  11 H :    0.312484
  12 H :    0.289337
  13 C :   -0.358367
  14 H :    0.203532
  15 C :   -0.202566
  16 H :    0.333869
  17 H :    0.245762
  18 H :    0.313726
  19 C :    0.118044
  20 C :   -1.074250
  21 H :    0.325872
Sum of atomic charges:   -0.0000000

LOEWDIN ATOMIC CHARGES
----------------------
   0 Cl:    1.224423
   1 C :   -0.864917
   2 C :    0.802556
   3 C :    0.384990
   4 C :    0.810020
   5 H :   -0.293732
   6 H :   -0.265725
   7 H :   -0.311726
   8 H :   -0.294947
   9 H :   -0.273341
  10 H :   -0.299382
  11 H :   -0.288755
  12 H :   -0.290338
  13 C :    0.473929
  14 H :   -0.282738
  15 C :    0.443416
  16 H :   -0.300142
  17 H :   -0.294072
  18 H :   -0.293380
  19 C :    0.094039
  20 C :    0.582410
  21 H :   -0.462589

  Mayer bond orders larger than 0.100000
B(  0-Cl,  1-C ) :   0.4148 B(  0-Cl,  2-C ) :   0.1215 B(  0-Cl,  3-C ) :  -0.1929
B(  1-C ,  2-C ) :   0.6133 B(  1-C ,  3-C ) :   0.7964 B(  1-C ,  4-C ) :   0.5608
B(  1-C , 10-H ) :  -0.1145 B(  2-C ,  4-C ) :   0.1063 B(  2-C ,  8-H ) :   1.0310
B(  2-C ,  9-H ) :   0.9880 B(  2-C , 10-H ) :   1.0134 B(  3-C , 11-H ) :   0.8224
B(  3-C , 12-H ) :   0.8958 B(  3-C , 13-C ) :   0.7750 B(  3-C , 15-C ) :  -0.1250
B(  4-C ,  5-H ) :   0.9677 B(  4-C ,  6-H ) :   0.9962 B(  4-C ,  7-H ) :   1.0117
B( 13-C , 14-H ) :   0.8789 B( 13-C , 15-C ) :   1.0564 B( 13-C , 16-H ) :   0.8210
B( 13-C , 19-C ) :  -0.1223 B( 15-C , 17-H ) :   0.9445 B( 15-C , 18-H ) :   0.9638
B( 15-C , 19-C ) :   0.6200 B( 15-C , 20-C ) :  -0.2549 B( 19-C , 20-C ) :   2.4815
B( 19-C , 21-H ) :  -0.2277 B( 20-C , 21-H ) :   1.2084

MP2 TOTAL ENERGY:     -771.766494306 Eh
FINAL SINGLE POINT ENERGY      -771.766494306351

DIPOLE MOMENT
-------------
                                X             Y             Z
Electronic contribution:     -4.65797      -6.43486      -1.64792
Nuclear contribution   :      5.00828       7.03416       1.78814
                        -----------------------------------------
Total Dipole Moment    :      0.35031       0.59930       0.14022
                        -----------------------------------------
Magnitude (a.u.)       :      0.70819
Magnitude (Debye)      :      1.80008

Rotational constants in cm-1:     0.080989     0.021959     0.019843
Rotational constants in MHz :  2427.991455   658.305996   594.876239

                             ****ORCA TERMINATED NORMALLY****
TOTAL RUN TIME: 0 days 0 hours 59 minutes 37 seconds 54 msec
