                         Program Version 4.2.1 -  RELEASE  -
|  1> %pal
|  2>  nprocs 32
|  3> end
|  4> !RI-MP2 aug-cc-pVQZ aug-cc-pVQZ/C TightSCF
|  5> %maxcore 4500
|  6> *xyzfile 0 1  03_22P2.xyz
|  7>
|  8>
|  9>                          ****END OF INPUT****

CARTESIAN COORDINATES (ANGSTROEM)
---------------------------------
  C     -0.447521    0.429391    0.000019
  C      0.497666    0.545560   -1.192127
  C      0.497624    0.545408    1.192211
  C     -1.607712    1.400539    0.000060
  C      1.772140   -0.205188   -0.775713
  C      1.772088   -0.205326    0.775755
  H      0.709381    1.611130   -1.330540
  H      0.051051    0.176180   -2.115021
  H      0.050971    0.175941    2.115052
  H      0.709363    1.610959    1.330743
  H     -2.231351    1.265368   -0.884358
  H     -1.222879    2.423825    0.000136
  H     -2.231387    1.265251    0.884434
  H      2.663647    0.268240   -1.188647
  H      1.748153   -1.227469   -1.153465
  H      2.663594    0.267974    1.188838
  H      1.748011   -1.227675    1.153319
  Cl    -1.150839   -1.274825   -0.000102

 Total Charge           Charge          ....    0
 Multiplicity           Mult            ....    1
 Number of Electrons    NEL             ....   64
 Basis Dimension        Dim             .... 1070

ORBITAL ENERGIES
----------------

  NO   OCC          E(Eh)            E(eV)
   0   2.0000    -104.805049     -2851.8904
   1   2.0000     -11.296898      -307.4042
   2   2.0000     -11.227567      -305.5176
   3   2.0000     -11.227550      -305.5172
   4   2.0000     -11.225981      -305.4745
   5   2.0000     -11.220132      -305.3153
   6   2.0000     -11.219574      -305.3001
   7   2.0000     -10.531238      -286.5696
   8   2.0000      -7.998150      -217.6407
   9   2.0000      -7.996705      -217.6014
  10   2.0000      -7.996692      -217.6011
  11   2.0000      -1.170667       -31.8555
  12   2.0000      -1.064964       -28.9791
  13   2.0000      -1.000643       -27.2289
  14   2.0000      -0.977285       -26.5933
  15   2.0000      -0.905559       -24.6415
  16   2.0000      -0.788129       -21.4461
  17   2.0000      -0.743167       -20.2226
  18   2.0000      -0.659525       -17.9466
  19   2.0000      -0.646148       -17.5826
  20   2.0000      -0.603646       -16.4260
  21   2.0000      -0.598714       -16.2918
  22   2.0000      -0.571675       -15.5561
  23   2.0000      -0.540804       -14.7160
  24   2.0000      -0.497168       -13.5286
  25   2.0000      -0.494039       -13.4435
  26   2.0000      -0.479071       -13.0362
  27   2.0000      -0.477344       -12.9892
  28   2.0000      -0.466119       -12.6838
  29   2.0000      -0.462898       -12.5961
  30   2.0000      -0.423351       -11.5200
  31   2.0000      -0.417769       -11.3681
  32   0.0000       0.024707         0.6723
  33   0.0000       0.030145         0.8203
  34   0.0000       0.032753         0.8912
  35   0.0000       0.037204         1.0124
  36   0.0000       0.046746         1.2720

MULLIKEN ATOMIC CHARGES
-----------------------
   0 C :    1.066718
   1 C :   -0.693972
   2 C :   -0.693910
   3 C :   -1.011069
   4 C :   -0.490681
   5 C :   -0.490733
   6 H :    0.243014
   7 H :    0.380393
   8 H :    0.380385
   9 H :    0.243010
  10 H :    0.254189
  11 H :    0.232286
  12 H :    0.254209
  13 H :    0.290663
  14 H :    0.190527
  15 H :    0.290727
  16 H :    0.190530
  17 Cl:   -0.636285
Sum of atomic charges:   -0.0000000

LOEWDIN ATOMIC CHARGES
----------------------
   0 C :   -0.880598
   1 C :    0.414604
   2 C :    0.414600
   3 C :    0.818805
   4 C :    0.523876
   5 C :    0.523869
   6 H :   -0.269193
   7 H :   -0.277735
   8 H :   -0.277731
   9 H :   -0.269191
  10 H :   -0.295413
  11 H :   -0.282510
  12 H :   -0.295414
  13 H :   -0.260897
  14 H :   -0.278692
  15 H :   -0.260895
  16 H :   -0.278698
  17 Cl:    1.231213

  Mayer bond orders larger than 0.100000
B(  0-C ,  1-C ) :   0.7297 B(  0-C ,  2-C ) :   0.7298 B(  0-C ,  3-C ) :   0.4937
B(  0-C ,  4-C ) :  -0.1125 B(  0-C ,  5-C ) :  -0.1125 B(  0-C , 10-H ) :  -0.1340
B(  0-C , 12-H ) :  -0.1339 B(  0-C , 17-Cl) :   0.1869 B(  1-C ,  4-C ) :   1.0335
B(  1-C ,  6-H ) :   0.9286 B(  1-C ,  7-H ) :   0.8584 B(  2-C ,  5-C ) :   1.0335
B(  2-C ,  8-H ) :   0.8584 B(  2-C ,  9-H ) :   0.9286 B(  3-C , 10-H ) :   1.0576
B(  3-C , 11-H ) :   0.9686 B(  3-C , 12-H ) :   1.0576 B(  4-C ,  5-C ) :   0.9545
B(  4-C , 13-H ) :   0.8951 B(  4-C , 14-H ) :   0.9954 B(  5-C , 15-H ) :   0.8951
B(  5-C , 16-H ) :   0.9954

MP2 TOTAL ENERGY:     -694.559945431 Eh
FINAL SINGLE POINT ENERGY      -694.559945430521

DIPOLE MOMENT
-------------
                                X             Y             Z
Electronic contribution:     -5.93938      -7.67724      -0.00058
Nuclear contribution   :      6.38951       8.54659       0.00065
                        -----------------------------------------
Total Dipole Moment    :      0.45013       0.86935       0.00006
                        -----------------------------------------
Magnitude (a.u.)       :      0.97897
Magnitude (Debye)      :      2.48835

Rotational constants in cm-1:     0.096026     0.063828     0.055622
Rotational constants in MHz :  2878.789886  1913.518633  1667.492886

                             ****ORCA TERMINATED NORMALLY****
TOTAL RUN TIME: 0 days 0 hours 34 minutes 11 seconds 571 msec
