                         Program Version 4.2.1 -  RELEASE  -
|  1> %pal
|  2>  nprocs 32
|  3> end
|  4> !RI-MP2 aug-cc-pVQZ aug-cc-pVQZ/C TightSCF
|  5> %maxcore 4500
|  6> *xyzfile 0 1  10_43P.xyz
|  7>
|  8>
|  9>                          ****END OF INPUT****

CARTESIAN COORDINATES (ANGSTROEM)
---------------------------------
  C     -0.288069   -2.561065    0.162216
  H     -0.459806   -3.176339   -0.744858
  C      0.985207   -1.791261   -0.001450
  C     -0.284057    0.310431   -0.229357
  H     -0.476904    0.879251    0.685973
  H     -0.194689    1.036861   -1.038633
  C     -1.481342   -0.600092   -0.499148
  H     -1.382892   -0.991827   -1.531078
  N     -1.425849   -1.710278    0.443635
  C      2.298408    0.263500   -0.140547
  C      2.270083   -2.569684    0.040912
  C      3.400277   -0.432402   -0.457251
  C      3.350625   -1.899124   -0.801327
  C      1.002524   -0.461104   -0.122892
  C      4.706944   -2.577430   -0.647279
  H      4.656392   -3.630653   -0.933197
  H      5.462182   -2.096211   -1.273302
  H      5.050090   -2.526704    0.389781
  C     -2.662995   -2.461191    0.519032
  H     -2.971917   -2.832473   -0.475778
  H     -2.495976   -3.335571    1.152015
  C     -2.791014    0.161608   -0.427355
  C     -3.861459   -0.291183    0.342909
  C     -3.748912   -1.582570    1.108621
  H     -3.503963   -1.374077    2.154545
  H     -4.708929   -2.105052    1.096468
  H     -0.170016   -3.267896    0.991731
  C     -5.040952    0.450613    0.378642
  H     -5.869551    0.089746    0.979030
  C     -2.939987    1.335339   -1.166786
  H     -2.124273    1.683501   -1.789332
  C     -5.172944    1.624363   -0.341883
  H     -6.097923    2.186935   -0.302533
  C     -4.114926    2.065650   -1.126690
  H     -4.206838    2.974964   -1.708327
  Si     2.468291    2.068890    0.382352
  C      1.877828    2.253319    2.156763
  H      2.461208    1.616223    2.825837
  H      1.985469    3.286453    2.498145
  H      0.827890    1.975401    2.269256
  C      4.278177    2.563843    0.290473
  H      4.670322    2.493624   -0.726878
  H      4.389666    3.602244    0.613793
  H      4.905723    1.948663    0.938907
  C      1.492639    3.240199   -0.722427
  H      1.679612    3.038572   -1.780116
  H      0.417153    3.175945   -0.550127
  H      1.794563    4.272521   -0.524597
  H      2.104822   -3.594455   -0.306084
  H      2.611642   -2.645973    1.084500
  H      3.042251   -1.975382   -1.855273
  H      4.373218    0.048638   -0.489292

 Total Charge           Charge          ....    0
 Multiplicity           Mult            ....    1
 Number of Electrons    NEL             ....  176
 Basis Dimension        Dim             .... 3178

ORBITAL ENERGIES
----------------

  NO   OCC          E(Eh)            E(eV)
   0   2.0000     -68.742937     -1870.5904
   1   2.0000     -15.542648      -422.9369
   2   2.0000     -11.257299      -306.3267
   3   2.0000     -11.250010      -306.1283
   4   2.0000     -11.246861      -306.0427
   5   2.0000     -11.232549      -305.6532
   6   2.0000     -11.231325      -305.6199
   7   2.0000     -11.226892      -305.4993
   8   2.0000     -11.226676      -305.4934
   9   2.0000     -11.225955      -305.4738
  10   2.0000     -11.224928      -305.4458
  11   2.0000     -11.224214      -305.4264
  12   2.0000     -11.223867      -305.4170
  13   2.0000     -11.221726      -305.3587
  14   2.0000     -11.220825      -305.3342
  15   2.0000     -11.220019      -305.3123
  16   2.0000     -11.218385      -305.2678
  17   2.0000     -11.217656      -305.2479
  18   2.0000     -11.213596      -305.1375
  19   2.0000     -11.203803      -304.8710
  20   2.0000     -11.190506      -304.5092
  21   2.0000     -11.190185      -304.5004
  22   2.0000     -11.187629      -304.4309
  23   2.0000      -6.091642      -165.7620
  24   2.0000      -4.198236      -114.2398
  25   2.0000      -4.198094      -114.2359
  26   2.0000      -4.198000      -114.2334
  27   2.0000      -1.252020       -34.0692
  28   2.0000      -1.155515       -31.4432
  29   2.0000      -1.139543       -31.0085
  30   2.0000      -1.077264       -29.3138
  31   2.0000      -1.056433       -28.7470
  32   2.0000      -1.040418       -28.3112
  33   2.0000      -1.016447       -27.6589
  34   2.0000      -0.992992       -27.0207
  35   2.0000      -0.970626       -26.4121
  36   2.0000      -0.957274       -26.0488
  37   2.0000      -0.928216       -25.2580
  38   2.0000      -0.917992       -24.9798
  39   2.0000      -0.916694       -24.9445
  40   2.0000      -0.877590       -23.8804
  41   2.0000      -0.858709       -23.3667
  42   2.0000      -0.840024       -22.8582
  43   2.0000      -0.814220       -22.1561
  44   2.0000      -0.808477       -21.9998
  45   2.0000      -0.761977       -20.7345
  46   2.0000      -0.742601       -20.2072
  47   2.0000      -0.692817       -18.8525
  48   2.0000      -0.674167       -18.3450
  49   2.0000      -0.665671       -18.1138
  50   2.0000      -0.648724       -17.6527
  51   2.0000      -0.643226       -17.5031
  52   2.0000      -0.635204       -17.2848
  53   2.0000      -0.623026       -16.9534
  54   2.0000      -0.615941       -16.7606
  55   2.0000      -0.599427       -16.3112
  56   2.0000      -0.591663       -16.1000
  57   2.0000      -0.586625       -15.9629
  58   2.0000      -0.578181       -15.7331
  59   2.0000      -0.576121       -15.6771
  60   2.0000      -0.563971       -15.3464
  61   2.0000      -0.557245       -15.1634
  62   2.0000      -0.556130       -15.1331
  63   2.0000      -0.549731       -14.9589
  64   2.0000      -0.542868       -14.7722
  65   2.0000      -0.538689       -14.6585
  66   2.0000      -0.535959       -14.5842
  67   2.0000      -0.532660       -14.4944
  68   2.0000      -0.527754       -14.3609
  69   2.0000      -0.525641       -14.3034
  70   2.0000      -0.521220       -14.1831
  71   2.0000      -0.519200       -14.1282
  72   2.0000      -0.511538       -13.9197
  73   2.0000      -0.497984       -13.5508
  74   2.0000      -0.492806       -13.4099
  75   2.0000      -0.486259       -13.2318
  76   2.0000      -0.477664       -12.9979
  77   2.0000      -0.472812       -12.8659
  78   2.0000      -0.455197       -12.3865
  79   2.0000      -0.435642       -11.8544
  80   2.0000      -0.429271       -11.6811
  81   2.0000      -0.422301       -11.4914
  82   2.0000      -0.406193       -11.0531
  83   2.0000      -0.387832       -10.5535
  84   2.0000      -0.359277        -9.7764
  85   2.0000      -0.326690        -8.8897
  86   2.0000      -0.319594        -8.6966
  87   2.0000      -0.292704        -7.9649
  88   0.0000       0.019936         0.5425
  89   0.0000       0.024126         0.6565
  90   0.0000       0.024592         0.6692
  91   0.0000       0.027775         0.7558
  92   0.0000       0.031519         0.8577

MULLIKEN ATOMIC CHARGES
-----------------------
   0 C :   -0.337539
   1 H :    0.194603
   2 C :   -0.455622
   3 C :   -0.461900
   4 H :    0.538077
   5 H :    0.155023
   6 C :    1.631264
   7 H :    0.177550
   8 N :   -0.113516
   9 C :   -1.848366
  10 C :   -0.734978
  11 C :   -0.590049
  12 C :    0.274004
  13 C :    1.998014
  14 C :   -1.120061
  15 H :    0.226048
  16 H :    0.236718
  17 H :    0.182926
  18 C :   -0.847179
  19 H :    0.243924
  20 H :    0.229555
  21 C :    0.506161
  22 C :    0.162544
  23 C :   -0.686067
  24 H :    0.192382
  25 H :    0.208559
  26 H :    0.099045
  27 C :   -0.685622
  28 H :    0.236777
  29 C :   -0.830994
  30 H :    0.125498
  31 C :   -0.419108
  32 H :    0.267829
  33 C :   -0.512378
  34 H :    0.202903
  35 Si:    1.698284
  36 C :   -1.320798
  37 H :    0.254251
  38 H :    0.311579
  39 H :    0.334351
  40 C :   -1.028774
  41 H :    0.265492
  42 H :    0.276444
  43 H :    0.270805
  44 C :   -1.320166
  45 H :    0.284422
  46 H :    0.315871
  47 H :    0.255476
  48 H :    0.219956
  49 H :    0.213876
  50 H :    0.276317
  51 H :    0.246592
Sum of atomic charges:    0.0000000

LOEWDIN ATOMIC CHARGES
----------------------
   0 C :    0.347363
   1 H :   -0.245021
   2 C :    0.016031
   3 C :    0.487337
   4 H :   -0.267387
   5 H :   -0.325573
   6 C :   -0.043202
   7 H :   -0.250069
   8 N :    0.537603
   9 C :    0.077880
  10 C :    0.502919
  11 C :    0.337355
  12 C :    0.093846
  13 C :   -0.033133
  14 C :    0.930016
  15 H :   -0.271010
  16 H :   -0.274780
  17 H :   -0.272609
  18 C :    0.352944
  19 H :   -0.239184
  20 H :   -0.274785
  21 C :   -0.022279
  22 C :   -0.037166
  23 C :    0.524411
  24 H :   -0.256019
  25 H :   -0.273867
  26 H :   -0.276028
  27 C :    0.357615
  28 H :   -0.312755
  29 C :    0.361197
  30 H :   -0.320357
  31 C :    0.349326
  32 H :   -0.320669
  33 C :    0.357507
  34 H :   -0.319365
  35 Si:    0.152302
  36 C :    1.003877
  37 H :   -0.330005
  38 H :   -0.331522
  39 H :   -0.346497
  40 C :    0.981955
  41 H :   -0.329740
  42 H :   -0.332932
  43 H :   -0.332744
  44 C :    1.000251
  45 H :   -0.325400
  46 H :   -0.354918
  47 H :   -0.332725
  48 H :   -0.263195
  49 H :   -0.248232
  50 H :   -0.259661
  51 H :   -0.348907

  Mayer bond orders larger than 0.100000
B(  0-C ,  1-H ) :   1.1340 B(  0-C ,  2-C ) :   0.3949 B(  0-C ,  8-N ) :   0.9102
B(  0-C , 10-C ) :  -0.1141 B(  0-C , 13-C ) :  -0.3493 B(  0-C , 26-H ) :   1.2707
B(  1-H ,  8-N ) :  -0.1668 B(  2-C ,  3-C ) :  -0.1146 B(  2-C ,  6-C ) :   0.1386
B(  2-C ,  8-N ) :   0.1279 B(  2-C ,  9-C ) :  -0.2357 B(  2-C , 10-C ) :   0.7363
B(  2-C , 11-C ) :   0.1910 B(  2-C , 12-C ) :  -0.2014 B(  2-C , 13-C ) :   0.9746
B(  2-C , 26-H ) :  -0.2920 B(  2-C , 48-H ) :  -0.1456 B(  3-C ,  4-H ) :   0.7543
B(  3-C ,  5-H ) :   0.8682 B(  3-C ,  6-C ) :   0.7702 B(  3-C ,  7-H ) :   0.1086
B(  3-C , 11-C ) :  -0.1303 B(  3-C , 13-C ) :  -0.2261 B(  3-C , 21-C ) :   0.2101
B(  3-C , 29-C ) :   0.1998 B(  3-C , 35-Si) :   0.2578 B(  4-H ,  6-C ) :   0.1666
B(  4-H , 21-C ) :  -0.3118 B(  4-H , 29-C ) :  -0.1188 B(  5-H ,  9-C ) :   0.1337
B(  5-H , 13-C ) :   0.2057 B(  6-C ,  7-H ) :   0.9816 B(  6-C ,  8-N ) :   0.2422
B(  6-C , 13-C ) :  -0.2184 B(  6-C , 18-C ) :  -0.1271 B(  6-C , 21-C ) :  -0.5019
B(  6-C , 22-C ) :  -0.4762 B(  6-C , 23-C ) :   0.1332 B(  6-C , 29-C ) :  -0.8685
B(  7-H ,  8-N ) :  -0.1517 B(  8-N , 18-C ) :   0.6741 B(  8-N , 19-H ) :  -0.1626
B(  9-C , 11-C ) :   1.8196 B(  9-C , 12-C ) :  -0.4269 B(  9-C , 13-C ) :  -0.4690
B(  9-C , 35-Si) :   0.9233 B(  9-C , 36-C ) :   0.2404 B(  9-C , 40-C ) :   0.3120
B(  9-C , 44-C ) :   0.1040 B(  9-C , 51-H ) :  -0.1095 B( 10-C , 12-C ) :   0.7505
B( 10-C , 13-C ) :  -0.3553 B( 10-C , 48-H ) :   1.0736 B( 10-C , 49-H ) :   1.0063
B( 11-C , 12-C ) :   0.5173 B( 11-C , 13-C ) :  -0.8047 B( 11-C , 14-C ) :  -0.2551
B( 11-C , 40-C ) :  -0.2025 B( 11-C , 51-H ) :   1.0626 B( 12-C , 14-C ) :   0.7363
B( 12-C , 15-H ) :  -0.1031 B( 12-C , 16-H ) :  -0.1074 B( 12-C , 17-H ) :  -0.1433
B( 12-C , 50-H ) :   0.8942 B( 13-C , 35-Si) :  -0.2622 B( 13-C , 40-C ) :  -0.1285
B( 14-C , 15-H ) :   1.0969 B( 14-C , 16-H ) :   1.0877 B( 14-C , 17-H ) :   1.0814
B( 18-C , 19-H ) :   1.0167 B( 18-C , 20-H ) :   1.0239 B( 18-C , 21-C ) :   0.1001
B( 18-C , 23-C ) :   1.1504 B( 18-C , 25-H ) :  -0.1053 B( 21-C , 22-C ) :   1.0267
B( 21-C , 23-C ) :  -0.2107 B( 21-C , 27-C ) :  -0.6016 B( 21-C , 29-C ) :   1.0897
B( 21-C , 30-H ) :  -0.1100 B( 21-C , 33-C ) :  -0.3507 B( 22-C , 23-C ) :   0.3737
B( 22-C , 25-H ) :  -0.2142 B( 22-C , 27-C ) :   1.0849 B( 22-C , 28-H ) :  -0.1173
B( 22-C , 31-C ) :  -0.2727 B( 23-C , 24-H ) :   1.0759 B( 23-C , 25-H ) :   1.1512
B( 27-C , 28-H ) :   1.0570 B( 27-C , 29-C ) :   0.1540 B( 27-C , 31-C ) :   1.2917
B( 27-C , 32-H ) :  -0.1952 B( 27-C , 33-C ) :   0.1776 B( 29-C , 30-H ) :   1.2594
B( 29-C , 33-C ) :   1.2334 B( 29-C , 34-H ) :  -0.1811 B( 31-C , 32-H ) :   1.1452
B( 31-C , 33-C ) :   1.2063 B( 32-H , 33-C ) :  -0.1427 B( 33-C , 34-H ) :   1.2072
B( 35-Si, 36-C ) :   0.2823 B( 35-Si, 40-C ) :   0.8836 B( 35-Si, 42-H ) :  -0.1159
B( 35-Si, 44-C ) :   0.5818 B( 36-C , 37-H ) :   0.9994 B( 36-C , 38-H ) :   0.9893
B( 36-C , 39-H ) :   0.9883 B( 40-C , 41-H ) :   0.9690 B( 40-C , 42-H ) :   1.0226
B( 40-C , 43-H ) :   0.9667 B( 44-C , 45-H ) :   0.9466 B( 44-C , 46-H ) :   0.9228
B( 44-C , 47-H ) :   1.0664

MP2 TOTAL ENERGY:    -1159.934173294 Eh
FINAL SINGLE POINT ENERGY     -1159.934173293829

DIPOLE MOMENT
-------------
                                X             Y             Z
Electronic contribution:    -15.86611      -1.07599      -1.81555
Nuclear contribution   :     15.94730       0.63471       1.66515
                        -----------------------------------------
Total Dipole Moment    :      0.08119      -0.44129      -0.15040
                        -----------------------------------------
Magnitude (a.u.)       :      0.47323
Magnitude (Debye)      :      1.20285

Rotational constants in cm-1:     0.012389     0.005249     0.004038
Rotational constants in MHz :   371.423897   157.359813   121.063175

                             ****ORCA TERMINATED NORMALLY****
TOTAL RUN TIME: 0 days 16 hours 18 minutes 27 seconds 733 msec
