                         Program Version 4.2.1 -  RELEASE  -
|  1> %pal
|  2>  nprocs 32
|  3> end
|  4> !RI-MP2 aug-cc-pVQZ aug-cc-pVQZ/C TightSCF
|  5> %maxcore 4500
|  6> *xyzfile 0 1  10_18R1.xyz
|  7>
|  8>
|  9>                          ****END OF INPUT****

CARTESIAN COORDINATES (ANGSTROEM)
---------------------------------
  N     -3.050770    0.811848   -0.079788
  N     -3.950974   -0.037483   -0.094663
  N     -4.884842   -0.653374   -0.114255
  C     -1.716727    0.420364   -0.018226
  C     -0.769933    1.439739    0.071104
  C     -1.239466   -0.887092   -0.045967
  C      0.579500    1.157434    0.125300
  C      0.111055   -1.163870    0.023379
  C      1.053248   -0.148679    0.104886
  F     -1.173252    2.706247    0.113049
  F      1.422969    2.180579    0.237759
  F      0.488692   -2.436566   -0.028829
  F     -2.109407   -1.899517   -0.151542
  C      2.507458   -0.477654    0.210445
  O      2.951016   -1.319220    0.939768
  O      3.234565    0.275728   -0.611171
  C      4.652971    0.069563   -0.553905
  H      4.894698   -0.958043   -0.822656
  H      5.075430    0.766782   -1.271266
  H      5.021683    0.276736    0.450068

 Total Charge           Charge          ....    0
 Multiplicity           Mult            ....    1
 Number of Electrons    NEL             ....  124
 Basis Dimension        Dim             .... 1498

ORBITAL ENERGIES
----------------

  NO   OCC          E(Eh)            E(eV)
   0   2.0000     -26.351512      -717.0611
   1   2.0000     -26.344586      -716.8726
   2   2.0000     -26.344205      -716.8623
   3   2.0000     -26.339109      -716.7236
   4   2.0000     -20.620245      -561.1054
   5   2.0000     -20.562997      -559.5476
   6   2.0000     -15.819276      -430.4644
   7   2.0000     -15.710974      -427.5173
   8   2.0000     -15.650401      -425.8691
   9   2.0000     -11.408209      -310.4331
  10   2.0000     -11.379742      -309.6585
  11   2.0000     -11.378519      -309.6252
  12   2.0000     -11.367631      -309.3290
  13   2.0000     -11.364098      -309.2328
  14   2.0000     -11.351453      -308.8888
  15   2.0000     -11.297110      -307.4100
  16   2.0000     -11.294925      -307.3505
  17   2.0000      -1.679336       -45.6971
  18   2.0000      -1.674032       -45.5527
  19   2.0000      -1.663047       -45.2538
  20   2.0000      -1.657098       -45.0919
  21   2.0000      -1.551694       -42.2237
  22   2.0000      -1.487179       -40.4682
  23   2.0000      -1.384501       -37.6742
  24   2.0000      -1.347819       -36.6760
  25   2.0000      -1.221381       -33.2355
  26   2.0000      -1.110086       -30.2070
  27   2.0000      -1.070881       -29.1402
  28   2.0000      -1.010383       -27.4939
  29   2.0000      -0.959854       -26.1190
  30   2.0000      -0.913260       -24.8511
  31   2.0000      -0.858619       -23.3642
  32   2.0000      -0.836872       -22.7724
  33   2.0000      -0.830872       -22.6092
  34   2.0000      -0.792101       -21.5542
  35   2.0000      -0.780604       -21.2413
  36   2.0000      -0.762665       -20.7532
  37   2.0000      -0.759638       -20.6708
  38   2.0000      -0.753905       -20.5148
  39   2.0000      -0.744043       -20.2464
  40   2.0000      -0.742636       -20.2082
  41   2.0000      -0.740128       -20.1399
  42   2.0000      -0.723716       -19.6933
  43   2.0000      -0.720322       -19.6010
  44   2.0000      -0.714948       -19.4547
  45   2.0000      -0.702262       -19.1095
  46   2.0000      -0.695228       -18.9181
  47   2.0000      -0.693781       -18.8787
  48   2.0000      -0.684763       -18.6333
  49   2.0000      -0.653004       -17.7691
  50   2.0000      -0.638545       -17.3757
  51   2.0000      -0.611806       -16.6481
  52   2.0000      -0.598865       -16.2959
  53   2.0000      -0.572198       -15.5703
  54   2.0000      -0.556178       -15.1344
  55   2.0000      -0.545799       -14.8520
  56   2.0000      -0.492185       -13.3930
  57   2.0000      -0.485632       -13.2147
  58   2.0000      -0.479068       -13.0361
  59   2.0000      -0.470859       -12.8127
  60   2.0000      -0.375996       -10.2314
  61   2.0000      -0.353789        -9.6271
  62   0.0000       0.024087         0.6554
  63   0.0000       0.036286         0.9874
  64   0.0000       0.040504         1.1022
  65   0.0000       0.041668         1.1338
  66   0.0000       0.050155         1.3648

MULLIKEN ATOMIC CHARGES
-----------------------
   0 N :   -0.316295
   1 N :    0.281646
   2 N :   -0.255443
   3 C :   -0.165816
   4 C :    1.069863
   5 C :    0.929502
   6 C :    0.936609
   7 C :    1.047045
   8 C :   -0.791341
   9 F :   -0.769762
  10 F :   -0.751292
  11 F :   -0.766437
  12 F :   -0.787409
  13 C :    1.589408
  14 O :   -0.846734
  15 O :   -0.706819
  16 C :   -0.782860
  17 H :    0.320836
  18 H :    0.426231
  19 H :    0.339068
Sum of atomic charges:    0.0000000

LOEWDIN ATOMIC CHARGES
----------------------
   0 N :    0.320076
   1 N :   -0.245396
   2 N :    0.414371
   3 C :   -0.497497
   4 C :   -0.787923
   5 C :   -0.763604
   6 C :   -0.762696
   7 C :   -0.769882
   8 C :   -0.254443
   9 F :    0.811394
  10 F :    0.825696
  11 F :    0.829265
  12 F :    0.798378
  13 C :   -1.139536
  14 O :    0.729062
  15 O :    0.840802
  16 C :    0.594184
  17 H :   -0.312165
  18 H :   -0.318701
  19 H :   -0.311388

  Mayer bond orders larger than 0.100000
B(  0-N ,  1-N ) :   1.2728 B(  0-N ,  2-N ) :   0.2137 B(  0-N ,  3-C ) :   0.5670
B(  0-N ,  9-F ) :  -0.1013 B(  1-N ,  2-N ) :   2.2235 B(  1-N ,  3-C ) :  -0.3058
B(  1-N ,  5-C ) :   0.1343 B(  3-C ,  4-C ) :   1.2589 B(  3-C ,  5-C ) :   1.4126
B(  3-C ,  6-C ) :  -0.1473 B(  3-C ,  9-F ) :   0.3617 B(  3-C , 12-F ) :   0.3710
B(  4-C ,  6-C ) :   1.7101 B(  4-C ,  7-C ) :   0.1600 B(  4-C ,  8-C ) :  -0.2015
B(  4-C ,  9-F ) :  -0.2717 B(  5-C ,  6-C ) :   0.1198 B(  5-C ,  7-C ) :   1.6232
B(  5-C ,  8-C ) :  -0.2602 B(  5-C , 12-F ) :  -0.2015 B(  6-C ,  8-C ) :   1.1993
B(  6-C ,  9-F ) :   0.1459 B(  6-C , 13-C ) :  -0.3083 B(  7-C ,  8-C ) :   1.0114
B(  7-C , 11-F ) :  -0.1619 B(  7-C , 13-C ) :  -0.3411 B(  8-C , 10-F ) :   0.2905
B(  8-C , 11-F ) :   0.3253 B(  8-C , 13-C ) :   1.2220 B(  8-C , 14-O ) :   0.2520
B( 13-C , 14-O ) :   1.1714 B( 13-C , 15-O ) :   0.8527 B( 14-O , 15-O ) :   0.1098
B( 15-O , 16-C ) :   0.8990 B( 16-C , 17-H ) :   0.9039 B( 16-C , 18-H ) :   0.8320
B( 16-C , 19-H ) :   0.8943

MP2 TOTAL ENERGY:    -1019.401096794 Eh
FINAL SINGLE POINT ENERGY     -1019.401096793748

DIPOLE MOMENT
-------------
                                X             Y             Z
Electronic contribution:    -15.19952       0.67201       1.17924
Nuclear contribution   :     15.30604      -0.44326      -1.69077
                        -----------------------------------------
Total Dipole Moment    :      0.10652       0.22876      -0.51153
                        -----------------------------------------
Magnitude (a.u.)       :      0.57039
Magnitude (Debye)      :      1.44981

Rotational constants in cm-1:     0.030214     0.010146     0.007802
Rotational constants in MHz :   905.786700   304.157945   233.885522

                             ****ORCA TERMINATED NORMALLY****
TOTAL RUN TIME: 0 days 1 hours 29 minutes 30 seconds 84 msec
