                         Program Version 4.2.1 -  RELEASE  -
|  1> %pal
|  2>  nprocs 32
|  3> end
|  4> !RI-MP2 aug-cc-pVQZ aug-cc-pVQZ/C TightSCF
|  5> %maxcore 4500
|  6> *xyzfile 0 2  03_23R2.xyz
|  7>
|  8>
|  9>                          ****END OF INPUT****

CARTESIAN COORDINATES (ANGSTROEM)
---------------------------------
  C      2.125504   -0.926990   -0.000012
  C      1.087662    0.077039    0.000001
  O     -0.145799   -0.466046    0.000051
  C     -1.244591    0.459477    0.000044
  C     -2.518766   -0.348513   -0.000046
  O      1.287232    1.273102   -0.000030
  H      3.153397   -0.596400   -0.000026
  H      1.877445   -1.978446   -0.000016
  H     -1.163589    1.099336   -0.880848
  H     -1.163665    1.099252    0.881006
  H     -2.576288   -0.983584   -0.885335
  H     -3.381216    0.320938   -0.000082
  H     -2.576394   -0.983626    0.885207

 Total Charge           Charge          ....    0
 Multiplicity           Mult            ....    2
 Number of Electrons    NEL             ....   47
 Basis Dimension        Dim             ....  802

ORBITAL ENERGIES
----------------
                 SPIN UP ORBITALS
  NO   OCC          E(Eh)            E(eV)
   0   1.0000     -20.593626      -560.3810
   1   1.0000     -20.552605      -559.2648
   2   1.0000     -11.370440      -309.4054
   3   1.0000     -11.285883      -307.1045
   4   1.0000     -11.269525      -306.6594
   5   1.0000     -11.223149      -305.3974
   6   1.0000      -1.460573       -39.7442
   7   1.0000      -1.366870       -37.1944
   8   1.0000      -1.064699       -28.9719
   9   1.0000      -1.010572       -27.4991
  10   1.0000      -0.863715       -23.5029
  11   1.0000      -0.781607       -21.2686
  12   1.0000      -0.705704       -19.2032
  13   1.0000      -0.684853       -18.6358
  14   1.0000      -0.676214       -18.4007
  15   1.0000      -0.608619       -16.5614
  16   1.0000      -0.602177       -16.3861
  17   1.0000      -0.573691       -15.6109
  18   1.0000      -0.545896       -14.8546
  19   1.0000      -0.528031       -14.3685
  20   1.0000      -0.512118       -13.9354
  21   1.0000      -0.473231       -12.8773
  22   1.0000      -0.466268       -12.6878
  23   1.0000      -0.412136       -11.2148
  24   0.0000       0.025267         0.6876
  25   0.0000       0.029624         0.8061
  26   0.0000       0.036782         1.0009
  27   0.0000       0.037931         1.0321
  28   0.0000       0.047844         1.3019

                 SPIN DOWN ORBITALS
  NO   OCC          E(Eh)            E(eV)
   0   1.0000     -20.593666      -560.3821
   1   1.0000     -20.540331      -558.9308
   2   1.0000     -11.376671      -309.5749
   3   1.0000     -11.285950      -307.1063
   4   1.0000     -11.248062      -306.0753
   5   1.0000     -11.223140      -305.3972
   6   1.0000      -1.454684       -39.5840
   7   1.0000      -1.346698       -36.6455
   8   1.0000      -1.048872       -28.5413
   9   1.0000      -0.961555       -26.1652
  10   1.0000      -0.853767       -23.2322
  11   1.0000      -0.775920       -21.1139
  12   1.0000      -0.694477       -18.8977
  13   1.0000      -0.680348       -18.5132
  14   1.0000      -0.666788       -18.1442
  15   1.0000      -0.597543       -16.2600
  16   1.0000      -0.579613       -15.7721
  17   1.0000      -0.569914       -15.5082
  18   1.0000      -0.544264       -14.8102
  19   1.0000      -0.511239       -13.9115
  20   1.0000      -0.502373       -13.6703
  21   1.0000      -0.452035       -12.3005
  22   1.0000      -0.436663       -11.8822
  23   0.0000       0.025589         0.6963
  24   0.0000       0.029856         0.8124
  25   0.0000       0.034519         0.9393
  26   0.0000       0.036873         1.0034
  27   0.0000       0.045934         1.2499

MULLIKEN ATOMIC CHARGES AND SPIN POPULATIONS
--------------------------------------------
   0 C :   -0.736204    1.099259
   1 C :    0.829095   -0.257420
   2 O :   -0.704300    0.003954
   3 C :   -0.038702   -0.000950
   4 C :   -0.824470    0.000126
   5 O :   -0.689282    0.280768
   6 H :    0.366621   -0.071926
   7 H :    0.484975   -0.052707
   8 H :    0.270679   -0.000510
   9 H :    0.270698   -0.000510
  10 H :    0.253774    0.000044
  11 H :    0.263344   -0.000173
  12 H :    0.253771    0.000045
Sum of atomic charges         :    0.0000000

LOEWDIN ATOMIC CHARGES AND SPIN POPULATIONS
-------------------------------------------
   0 C :    0.778664    0.415480
   1 C :   -1.131372    0.127086
   2 O :    0.827815   -0.008125
   3 C :    0.134995   -0.003384
   4 C :    0.906475   -0.000296
   5 O :    0.692519    0.181680
   6 H :   -0.365327    0.142461
   7 H :   -0.357518    0.146957
   8 H :   -0.307475   -0.000879
   9 H :   -0.307459   -0.000879
  10 H :   -0.290796   -0.000048
  11 H :   -0.289726   -0.000006
  12 H :   -0.290794   -0.000048

  Mayer bond orders larger than 0.100000
B(  0-C ,  1-C ) :   1.0698 B(  0-C ,  5-O ) :   0.1430 B(  0-C ,  6-H ) :   0.9281
B(  0-C ,  7-H ) :   0.7618 B(  1-C ,  2-O ) :   0.9853 B(  1-C ,  5-O ) :   1.3733
B(  2-O ,  3-C ) :   0.7353 B(  3-C ,  4-C ) :   0.9768 B(  3-C ,  5-O ) :   0.1041
B(  3-C ,  8-H ) :   0.8718 B(  3-C ,  9-H ) :   0.8718 B(  4-C , 10-H ) :   0.9218
B(  4-C , 11-H ) :   0.9900 B(  4-C , 12-H ) :   0.9218

MP2 TOTAL ENERGY:     -306.575992462 Eh
FINAL SINGLE POINT ENERGY      -306.575992461846

DIPOLE MOMENT
-------------
                                X             Y             Z
Electronic contribution:      5.55303       1.28462       0.00010
Nuclear contribution   :     -5.89049      -2.03684      -0.00009
                        -----------------------------------------
Total Dipole Moment    :     -0.33746      -0.75222       0.00000
                        -----------------------------------------
Magnitude (a.u.)       :      0.82445
Magnitude (Debye)      :      2.09557

Rotational constants in cm-1:     0.303210     0.071983     0.059463
Rotational constants in MHz :  9090.003413  2157.999747  1782.660824

                             ****ORCA TERMINATED NORMALLY****
TOTAL RUN TIME: 0 days 0 hours 22 minutes 0 seconds 27 msec
