                         Program Version 4.2.1 -  RELEASE  -
|  1> %pal
|  2>  nprocs 32
|  3> end
|  4> !RI-MP2 aug-cc-pVQZ aug-cc-pVQZ/C TightSCF
|  5> %maxcore 4500
|  6> *xyzfile 1 1  04_62R1.xyz
|  7>
|  8>
|  9>                          ****END OF INPUT****

CARTESIAN COORDINATES (ANGSTROEM)
---------------------------------
  N     -0.747196    0.896331    1.057308
  C     -1.908413    0.052210    1.119936
  H      0.025527    0.748362    1.690304
  C     -1.952664   -0.984554    0.008385
  H     -1.918864   -0.472933    2.076057
  H     -2.811830    0.663719    1.071484
  O     -3.125546   -1.188925   -0.577001
  N     -0.949117   -1.693503   -0.336729
  H     -1.230984   -2.317281   -1.094074
  C     -0.570847    1.673855   -0.044194
  C      0.834927    2.246024   -0.213845
  O     -1.426485    1.784947   -0.896488
  N      1.640134    1.159548   -0.775848
  H      1.279609    2.573140    0.724195
  H      0.804870    3.073015   -0.917247
  H      1.579094    1.014435   -1.773109
  H     -3.759474   -0.485990   -0.388263
  C      2.027965    0.143436    0.004253
  C      2.401709   -1.172462   -0.667774
  O      2.009834    0.163194    1.225865
  N      1.681589   -2.194046    0.142959
  H      3.476154   -1.344230   -0.608439
  H      2.070945   -1.246189   -1.702078
  H      0.602898   -2.019258    0.045215
  H      1.927234   -2.041013    1.126789
  H      1.918477   -3.148879   -0.124240

 Total Charge           Charge          ....    1
 Multiplicity           Mult            ....    1
 Number of Electrons    NEL             ....  100
 Basis Dimension        Dim             .... 1638

ORBITAL ENERGIES
----------------

  NO   OCC          E(Eh)            E(eV)
   0   2.0000     -20.743227      -564.4519
   1   2.0000     -20.687297      -562.9300
   2   2.0000     -20.653582      -562.0125
   3   2.0000     -15.828203      -430.7073
   4   2.0000     -15.751870      -428.6302
   5   2.0000     -15.715979      -427.6535
   6   2.0000     -15.690524      -426.9609
   7   2.0000     -11.523241      -313.5633
   8   2.0000     -11.505272      -313.0744
   9   2.0000     -11.480827      -312.4092
  10   2.0000     -11.467132      -312.0365
  11   2.0000     -11.422754      -310.8289
  12   2.0000     -11.415693      -310.6368
  13   2.0000      -1.582201       -43.0539
  14   2.0000      -1.564223       -42.5647
  15   2.0000      -1.524295       -41.4782
  16   2.0000      -1.454335       -39.5745
  17   2.0000      -1.403552       -38.1926
  18   2.0000      -1.378730       -37.5171
  19   2.0000      -1.343277       -36.5524
  20   2.0000      -1.185115       -32.2486
  21   2.0000      -1.142611       -31.0920
  22   2.0000      -1.096734       -29.8437
  23   2.0000      -0.977959       -26.6116
  24   2.0000      -0.965234       -26.2654
  25   2.0000      -0.942095       -25.6357
  26   2.0000      -0.930288       -25.3144
  27   2.0000      -0.914409       -24.8823
  28   2.0000      -0.889132       -24.1945
  29   2.0000      -0.868056       -23.6210
  30   2.0000      -0.847956       -23.0740
  31   2.0000      -0.832411       -22.6511
  32   2.0000      -0.819542       -22.3009
  33   2.0000      -0.798721       -21.7343
  34   2.0000      -0.784865       -21.3573
  35   2.0000      -0.771680       -20.9985
  36   2.0000      -0.752722       -20.4826
  37   2.0000      -0.749056       -20.3828
  38   2.0000      -0.732128       -19.9222
  39   2.0000      -0.719233       -19.5713
  40   2.0000      -0.702963       -19.1286
  41   2.0000      -0.693874       -18.8813
  42   2.0000      -0.680607       -18.5203
  43   2.0000      -0.662250       -18.0207
  44   2.0000      -0.619886       -16.8679
  45   2.0000      -0.605264       -16.4701
  46   2.0000      -0.589284       -16.0352
  47   2.0000      -0.566424       -15.4132
  48   2.0000      -0.544660       -14.8209
  49   2.0000      -0.532008       -14.4767
  50   0.0000      -0.088062        -2.3963
  51   0.0000      -0.070126        -1.9082
  52   0.0000      -0.061368        -1.6699
  53   0.0000      -0.059947        -1.6312
  54   0.0000      -0.047003        -1.2790

MULLIKEN ATOMIC CHARGES
-----------------------
   0 N :   -0.622918
   1 C :   -0.626772
   2 H :    0.339233
   3 C :    1.475900
   4 H :    0.393696
   5 H :    0.355381
   6 O :   -0.936015
   7 N :   -0.808569
   8 H :    0.131014
   9 C :    1.084701
  10 C :   -0.539228
  11 O :   -0.907862
  12 N :   -0.716256
  13 H :    0.381246
  14 H :    0.387522
  15 H :    0.294969
  16 H :    0.384450
  17 C :    1.190461
  18 C :   -0.454755
  19 O :   -1.021059
  20 N :   -0.118896
  21 H :    0.420051
  22 H :    0.252910
  23 H :    0.219393
  24 H :    0.305765
  25 H :    0.135640
Sum of atomic charges:    1.0000000

LOEWDIN ATOMIC CHARGES
----------------------
   0 N :    0.832200
   1 C :    0.367990
   2 H :   -0.594434
   3 C :   -0.563233
   4 H :   -0.261112
   5 H :   -0.306710
   6 O :    1.340284
   7 N :    1.067793
   8 H :   -0.584244
   9 C :   -0.827988
  10 C :    0.401509
  11 O :    0.754633
  12 N :    0.875929
  13 H :   -0.287593
  14 H :   -0.283155
  15 H :   -0.462652
  16 H :   -0.750835
  17 C :   -0.773693
  18 C :    0.525089
  19 O :    0.831204
  20 N :    1.502534
  21 H :   -0.231932
  22 H :   -0.250676
  23 H :   -0.636559
  24 H :   -0.395987
  25 H :   -0.288358

  Mayer bond orders larger than 0.100000
B(  0-N ,  1-C ) :   1.0147 B(  0-N ,  2-H ) :   0.9131 B(  0-N ,  9-C ) :   1.0454
B(  0-N , 10-C ) :  -0.1107 B(  0-N , 11-O ) :   0.2356 B(  1-C ,  3-C ) :   1.0668
B(  1-C ,  4-H ) :   0.8191 B(  1-C ,  5-H ) :   0.8742 B(  1-C ,  6-O ) :   0.2044
B(  3-C ,  6-O ) :   0.1353 B(  3-C ,  7-N ) :   1.5032 B(  6-O ,  7-N ) :   0.2262
B(  6-O , 16-H ) :   0.8262 B(  7-N ,  8-H ) :   1.1302 B(  7-N , 20-N ) :  -0.1104
B(  7-N , 23-H ) :   0.2814 B(  9-C , 10-C ) :   0.9835 B(  9-C , 11-O ) :   0.9653
B( 10-C , 11-O ) :   0.1194 B( 10-C , 12-N ) :   1.0103 B( 10-C , 13-H ) :   0.8996
B( 10-C , 14-H ) :   0.8763 B( 12-N , 15-H ) :   0.9152 B( 12-N , 17-C ) :   1.0450
B( 12-N , 19-O ) :   0.1693 B( 17-C , 18-C ) :   0.9350 B( 17-C , 19-O ) :   1.0540
B( 18-C , 20-N ) :   0.9639 B( 18-C , 21-H ) :   0.7923 B( 18-C , 22-H ) :   0.9700
B( 20-N , 23-H ) :   0.6859 B( 20-N , 24-H ) :   0.8839 B( 20-N , 25-H ) :   1.1327

MP2 TOTAL ENERGY:     -679.991557786 Eh
FINAL SINGLE POINT ENERGY      -679.991557786347

DIPOLE MOMENT
-------------
                                X             Y             Z
Electronic contribution:     -2.25421       2.70656      -0.20583
Nuclear contribution   :      3.94331      -5.01485       0.12352
                        -----------------------------------------
Total Dipole Moment    :      1.68911      -2.30829      -0.08230
                        -----------------------------------------
Magnitude (a.u.)       :      2.86148
Magnitude (Debye)      :      7.27330

Rotational constants in cm-1:     0.034566     0.022889     0.016716
Rotational constants in MHz :  1036.261161   686.199695   501.121489

                             ****ORCA TERMINATED NORMALLY****
TOTAL RUN TIME: 0 days 2 hours 6 minutes 2 seconds 990 msec
