                         Program Version 4.2.1 -  RELEASE  -
|  1> %pal
|  2>  nprocs 32
|  3> end
|  4> !RI-MP2 aug-cc-pVQZ aug-cc-pVQZ/C TightSCF
|  5> %maxcore 4500
|  6> *xyzfile 0 2  01_35P.xyz
|  7>
|  8>
|  9>                          ****END OF INPUT****

CARTESIAN COORDINATES (ANGSTROEM)
---------------------------------
  C      1.478759   -1.472452   -0.250173
  C      2.878084   -0.851835   -0.166933
  C      2.906860    0.399981    0.716243
  C      1.868540    1.441040    0.283718
  C      0.491111    0.800189    0.223537
  C      0.482839   -0.416510   -0.700825
  C     -0.676178    1.637781   -0.299642
  C     -1.728370    0.621118   -0.823521
  C     -1.013526   -0.768623   -0.792141
  C     -1.583574   -1.440902    0.416573
  C     -2.968242    0.456650    0.068583
  H     -2.026666    0.891678   -1.837317
  C     -2.566895   -0.578675    1.131475
  H     -3.793820    0.056088   -0.526049
  H     -3.304273    1.404046    0.495296
  H     -1.267801   -2.415001    0.767022
  H     -3.420717   -1.133483    1.531811
  H     -2.098530   -0.080726    1.995862
  H     -1.091322    2.304092    0.460567
  H     -0.327274    2.271009   -1.121226
  H      1.483268   -2.327124   -0.933879
  H      1.187340   -1.853512    0.734742
  H      3.207313   -0.583144   -1.177711
  H      3.595987   -1.586687    0.207495
  H      1.876795    2.292741    0.970789
  H      2.127455    1.832411   -0.708136
  H      2.704054    0.109117    1.753754
  H      3.908800    0.837704    0.707556
  H      0.242459    0.442875    1.232152
  H      0.790723   -0.068870   -1.698355
  H     -1.210240   -1.359781   -1.695725

 Total Charge           Charge          ....    0
 Multiplicity           Mult            ....    2
 Number of Electrons    NEL             ....   91
 Basis Dimension        Dim             .... 1834

ORBITAL ENERGIES
----------------
                 SPIN UP ORBITALS
  NO   OCC          E(Eh)            E(eV)
   0   1.0000     -11.214921      -305.1735
   1   1.0000     -11.214480      -305.1615
   2   1.0000     -11.212447      -305.1062
   3   1.0000     -11.212318      -305.1027
   4   1.0000     -11.211256      -305.0738
   5   1.0000     -11.210661      -305.0576
   6   1.0000     -11.210168      -305.0442
   7   1.0000     -11.210156      -305.0439
   8   1.0000     -11.209050      -305.0138
   9   1.0000     -11.208340      -304.9944
  10   1.0000     -11.207758      -304.9786
  11   1.0000     -11.206883      -304.9548
  12   1.0000      -1.160796       -31.5869
  13   1.0000      -1.101611       -29.9764
  14   1.0000      -1.037066       -28.2200
  15   1.0000      -1.014487       -27.6056
  16   1.0000      -0.973166       -26.4812
  17   1.0000      -0.935547       -25.4575
  18   1.0000      -0.896271       -24.3888
  19   1.0000      -0.827909       -22.5286
  20   1.0000      -0.793291       -21.5866
  21   1.0000      -0.769092       -20.9281
  22   1.0000      -0.743179       -20.2229
  23   1.0000      -0.723637       -19.6912
  24   1.0000      -0.660339       -17.9687
  25   1.0000      -0.640362       -17.4251
  26   1.0000      -0.627082       -17.0638
  27   1.0000      -0.611738       -16.6462
  28   1.0000      -0.596120       -16.2213
  29   1.0000      -0.579756       -15.7760
  30   1.0000      -0.565062       -15.3761
  31   1.0000      -0.551787       -15.0149
  32   1.0000      -0.520485       -14.1631
  33   1.0000      -0.517122       -14.0716
  34   1.0000      -0.502280       -13.6677
  35   1.0000      -0.498065       -13.5530
  36   1.0000      -0.486680       -13.2432
  37   1.0000      -0.474539       -12.9129
  38   1.0000      -0.462105       -12.5745
  39   1.0000      -0.453060       -12.3284
  40   1.0000      -0.445877       -12.1329
  41   1.0000      -0.436683       -11.8827
  42   1.0000      -0.433731       -11.8024
  43   1.0000      -0.419664       -11.4196
  44   1.0000      -0.412918       -11.2361
  45   1.0000      -0.317361        -8.6358
  46   0.0000       0.023853         0.6491
  47   0.0000       0.027572         0.7503
  48   0.0000       0.028656         0.7798
  49   0.0000       0.028883         0.7859
  50   0.0000       0.039603         1.0776

                 SPIN DOWN ORBITALS
  NO   OCC          E(Eh)            E(eV)
   0   1.0000     -11.215773      -305.1967
   1   1.0000     -11.215737      -305.1957
   2   1.0000     -11.214215      -305.1543
   3   1.0000     -11.211257      -305.0738
   4   1.0000     -11.210662      -305.0576
   5   1.0000     -11.209762      -305.0331
   6   1.0000     -11.209087      -305.0148
   7   1.0000     -11.208682      -305.0037
   8   1.0000     -11.208134      -304.9888
   9   1.0000     -11.207640      -304.9754
  10   1.0000     -11.206905      -304.9554
  11   1.0000     -11.190728      -304.5152
  12   1.0000      -1.153799       -31.3965
  13   1.0000      -1.094825       -29.7917
  14   1.0000      -1.030747       -28.0481
  15   1.0000      -1.012697       -27.5569
  16   1.0000      -0.957274       -26.0487
  17   1.0000      -0.934181       -25.4203
  18   1.0000      -0.882136       -24.0041
  19   1.0000      -0.820737       -22.3334
  20   1.0000      -0.791845       -21.5472
  21   1.0000      -0.761079       -20.7100
  22   1.0000      -0.740833       -20.1591
  23   1.0000      -0.702290       -19.1103
  24   1.0000      -0.652555       -17.7569
  25   1.0000      -0.629845       -17.1389
  26   1.0000      -0.624594       -16.9961
  27   1.0000      -0.609651       -16.5894
  28   1.0000      -0.595094       -16.1933
  29   1.0000      -0.575946       -15.6723
  30   1.0000      -0.562147       -15.2968
  31   1.0000      -0.545682       -14.8488
  32   1.0000      -0.516679       -14.0595
  33   1.0000      -0.504690       -13.7333
  34   1.0000      -0.496832       -13.5195
  35   1.0000      -0.495465       -13.4823
  36   1.0000      -0.480104       -13.0643
  37   1.0000      -0.473436       -12.8829
  38   1.0000      -0.459351       -12.4996
  39   1.0000      -0.450753       -12.2656
  40   1.0000      -0.440856       -11.9963
  41   1.0000      -0.435415       -11.8483
  42   1.0000      -0.432635       -11.7726
  43   1.0000      -0.417158       -11.3514
  44   1.0000      -0.409916       -11.1544
  45   0.0000       0.023929         0.6512
  46   0.0000       0.027596         0.7509
  47   0.0000       0.028707         0.7812
  48   0.0000       0.028872         0.7857
  49   0.0000       0.039623         1.0782

MULLIKEN ATOMIC CHARGES AND SPIN POPULATIONS
--------------------------------------------
   0 C :   -0.651193    0.008434
   1 C :   -0.528781   -0.002545
   2 C :   -0.510304    0.001480
   3 C :   -0.725122   -0.004643
   4 C :    1.184667    0.006583
   5 C :    0.776062    0.016556
   6 C :   -0.902934   -0.005852
   7 C :   -0.068725   -0.009864
   8 C :    0.026097   -0.175709
   9 C :   -0.667807    1.267986
  10 C :   -0.711374    0.037825
  11 H :    0.231789   -0.001785
  12 C :   -0.468165   -0.205584
  13 H :    0.127366   -0.002707
  14 H :    0.261608   -0.002043
  15 H :    0.200561   -0.168091
  16 H :    0.345031    0.033788
  17 H :    0.092507    0.108979
  18 H :    0.190636    0.001358
  19 H :    0.116961   -0.000723
  20 H :    0.187218   -0.000135
  21 H :    0.088255   -0.002290
  22 H :    0.080781   -0.000900
  23 H :    0.215030    0.000360
  24 H :    0.200538    0.000760
  25 H :    0.046086    0.000398
  26 H :    0.067522    0.000315
  27 H :    0.220997   -0.000089
  28 H :    0.078383    0.012484
  29 H :    0.171658   -0.003102
  30 H :    0.324649    0.088755
Sum of atomic charges         :   -0.0000000

LOEWDIN ATOMIC CHARGES AND SPIN POPULATIONS
-------------------------------------------
   0 C :    0.556373    0.005824
   1 C :    0.550444    0.000524
   2 C :    0.549792    0.000230
   3 C :    0.561799    0.000645
   4 C :    0.117168    0.008894
   5 C :    0.120216    0.024470
   6 C :    0.584122    0.001342
   7 C :    0.173672    0.007575
   8 C :    0.151898    0.120491
   9 C :    0.474938    0.448122
  10 C :    0.541094    0.014154
  11 H :   -0.246647    0.000528
  12 C :    0.519618    0.132077
  13 H :   -0.259616    0.002796
  14 H :   -0.258884    0.001389
  15 H :   -0.274897    0.140024
  16 H :   -0.268820    0.017080
  17 H :   -0.267185    0.030797
  18 H :   -0.249594    0.000101
  19 H :   -0.253078   -0.000082
  20 H :   -0.243063    0.000336
  21 H :   -0.271948    0.004960
  22 H :   -0.261116    0.000276
  23 H :   -0.257938    0.000134
  24 H :   -0.245892    0.000200
  25 H :   -0.258546    0.000282
  26 H :   -0.260882    0.000006
  27 H :   -0.258350   -0.000002
  28 H :   -0.267318    0.005996
  29 H :   -0.253148    0.005056
  30 H :   -0.244214    0.025772

  Mayer bond orders larger than 0.100000
B(  0-C ,  1-C ) :   0.9071 B(  0-C ,  2-C ) :  -0.1227 B(  0-C ,  5-C ) :   0.2221
B(  0-C ,  8-C ) :   0.1231 B(  0-C , 20-H ) :   1.1194 B(  0-C , 21-H ) :   1.1539
B(  1-C ,  2-C ) :   0.8287 B(  1-C ,  4-C ) :   0.1119 B(  1-C ,  5-C ) :  -0.3156
B(  1-C , 22-H ) :   1.1417 B(  1-C , 23-H ) :   1.0206 B(  2-C ,  3-C ) :   0.9484
B(  2-C ,  4-C ) :  -0.3097 B(  2-C , 26-H ) :   1.1333 B(  2-C , 27-H ) :   1.0130
B(  3-C ,  6-C ) :   0.1778 B(  3-C , 24-H ) :   1.1262 B(  3-C , 25-H ) :   1.2794
B(  4-C ,  5-C ) :   0.7049 B(  4-C ,  6-C ) :   0.3192 B(  4-C ,  7-C ) :  -0.1442
B(  4-C , 18-H ) :  -0.1813 B(  4-C , 19-H ) :  -0.1047 B(  4-C , 24-H ) :  -0.1833
B(  4-C , 25-H ) :  -0.2270 B(  4-C , 28-H ) :   1.0482 B(  5-C ,  7-C ) :  -0.1439
B(  5-C ,  8-C ) :   0.6808 B(  5-C , 20-H ) :  -0.1633 B(  5-C , 21-H ) :  -0.1301
B(  5-C , 29-H ) :   1.0752 B(  6-C ,  7-C ) :   0.9125 B(  6-C , 18-H ) :   1.1525
B(  6-C , 19-H ) :   1.2047 B(  7-C ,  8-C ) :   0.9318 B(  7-C , 10-C ) :   0.7131
B(  7-C , 11-H ) :   1.0362 B(  7-C , 12-C ) :  -0.1035 B(  8-C ,  9-C ) :   0.4554
B(  8-C , 15-H ) :  -0.1469 B(  8-C , 29-H ) :  -0.1394 B(  8-C , 30-H ) :   1.0294
B(  9-C , 12-C ) :   0.8017 B(  9-C , 15-H ) :   1.2093 B(  9-C , 30-H ) :  -0.1328
B( 10-C , 12-C ) :   0.9837 B( 10-C , 13-H ) :   1.1184 B( 10-C , 14-H ) :   0.9920
B( 12-C , 16-H ) :   0.9091 B( 12-C , 17-H ) :   1.0627 B( 28-H , 29-H ) :   0.1116

MP2 TOTAL ENERGY:     -467.780339560 Eh
FINAL SINGLE POINT ENERGY      -467.780339560427

DIPOLE MOMENT
-------------
                                X             Y             Z
Electronic contribution:     -2.67804      -1.06151      -1.22876
Nuclear contribution   :      2.70413       1.08166       1.21272
                        -----------------------------------------
Total Dipole Moment    :      0.02608       0.02016      -0.01604
                        -----------------------------------------
Magnitude (a.u.)       :      0.03666
Magnitude (Debye)      :      0.09318

Rotational constants in cm-1:     0.063088     0.023119     0.019994
Rotational constants in MHz :  1891.345605   693.075596   599.403771

                             ****ORCA TERMINATED NORMALLY****
TOTAL RUN TIME: 0 days 4 hours 27 minutes 9 seconds 693 msec
