                         Program Version 4.2.1 -  RELEASE  -
|  1> %pal
|  2>  nprocs 32
|  3> end
|  4> !RI-MP2 aug-cc-pVQZ aug-cc-pVQZ/C TightSCF
|  5> %maxcore 4500
|  6> *xyzfile -1 1  05_6TS.xyz
|  7>
|  8>
|  9>                          ****END OF INPUT****

CARTESIAN COORDINATES (ANGSTROEM)
---------------------------------
  C      1.011217    0.925145   -0.818237
  C      2.302486    0.984359    0.019178
  C      2.998506   -0.294851    0.271734
  C      2.369565   -1.563018   -0.335264
  C      0.903358   -1.516331   -0.621508
  C      0.258091   -0.373056   -0.833119
  H      0.350975   -2.454292   -0.635345
  C     -1.232991   -0.331057   -1.007498
  C     -1.919984    0.406162    0.163800
  H     -1.621755   -1.352313   -1.065604
  H     -1.523632    0.182980   -1.927259
  C     -3.428597    0.196153    0.042978
  O     -4.108394    0.708402   -0.805751
  O     -3.916934   -0.647473    0.954014
  N     -1.460843   -0.112412    1.454414
  H     -1.735620    1.477603    0.059651
  O      4.145516   -0.398341    0.739556
  O      2.772063    2.110435    0.249949
  H      1.861631    0.110609    1.213979
  H     -3.133303   -0.862996    1.518559
  H     -0.530777   -0.518253    1.362372
  H     -1.381087    0.630316    2.138795
  H      2.931643   -1.764023   -1.258070
  H      2.608320   -2.387492    0.339764
  H      1.305565    1.186136   -1.844382
  H      0.386027    1.753398   -0.477885

 Total Charge           Charge          ....   -1
 Multiplicity           Mult            ....    1
 Number of Electrons    NEL             ....  106
 Basis Dimension        Dim             .... 1672

ORBITAL ENERGIES
----------------

  NO   OCC          E(Eh)            E(eV)
   0   2.0000     -20.506708      -558.0159
   1   2.0000     -20.446653      -556.3817
   2   2.0000     -20.325405      -553.0824
   3   2.0000     -20.321491      -552.9759
   4   2.0000     -15.475970      -421.1225
   5   2.0000     -11.283707      -307.0453
   6   2.0000     -11.192786      -304.5712
   7   2.0000     -11.161277      -303.7138
   8   2.0000     -11.158757      -303.6452
   9   2.0000     -11.149476      -303.3927
  10   2.0000     -11.129067      -302.8373
  11   2.0000     -11.119716      -302.5829
  12   2.0000     -11.109259      -302.2983
  13   2.0000     -11.105353      -302.1920
  14   2.0000      -1.366859       -37.1941
  15   2.0000      -1.269519       -34.5454
  16   2.0000      -1.186745       -32.2930
  17   2.0000      -1.153863       -31.3982
  18   2.0000      -1.125329       -30.6218
  19   2.0000      -1.014915       -27.6172
  20   2.0000      -0.934343       -25.4248
  21   2.0000      -0.873247       -23.7622
  22   2.0000      -0.852192       -23.1893
  23   2.0000      -0.781552       -21.2671
  24   2.0000      -0.731474       -19.9044
  25   2.0000      -0.713436       -19.4136
  26   2.0000      -0.640789       -17.4367
  27   2.0000      -0.624944       -17.0056
  28   2.0000      -0.608805       -16.5664
  29   2.0000      -0.581826       -15.8323
  30   2.0000      -0.544766       -14.8238
  31   2.0000      -0.536437       -14.5972
  32   2.0000      -0.521477       -14.1901
  33   2.0000      -0.514475       -13.9996
  34   2.0000      -0.506918       -13.7939
  35   2.0000      -0.495150       -13.4737
  36   2.0000      -0.474174       -12.9029
  37   2.0000      -0.455117       -12.3844
  38   2.0000      -0.444246       -12.0886
  39   2.0000      -0.435426       -11.8485
  40   2.0000      -0.432331       -11.7643
  41   2.0000      -0.406766       -11.0687
  42   2.0000      -0.397506       -10.8167
  43   2.0000      -0.382676       -10.4132
  44   2.0000      -0.381405       -10.3786
  45   2.0000      -0.378839       -10.3087
  46   2.0000      -0.365228        -9.9383
  47   2.0000      -0.328875        -8.9491
  48   2.0000      -0.300249        -8.1702
  49   2.0000      -0.257656        -7.0112
  50   2.0000      -0.248485        -6.7616
  51   2.0000      -0.210658        -5.7323
  52   2.0000      -0.154391        -4.2012
  53   0.0000       0.093152         2.5348
  54   0.0000       0.098833         2.6894
  55   0.0000       0.103088         2.8052
  56   0.0000       0.108467         2.9515
  57   0.0000       0.114470         3.1149

MULLIKEN ATOMIC CHARGES
-----------------------
   0 C :   -0.847314
   1 C :    1.241014
   2 C :    1.021606
   3 C :   -0.668330
   4 C :   -0.442675
   5 C :    0.506556
   6 H :    0.223160
   7 C :   -0.734199
   8 C :   -0.082490
   9 H :    0.194949
  10 H :    0.286985
  11 C :    1.363747
  12 O :   -0.892285
  13 O :   -1.006708
  14 N :   -0.704097
  15 H :    0.389426
  16 O :   -1.097138
  17 O :   -1.149072
  18 H :   -0.102293
  19 H :    0.381506
  20 H :    0.243472
  21 H :    0.155130
  22 H :    0.242063
  23 H :    0.055557
  24 H :    0.319821
  25 H :    0.101611
Sum of atomic charges:   -1.0000000

LOEWDIN ATOMIC CHARGES
----------------------
   0 C :    0.433701
   1 C :   -0.768608
   2 C :   -0.781287
   3 C :    0.428258
   4 C :    0.386687
   5 C :   -0.053290
   6 H :   -0.301816
   7 C :    0.496636
   8 C :   -0.056704
   9 H :   -0.294248
  10 H :   -0.262801
  11 C :   -1.043895
  12 O :    0.666165
  13 O :    1.247830
  14 N :    1.316676
  15 H :   -0.298676
  16 O :    0.629502
  17 O :    0.637538
  18 H :   -0.229346
  19 H :   -0.973107
  20 H :   -0.538255
  21 H :   -0.435187
  22 H :   -0.290099
  23 H :   -0.314510
  24 H :   -0.270464
  25 H :   -0.330699

  Mayer bond orders larger than 0.100000
B(  0-C ,  1-C ) :   1.0466 B(  0-C ,  2-C ) :  -0.1400 B(  0-C ,  5-C ) :   0.4817
B(  0-C , 17-O ) :   0.3233 B(  0-C , 24-H ) :   0.8793 B(  0-C , 25-H ) :   1.1364
B(  1-C ,  2-C ) :   1.3169 B(  1-C ,  3-C ) :  -0.1370 B(  1-C ,  5-C ) :  -0.1803
B(  1-C , 16-O ) :   0.4047 B(  1-C , 18-H ) :   0.4101 B(  1-C , 24-H ) :   0.1076
B(  2-C ,  3-C ) :   0.9693 B(  2-C , 16-O ) :   0.1573 B(  2-C , 17-O ) :   0.3880
B(  2-C , 18-H ) :   0.5252 B(  3-C ,  4-C ) :   0.8449 B(  3-C ,  5-C ) :  -0.2400
B(  3-C , 16-O ) :   0.3357 B(  3-C , 22-H ) :   0.9140 B(  3-C , 23-H ) :   1.1859
B(  4-C ,  5-C ) :   1.5265 B(  4-C ,  6-H ) :   1.0380 B(  4-C ,  7-C ) :  -0.2107
B(  4-C , 23-H ) :  -0.1137 B(  5-C ,  7-C ) :   0.5752 B(  5-C ,  9-H ) :  -0.1281
B(  5-C , 10-H ) :  -0.1057 B(  5-C , 18-H ) :   0.2102 B(  7-C ,  8-C ) :   0.9216
B(  7-C ,  9-H ) :   1.1438 B(  7-C , 10-H ) :   0.9404 B(  7-C , 13-O ) :   0.1026
B(  8-C , 11-C ) :   1.1647 B(  8-C , 12-O ) :   0.3378 B(  8-C , 14-N ) :   0.6590
B(  8-C , 15-H ) :   0.7909 B( 11-C , 12-O ) :   1.1183 B( 11-C , 13-O ) :   0.6149
B( 12-O , 13-O ) :   0.1834 B( 13-O , 19-H ) :   0.7222 B( 14-N , 19-H ) :   0.1717
B( 14-N , 20-H ) :   0.9604 B( 14-N , 21-H ) :   1.0642 B( 17-O , 25-H ) :   0.1426

MP2 TOTAL ENERGY:     -704.806128977 Eh
FINAL SINGLE POINT ENERGY      -704.806128976560

DIPOLE MOMENT
-------------
                                X             Y             Z
Electronic contribution:     -3.07354       2.34544       0.00364
Nuclear contribution   :     -0.50549      -3.95100      -0.54618
                        -----------------------------------------
Total Dipole Moment    :     -3.57903      -1.60555      -0.54254
                        -----------------------------------------
Magnitude (a.u.)       :      3.96000
Magnitude (Debye)      :     10.06552

Rotational constants in cm-1:     0.052687     0.010729     0.010222
Rotational constants in MHz :  1579.510468   321.635939   306.447158

                             ****ORCA TERMINATED NORMALLY****
TOTAL RUN TIME: 0 days 2 hours 13 minutes 2 seconds 697 msec
