                         Program Version 4.2.1 -  RELEASE  -
|  1> %pal
|  2>  nprocs 32
|  3> end
|  4> !RI-MP2 aug-cc-pVQZ aug-cc-pVQZ/C TightSCF
|  5> %maxcore 4500
|  6> *xyzfile -1 1  08_15R2.xyz
|  7>
|  8>
|  9>                          ****END OF INPUT****

CARTESIAN COORDINATES (ANGSTROEM)
---------------------------------
  O      3.003817    0.038747    0.130507
  C      1.801224   -0.189401   -0.091659
  O      1.259311   -1.217110   -0.561586
  C      0.815550    0.958020    0.263753
  C     -0.548275    0.740973   -0.360347
  H      1.237978    1.906417   -0.082763
  H      0.720380    1.015977    1.350974
  C     -1.202096   -0.498783    0.219699
  O     -1.211057   -0.834755    1.372212
  O     -1.941130   -1.158185   -0.710603
  H     -2.295841   -1.934547   -0.258535
  N     -1.452132    1.876150   -0.093931
  H     -0.418099    0.557186   -1.429616
  H     -0.942602    2.744312   -0.203360
  H     -2.222845    1.883173   -0.752096

 Total Charge           Charge          ....   -1
 Multiplicity           Mult            ....    1
 Number of Electrons    NEL             ....   70
 Basis Dimension        Dim             ....  996

ORBITAL ENERGIES
----------------

  NO   OCC          E(Eh)            E(eV)
   0   2.0000     -20.475104      -557.1559
   1   2.0000     -20.403442      -555.2059
   2   2.0000     -20.303270      -552.4801
   3   2.0000     -20.299972      -552.3903
   4   2.0000     -15.434624      -419.9975
   5   2.0000     -11.243518      -305.9517
   6   2.0000     -11.146650      -303.3158
   7   2.0000     -11.134998      -302.9987
   8   2.0000     -11.069775      -301.2239
   9   2.0000      -1.328329       -36.1457
  10   2.0000      -1.222227       -33.2585
  11   2.0000      -1.185885       -32.2696
  12   2.0000      -1.086174       -29.5563
  13   2.0000      -1.072534       -29.1851
  14   2.0000      -0.881241       -23.9798
  15   2.0000      -0.775592       -21.1049
  16   2.0000      -0.652334       -17.7509
  17   2.0000      -0.574137       -15.6231
  18   2.0000      -0.566636       -15.4190
  19   2.0000      -0.548376       -14.9221
  20   2.0000      -0.522702       -14.2235
  21   2.0000      -0.509449       -13.8628
  22   2.0000      -0.476656       -12.9705
  23   2.0000      -0.452085       -12.3019
  24   2.0000      -0.426736       -11.6121
  25   2.0000      -0.418293       -11.3823
  26   2.0000      -0.408095       -11.1048
  27   2.0000      -0.372514       -10.1366
  28   2.0000      -0.347849        -9.4655
  29   2.0000      -0.336695        -9.1619
  30   2.0000      -0.320333        -8.7167
  31   2.0000      -0.280201        -7.6247
  32   2.0000      -0.226029        -6.1506
  33   2.0000      -0.210891        -5.7386
  34   2.0000      -0.208197        -5.6653
  35   0.0000       0.098437         2.6786
  36   0.0000       0.108077         2.9409
  37   0.0000       0.120042         3.2665
  38   0.0000       0.126071         3.4306
  39   0.0000       0.139336         3.7915

MULLIKEN ATOMIC CHARGES
-----------------------
   0 O :   -0.981078
   1 C :    1.093425
   2 O :   -0.999752
   3 C :   -0.706811
   4 C :    0.351399
   5 H :    0.205730
   6 H :    0.257067
   7 C :    1.336956
   8 O :   -0.947185
   9 O :   -0.796472
  10 H :    0.318282
  11 N :   -0.859342
  12 H :    0.319673
  13 H :    0.208083
  14 H :    0.200024
Sum of atomic charges:   -1.0000000

LOEWDIN ATOMIC CHARGES
----------------------
   0 O :    0.499024
   1 C :   -1.471414
   2 O :    0.546858
   3 C :    0.325955
   4 C :   -0.187058
   5 H :   -0.315835
   6 H :   -0.311403
   7 C :   -1.119692
   8 O :    0.718748
   9 O :    1.255174
  10 H :   -0.838481
  11 N :    1.276326
  12 H :   -0.336811
  13 H :   -0.530755
  14 H :   -0.510636

  Mayer bond orders larger than 0.100000
B(  0-O ,  1-C ) :   1.1658 B(  0-O ,  2-O ) :   0.1054 B(  0-O ,  3-C ) :   0.1475
B(  1-C ,  2-O ) :   1.3229 B(  1-C ,  3-C ) :   1.1900 B(  1-C ,  4-C ) :  -0.1154
B(  3-C ,  4-C ) :   0.8827 B(  3-C ,  5-H ) :   0.9543 B(  3-C ,  6-H ) :   0.8672
B(  4-C ,  7-C ) :   0.9325 B(  4-C , 11-N ) :   0.4998 B(  4-C , 12-H ) :   0.8821
B(  7-C ,  8-O ) :   1.1580 B(  7-C ,  9-O ) :   0.7067 B(  8-O ,  9-O ) :   0.1050
B(  9-O , 10-H ) :   0.9436 B( 11-N , 13-H ) :   0.9680 B( 11-N , 14-H ) :   1.0012

MP2 TOTAL ENERGY:     -511.111403724 Eh
FINAL SINGLE POINT ENERGY      -511.111403724488

DIPOLE MOMENT
-------------
                                X             Y             Z
Electronic contribution:      0.58891      -4.69454       0.64728
Nuclear contribution   :     -3.83776       6.01709      -1.34626
                        -----------------------------------------
Total Dipole Moment    :     -3.24885       1.32254      -0.69897
                        -----------------------------------------
Magnitude (a.u.)       :      3.57669
Magnitude (Debye)      :      9.09123

Rotational constants in cm-1:     0.085315     0.040568     0.033011
Rotational constants in MHz :  2557.682253  1216.198311   989.640839

                             ****ORCA TERMINATED NORMALLY****
TOTAL RUN TIME: 0 days 0 hours 23 minutes 36 seconds 764 msec
