                         Program Version 4.2.1 -  RELEASE  -
|  1> %pal
|  2>  nprocs 32
|  3> end
|  4> !RI-MP2 aug-cc-pVQZ aug-cc-pVQZ/C TightSCF MORead
|  5> %maxcore 4500
|  6> %moinp "10_70TS.gbw"
|  7> *xyzfile 0 1  10_70TS.xyz
|  8>
|  9>
| 10>                          ****END OF INPUT****

CARTESIAN COORDINATES (ANGSTROEM)
---------------------------------
  C     -5.961577   -0.290354   -1.684356
  C     -5.175191   -1.123597   -0.679918
  C     -3.814518   -0.522167   -0.365464
  C     -2.904200   -1.447048    0.473355
  C     -1.520474   -0.891050    0.699988
  C     -0.395052   -1.130689   -0.020913
  C      0.860615   -0.656219    0.481460
  C      2.119075   -0.996406   -0.012385
  C      2.931046    0.516619   -1.218701
  C      2.883680    1.720130   -0.505395
  C      1.691092    2.326799   -0.131374
  C      0.453970    1.848351   -0.511117
  C     -0.779043    2.192869    0.087556
  C     -1.920350    1.573936   -0.289415
  C     -3.161797    1.693462    0.481423
  C     -3.533738   -1.799188    1.824138
  C      3.239444   -1.225347    1.000741
  C      4.572789   -1.592144    0.348326
  C      5.188365   -0.529508   -0.553115
  C      4.253344   -0.069804   -1.665073
  C     -0.419175   -1.854879   -1.341184
  O     -3.401658    2.579504    1.259625
  O     -4.086764    0.711989    0.313955
  O      3.357459   -0.172600    1.936047
  O      5.578640    0.627633    0.195885
  H     -5.426909   -0.207868   -2.634891
  H     -6.127005    0.717158   -1.301003
  H     -6.935134   -0.739506   -1.888748
  H     -5.743260   -1.216506    0.247538
  H     -5.019591   -2.135685   -1.066691
  H     -3.316500   -0.314608   -1.316180
  H     -2.819042   -2.365189   -0.115728
  H     -1.392020   -0.356222    1.635696
  H      0.837566   -0.163480    1.446767
  H      2.129904   -1.726089   -0.819194
  H      2.129293    0.344136   -1.925745
  H      0.395938    1.176613   -1.358640
  H     -0.793108    2.841972    0.957748
  H     -1.910860    0.961736   -1.176854
  H     -4.470559   -2.344090    1.705585
  H     -3.738198   -0.894247    2.399419
  H     -2.853373   -2.425184    2.403861
  H      2.941407   -2.088633    1.603802
  H      4.432432   -2.504216   -0.241434
  H      5.281827   -1.843309    1.143572
  H      6.079417   -0.955081   -1.029877
  H      4.066661   -0.933486   -2.308749
  H      4.786542    0.665507   -2.274735
  H      0.166795   -2.777003   -1.302540
  H      0.013562   -1.235366   -2.132466
  H     -1.429259   -2.116584   -1.649954
  H      3.739239    0.587867    1.482628
  H      6.203028    0.361896    0.877094
  H      3.810168    2.112082   -0.104853
  H      1.729809    3.138574    0.589001

 Total Charge           Charge          ....    0
 Multiplicity           Mult            ....    1
 Number of Electrons    NEL             ....  188
 Basis Dimension        Dim             .... 3380

ORBITAL ENERGIES
----------------

  NO   OCC          E(Eh)            E(eV)
   0   2.0000     -20.579165      -559.9875
   1   2.0000     -20.572528      -559.8069
   2   2.0000     -20.548828      -559.1620
   3   2.0000     -20.512882      -558.1839
   4   2.0000     -11.361771      -309.1695
   5   2.0000     -11.298863      -307.4577
   6   2.0000     -11.294035      -307.3263
   7   2.0000     -11.289977      -307.2159
   8   2.0000     -11.262516      -306.4686
   9   2.0000     -11.243355      -305.9473
  10   2.0000     -11.242604      -305.9268
  11   2.0000     -11.242571      -305.9259
  12   2.0000     -11.242506      -305.9241
  13   2.0000     -11.241879      -305.9071
  14   2.0000     -11.240921      -305.8810
  15   2.0000     -11.237023      -305.7749
  16   2.0000     -11.235831      -305.7425
  17   2.0000     -11.235441      -305.7319
  18   2.0000     -11.234475      -305.7056
  19   2.0000     -11.234365      -305.7026
  20   2.0000     -11.229114      -305.5597
  21   2.0000     -11.225278      -305.4554
  22   2.0000     -11.219760      -305.3052
  23   2.0000     -11.215132      -305.1793
  24   2.0000     -11.212302      -305.1023
  25   2.0000      -1.437110       -39.1058
  26   2.0000      -1.383290       -37.6412
  27   2.0000      -1.360509       -37.0213
  28   2.0000      -1.341095       -36.4930
  29   2.0000      -1.141184       -31.0532
  30   2.0000      -1.123053       -30.5598
  31   2.0000      -1.104247       -30.0481
  32   2.0000      -1.091287       -29.6954
  33   2.0000      -1.065473       -28.9930
  34   2.0000      -1.047961       -28.5165
  35   2.0000      -1.024442       -27.8765
  36   2.0000      -1.005271       -27.3548
  37   2.0000      -0.961310       -26.1586
  38   2.0000      -0.949784       -25.8449
  39   2.0000      -0.936308       -25.4782
  40   2.0000      -0.905338       -24.6355
  41   2.0000      -0.879293       -23.9268
  42   2.0000      -0.845930       -23.0189
  43   2.0000      -0.830618       -22.6023
  44   2.0000      -0.816464       -22.2171
  45   2.0000      -0.789158       -21.4741
  46   2.0000      -0.785970       -21.3873
  47   2.0000      -0.742793       -20.2124
  48   2.0000      -0.737834       -20.0775
  49   2.0000      -0.725538       -19.7429
  50   2.0000      -0.719714       -19.5844
  51   2.0000      -0.694587       -18.9007
  52   2.0000      -0.685076       -18.6419
  53   2.0000      -0.674942       -18.3661
  54   2.0000      -0.662778       -18.0351
  55   2.0000      -0.654873       -17.8200
  56   2.0000      -0.643780       -17.5181
  57   2.0000      -0.640547       -17.4302
  58   2.0000      -0.630946       -17.1689
  59   2.0000      -0.620807       -16.8930
  60   2.0000      -0.613438       -16.6925
  61   2.0000      -0.604885       -16.4597
  62   2.0000      -0.596433       -16.2298
  63   2.0000      -0.589466       -16.0402
  64   2.0000      -0.587212       -15.9789
  65   2.0000      -0.580199       -15.7880
  66   2.0000      -0.576977       -15.7003
  67   2.0000      -0.568200       -15.4615
  68   2.0000      -0.562069       -15.2947
  69   2.0000      -0.557732       -15.1767
  70   2.0000      -0.544748       -14.8233
  71   2.0000      -0.541135       -14.7250
  72   2.0000      -0.537914       -14.6374
  73   2.0000      -0.532095       -14.4790
  74   2.0000      -0.528499       -14.3812
  75   2.0000      -0.522509       -14.2182
  76   2.0000      -0.514098       -13.9893
  77   2.0000      -0.512160       -13.9366
  78   2.0000      -0.505633       -13.7590
  79   2.0000      -0.496787       -13.5183
  80   2.0000      -0.495815       -13.4918
  81   2.0000      -0.490652       -13.3513
  82   2.0000      -0.486916       -13.2496
  83   2.0000      -0.480062       -13.0631
  84   2.0000      -0.476630       -12.9698
  85   2.0000      -0.466268       -12.6878
  86   2.0000      -0.453354       -12.3364
  87   2.0000      -0.441650       -12.0179
  88   2.0000      -0.431820       -11.7504
  89   2.0000      -0.425586       -11.5808
  90   2.0000      -0.404824       -11.0158
  91   2.0000      -0.387179       -10.5357
  92   2.0000      -0.294222        -8.0062
  93   2.0000      -0.254296        -6.9197
  94   0.0000       0.012008         0.3268
  95   0.0000       0.018749         0.5102
  96   0.0000       0.023239         0.6324
  97   0.0000       0.025875         0.7041
  98   0.0000       0.030845         0.8393

MULLIKEN ATOMIC CHARGES
-----------------------
   0 C :   -0.948234
   1 C :   -0.694321
   2 C :    1.565707
   3 C :   -0.039259
   4 C :    0.089047
   5 C :    0.802557
   6 C :   -0.372790
   7 C :    0.602364
   8 C :    0.860303
   9 C :   -0.590910
  10 C :   -0.211998
  11 C :   -0.097586
  12 C :   -0.125919
  13 C :   -0.934689
  14 C :    1.737999
  15 C :   -1.205361
  16 C :    0.637418
  17 C :   -1.004590
  18 C :    0.683124
  19 C :   -1.064118
  20 C :   -1.229833
  21 O :   -1.193752
  22 O :   -1.194475
  23 O :   -1.498569
  24 O :   -1.037847
  25 H :    0.166075
  26 H :    0.224520
  27 H :    0.281020
  28 H :    0.135896
  29 H :    0.208639
  30 H :    0.141298
  31 H :    0.140952
  32 H :    0.061191
  33 H :    0.060602
  34 H :    0.188162
  35 H :    0.517447
  36 H :    0.335268
  37 H :    0.093689
  38 H :    0.178138
  39 H :    0.207992
  40 H :    0.217872
  41 H :    0.258823
  42 H :    0.391535
  43 H :    0.174790
  44 H :    0.138697
  45 H :    0.301375
  46 H :    0.127892
  47 H :    0.145947
  48 H :    0.218761
  49 H :    0.139893
  50 H :    0.347543
  51 H :    0.523463
  52 H :    0.293177
  53 H :    0.138000
  54 H :    0.107073
Sum of atomic charges:    0.0000000

LOEWDIN ATOMIC CHARGES
----------------------
   0 C :    0.945103
   1 C :    0.499668
   2 C :   -0.214046
   3 C :    0.126439
   4 C :    0.356273
   5 C :   -0.007555
   6 C :    0.348583
   7 C :    0.283484
   8 C :    0.287050
   9 C :    0.368786
  10 C :    0.388871
  11 C :    0.316792
  12 C :    0.365928
  13 C :    0.272057
  14 C :   -1.062674
  15 C :    0.941272
  16 C :   -0.197162
  17 C :    0.525832
  18 C :   -0.167090
  19 C :    0.523348
  20 C :    0.925260
  21 O :    0.673974
  22 O :    0.883906
  23 O :    1.339718
  24 O :    1.324242
  25 H :   -0.276417
  26 H :   -0.286140
  27 H :   -0.276173
  28 H :   -0.286571
  29 H :   -0.260099
  30 H :   -0.342493
  31 H :   -0.315036
  32 H :   -0.315175
  33 H :   -0.315797
  34 H :   -0.334509
  35 H :   -0.336541
  36 H :   -0.379608
  37 H :   -0.311434
  38 H :   -0.391369
  39 H :   -0.281659
  40 H :   -0.267661
  41 H :   -0.262272
  42 H :   -0.305827
  43 H :   -0.263102
  44 H :   -0.265742
  45 H :   -0.278870
  46 H :   -0.271145
  47 H :   -0.259935
  48 H :   -0.265215
  49 H :   -0.267532
  50 H :   -0.309693
  51 H :   -0.906735
  52 H :   -0.747062
  53 H :   -0.359314
  54 H :   -0.308936

  Mayer bond orders larger than 0.100000
B(  0-C ,  1-C ) :   0.8932 B(  0-C ,  2-C ) :  -0.1591 B(  0-C , 25-H ) :   1.0150
B(  0-C , 26-H ) :   0.9829 B(  0-C , 27-H ) :   1.0418 B(  1-C , 22-O ) :   0.1388
B(  1-C , 27-H ) :  -0.1343 B(  1-C , 28-H ) :   1.1598 B(  1-C , 29-H ) :   1.0892
B(  2-C ,  3-C ) :   0.6003 B(  2-C ,  4-C ) :   0.1973 B(  2-C ,  5-C ) :  -0.1241
B(  2-C , 22-O ) :  -0.4446 B(  2-C , 28-H ) :  -0.2519 B(  2-C , 29-H ) :  -0.1604
B(  2-C , 30-H ) :   1.0010 B(  2-C , 38-H ) :  -0.1275 B(  3-C ,  4-C ) :   0.6795
B(  3-C ,  5-C ) :  -0.1957 B(  3-C , 15-C ) :   0.4650 B(  3-C , 22-O ) :   0.1515
B(  3-C , 31-H ) :   1.0169 B(  3-C , 39-H ) :  -0.1624 B(  3-C , 40-H ) :  -0.2785
B(  4-C ,  5-C ) :   1.1003 B(  4-C ,  6-C ) :  -0.3000 B(  4-C , 15-C ) :  -0.4151
B(  4-C , 21-O ) :   0.1469 B(  4-C , 32-H ) :   1.3836 B(  4-C , 41-H ) :  -0.1049
B(  5-C ,  6-C ) :   1.1597 B(  5-C ,  7-C ) :  -0.4611 B(  5-C , 11-C ) :  -0.1460
B(  5-C , 20-C ) :   0.2489 B(  5-C , 32-H ) :  -0.2045 B(  5-C , 36-H ) :  -0.1106
B(  5-C , 48-H ) :  -0.1950 B(  5-C , 49-H ) :  -0.2314 B(  6-C ,  7-C ) :   0.5337
B(  6-C ,  9-C ) :   0.1859 B(  6-C , 11-C ) :   0.2284 B(  6-C , 16-C ) :  -0.3163
B(  6-C , 23-O ) :  -0.3050 B(  6-C , 32-H ) :  -0.1161 B(  6-C , 33-H ) :   1.2573
B(  6-C , 36-H ) :   0.1720 B(  7-C ,  8-C ) :   0.3802 B(  7-C , 11-C ) :  -0.1220
B(  7-C , 13-C ) :   0.1016 B(  7-C , 16-C ) :   0.9795 B(  7-C , 17-C ) :  -0.2904
B(  7-C , 23-O ) :   0.1873 B(  7-C , 34-H ) :   1.0427 B(  7-C , 42-H ) :  -0.1404
B(  7-C , 43-H ) :  -0.1336 B(  8-C ,  9-C ) :   0.8401 B(  8-C , 10-C ) :  -0.2460
B(  8-C , 19-C ) :   0.1681 B(  8-C , 24-O ) :  -0.1514 B(  8-C , 35-H ) :   0.8983
B(  8-C , 36-H ) :  -0.1380 B(  8-C , 46-H ) :  -0.2648 B(  8-C , 47-H ) :  -0.1775
B(  8-C , 53-H ) :  -0.1146 B(  9-C , 10-C ) :   1.2212 B(  9-C , 11-C ) :  -0.2899
B(  9-C , 19-C ) :  -0.1469 B(  9-C , 35-H ) :  -0.2078 B(  9-C , 36-H ) :  -0.1001
B(  9-C , 53-H ) :   1.2701 B(  9-C , 54-H ) :  -0.1571 B( 10-C , 11-C ) :   1.2616
B( 10-C , 12-C ) :  -0.5659 B( 10-C , 53-H ) :  -0.2499 B( 10-C , 54-H ) :   1.2423
B( 11-C , 12-C ) :   0.5798 B( 11-C , 13-C ) :  -0.6313 B( 11-C , 36-H ) :   1.1066
B( 11-C , 37-H ) :  -0.1343 B( 11-C , 54-H ) :  -0.1156 B( 12-C , 13-C ) :   1.1829
B( 12-C , 14-C ) :  -0.4696 B( 12-C , 36-H ) :  -0.1406 B( 12-C , 37-H ) :   1.2924
B( 13-C , 14-C ) :   1.4430 B( 13-C , 21-O ) :   0.3033 B( 13-C , 38-H ) :   1.1599
B( 14-C , 21-O ) :   0.2866 B( 14-C , 22-O ) :   0.9700 B( 15-C , 39-H ) :   1.1586
B( 15-C , 40-H ) :   1.1386 B( 15-C , 41-H ) :   1.0759 B( 16-C , 17-C ) :   0.9580
B( 16-C , 23-O ) :  -0.1573 B( 16-C , 42-H ) :   0.9696 B( 16-C , 44-H ) :  -0.1276
B( 17-C , 18-C ) :   0.7936 B( 17-C , 23-O ) :   0.3015 B( 17-C , 24-O ) :   0.1518
B( 17-C , 43-H ) :   1.1221 B( 17-C , 44-H ) :   1.1471 B( 18-C , 19-C ) :   0.9173
B( 18-C , 24-O ) :   0.2361 B( 18-C , 45-H ) :   0.9506 B( 19-C , 24-O ) :   0.2218
B( 19-C , 35-H ) :  -0.2124 B( 19-C , 46-H ) :   1.3577 B( 19-C , 47-H ) :   1.2273
B( 20-C , 48-H ) :   1.1245 B( 20-C , 49-H ) :   1.2147 B( 20-C , 50-H ) :   0.9838
B( 21-O , 22-O ) :   0.2511 B( 22-O , 30-H ) :   0.1212 B( 23-O , 42-H ) :  -0.1395
B( 23-O , 51-H ) :   0.6124 B( 24-O , 52-H ) :   0.9455 B( 48-H , 49-H ) :   0.1361

MP2 TOTAL ENERGY:    -1117.270315958 Eh
FINAL SINGLE POINT ENERGY     -1117.270315958072

DIPOLE MOMENT
-------------
                                X             Y             Z
Electronic contribution:      5.21157      14.24374       6.73202
Nuclear contribution   :     -3.26963     -16.68820      -8.25165
                        -----------------------------------------
Total Dipole Moment    :      1.94194      -2.44447      -1.51963
                        -----------------------------------------
Magnitude (a.u.)       :      3.47215
Magnitude (Debye)      :      8.82550

Rotational constants in cm-1:     0.016190     0.003714     0.003456
Rotational constants in MHz :   485.366608   111.329794   103.602819

                             ****ORCA TERMINATED NORMALLY****
TOTAL RUN TIME: 0 days 6 hours 26 minutes 31 seconds 9 msec
