                         Program Version 4.2.1 -  RELEASE  -
|  1> %pal
|  2>  nprocs 32
|  3> end
|  4> !RI-MP2 aug-cc-pVQZ aug-cc-pVQZ/C TightSCF
|  5> %maxcore 4500
|  6> *xyzfile 1 1  10_24R1.xyz
|  7>
|  8>
|  9>                          ****END OF INPUT****

CARTESIAN COORDINATES (ANGSTROEM)
---------------------------------
  C      2.846915   -0.663033    1.195654
  C      2.227336   -1.098769   -0.141879
  C      2.609828    1.053219   -0.475258
  C      3.121448    0.850329    0.957018
  H      2.178856   -0.853337    2.035000
  H      3.764145   -1.226632    1.365866
  H      2.592449    1.492462    1.658541
  H      4.184238    1.081699    1.018337
  C      2.994071   -0.262240   -1.162920
  H      2.621402   -0.358357   -2.183179
  H      4.063051   -0.466350   -1.137895
  H      2.107527   -2.164975   -0.311030
  H      2.892263    1.985279   -0.956164
  N      1.126725    0.959272   -0.409154
  N      0.897394   -0.416668   -0.216256
  C     -0.250998   -0.975076   -0.046955
  C     -1.562290   -0.383599   -0.012628
  C     -1.820392    0.994624    0.079717
  C     -2.638132   -1.286530   -0.033274
  C     -3.125794    1.441977    0.143956
  H     -1.007312    1.702027    0.138784
  C     -3.939154   -0.826669    0.011980
  H     -2.445429   -2.351802   -0.087541
  C     -4.182589    0.538557    0.100263
  H     -3.324681    2.502519    0.227968
  H     -4.763029   -1.527729   -0.012931
  H     -5.202018    0.901775    0.141722
  H      0.682160    1.240956   -1.281894
  H     -0.193948   -2.052503    0.068251

 Total Charge           Charge          ....    1
 Multiplicity           Mult            ....    1
 Number of Electrons    NEL             ....  100
 Basis Dimension        Dim             .... 1810

ORBITAL ENERGIES
----------------

  NO   OCC          E(Eh)            E(eV)
   0   2.0000     -15.831163      -430.7879
   1   2.0000     -15.756813      -428.7647
   2   2.0000     -11.490195      -312.6641
   3   2.0000     -11.435441      -311.1742
   4   2.0000     -11.411941      -310.5347
   5   2.0000     -11.395863      -310.0972
   6   2.0000     -11.388797      -309.9049
   7   2.0000     -11.384593      -309.7905
   8   2.0000     -11.378789      -309.6326
   9   2.0000     -11.373036      -309.4760
  10   2.0000     -11.367173      -309.3165
  11   2.0000     -11.365177      -309.2622
  12   2.0000     -11.364892      -309.2544
  13   2.0000     -11.356544      -309.0273
  14   2.0000      -1.543014       -41.9876
  15   2.0000      -1.341209       -36.4961
  16   2.0000      -1.297537       -35.3078
  17   2.0000      -1.268694       -34.5229
  18   2.0000      -1.191334       -32.4178
  19   2.0000      -1.161713       -31.6118
  20   2.0000      -1.125548       -30.6277
  21   2.0000      -1.104198       -30.0468
  22   2.0000      -1.026286       -27.9267
  23   2.0000      -0.989921       -26.9371
  24   2.0000      -0.966052       -26.2876
  25   2.0000      -0.960618       -26.1397
  26   2.0000      -0.912686       -24.8355
  27   2.0000      -0.887903       -24.1611
  28   2.0000      -0.847624       -23.0650
  29   2.0000      -0.825974       -22.4759
  30   2.0000      -0.806881       -21.9563
  31   2.0000      -0.802471       -21.8364
  32   2.0000      -0.779331       -21.2067
  33   2.0000      -0.756135       -20.5755
  34   2.0000      -0.751902       -20.4603
  35   2.0000      -0.738227       -20.0882
  36   2.0000      -0.729124       -19.8405
  37   2.0000      -0.706357       -19.2209
  38   2.0000      -0.683636       -18.6027
  39   2.0000      -0.664888       -18.0925
  40   2.0000      -0.656202       -17.8562
  41   2.0000      -0.651215       -17.7205
  42   2.0000      -0.639762       -17.4088
  43   2.0000      -0.635547       -17.2941
  44   2.0000      -0.626730       -17.0542
  45   2.0000      -0.617827       -16.8119
  46   2.0000      -0.607690       -16.5361
  47   2.0000      -0.550621       -14.9832
  48   2.0000      -0.478116       -13.0102
  49   2.0000      -0.474775       -12.9193
  50   0.0000      -0.095073        -2.5871
  51   0.0000      -0.072114        -1.9623
  52   0.0000      -0.061033        -1.6608
  53   0.0000      -0.054339        -1.4786
  54   0.0000      -0.053221        -1.4482

MULLIKEN ATOMIC CHARGES
-----------------------
   0 C :   -0.691632
   1 C :   -0.068245
   2 C :    0.112714
   3 C :   -0.636632
   4 H :    0.280603
   5 H :    0.306779
   6 H :    0.304985
   7 H :    0.276857
   8 C :   -0.873718
   9 H :    0.322015
  10 H :    0.286584
  11 H :    0.375017
  12 H :    0.397556
  13 N :   -0.484944
  14 N :   -0.006801
  15 C :    0.601250
  16 C :    0.334728
  17 C :   -0.165953
  18 C :   -0.510773
  19 C :   -0.425250
  20 H :    0.345995
  21 C :   -0.322918
  22 H :    0.231423
  23 C :   -0.433433
  24 H :    0.272483
  25 H :    0.275374
  26 H :    0.338573
  27 H :    0.162485
  28 H :    0.394880
Sum of atomic charges:    1.0000000

LOEWDIN ATOMIC CHARGES
----------------------
   0 C :    0.590449
   1 C :    0.059580
   2 C :    0.032225
   3 C :    0.581663
   4 H :   -0.243636
   5 H :   -0.241558
   6 H :   -0.248505
   7 H :   -0.242932
   8 C :    0.574240
   9 H :   -0.228956
  10 H :   -0.232298
  11 H :   -0.228836
  12 H :   -0.223055
  13 N :    0.841224
  14 N :    0.386969
  15 C :    0.309831
  16 C :   -0.034846
  17 C :    0.370762
  18 C :    0.357901
  19 C :    0.392977
  20 H :   -0.365167
  21 C :    0.390343
  22 H :   -0.304204
  23 C :    0.386082
  24 H :   -0.305149
  25 H :   -0.304842
  26 H :   -0.294205
  27 H :   -0.474280
  28 H :   -0.301779

  Mayer bond orders larger than 0.100000
B(  0-C ,  1-C ) :   0.8215 B(  0-C ,  2-C ) :  -0.1672 B(  0-C ,  3-C ) :   1.0795
B(  0-C ,  4-H ) :   0.9462 B(  0-C ,  5-H ) :   0.9227 B(  1-C ,  2-C ) :  -0.1247
B(  1-C ,  3-C ) :  -0.1438 B(  1-C ,  8-C ) :   0.9248 B(  1-C , 11-H ) :   0.8436
B(  1-C , 14-N ) :   0.7305 B(  1-C , 15-C ) :  -0.1022 B(  2-C ,  3-C ) :   0.7276
B(  2-C ,  8-C ) :   0.9753 B(  2-C , 12-H ) :   0.8233 B(  2-C , 13-N ) :   0.8221
B(  2-C , 14-N ) :  -0.1249 B(  3-C ,  6-H ) :   0.9385 B(  3-C ,  7-H ) :   0.9549
B(  8-C ,  9-H ) :   0.8916 B(  8-C , 10-H ) :   0.9606 B( 13-N , 14-N ) :   0.4000
B( 13-N , 16-C ) :   0.1008 B( 13-N , 17-C ) :  -0.1738 B( 13-N , 20-H ) :   0.1306
B( 13-N , 27-H ) :   1.0420 B( 14-N , 15-C ) :   1.5079 B( 14-N , 16-C ) :   0.2850
B( 14-N , 17-C ) :   0.1310 B( 15-C , 16-C ) :   0.3404 B( 15-C , 17-C ) :  -0.5421
B( 15-C , 18-C ) :  -0.5116 B( 15-C , 20-H ) :   0.1591 B( 15-C , 22-H ) :   0.1006
B( 15-C , 28-H ) :   0.8511 B( 16-C , 17-C ) :   1.1234 B( 16-C , 18-C ) :   1.0056
B( 16-C , 19-C ) :  -0.4285 B( 16-C , 20-H ) :  -0.1436 B( 16-C , 21-C ) :  -0.4538
B( 16-C , 22-H ) :  -0.1259 B( 16-C , 28-H ) :  -0.1959 B( 17-C , 19-C ) :   1.1014
B( 17-C , 20-H ) :   0.7690 B( 17-C , 23-C ) :  -0.1118 B( 18-C , 19-C ) :   0.1636
B( 18-C , 21-C ) :   1.2966 B( 18-C , 22-H ) :   1.0446 B( 18-C , 23-C ) :   0.1306
B( 18-C , 25-H ) :  -0.1574 B( 19-C , 23-C ) :   1.2626 B( 19-C , 24-H ) :   1.0836
B( 19-C , 26-H ) :  -0.1058 B( 21-C , 23-C ) :   1.1780 B( 21-C , 25-H ) :   1.1222
B( 23-C , 25-H ) :  -0.1006 B( 23-C , 26-H ) :   1.0197

MP2 TOTAL ENERGY:     -574.525320244 Eh
FINAL SINGLE POINT ENERGY      -574.525320244278

DIPOLE MOMENT
-------------
                                X             Y             Z
Electronic contribution:     -7.70751      -0.47145      -1.13534
Nuclear contribution   :      8.26700      -0.09297       0.68895
                        -----------------------------------------
Total Dipole Moment    :      0.55948      -0.56442      -0.44639
                        -----------------------------------------
Magnitude (a.u.)       :      0.91151
Magnitude (Debye)      :      2.31688

Rotational constants in cm-1:     0.068066     0.012234     0.011342
Rotational constants in MHz :  2040.553297   366.774233   340.015551

                             ****ORCA TERMINATED NORMALLY****
TOTAL RUN TIME: 0 days 3 hours 13 minutes 55 seconds 288 msec
