                         Program Version 4.2.1 -  RELEASE  -
|  1> %pal
|  2>  nprocs 32
|  3> end
|  4> !RI-MP2 aug-cc-pVQZ aug-cc-pVQZ/C TightSCF
|  5> %maxcore 4500
|  6> *xyzfile 0 2  04_1P.xyz
|  7>
|  8>
|  9>                          ****END OF INPUT****

CARTESIAN COORDINATES (ANGSTROEM)
---------------------------------
  C     -2.347846   -0.113801   -0.134832
  C     -0.917347   -0.352395    0.332656
  H     -0.882737   -0.352355    1.428093
  C      1.496808    0.411362    0.219840
  H      2.180156    1.226104   -0.084264
  O      2.035200   -0.746857   -0.259811
  H     -0.582082   -1.343394    0.013486
  H      1.603288    0.388256    1.321206
  C      0.061647    0.688955   -0.198998
  H     -0.222451    1.686768    0.154799
  H      0.017561    0.716281   -1.292581
  H     -2.712437    0.864718    0.189470
  H     -3.028234   -0.870005    0.261705
  H     -2.414241   -0.146242   -1.225419

 Total Charge           Charge          ....    0
 Multiplicity           Mult            ....    2
 Number of Electrons    NEL             ....   41
 Basis Dimension        Dim             ....  814

ORBITAL ENERGIES
----------------
                 SPIN UP ORBITALS
  NO   OCC          E(Eh)            E(eV)
   0   1.0000     -20.613059      -560.9099
   1   1.0000     -11.278642      -306.9075
   2   1.0000     -11.222351      -305.3757
   3   1.0000     -11.219866      -305.3081
   4   1.0000     -11.213051      -305.1226
   5   1.0000      -1.407221       -38.2924
   6   1.0000      -1.073254       -29.2047
   7   1.0000      -0.975689       -26.5499
   8   1.0000      -0.862300       -23.4644
   9   1.0000      -0.796091       -21.6627
  10   1.0000      -0.706854       -19.2345
  11   1.0000      -0.664002       -18.0684
  12   1.0000      -0.624263       -16.9871
  13   1.0000      -0.614468       -16.7205
  14   1.0000      -0.570680       -15.5290
  15   1.0000      -0.542087       -14.7509
  16   1.0000      -0.524826       -14.2812
  17   1.0000      -0.501629       -13.6500
  18   1.0000      -0.474016       -12.8986
  19   1.0000      -0.466394       -12.6912
  20   1.0000      -0.449657       -12.2358
  21   0.0000       0.026481         0.7206
  22   0.0000       0.030643         0.8338
  23   0.0000       0.034128         0.9287
  24   0.0000       0.038520         1.0482
  25   0.0000       0.049385         1.3438

                 SPIN DOWN ORBITALS
  NO   OCC          E(Eh)            E(eV)
   0   1.0000     -20.573529      -559.8342
   1   1.0000     -11.281550      -306.9866
   2   1.0000     -11.222392      -305.3768
   3   1.0000     -11.219870      -305.3082
   4   1.0000     -11.213064      -305.1230
   5   1.0000      -1.279582       -34.8192
   6   1.0000      -1.067970       -29.0609
   7   1.0000      -0.964681       -26.2503
   8   1.0000      -0.849068       -23.1043
   9   1.0000      -0.788545       -21.4574
  10   1.0000      -0.651863       -17.7381
  11   1.0000      -0.621184       -16.9033
  12   1.0000      -0.603205       -16.4141
  13   1.0000      -0.592387       -16.1197
  14   1.0000      -0.548450       -14.9241
  15   1.0000      -0.522989       -14.2313
  16   1.0000      -0.504193       -13.7198
  17   1.0000      -0.474164       -12.9027
  18   1.0000      -0.471891       -12.8408
  19   1.0000      -0.428725       -11.6662
  20   0.0000       0.026509         0.7214
  21   0.0000       0.030662         0.8343
  22   0.0000       0.034140         0.9290
  23   0.0000       0.038593         1.0502
  24   0.0000       0.049277         1.3409

MULLIKEN ATOMIC CHARGES AND SPIN POPULATIONS
--------------------------------------------
   0 C :   -0.833738   -0.000753
   1 C :   -0.351021    0.000522
   2 H :    0.228179   -0.001096
   3 C :    0.093877   -0.201859
   4 H :    0.260894    0.085577
   5 O :   -0.572681    1.037875
   6 H :    0.262961   -0.003946
   7 H :    0.207834    0.077094
   8 C :   -0.491027    0.012310
   9 H :    0.247685   -0.003366
  10 H :    0.243757   -0.002584
  11 H :    0.224629    0.000085
  12 H :    0.249443    0.000125
  13 H :    0.229208    0.000017
Sum of atomic charges         :   -0.0000000

LOEWDIN ATOMIC CHARGES AND SPIN POPULATIONS
-------------------------------------------
   0 C :    0.921280   -0.000112
   1 C :    0.480580    0.000590
   2 H :   -0.275004    0.000206
   3 C :   -0.019175    0.172463
   4 H :   -0.331058    0.029053
   5 O :    0.789153    0.773249
   6 H :   -0.285176    0.000265
   7 H :   -0.330485    0.025637
   8 C :    0.462363   -0.000247
   9 H :   -0.276105   -0.000004
  10 H :   -0.284592   -0.001033
  11 H :   -0.284283   -0.000021
  12 H :   -0.282948   -0.000013
  13 H :   -0.284550   -0.000032

  Mayer bond orders larger than 0.100000
B(  0-C ,  1-C ) :   0.9490 B(  0-C , 11-H ) :   0.9557 B(  0-C , 12-H ) :   1.0159
B(  0-C , 13-H ) :   0.9465 B(  1-C ,  2-H ) :   0.8866 B(  1-C ,  6-H ) :   0.8714
B(  1-C ,  8-C ) :   0.8758 B(  3-C ,  4-H ) :   0.9409 B(  3-C ,  5-O ) :   0.5834
B(  3-C ,  7-H ) :   0.9137 B(  3-C ,  8-C ) :   1.0203 B(  8-C ,  9-H ) :   0.9036
B(  8-C , 10-H ) :   0.8615

MP2 TOTAL ENERGY:     -232.587989025 Eh
FINAL SINGLE POINT ENERGY      -232.587989024928

DIPOLE MOMENT
-------------
                                X             Y             Z
Electronic contribution:      5.99532      -1.68469      -0.55692
Nuclear contribution   :     -6.32847       2.27307       0.80292
                        -----------------------------------------
Total Dipole Moment    :     -0.33315       0.58838       0.24600
                        -----------------------------------------
Magnitude (a.u.)       :      0.71951
Magnitude (Debye)      :      1.82885

Rotational constants in cm-1:     0.449976     0.079869     0.074272
Rotational constants in MHz : 13489.935003  2394.418998  2226.631613

                             ****ORCA TERMINATED NORMALLY****
TOTAL RUN TIME: 0 days 0 hours 29 minutes 21 seconds 255 msec
