                         Program Version 4.2.1 -  RELEASE  -
|  1> %pal
|  2>  nprocs 320
|  3> end
|  4> !RI-MP2 aug-cc-pVQZ aug-cc-pVQZ/C TightSCF MORead KDIIS NOSOSCF
|  5> %maxcore 4500
|  6> %moinp "10_73P.gbw"
|  7> %scf
|  8> DIISMaxEq 15
|  9> directresetfreq 10
| 10> end
| 11> *xyzfile 0 1  10_73P.xyz
| 12>
| 13>
| 14>                          ****END OF INPUT****

CARTESIAN COORDINATES (ANGSTROEM)
---------------------------------
  C     -3.359688   -1.579835   -0.509409
  C     -4.744073   -1.553826    0.133322
  C     -5.226808   -0.138362    0.412397
  C     -4.208077    0.644910    1.228615
  C     -2.803620    0.642538    0.615928
  C     -2.328458   -0.819619    0.348173
  H     -5.458446   -2.063323   -0.516699
  H     -4.711577   -2.099902    1.080597
  H     -3.023642   -2.617236   -0.585479
  H     -4.553810    1.675932    1.362110
  H     -4.165671    0.205515    2.232180
  H     -6.178426   -0.177948    0.953722
  O     -5.453012    0.478998   -0.865831
  H     -5.713815    1.395565   -0.740613
  O     -3.395621   -1.092778   -1.842447
  H     -4.055251   -0.388154   -1.886610
  C     -0.991817   -0.789864   -0.322774
  C     -1.847465    1.377961    1.510645
  H     -2.006507    1.249262    2.579588
  C      0.211860   -0.839453    0.244308
  C      0.452824   -1.127070    1.700353
  H      1.123081   -1.980909    1.831214
  H     -0.469036   -1.351708    2.231756
  H      0.915622   -0.275939    2.207817
  C      1.407901   -0.424881   -0.583125
  C      1.724905    1.083610   -0.268959
  C      2.665301   -1.317291   -0.429905
  C      3.721319   -0.583396    0.394987
  H      2.391633   -2.212271    0.133841
  H      3.286792   -0.300616    1.360661
  C     -0.800968    2.099647    1.119281
  H     -0.157505    2.522208    1.888176
  C      3.187690   -1.762014   -1.795796
  H      2.391328   -2.260740   -2.351234
  H      3.529085   -0.910831   -2.388904
  H      4.018468   -2.463023   -1.705984
  C      5.004238   -1.347495    0.655955
  H      4.734457   -2.329026    1.058495
  H      5.512549   -1.518942   -0.294993
  C      5.935544   -0.619233    1.617613
  H      5.459621   -0.470531    2.590837
  H      6.853275   -1.187296    1.779424
  H      6.207800    0.359977    1.222001
  O      4.100361    0.628082   -0.292387
  C      3.125080    1.450656   -0.720906
  O      3.400263    2.399292   -1.399801
  C      0.700643    1.992702   -0.874633
  C     -0.422702    2.384244   -0.281933
  H     -2.274196   -1.334662    1.313045
  H     -2.836665    1.143498   -0.355757
  H      1.102800   -0.455099   -1.630601
  H      1.724509    1.199405    0.819710
  H      0.889979    2.289243   -1.900177
  H     -1.125634    2.973104   -0.865902
  H     -1.048512   -0.567889   -1.383303

 Total Charge           Charge          ....    0
 Multiplicity           Mult            ....    1
 Number of Electrons    NEL             ....  188
 Basis Dimension        Dim             .... 3380

ORBITAL ENERGIES
----------------

  NO   OCC          E(Eh)            E(eV)
   0   2.0000     -20.587685      -560.2194
   1   2.0000     -20.575916      -559.8991
   2   2.0000     -20.536082      -558.8152
   3   2.0000     -20.527259      -558.5751
   4   2.0000     -11.366771      -309.3056
   5   2.0000     -11.295207      -307.3582
   6   2.0000     -11.294238      -307.3318
   7   2.0000     -11.277052      -306.8642
   8   2.0000     -11.252370      -306.1926
   9   2.0000     -11.244735      -305.9848
  10   2.0000     -11.238930      -305.8268
  11   2.0000     -11.238576      -305.8172
  12   2.0000     -11.236405      -305.7581
  13   2.0000     -11.233021      -305.6660
  14   2.0000     -11.232966      -305.6645
  15   2.0000     -11.230899      -305.6083
  16   2.0000     -11.229674      -305.5750
  17   2.0000     -11.229389      -305.5672
  18   2.0000     -11.228458      -305.5419
  19   2.0000     -11.228208      -305.5351
  20   2.0000     -11.227583      -305.5181
  21   2.0000     -11.225305      -305.4561
  22   2.0000     -11.217681      -305.2486
  23   2.0000     -11.214469      -305.1612
  24   2.0000     -11.212647      -305.1116
  25   2.0000      -1.451395       -39.4945
  26   2.0000      -1.384963       -37.6868
  27   2.0000      -1.355167       -36.8760
  28   2.0000      -1.348021       -36.6815
  29   2.0000      -1.153996       -31.4018
  30   2.0000      -1.131031       -30.7769
  31   2.0000      -1.099338       -29.9145
  32   2.0000      -1.084805       -29.5191
  33   2.0000      -1.066074       -29.0093
  34   2.0000      -1.039917       -28.2976
  35   2.0000      -1.012513       -27.5519
  36   2.0000      -1.008892       -27.4533
  37   2.0000      -0.973798       -26.4984
  38   2.0000      -0.942986       -25.6599
  39   2.0000      -0.937310       -25.5055
  40   2.0000      -0.896146       -24.3854
  41   2.0000      -0.869659       -23.6646
  42   2.0000      -0.852498       -23.1976
  43   2.0000      -0.827003       -22.5039
  44   2.0000      -0.820010       -22.3136
  45   2.0000      -0.799805       -21.7638
  46   2.0000      -0.770877       -20.9766
  47   2.0000      -0.738844       -20.1050
  48   2.0000      -0.733845       -19.9689
  49   2.0000      -0.723234       -19.6802
  50   2.0000      -0.710734       -19.3400
  51   2.0000      -0.702469       -19.1151
  52   2.0000      -0.680711       -18.5231
  53   2.0000      -0.672979       -18.3127
  54   2.0000      -0.657048       -17.8792
  55   2.0000      -0.656280       -17.8583
  56   2.0000      -0.644419       -17.5355
  57   2.0000      -0.633946       -17.2506
  58   2.0000      -0.625329       -17.0161
  59   2.0000      -0.617403       -16.8004
  60   2.0000      -0.611896       -16.6505
  61   2.0000      -0.604600       -16.4520
  62   2.0000      -0.601205       -16.3596
  63   2.0000      -0.592325       -16.1180
  64   2.0000      -0.587124       -15.9765
  65   2.0000      -0.581752       -15.8303
  66   2.0000      -0.574470       -15.6321
  67   2.0000      -0.571577       -15.5534
  68   2.0000      -0.567134       -15.4325
  69   2.0000      -0.550437       -14.9782
  70   2.0000      -0.545471       -14.8430
  71   2.0000      -0.539860       -14.6903
  72   2.0000      -0.536543       -14.6001
  73   2.0000      -0.531768       -14.4702
  74   2.0000      -0.528705       -14.3868
  75   2.0000      -0.517185       -14.0733
  76   2.0000      -0.512936       -13.9577
  77   2.0000      -0.505313       -13.7503
  78   2.0000      -0.499124       -13.5819
  79   2.0000      -0.497213       -13.5299
  80   2.0000      -0.496589       -13.5129
  81   2.0000      -0.489585       -13.3223
  82   2.0000      -0.483874       -13.1669
  83   2.0000      -0.477006       -12.9800
  84   2.0000      -0.466465       -12.6932
  85   2.0000      -0.460990       -12.5442
  86   2.0000      -0.459352       -12.4996
  87   2.0000      -0.439276       -11.9533
  88   2.0000      -0.433188       -11.7876
  89   2.0000      -0.428893       -11.6708
  90   2.0000      -0.413539       -11.2530
  91   2.0000      -0.381891       -10.3918
  92   2.0000      -0.336864        -9.1665
  93   2.0000      -0.333779        -9.0826
  94   0.0000       0.013763         0.3745
  95   0.0000       0.019153         0.5212
  96   0.0000       0.024226         0.6592
  97   0.0000       0.024991         0.6801
  98   0.0000       0.030476         0.8293

MULLIKEN ATOMIC CHARGES
-----------------------
   0 C :    0.557956
   1 C :   -1.060913
   2 C :    0.579847
   3 C :   -0.887199
   4 C :    1.780409
   5 C :    0.947311
   6 H :    0.135689
   7 H :    0.164624
   8 H :    0.293254
   9 H :    0.193319
  10 H :    0.099939
  11 H :    0.310586
  12 O :   -1.053958
  13 H :    0.270087
  14 O :   -1.421020
  15 H :    0.488142
  16 C :   -0.544918
  17 C :   -0.844553
  18 H :    0.025755
  19 C :    0.639039
  20 C :   -1.176066
  21 H :    0.150188
  22 H :    0.209837
  23 H :    0.165691
  24 C :    0.586878
  25 C :    0.072445
  26 C :   -0.322605
  27 C :    1.429020
  28 H :    0.326928
  29 H :    0.193386
  30 C :   -0.444317
  31 H :    0.292105
  32 C :   -1.220154
  33 H :    0.213512
  34 H :    0.154522
  35 H :    0.180238
  36 C :   -0.789322
  37 H :    0.159711
  38 H :    0.148409
  39 C :   -0.921487
  40 H :    0.182123
  41 H :    0.280919
  42 H :    0.230340
  43 O :   -1.293750
  44 C :    1.879969
  45 O :   -1.201470
  46 C :   -0.756875
  47 C :   -0.432403
  48 H :    0.135033
  49 H :    0.201387
  50 H :    0.102865
  51 H :    0.386518
  52 H :    0.112812
  53 H :    0.231097
  54 H :   -0.140882
Sum of atomic charges:   -0.0000000

LOEWDIN ATOMIC CHARGES
----------------------
   0 C :   -0.170195
   1 C :    0.525866
   2 C :   -0.139923
   3 C :    0.528451
   4 C :    0.118862
   5 C :    0.133071
   6 H :   -0.258686
   7 H :   -0.257364
   8 H :   -0.287373
   9 H :   -0.250586
  10 H :   -0.261248
  11 H :   -0.270677
  12 O :    1.349410
  13 H :   -0.734771
  14 O :    1.335333
  15 H :   -0.945537
  16 C :    0.402160
  17 C :    0.386623
  18 H :   -0.299575
  19 C :    0.035760
  20 C :    0.943464
  21 H :   -0.273350
  22 H :   -0.304084
  23 H :   -0.276790
  24 C :    0.147077
  25 C :    0.069052
  26 C :    0.149278
  27 C :   -0.207612
  28 H :   -0.298324
  29 H :   -0.307733
  30 C :    0.371347
  31 H :   -0.310994
  32 C :    0.959434
  33 H :   -0.259025
  34 H :   -0.261187
  35 H :   -0.276003
  36 C :    0.507672
  37 H :   -0.257142
  38 H :   -0.285486
  39 C :    0.945029
  40 H :   -0.277276
  41 H :   -0.276647
  42 H :   -0.286283
  43 O :    0.906751
  44 C :   -1.019473
  45 O :    0.712900
  46 C :    0.371830
  47 C :    0.384426
  48 H :   -0.304592
  49 H :   -0.303144
  50 H :   -0.329019
  51 H :   -0.343198
  52 H :   -0.316766
  53 H :   -0.312820
  54 H :   -0.320912

  Mayer bond orders larger than 0.100000
B(  0-C ,  1-C ) :   0.8821 B(  0-C ,  5-C ) :   0.5946 B(  0-C ,  6-H ) :  -0.1153
B(  0-C ,  8-H ) :   1.1016 B(  0-C , 16-C ) :  -0.3255 B(  0-C , 48-H ) :  -0.1220
B(  1-C ,  2-C ) :   0.7527 B(  1-C ,  4-C ) :   0.1042 B(  1-C ,  5-C ) :  -0.4061
B(  1-C ,  6-H ) :   1.1537 B(  1-C ,  7-H ) :   1.1499 B(  1-C , 12-O ) :   0.2220
B(  1-C , 14-O ) :   0.2562 B(  2-C ,  3-C ) :   0.9790 B(  2-C ,  4-C ) :  -0.1450
B(  2-C , 11-H ) :   1.0167 B(  2-C , 12-O ) :   0.1734 B(  3-C ,  4-C ) :  -0.3793
B(  3-C ,  5-C ) :   0.1632 B(  3-C ,  9-H ) :   1.2141 B(  3-C , 10-H ) :   1.3130
B(  3-C , 49-H ) :  -0.1003 B(  4-C ,  5-C ) :   0.8103 B(  4-C ,  9-H ) :  -0.2589
B(  4-C , 10-H ) :  -0.2851 B(  4-C , 12-O ) :  -0.2121 B(  4-C , 16-C ) :   0.2387
B(  4-C , 17-C ) :  -0.5240 B(  4-C , 18-H ) :  -0.1272 B(  4-C , 30-C ) :  -0.6301
B(  4-C , 46-C ) :   0.1113 B(  4-C , 49-H ) :   1.0787 B(  5-C ,  7-H ) :  -0.1391
B(  5-C ,  8-H ) :  -0.1543 B(  5-C , 19-C ) :  -0.1997 B(  5-C , 20-C ) :  -0.3389
B(  5-C , 22-H ) :  -0.1433 B(  5-C , 24-C ) :   0.1037 B(  5-C , 48-H ) :   1.0118
B( 12-O , 13-H ) :   0.9859 B( 12-O , 49-H ) :   0.1619 B( 14-O , 15-H ) :   0.7292
B( 14-O , 16-C ) :  -0.2870 B( 16-C , 19-C ) :   1.3112 B( 16-C , 20-C ) :   0.1082
B( 16-C , 24-C ) :  -0.4050 B( 16-C , 26-C ) :   0.1003 B( 16-C , 48-H ) :  -0.1518
B( 16-C , 50-H ) :  -0.2065 B( 16-C , 54-H ) :   1.7673 B( 17-C , 18-H ) :   1.3667
B( 17-C , 19-C ) :   0.1271 B( 17-C , 30-C ) :   1.8655 B( 17-C , 31-H ) :  -0.1928
B( 17-C , 47-C ) :  -0.2058 B( 17-C , 49-H ) :  -0.1762 B( 19-C , 20-C ) :   0.1888
B( 19-C , 21-H ) :  -0.2209 B( 19-C , 23-H ) :  -0.2899 B( 19-C , 24-C ) :   0.4825
B( 19-C , 25-C ) :   0.1627 B( 19-C , 30-C ) :   0.1029 B( 19-C , 47-C ) :  -0.1432
B( 19-C , 49-H ) :  -0.1318 B( 19-C , 50-H ) :  -0.1304 B( 19-C , 54-H ) :  -0.4723
B( 20-C , 21-H ) :   1.2240 B( 20-C , 22-H ) :   1.1181 B( 20-C , 23-H ) :   1.2231
B( 21-H , 23-H ) :   0.1429 B( 24-C , 25-C ) :   0.7077 B( 24-C , 26-C ) :   0.7004
B( 24-C , 27-C ) :   0.1188 B( 24-C , 28-H ) :  -0.1116 B( 24-C , 32-C ) :  -0.3677
B( 24-C , 33-H ) :  -0.1241 B( 24-C , 43-O ) :  -0.1253 B( 24-C , 44-C ) :   0.1078
B( 24-C , 45-O ) :   0.1613 B( 24-C , 47-C ) :   0.1555 B( 24-C , 50-H ) :   1.1418
B( 24-C , 51-H ) :  -0.1228 B( 25-C , 43-O ) :   0.1350 B( 25-C , 44-C ) :   1.4209
B( 25-C , 45-O ) :   0.5841 B( 25-C , 47-C ) :  -0.4419 B( 25-C , 51-H ) :   1.0141
B( 26-C , 27-C ) :   0.8205 B( 26-C , 28-H ) :   0.9095 B( 26-C , 32-C ) :   0.3761
B( 26-C , 34-H ) :  -0.3152 B( 26-C , 35-H ) :  -0.1730 B( 26-C , 43-O ) :   0.2776
B( 27-C , 29-H ) :   0.9446 B( 27-C , 36-C ) :  -0.1022 B( 27-C , 37-H ) :  -0.1142
B( 27-C , 38-H ) :  -0.2487 B( 27-C , 39-C ) :  -0.1237 B( 27-C , 43-O ) :  -0.6469
B( 27-C , 44-C ) :  -0.1571 B( 29-H , 43-O ) :   0.1827 B( 30-C , 31-H ) :   1.1675
B( 30-C , 46-C ) :  -0.2184 B( 30-C , 47-C ) :   1.0182 B( 30-C , 53-H ) :  -0.1493
B( 31-H , 47-C ) :  -0.2217 B( 32-C , 33-H ) :   1.1430 B( 32-C , 34-H ) :   1.2150
B( 32-C , 35-H ) :   1.2047 B( 36-C , 37-H ) :   1.1394 B( 36-C , 38-H ) :   1.1620
B( 36-C , 39-C ) :   0.8899 B( 36-C , 41-H ) :  -0.1371 B( 36-C , 43-O ) :   0.1833
B( 39-C , 40-H ) :   1.0094 B( 39-C , 41-H ) :   1.0473 B( 39-C , 42-H ) :   0.9609
B( 43-O , 44-C ) :   1.0081 B( 43-O , 45-O ) :   0.2386 B( 44-C , 45-O ) :  -0.1844
B( 44-C , 46-C ) :  -0.1885 B( 44-C , 51-H ) :  -0.1217 B( 45-O , 46-C ) :   0.1445
B( 45-O , 51-H ) :  -0.1008 B( 46-C , 47-C ) :   1.9587 B( 46-C , 51-H ) :  -0.1214
B( 46-C , 52-H ) :   1.2590 B( 46-C , 53-H ) :  -0.1527 B( 47-C , 53-H ) :   1.1182
B( 48-H , 49-H ) :   0.1560

MP2 TOTAL ENERGY:    -1117.336950979 Eh
FINAL SINGLE POINT ENERGY     -1117.336950978696

DIPOLE MOMENT
-------------
                                X             Y             Z
Electronic contribution:     -3.92230      11.08919      -8.19128
Nuclear contribution   :      2.38572     -12.14161      10.15977
                        -----------------------------------------
Total Dipole Moment    :     -1.53658      -1.05242       1.96849
                        -----------------------------------------
Magnitude (a.u.)       :      2.70991
Magnitude (Debye)      :      6.88805

Rotational constants in cm-1:     0.016575     0.003841     0.003638
Rotational constants in MHz :   496.919091   115.155187   109.059235

                             ****ORCA TERMINATED NORMALLY****
TOTAL RUN TIME: 0 days 4 hours 27 minutes 16 seconds 545 msec
