                         Program Version 4.2.1 -  RELEASE  -
|  1> %pal
|  2>  nprocs 32
|  3> end
|  4> !RI-MP2 aug-cc-pVQZ aug-cc-pVQZ/C TightSCF
|  5> %maxcore 4500
|  6> *xyzfile 0 1  04_52P2.xyz
|  7>
|  8>
|  9>                          ****END OF INPUT****

CARTESIAN COORDINATES (ANGSTROEM)
---------------------------------
  C      0.285810   -1.199707   -0.013410
  C     -1.100006   -1.190044    0.002830
  C     -1.817117    0.003068    0.010285
  C     -1.095159    1.192644    0.015270
  C      0.291498    1.197341    0.015436
  C      0.993701   -0.002361   -0.007482
  H      0.818582   -2.142951   -0.035730
  H      0.823186    2.141085    0.039557
  H     -1.625066    2.138833    0.029272
  H     -1.633837   -2.134153    0.002502
  C     -3.321215    0.004716   -0.012675
  S      2.771810   -0.076508    0.024147
  H      2.990825    1.173645   -0.413199
  H     -3.723269    0.919287    0.425667
  H     -3.727264   -0.843042    0.541634
  H     -3.697203   -0.062514   -1.037573

 Total Charge           Charge          ....    0
 Multiplicity           Mult            ....    1
 Number of Electrons    NEL             ....   66
 Basis Dimension        Dim             .... 1012

ORBITAL ENERGIES
----------------

  NO   OCC          E(Eh)            E(eV)
   0   2.0000     -91.961781     -2502.4073
   1   2.0000     -11.269966      -306.6714
   2   2.0000     -11.241958      -305.9092
   3   2.0000     -11.239687      -305.8474
   4   2.0000     -11.238334      -305.8106
   5   2.0000     -11.235419      -305.7313
   6   2.0000     -11.234901      -305.7172
   7   2.0000     -11.226229      -305.4812
   8   2.0000      -8.964108      -243.9258
   9   2.0000      -6.645760      -180.8403
  10   2.0000      -6.644812      -180.8145
  11   2.0000      -6.643883      -180.7892
  12   2.0000      -1.169399       -31.8210
  13   2.0000      -1.073730       -29.2177
  14   2.0000      -1.022595       -27.8262
  15   2.0000      -0.984716       -26.7955
  16   2.0000      -0.906967       -24.6798
  17   2.0000      -0.839125       -22.8337
  18   2.0000      -0.793369       -21.5887
  19   2.0000      -0.678449       -18.4615
  20   2.0000      -0.653108       -17.7720
  21   2.0000      -0.634880       -17.2760
  22   2.0000      -0.592418       -16.1205
  23   2.0000      -0.581215       -15.8157
  24   2.0000      -0.567014       -15.4292
  25   2.0000      -0.545797       -14.8519
  26   2.0000      -0.521224       -14.1832
  27   2.0000      -0.506336       -13.7781
  28   2.0000      -0.494467       -13.4551
  29   2.0000      -0.465047       -12.6546
  30   2.0000      -0.404586       -11.0093
  31   2.0000      -0.345424        -9.3995
  32   2.0000      -0.303133        -8.2487
  33   0.0000       0.024840         0.6759
  34   0.0000       0.027983         0.7615
  35   0.0000       0.031063         0.8453
  36   0.0000       0.039803         1.0831
  37   0.0000       0.041664         1.1337

MULLIKEN ATOMIC CHARGES
-----------------------
   0 C :   -0.129510
   1 C :   -0.291476
   2 C :    0.386254
   3 C :   -0.295085
   4 C :   -0.260479
   5 C :   -0.248928
   6 H :    0.323351
   7 H :    0.248787
   8 H :    0.252722
   9 H :    0.271794
  10 C :   -0.801566
  11 S :   -0.206440
  12 H :    0.023974
  13 H :    0.220801
  14 H :    0.221575
  15 H :    0.284225
Sum of atomic charges:    0.0000000

LOEWDIN ATOMIC CHARGES
----------------------
   0 C :    0.220515
   1 C :    0.334920
   2 C :   -0.081722
   3 C :    0.337514
   4 C :    0.239379
   5 C :   -0.563087
   6 H :   -0.346575
   7 H :   -0.348748
   8 H :   -0.316726
   9 H :   -0.315141
  10 C :    0.904445
  11 S :    1.596911
  12 H :   -0.786734
  13 H :   -0.300958
  14 H :   -0.296417
  15 H :   -0.277576

  Mayer bond orders larger than 0.100000
B(  0-C ,  1-C ) :   1.3439 B(  0-C ,  2-C ) :  -0.1520 B(  0-C ,  3-C ) :   0.1241
B(  0-C ,  5-C ) :   0.9581 B(  0-C ,  6-H ) :   0.9837 B(  0-C ,  9-H ) :  -0.1267
B(  0-C , 11-S ) :  -0.2573 B(  1-C ,  2-C ) :   0.9721 B(  1-C ,  3-C ) :  -0.1086
B(  1-C ,  4-C ) :   0.1305 B(  1-C ,  6-H ) :  -0.1128 B(  1-C ,  9-H ) :   1.0123
B(  2-C ,  3-C ) :   0.9826 B(  2-C ,  4-C ) :  -0.1639 B(  2-C ,  9-H ) :  -0.1043
B(  2-C , 10-C ) :   0.7294 B(  2-C , 13-H ) :  -0.1115 B(  2-C , 14-H ) :  -0.1058
B(  3-C ,  4-C ) :   1.3671 B(  3-C ,  7-H ) :  -0.1170 B(  3-C ,  8-H ) :   1.0306
B(  4-C ,  5-C ) :   0.9722 B(  4-C ,  7-H ) :   1.0351 B(  4-C ,  8-H ) :  -0.1361
B(  4-C , 11-S ) :  -0.1276 B(  5-C ,  6-H ) :  -0.1001 B(  5-C ,  7-H ) :  -0.1069
B(  5-C , 11-S ) :   0.9420 B(  5-C , 12-H ) :  -0.1019 B( 10-C , 13-H ) :   1.0399
B( 10-C , 14-H ) :   1.0355 B( 10-C , 15-H ) :   0.9389 B( 11-S , 12-H ) :   1.1061

MP2 TOTAL ENERGY:     -668.790547888 Eh
FINAL SINGLE POINT ENERGY      -668.790547887514

DIPOLE MOMENT
-------------
                                X             Y             Z
Electronic contribution:      9.22740      -0.89802       0.33212
Nuclear contribution   :     -9.83987       1.19017      -0.44772
                        -----------------------------------------
Total Dipole Moment    :     -0.61247       0.29215      -0.11560
                        -----------------------------------------
Magnitude (a.u.)       :      0.68835
Magnitude (Debye)      :      1.74965

Rotational constants in cm-1:     0.183374     0.032433     0.027719
Rotational constants in MHz :  5497.411542   972.319848   830.988891

                             ****ORCA TERMINATED NORMALLY****
TOTAL RUN TIME: 0 days 0 hours 30 minutes 34 seconds 466 msec
