                         Program Version 4.2.1 -  RELEASE  -
|  1> %pal
|  2>  nprocs 32
|  3> end
|  4> !RI-MP2 aug-cc-pVQZ aug-cc-pVQZ/C TightSCF
|  5> %maxcore 4500
|  6> *xyzfile 1 1  05_7R2.xyz
|  7>
|  8>
|  9>                          ****END OF INPUT****

CARTESIAN COORDINATES (ANGSTROEM)
---------------------------------
  C     -0.218320    1.198986   -0.008700
  C     -0.940394    0.000000   -0.011484
  H      1.762757   -2.071418    0.003676
  H     -0.729628    2.152327   -0.016153
  C     -2.431850    0.000000    0.005370
  C      1.152034    1.179007    0.001631
  C     -0.218321   -1.198985   -0.008700
  N      1.800386   -0.000000    0.006785
  C      1.152033   -1.179007    0.001631
  H     -0.729629   -2.152327   -0.016153
  H     -2.837160   -0.888066   -0.478073
  H     -2.837161    0.888083   -0.478042
  H     -2.780533   -0.000018    1.043069
  H      1.762758    2.071417    0.003676
  H      2.814799   -0.000000    0.012011

 Total Charge           Charge          ....    1
 Multiplicity           Mult            ....    1
 Number of Electrons    NEL             ....   50
 Basis Dimension        Dim             ....  928

ORBITAL ENERGIES
----------------

  NO   OCC          E(Eh)            E(eV)
   0   2.0000     -15.845636      -431.1817
   1   2.0000     -11.494993      -312.7946
   2   2.0000     -11.494964      -312.7939
   3   2.0000     -11.464579      -311.9671
   4   2.0000     -11.424583      -310.8787
   5   2.0000     -11.424558      -310.8780
   6   2.0000     -11.382952      -309.7459
   7   2.0000      -1.521581       -41.4043
   8   2.0000      -1.312161       -35.7057
   9   2.0000      -1.252578       -34.0844
  10   2.0000      -1.158736       -31.5308
  11   2.0000      -1.075223       -29.2583
  12   2.0000      -1.029773       -28.0215
  13   2.0000      -0.974448       -26.5161
  14   2.0000      -0.885650       -24.0998
  15   2.0000      -0.852295       -23.1921
  16   2.0000      -0.813126       -22.1263
  17   2.0000      -0.809269       -22.0213
  18   2.0000      -0.789690       -21.4886
  19   2.0000      -0.731665       -19.9096
  20   2.0000      -0.730233       -19.8706
  21   2.0000      -0.701263       -19.0823
  22   2.0000      -0.690582       -18.7917
  23   2.0000      -0.577193       -15.7062
  24   2.0000      -0.552730       -15.0406
  25   0.0000      -0.110254        -3.0002
  26   0.0000      -0.090973        -2.4755
  27   0.0000      -0.071918        -1.9570
  28   0.0000      -0.068580        -1.8662
  29   0.0000      -0.068131        -1.8539

MULLIKEN ATOMIC CHARGES
-----------------------
   0 C :   -0.301243
   1 C :    0.551299
   2 H :    0.474715
   3 H :    0.350386
   4 C :   -0.795281
   5 C :   -0.139906
   6 C :   -0.301220
   7 N :   -0.445411
   8 C :   -0.139921
   9 H :    0.350385
  10 H :    0.241736
  11 H :    0.241733
  12 H :    0.311731
  13 H :    0.474724
  14 H :    0.126272
Sum of atomic charges:    1.0000000

LOEWDIN ATOMIC CHARGES
----------------------
   0 C :    0.421877
   1 C :   -0.016108
   2 H :   -0.259172
   3 H :   -0.296122
   4 C :    0.963668
   5 C :    0.323999
   6 C :    0.421876
   7 N :    0.887414
   8 C :    0.323999
   9 H :   -0.296121
  10 H :   -0.275919
  11 H :   -0.275920
  12 H :   -0.254288
  13 H :   -0.259173
  14 H :   -0.410012

  Mayer bond orders larger than 0.100000
B(  0-C ,  1-C ) :   1.0116 B(  0-C ,  3-H ) :   0.9297 B(  0-C ,  5-C ) :   1.3454
B(  1-C ,  4-C ) :   0.7346 B(  1-C ,  5-C ) :  -0.2487 B(  1-C ,  6-C ) :   1.0116
B(  1-C ,  8-C ) :  -0.2487 B(  1-C , 10-H ) :  -0.1208 B(  1-C , 11-H ) :  -0.1208
B(  2-H ,  8-C ) :   0.8862 B(  3-H ,  5-C ) :  -0.1135 B(  4-C , 10-H ) :   1.0244
B(  4-C , 11-H ) :   1.0244 B(  4-C , 12-H ) :   0.8842 B(  5-C ,  7-N ) :   0.9918
B(  5-C , 13-H ) :   0.8862 B(  6-C ,  8-C ) :   1.3454 B(  6-C ,  9-H ) :   0.9297
B(  7-N ,  8-C ) :   0.9918 B(  7-N , 14-H ) :   1.1871 B(  8-C ,  9-H ) :  -0.1135

MP2 TOTAL ENERGY:     -287.456531779 Eh
FINAL SINGLE POINT ENERGY      -287.456531778683

DIPOLE MOMENT
-------------
                                X             Y             Z
Electronic contribution:      4.70084       0.00000      -0.04516
Nuclear contribution   :     -3.62548      -0.00000       0.07535
                        -----------------------------------------
Total Dipole Moment    :      1.07536      -0.00000       0.03018
                        -----------------------------------------
Magnitude (a.u.)       :      1.07578
Magnitude (Debye)      :      2.73441

Rotational constants in cm-1:     0.189269     0.083929     0.058779
Rotational constants in MHz :  5674.153183  2516.120668  1762.140421

                             ****ORCA TERMINATED NORMALLY****
TOTAL RUN TIME: 0 days 0 hours 19 minutes 11 seconds 342 msec
