                         Program Version 4.2.1 -  RELEASE  -
|  1> %pal
|  2>  nprocs 32
|  3> end
|  4> !RI-MP2 aug-cc-pVQZ aug-cc-pVQZ/C TightSCF
|  5> %maxcore 4500
|  6> *xyzfile 0 1  10_45P.xyz
|  7>
|  8>
|  9>                          ****END OF INPUT****

CARTESIAN COORDINATES (ANGSTROEM)
---------------------------------
  C     -0.031107   -2.303322   -0.695531
  H     -0.171949   -2.533942   -1.772709
  C      1.222524   -1.497332   -0.540921
  C     -0.098567    0.461391    0.114504
  H     -0.279110    0.508781    1.193212
  H     -0.093417    1.485107   -0.243700
  C     -1.270249   -0.270980   -0.535949
  H     -1.149529   -0.195303   -1.635380
  N     -1.201929   -1.666774   -0.134221
  C      2.536622    0.487411    0.022653
  C      2.512645   -2.216549   -0.820579
  C      3.623546   -0.274570    0.196639
  C      3.584616   -1.779671    0.171181
  C      1.225199   -0.212086   -0.164479
  C      3.355905   -2.349600    1.576034
  H      3.369858   -3.442932    1.561010
  H      4.134006   -2.011077    2.263407
  H      2.392264   -2.022880    1.972392
  C     -2.415284   -2.408856   -0.407954
  H     -2.697603   -2.343461   -1.475171
  H     -2.231066   -3.462712   -0.187203
  C     -2.599969    0.369252   -0.183692
  C     -3.668961   -0.383341    0.302284
  C     -3.534680   -1.874394    0.464042
  H     -3.313558   -2.116197    1.508070
  H     -4.480260   -2.360343    0.210044
  H      0.105806   -3.267827   -0.195335
  C     -4.869490    0.253361    0.612208
  H     -5.696095   -0.340516    0.988098
  C     -2.773835    1.739907   -0.377517
  H     -1.962062    2.331599   -0.783946
  C     -5.025044    1.617125    0.438526
  H     -5.966247    2.094069    0.684028
  C     -3.969643    2.364515   -0.068629
  H     -4.079784    3.430633   -0.226299
  C      2.649086    2.019513   -0.013585
  C      2.104148    2.543375   -1.355400
  H      1.073100    2.251865   -1.547670
  H      2.709470    2.159473   -2.179710
  H      2.152659    3.635192   -1.380686
  C      4.109406    2.486123    0.069562
  H      4.570552    2.216738    1.021752
  H      4.140928    3.574670   -0.013111
  H      4.715500    2.072978   -0.738599
  C      1.924567    2.676642    1.176863
  H      2.322895    2.290137    2.117772
  H      0.850243    2.515912    1.181129
  H      2.094656    3.756446    1.159355
  H      2.846332   -1.982567   -1.839776
  H      2.366208   -3.299672   -0.776859
  H      4.552892   -2.141686   -0.186864
  H      4.588205    0.177445    0.380722

 Total Charge           Charge          ....    0
 Multiplicity           Mult            ....    1
 Number of Electrons    NEL             ....  168
 Basis Dimension        Dim             .... 3174

ORBITAL ENERGIES
----------------

  NO   OCC          E(Eh)            E(eV)
   0   2.0000     -15.541633      -422.9093
   1   2.0000     -11.256340      -306.3006
   2   2.0000     -11.249648      -306.1185
   3   2.0000     -11.246791      -306.0407
   4   2.0000     -11.237305      -305.7826
   5   2.0000     -11.232669      -305.6565
   6   2.0000     -11.231441      -305.6231
   7   2.0000     -11.226917      -305.4999
   8   2.0000     -11.226241      -305.4816
   9   2.0000     -11.225489      -305.4611
  10   2.0000     -11.225167      -305.4523
  11   2.0000     -11.224294      -305.4286
  12   2.0000     -11.223185      -305.3984
  13   2.0000     -11.221723      -305.3586
  14   2.0000     -11.221702      -305.3580
  15   2.0000     -11.220001      -305.3118
  16   2.0000     -11.216771      -305.2239
  17   2.0000     -11.216183      -305.2079
  18   2.0000     -11.209280      -305.0200
  19   2.0000     -11.208286      -304.9930
  20   2.0000     -11.206385      -304.9412
  21   2.0000     -11.205812      -304.9256
  22   2.0000     -11.205553      -304.9186
  23   2.0000      -1.252580       -34.0844
  24   2.0000      -1.156310       -31.4648
  25   2.0000      -1.147273       -31.2189
  26   2.0000      -1.097006       -29.8511
  27   2.0000      -1.075616       -29.2690
  28   2.0000      -1.053655       -28.6714
  29   2.0000      -1.036470       -28.2038
  30   2.0000      -1.002838       -27.2886
  31   2.0000      -0.990630       -26.9564
  32   2.0000      -0.969378       -26.3781
  33   2.0000      -0.931346       -25.3432
  34   2.0000      -0.927879       -25.2489
  35   2.0000      -0.922883       -25.1129
  36   2.0000      -0.879679       -23.9373
  37   2.0000      -0.859971       -23.4010
  38   2.0000      -0.841224       -22.8909
  39   2.0000      -0.826307       -22.4849
  40   2.0000      -0.808736       -22.0068
  41   2.0000      -0.766708       -20.8632
  42   2.0000      -0.751112       -20.4388
  43   2.0000      -0.726631       -19.7726
  44   2.0000      -0.691965       -18.8293
  45   2.0000      -0.671435       -18.2707
  46   2.0000      -0.659503       -17.9460
  47   2.0000      -0.648055       -17.6345
  48   2.0000      -0.642294       -17.4777
  49   2.0000      -0.631855       -17.1936
  50   2.0000      -0.617584       -16.8053
  51   2.0000      -0.609890       -16.5959
  52   2.0000      -0.604459       -16.4482
  53   2.0000      -0.598034       -16.2733
  54   2.0000      -0.597409       -16.2563
  55   2.0000      -0.588916       -16.0252
  56   2.0000      -0.586380       -15.9562
  57   2.0000      -0.572895       -15.5893
  58   2.0000      -0.563606       -15.3365
  59   2.0000      -0.558817       -15.2062
  60   2.0000      -0.549213       -14.9449
  61   2.0000      -0.541547       -14.7362
  62   2.0000      -0.534021       -14.5315
  63   2.0000      -0.526750       -14.3336
  64   2.0000      -0.523720       -14.2511
  65   2.0000      -0.521837       -14.1999
  66   2.0000      -0.514757       -14.0072
  67   2.0000      -0.509284       -13.8583
  68   2.0000      -0.508406       -13.8344
  69   2.0000      -0.498283       -13.5590
  70   2.0000      -0.490733       -13.3535
  71   2.0000      -0.483345       -13.1525
  72   2.0000      -0.476933       -12.9780
  73   2.0000      -0.469247       -12.7689
  74   2.0000      -0.468528       -12.7493
  75   2.0000      -0.463363       -12.6087
  76   2.0000      -0.446625       -12.1533
  77   2.0000      -0.435292       -11.8449
  78   2.0000      -0.418207       -11.3800
  79   2.0000      -0.386232       -10.5099
  80   2.0000      -0.358025        -9.7424
  81   2.0000      -0.326814        -8.8931
  82   2.0000      -0.319735        -8.7004
  83   2.0000      -0.289899        -7.8886
  84   0.0000       0.020484         0.5574
  85   0.0000       0.024126         0.6565
  86   0.0000       0.024434         0.6649
  87   0.0000       0.028794         0.7835
  88   0.0000       0.032077         0.8729

MULLIKEN ATOMIC CHARGES
-----------------------
   0 C :   -0.363235
   1 H :    0.184268
   2 C :    0.091897
   3 C :   -0.537610
   4 H :    0.217235
   5 H :    0.344653
   6 C :    1.670629
   7 H :    0.325221
   8 N :   -0.292476
   9 C :   -0.012614
  10 C :   -1.071481
  11 C :   -0.671416
  12 C :    0.004420
  13 C :    1.758920
  14 C :   -1.097965
  15 H :    0.244640
  16 H :    0.230942
  17 H :    0.123688
  18 C :   -0.872661
  19 H :    0.239024
  20 H :    0.216977
  21 C :    0.614409
  22 C :    0.205714
  23 C :   -0.696116
  24 H :    0.190058
  25 H :    0.175915
  26 H :    0.111303
  27 C :   -0.685272
  28 H :    0.233896
  29 C :   -1.006571
  30 H :    0.173612
  31 C :   -0.430543
  32 H :    0.267000
  33 C :   -0.562516
  34 H :    0.192364
  35 C :    2.086123
  36 C :   -1.458352
  37 H :    0.337933
  38 H :    0.157845
  39 H :    0.148367
  40 C :   -1.332636
  41 H :    0.193345
  42 H :    0.158447
  43 H :    0.200083
  44 C :   -1.328914
  45 H :    0.156188
  46 H :    0.311212
  47 H :    0.136603
  48 H :    0.258860
  49 H :    0.144939
  50 H :    0.185598
  51 H :    0.128051
Sum of atomic charges:    0.0000000

LOEWDIN ATOMIC CHARGES
----------------------
   0 C :    0.351744
   1 H :   -0.238659
   2 C :    0.007753
   3 C :    0.510654
   4 H :   -0.231974
   5 H :   -0.398542
   6 C :   -0.041287
   7 H :   -0.247177
   8 N :    0.537533
   9 C :    0.025503
  10 C :    0.510404
  11 C :    0.396425
  12 C :    0.112686
  13 C :    0.049141
  14 C :    0.943315
  15 H :   -0.267641
  16 H :   -0.266971
  17 H :   -0.277745
  18 C :    0.354844
  19 H :   -0.238645
  20 H :   -0.273877
  21 C :   -0.017149
  22 C :   -0.036377
  23 C :    0.524751
  24 H :   -0.255948
  25 H :   -0.274050
  26 H :   -0.283454
  27 C :    0.357460
  28 H :   -0.312848
  29 C :    0.364194
  30 H :   -0.318933
  31 C :    0.349382
  32 H :   -0.320613
  33 C :    0.358486
  34 H :   -0.319276
  35 C :   -0.266601
  36 C :    0.932612
  37 H :   -0.303570
  38 H :   -0.254818
  39 H :   -0.261132
  40 C :    0.876946
  41 H :   -0.269814
  42 H :   -0.270682
  43 H :   -0.268829
  44 C :    0.932878
  45 H :   -0.252349
  46 H :   -0.324588
  47 H :   -0.266865
  48 H :   -0.244606
  49 H :   -0.275003
  50 H :   -0.272200
  51 H :   -0.344487

  Mayer bond orders larger than 0.100000
B(  0-C ,  1-H ) :   1.1316 B(  0-C ,  2-C ) :   0.1692 B(  0-C ,  8-N ) :   0.9783
B(  0-C , 13-C ) :  -0.4444 B(  0-C , 26-H ) :   1.2891 B(  1-H ,  2-C ) :  -0.1103
B(  1-H ,  8-N ) :  -0.1267 B(  2-C ,  3-C ) :  -0.1466 B(  2-C ,  4-H ) :  -0.1167
B(  2-C ,  6-C ) :   0.2891 B(  2-C ,  9-C ) :  -0.3790 B(  2-C , 10-C ) :   0.2661
B(  2-C , 11-C ) :   0.1721 B(  2-C , 12-C ) :  -0.2088 B(  2-C , 13-C ) :   1.3505
B(  2-C , 26-H ) :  -0.3590 B(  2-C , 48-H ) :  -0.1028 B(  2-C , 49-H ) :  -0.2637
B(  3-C ,  4-H ) :   0.9003 B(  3-C ,  5-H ) :   1.1707 B(  3-C ,  6-C ) :   1.1815
B(  3-C ,  7-H ) :   0.1659 B(  3-C , 22-C ) :  -0.1561 B(  3-C , 29-C ) :   0.1811
B(  3-C , 44-C ) :   0.1175 B(  4-H , 13-C ) :   0.1028 B(  5-H , 13-C ) :   0.1026
B(  5-H , 21-C ) :  -0.1155 B(  5-H , 29-C ) :  -0.1729 B(  5-H , 44-C ) :  -0.1216
B(  6-C ,  7-H ) :   0.9120 B(  6-C ,  8-N ) :   0.4519 B(  6-C , 13-C ) :  -0.5160
B(  6-C , 18-C ) :  -0.2964 B(  6-C , 21-C ) :  -0.3040 B(  6-C , 22-C ) :  -0.3657
B(  6-C , 23-C ) :   0.1098 B(  6-C , 29-C ) :  -0.8231 B(  7-H ,  8-N ) :  -0.1186
B(  7-H , 21-C ) :  -0.1177 B(  8-N , 13-C ) :   0.1351 B(  8-N , 18-C ) :   0.7851
B(  8-N , 19-H ) :  -0.1226 B(  8-N , 21-C ) :  -0.1048 B(  9-C , 11-C ) :   1.1088
B(  9-C , 12-C ) :  -0.3866 B(  9-C , 13-C ) :  -0.1171 B(  9-C , 35-C ) :   0.5747
B(  9-C , 36-C ) :  -0.1176 B(  9-C , 40-C ) :   0.1623 B(  9-C , 44-C ) :  -0.2067
B(  9-C , 51-H ) :  -0.1117 B( 10-C , 12-C ) :   1.1689 B( 10-C , 13-C ) :  -0.2212
B( 10-C , 48-H ) :   1.0004 B( 10-C , 49-H ) :   1.2098 B( 11-C , 12-C ) :   0.6921
B( 11-C , 13-C ) :  -0.6923 B( 11-C , 35-C ) :  -0.2549 B( 11-C , 40-C ) :  -0.2200
B( 11-C , 50-H ) :  -0.1827 B( 11-C , 51-H ) :   1.1775 B( 12-C , 14-C ) :   0.5791
B( 12-C , 15-H ) :  -0.1042 B( 12-C , 17-H ) :  -0.1260 B( 12-C , 50-H ) :   1.1381
B( 13-C , 35-C ) :  -0.1958 B( 14-C , 15-H ) :   1.0591 B( 14-C , 16-H ) :   1.0725
B( 14-C , 17-H ) :   1.0759 B( 18-C , 19-H ) :   1.0220 B( 18-C , 20-H ) :   1.0418
B( 18-C , 21-C ) :   0.2189 B( 18-C , 23-C ) :   1.1254 B( 18-C , 25-H ) :  -0.1200
B( 21-C , 22-C ) :   0.9576 B( 21-C , 23-C ) :  -0.1998 B( 21-C , 27-C ) :  -0.6005
B( 21-C , 29-C ) :   1.0926 B( 21-C , 33-C ) :  -0.4627 B( 22-C , 23-C ) :   0.3336
B( 22-C , 25-H ) :  -0.1991 B( 22-C , 27-C ) :   1.0697 B( 22-C , 28-H ) :  -0.1110
B( 22-C , 31-C ) :  -0.2727 B( 23-C , 24-H ) :   1.0873 B( 23-C , 25-H ) :   1.1824
B( 27-C , 28-H ) :   1.0558 B( 27-C , 29-C ) :   0.1247 B( 27-C , 31-C ) :   1.2915
B( 27-C , 32-H ) :  -0.2065 B( 27-C , 33-C ) :   0.1980 B( 29-C , 30-H ) :   1.2320
B( 29-C , 33-C ) :   1.1987 B( 29-C , 34-H ) :  -0.1698 B( 31-C , 32-H ) :   1.1549
B( 31-C , 33-C ) :   1.2608 B( 32-H , 33-C ) :  -0.1490 B( 33-C , 34-H ) :   1.2016
B( 35-C , 36-C ) :   0.1333 B( 35-C , 38-H ) :  -0.2359 B( 35-C , 39-H ) :  -0.2325
B( 35-C , 40-C ) :  -0.3328 B( 35-C , 41-H ) :  -0.2790 B( 35-C , 42-H ) :  -0.2153
B( 35-C , 43-H ) :  -0.2617 B( 35-C , 44-C ) :   0.1146 B( 35-C , 45-H ) :  -0.2395
B( 35-C , 47-H ) :  -0.2129 B( 36-C , 37-H ) :   0.8982 B( 36-C , 38-H ) :   1.2822
B( 36-C , 39-H ) :   1.2461 B( 36-C , 40-C ) :   0.1666 B( 36-C , 44-C ) :   0.1664
B( 40-C , 41-H ) :   1.2329 B( 40-C , 42-H ) :   1.2709 B( 40-C , 43-H ) :   1.1925
B( 40-C , 44-C ) :   0.1885 B( 44-C , 45-H ) :   1.2568 B( 44-C , 46-H ) :   0.9746
B( 44-C , 47-H ) :   1.2459

MP2 TOTAL ENERGY:     -908.873242429 Eh
FINAL SINGLE POINT ENERGY      -908.873242429362

DIPOLE MOMENT
-------------
                                X             Y             Z
Electronic contribution:    -17.22467      -3.29529      -1.30578
Nuclear contribution   :     17.29838       3.04776       1.08481
                        -----------------------------------------
Total Dipole Moment    :      0.07371      -0.24752      -0.22096
                        -----------------------------------------
Magnitude (a.u.)       :      0.33989
Magnitude (Debye)      :      0.86393

Rotational constants in cm-1:     0.014382     0.005903     0.004530
Rotational constants in MHz :   431.154632   176.959699   135.816265

                             ****ORCA TERMINATED NORMALLY****
TOTAL RUN TIME: 0 days 17 hours 17 minutes 46 seconds 13 msec
