                         Program Version 4.2.1 -  RELEASE  -
|  1> %pal
|  2>  nprocs 32
|  3> end
|  4> !RI-MP2 aug-cc-pVQZ aug-cc-pVQZ/C TightSCF
|  5> %maxcore 4500
|  6> *xyzfile 0 1  10_28R2.xyz
|  7>
|  8>
|  9>                          ****END OF INPUT****

CARTESIAN COORDINATES (ANGSTROEM)
---------------------------------
  C     -1.122765    0.782590    0.665872
  C     -1.122765    0.782590   -0.665872
  C      0.222155    0.249458   -1.123047
  C      0.222155    0.249458    1.123047
  C      1.126197    0.789278    0.000000
  H      0.507704    0.478099   -2.148359
  H      2.126289    0.347730    0.000000
  H      1.199751    1.877257    0.000000
  H      0.507704    0.478099    2.148359
  C      0.222155   -1.270273   -0.776822
  C      0.222155   -1.270273    0.776822
  H      1.119929   -1.749885   -1.172362
  H     -0.641864   -1.782525   -1.200646
  H      1.119929   -1.749885    1.172362
  H     -0.641864   -1.782525    1.200646
  H     -1.956651    1.003335   -1.319501
  H     -1.956651    1.003335    1.319501

 Total Charge           Charge          ....    0
 Multiplicity           Mult            ....    1
 Number of Electrons    NEL             ....   52
 Basis Dimension        Dim             .... 1020

ORBITAL ENERGIES
----------------

  NO   OCC          E(Eh)            E(eV)
   0   2.0000     -11.224244      -305.4272
   1   2.0000     -11.224242      -305.4271
   2   2.0000     -11.215953      -305.2016
   3   2.0000     -11.215260      -305.1827
   4   2.0000     -11.214700      -305.1675
   5   2.0000     -11.214202      -305.1539
   6   2.0000     -11.213539      -305.1359
   7   2.0000      -1.176315       -32.0092
   8   2.0000      -1.004997       -27.3474
   9   2.0000      -0.969184       -26.3728
  10   2.0000      -0.943038       -25.6614
  11   2.0000      -0.794714       -21.6253
  12   2.0000      -0.763573       -20.7779
  13   2.0000      -0.702143       -19.1063
  14   2.0000      -0.693221       -18.8635
  15   2.0000      -0.641892       -17.4668
  16   2.0000      -0.600811       -16.3489
  17   2.0000      -0.550814       -14.9884
  18   2.0000      -0.529996       -14.4219
  19   2.0000      -0.491325       -13.3696
  20   2.0000      -0.484736       -13.1903
  21   2.0000      -0.483402       -13.1540
  22   2.0000      -0.465673       -12.6716
  23   2.0000      -0.451388       -12.2829
  24   2.0000      -0.430643       -11.7184
  25   2.0000      -0.337262        -9.1774
  26   0.0000       0.025656         0.6981
  27   0.0000       0.029826         0.8116
  28   0.0000       0.031422         0.8550
  29   0.0000       0.034984         0.9520
  30   0.0000       0.044135         1.2010

MULLIKEN ATOMIC CHARGES
-----------------------
   0 C :   -0.539272
   1 C :   -0.539267
   2 C :   -0.012797
   3 C :   -0.012796
   4 C :   -0.693689
   5 H :    0.387660
   6 H :    0.238765
   7 H :    0.335865
   8 H :    0.387662
   9 C :   -0.661176
  10 C :   -0.661179
  11 H :    0.252131
  12 H :    0.302946
  13 H :    0.252134
  14 H :    0.302946
  15 H :    0.330035
  16 H :    0.330033
Sum of atomic charges:    0.0000000

LOEWDIN ATOMIC CHARGES
----------------------
   0 C :    0.392037
   1 C :    0.392037
   2 C :    0.107782
   3 C :    0.107782
   4 C :    0.500481
   5 H :   -0.243559
   6 H :   -0.245347
   7 H :   -0.249096
   8 H :   -0.243559
   9 C :    0.539117
  10 C :    0.539117
  11 H :   -0.259420
  12 H :   -0.257099
  13 H :   -0.259420
  14 H :   -0.257099
  15 H :   -0.281876
  16 H :   -0.281876

  Mayer bond orders larger than 0.100000
B(  0-C ,  1-C ) :   1.6003 B(  0-C ,  2-C ) :  -0.1802 B(  0-C ,  3-C ) :   0.8586
B(  0-C , 16-H ) :   1.0109 B(  1-C ,  2-C ) :   0.8586 B(  1-C ,  3-C ) :  -0.1802
B(  1-C , 15-H ) :   1.0109 B(  2-C ,  4-C ) :   0.9563 B(  2-C ,  5-H ) :   0.8347
B(  2-C ,  9-C ) :   0.9038 B(  3-C ,  4-C ) :   0.9563 B(  3-C ,  8-H ) :   0.8347
B(  3-C , 10-C ) :   0.9039 B(  4-C ,  6-H ) :   0.9696 B(  4-C ,  7-H ) :   0.8257
B(  9-C , 10-C ) :   0.9956 B(  9-C , 11-H ) :   0.9613 B(  9-C , 12-H ) :   0.8711
B( 10-C , 13-H ) :   0.9613 B( 10-C , 14-H ) :   0.8711

MP2 TOTAL ENERGY:     -272.214326090 Eh
FINAL SINGLE POINT ENERGY      -272.214326090249

DIPOLE MOMENT
-------------
                                X             Y             Z
Electronic contribution:     -1.36557       1.83243       0.00000
Nuclear contribution   :      1.43577      -1.94679      -0.00000
                        -----------------------------------------
Total Dipole Moment    :      0.07021      -0.11437       0.00000
                        -----------------------------------------
Magnitude (a.u.)       :      0.13420
Magnitude (Debye)      :      0.34110

Rotational constants in cm-1:     0.132047     0.114968     0.101042
Rotational constants in MHz :  3958.668735  3446.639145  3029.158271

                             ****ORCA TERMINATED NORMALLY****
TOTAL RUN TIME: 0 days 0 hours 30 minutes 1 seconds 207 msec
