                         Program Version 4.2.1 -  RELEASE  -
|  1> %pal
|  2>  nprocs 32
|  3> end
|  4> !RI-MP2 aug-cc-pVQZ aug-cc-pVQZ/C TightSCF
|  5> %maxcore 4500
|  6> *xyzfile 0 1  06_5R1.xyz
|  7>
|  8>
|  9>                          ****END OF INPUT****

CARTESIAN COORDINATES (ANGSTROEM)
---------------------------------
  C     -2.176900    1.006875   -0.000011
  C     -0.819007    1.294579   -0.000019
  C      0.132485    0.276882   -0.000006
  C     -0.317225   -1.043863    0.000015
  C     -1.672641   -1.334720    0.000023
  C     -2.610734   -0.310485    0.000010
  H     -2.897258    1.816392   -0.000022
  H     -0.489060    2.327585   -0.000036
  H      0.395845   -1.860447    0.000026
  H     -1.998763   -2.368143    0.000040
  H     -3.669525   -0.538752    0.000016
  C      1.578243    0.624128   -0.000014
  C      2.584461   -0.213727    0.748057
  C      2.584460   -0.213755   -0.748056
  H      1.767675    1.691037   -0.000035
  H      2.211131   -1.091574    1.260137
  H      3.384986    0.300041    1.264413
  H      2.211130   -1.091621   -1.260103
  H      3.384984    0.299994   -1.264432

 Total Charge           Charge          ....    0
 Multiplicity           Mult            ....    1
 Number of Electrons    NEL             ....   64
 Basis Dimension        Dim             .... 1180

ORBITAL ENERGIES
----------------

  NO   OCC          E(Eh)            E(eV)
   0   2.0000     -11.240061      -305.8576
   1   2.0000     -11.235727      -305.7397
   2   2.0000     -11.230645      -305.6014
   3   2.0000     -11.229874      -305.5804
   4   2.0000     -11.227918      -305.5272
   5   2.0000     -11.227238      -305.5087
   6   2.0000     -11.225845      -305.4708
   7   2.0000     -11.225058      -305.4494
   8   2.0000     -11.224730      -305.4404
   9   2.0000      -1.169767       -31.8310
  10   2.0000      -1.132362       -30.8131
  11   2.0000      -1.017043       -27.6751
  12   2.0000      -1.011648       -27.5283
  13   2.0000      -0.862573       -23.4718
  14   2.0000      -0.826099       -22.4793
  15   2.0000      -0.824908       -22.4469
  16   2.0000      -0.774984       -21.0884
  17   2.0000      -0.704460       -19.1693
  18   2.0000      -0.668126       -18.1806
  19   2.0000      -0.638411       -17.3721
  20   2.0000      -0.619147       -16.8478
  21   2.0000      -0.604659       -16.4536
  22   2.0000      -0.581788       -15.8312
  23   2.0000      -0.537642       -14.6300
  24   2.0000      -0.525604       -14.3024
  25   2.0000      -0.507634       -13.8134
  26   2.0000      -0.496119       -13.5001
  27   2.0000      -0.484707       -13.1896
  28   2.0000      -0.437447       -11.9035
  29   2.0000      -0.426284       -11.5998
  30   2.0000      -0.335419        -9.1272
  31   2.0000      -0.313538        -8.5318
  32   0.0000       0.025414         0.6915
  33   0.0000       0.027488         0.7480
  34   0.0000       0.028922         0.7870
  35   0.0000       0.035587         0.9684
  36   0.0000       0.040230         1.0947

MULLIKEN ATOMIC CHARGES
-----------------------
   0 C :   -0.355493
   1 C :   -0.456660
   2 C :    0.388595
   3 C :   -0.184674
   4 C :   -0.372488
   5 C :   -0.402632
   6 H :    0.221555
   7 H :    0.248808
   8 H :    0.280655
   9 H :    0.243536
  10 H :    0.318822
  11 C :   -0.204535
  12 C :   -0.715129
  13 C :   -0.715127
  14 H :    0.301448
  15 H :    0.331318
  16 H :    0.370342
  17 H :    0.331302
  18 H :    0.370356
Sum of atomic charges:   -0.0000000

LOEWDIN ATOMIC CHARGES
----------------------
   0 C :    0.340387
   1 C :    0.346507
   2 C :   -0.054986
   3 C :    0.337900
   4 C :    0.348490
   5 C :    0.333699
   6 H :   -0.320637
   7 H :   -0.320264
   8 H :   -0.331873
   9 H :   -0.318919
  10 H :   -0.325294
  11 C :    0.145705
  12 C :    0.603119
  13 C :    0.603120
  14 H :   -0.290490
  15 H :   -0.284988
  16 H :   -0.263244
  17 H :   -0.284988
  18 H :   -0.263244

  Mayer bond orders larger than 0.100000
B(  0-C ,  1-C ) :   1.2948 B(  0-C ,  2-C ) :  -0.3805 B(  0-C ,  3-C ) :   0.1168
B(  0-C ,  5-C ) :   1.1849 B(  0-C ,  6-H ) :   1.1879 B(  1-C ,  2-C ) :   0.8397
B(  1-C ,  4-C ) :   0.1482 B(  1-C ,  6-H ) :  -0.1719 B(  1-C ,  7-H ) :   1.0102
B(  1-C , 11-C ) :  -0.1813 B(  2-C ,  3-C ) :   1.1494 B(  2-C ,  4-C ) :  -0.3213
B(  2-C ,  7-H ) :  -0.1687 B(  2-C ,  8-H ) :  -0.1136 B(  2-C , 11-C ) :   0.4749
B(  2-C , 14-H ) :  -0.1622 B(  3-C ,  4-C ) :   1.2070 B(  3-C ,  8-H ) :   0.9586
B(  3-C ,  9-H ) :  -0.1141 B(  3-C , 11-C ) :  -0.3237 B(  4-C ,  5-C ) :   1.2103
B(  4-C ,  9-H ) :   1.1267 B(  5-C ,  6-H ) :  -0.1210 B(  5-C , 10-H ) :   1.0079
B( 11-C , 12-C ) :   0.7152 B( 11-C , 13-C ) :   0.7152 B( 11-C , 14-H ) :   1.0103
B( 12-C , 13-C ) :   1.1478 B( 12-C , 15-H ) :   0.8924 B( 12-C , 16-H ) :   0.8577
B( 13-C , 17-H ) :   0.8924 B( 13-C , 18-H ) :   0.8576

MP2 TOTAL ENERGY:     -348.293048382 Eh
FINAL SINGLE POINT ENERGY      -348.293048382327

DIPOLE MOMENT
-------------
                                X             Y             Z
Electronic contribution:     -4.15910       0.56346      -0.00001
Nuclear contribution   :      4.37458      -0.52429       0.00000
                        -----------------------------------------
Total Dipole Moment    :      0.21548       0.03917      -0.00000
                        -----------------------------------------
Magnitude (a.u.)       :      0.21901
Magnitude (Debye)      :      0.55668

Rotational constants in cm-1:     0.142622     0.037089     0.031629
Rotational constants in MHz :  4275.701898  1111.911443   948.217118

                             ****ORCA TERMINATED NORMALLY****
TOTAL RUN TIME: 0 days 0 hours 41 minutes 27 seconds 969 msec
