                         Program Version 4.2.1 -  RELEASE  -
|  1> %pal
|  2>  nprocs 32
|  3> end
|  4> !RI-MP2 aug-cc-pVQZ aug-cc-pVQZ/C TightSCF
|  5> %maxcore 4500
|  6> *xyzfile 0 1  04_26P2.xyz
|  7>
|  8>
|  9>                          ****END OF INPUT****

CARTESIAN COORDINATES (ANGSTROEM)
---------------------------------
  O      1.947460    0.120186    1.075988
  O      0.546123   -0.013160    1.288554
  C     -0.114264    0.006548    0.078736
  Cl    -1.812607   -0.112398    0.543284
  Cl     0.192837    1.505286   -0.823171
  Cl     0.354398   -1.398991   -0.931610
  H      2.248239   -0.791743    1.206695

 Total Charge           Charge          ....    0
 Multiplicity           Mult            ....    1
 Number of Electrons    NEL             ....   74
 Basis Dimension        Dim             ....  538

ORBITAL ENERGIES
----------------

  NO   OCC          E(Eh)            E(eV)
   0   2.0000    -104.872851     -2853.7354
   1   2.0000    -104.869533     -2853.6451
   2   2.0000    -104.865872     -2853.5455
   3   2.0000     -20.684616      -562.8570
   4   2.0000     -20.668051      -562.4063
   5   2.0000     -11.497474      -312.8622
   6   2.0000     -10.598572      -288.4018
   7   2.0000     -10.595281      -288.3123
   8   2.0000     -10.591590      -288.2118
   9   2.0000      -8.065577      -219.4755
  10   2.0000      -8.063510      -219.4193
  11   2.0000      -8.063484      -219.4186
  12   2.0000      -8.062224      -219.3843
  13   2.0000      -8.060314      -219.3323
  14   2.0000      -8.060279      -219.3314
  15   2.0000      -8.058578      -219.2850
  16   2.0000      -8.056551      -219.2299
  17   2.0000      -8.056539      -219.2296
  18   2.0000      -1.552736       -42.2521
  19   2.0000      -1.315118       -35.7862
  20   2.0000      -1.193236       -32.4696
  21   2.0000      -1.123881       -30.5824
  22   2.0000      -1.119738       -30.4696
  23   2.0000      -0.858228       -23.3536
  24   2.0000      -0.773167       -21.0389
  25   2.0000      -0.719865       -19.5885
  26   2.0000      -0.712446       -19.3866
  27   2.0000      -0.650371       -17.6975
  28   2.0000      -0.597266       -16.2524
  29   2.0000      -0.550232       -14.9726
  30   2.0000      -0.529329       -14.4038
  31   2.0000      -0.506813       -13.7911
  32   2.0000      -0.502390       -13.6707
  33   2.0000      -0.495669       -13.4878
  34   2.0000      -0.470953       -12.8153
  35   2.0000      -0.468363       -12.7448
  36   2.0000      -0.455818       -12.4034
  37   0.0000       0.026359         0.7173
  38   0.0000       0.049281         1.3410
  39   0.0000       0.058775         1.5993
  40   0.0000       0.059339         1.6147
  41   0.0000       0.084989         2.3127

MULLIKEN ATOMIC CHARGES
-----------------------
   0 O :   -0.366250
   1 O :   -0.272012
   2 C :    0.709160
   3 Cl:   -0.130266
   4 Cl:   -0.137625
   5 Cl:   -0.166249
   6 H :    0.363243
Sum of atomic charges:   -0.0000000

LOEWDIN ATOMIC CHARGES
----------------------
   0 O :    0.866727
   1 O :    0.208005
   2 C :   -3.021334
   3 Cl:    0.965375
   4 Cl:    0.954318
   5 Cl:    0.931857
   6 H :   -0.904947

  Mayer bond orders larger than 0.100000
B(  0-O ,  1-O ) :   0.8237 B(  0-O ,  6-H ) :   0.8874 B(  1-O ,  2-C ) :   0.8347
B(  2-C ,  3-Cl) :   0.7903 B(  2-C ,  4-Cl) :   0.8595 B(  2-C ,  5-Cl) :   0.8428

MP2 TOTAL ENERGY:    -1568.028300632 Eh
FINAL SINGLE POINT ENERGY     -1568.028300632067

DIPOLE MOMENT
-------------
                                X             Y             Z
Electronic contribution:     -3.42346       0.18454      -2.66660
Nuclear contribution   :      3.76222      -0.71733       2.73335
                        -----------------------------------------
Total Dipole Moment    :      0.33876      -0.53279       0.06676
                        -----------------------------------------
Magnitude (a.u.)       :      0.63488
Magnitude (Debye)      :      1.61375

Rotational constants in cm-1:     0.064222     0.055323     0.048976
Rotational constants in MHz :  1925.317027  1658.530843  1468.264242

                             ****ORCA TERMINATED NORMALLY****
TOTAL RUN TIME: 0 days 0 hours 4 minutes 19 seconds 935 msec
