                         Program Version 4.2.1 -  RELEASE  -
|  1> %pal
|  2>  nprocs 32
|  3> end
|  4> !RI-MP2 aug-cc-pVQZ aug-cc-pVQZ/C TightSCF
|  5> %maxcore 4500
|  6> *xyzfile 0 2  01_25P.xyz
|  7>
|  8>
|  9>                          ****END OF INPUT****

CARTESIAN COORDINATES (ANGSTROEM)
---------------------------------
  C     -0.539119   -0.459062    0.000068
  C      0.630156   -1.387679   -0.359285
  C      1.908001   -0.604966   -0.007989
  H      0.600390   -1.593709   -1.433714
  H      0.565126   -2.350167    0.154181
  C      1.501514    0.887092   -0.037291
  H      2.713665   -0.823920   -0.710198
  H      2.274833   -0.883378    0.981729
  C      0.026980    0.919744   -0.481665
  H      2.125803    1.479979   -0.707242
  H      1.598166    1.335407    0.954760
  C     -0.720704    2.121150   -0.046660
  C     -0.782534   -0.465213    1.511506
  H      0.114465   -0.198658    2.074510
  H     -1.094714   -1.460466    1.838324
  H     -1.569318    0.240951    1.784937
  C     -1.823814   -0.831625   -0.728879
  H     -2.627765   -0.129109   -0.494598
  H     -2.161566   -1.830498   -0.439275
  H     -1.675873   -0.828374   -1.812189
  H     -1.566799    2.492960   -0.610278
  H     -0.495131    2.601751    0.897883
  H     -0.004164    0.870585   -1.577654

 Total Charge           Charge          ....    0
 Multiplicity           Mult            ....    2
 Number of Electrons    NEL             ....   63
 Basis Dimension        Dim             .... 1330

ORBITAL ENERGIES
----------------
                 SPIN UP ORBITALS
  NO   OCC          E(Eh)            E(eV)
   0   1.0000     -11.225558      -305.4630
   1   1.0000     -11.222978      -305.3928
   2   1.0000     -11.217348      -305.2395
   3   1.0000     -11.211256      -305.0738
   4   1.0000     -11.210684      -305.0582
   5   1.0000     -11.208228      -304.9914
   6   1.0000     -11.205448      -304.9157
   7   1.0000     -11.204978      -304.9030
   8   1.0000      -1.142259       -31.0824
   9   1.0000      -1.023268       -27.8445
  10   1.0000      -1.010920       -27.5085
  11   1.0000      -0.928684       -25.2708
  12   1.0000      -0.905878       -24.6502
  13   1.0000      -0.859283       -23.3823
  14   1.0000      -0.768616       -20.9151
  15   1.0000      -0.717046       -19.5118
  16   1.0000      -0.644715       -17.5436
  17   1.0000      -0.628020       -17.0893
  18   1.0000      -0.612556       -16.6685
  19   1.0000      -0.591939       -16.1075
  20   1.0000      -0.579389       -15.7660
  21   1.0000      -0.546516       -14.8715
  22   1.0000      -0.539468       -14.6797
  23   1.0000      -0.524094       -14.2613
  24   1.0000      -0.505436       -13.7536
  25   1.0000      -0.476088       -12.9550
  26   1.0000      -0.474864       -12.9217
  27   1.0000      -0.457796       -12.4573
  28   1.0000      -0.450428       -12.2568
  29   1.0000      -0.445500       -12.1227
  30   1.0000      -0.438850       -11.9417
  31   1.0000      -0.337547        -9.1851
  32   0.0000       0.026483         0.7206
  33   0.0000       0.030694         0.8352
  34   0.0000       0.031282         0.8512
  35   0.0000       0.031755         0.8641
  36   0.0000       0.045927         1.2497

                 SPIN DOWN ORBITALS
  NO   OCC          E(Eh)            E(eV)
   0   1.0000     -11.222820      -305.3885
   1   1.0000     -11.220814      -305.3339
   2   1.0000     -11.211038      -305.0679
   3   1.0000     -11.210136      -305.0433
   4   1.0000     -11.208333      -304.9943
   5   1.0000     -11.205598      -304.9198
   6   1.0000     -11.204996      -304.9034
   7   1.0000     -11.199608      -304.7568
   8   1.0000      -1.136861       -30.9356
   9   1.0000      -1.020350       -27.7651
  10   1.0000      -0.985342       -26.8125
  11   1.0000      -0.928320       -25.2609
  12   1.0000      -0.892096       -24.2752
  13   1.0000      -0.824367       -22.4322
  14   1.0000      -0.761215       -20.7137
  15   1.0000      -0.709865       -19.3164
  16   1.0000      -0.642231       -17.4760
  17   1.0000      -0.624442       -16.9919
  18   1.0000      -0.605367       -16.4729
  19   1.0000      -0.588496       -16.0138
  20   1.0000      -0.573742       -15.6123
  21   1.0000      -0.546050       -14.8588
  22   1.0000      -0.534771       -14.5519
  23   1.0000      -0.523191       -14.2368
  24   1.0000      -0.503107       -13.6902
  25   1.0000      -0.471422       -12.8280
  26   1.0000      -0.467005       -12.7078
  27   1.0000      -0.450204       -12.2507
  28   1.0000      -0.445620       -12.1259
  29   1.0000      -0.441610       -12.0168
  30   1.0000      -0.428522       -11.6607
  31   0.0000       0.026658         0.7254
  32   0.0000       0.030620         0.8332
  33   0.0000       0.031325         0.8524
  34   0.0000       0.031850         0.8667
  35   0.0000       0.045892         1.2488

MULLIKEN ATOMIC CHARGES AND SPIN POPULATIONS
--------------------------------------------
   0 C :    1.506160    0.112587
   1 C :   -0.834092   -0.002869
   2 C :   -0.555632   -0.001370
   3 H :    0.191949    0.000378
   4 H :    0.282703    0.004600
   5 C :   -0.563585    0.015403
   6 H :    0.308779    0.000162
   7 H :    0.138429   -0.000057
   8 C :    0.127239   -0.265937
   9 H :    0.283346    0.000327
  10 H :    0.172886   -0.000058
  11 C :   -0.916600    1.316909
  12 C :   -1.087187    0.001657
  13 H :    0.192982   -0.004288
  14 H :    0.239559    0.000549
  15 H :    0.195192   -0.005737
  16 C :   -1.041854   -0.010692
  17 H :    0.189259   -0.005655
  18 H :    0.208190   -0.000643
  19 H :    0.207709   -0.002875
  20 H :    0.311277   -0.081762
  21 H :    0.222634   -0.093654
  22 H :    0.220655    0.023025
Sum of atomic charges         :    0.0000000

LOEWDIN ATOMIC CHARGES AND SPIN POPULATIONS
-------------------------------------------
   0 C :   -0.295272    0.037674
   1 C :    0.521944    0.006381
   2 C :    0.568530    0.001994
   3 H :   -0.262906    0.000316
   4 H :   -0.246645    0.001581
   5 C :    0.536966    0.015422
   6 H :   -0.257474    0.000170
   7 H :   -0.264091    0.000319
   8 C :    0.065756    0.129357
   9 H :   -0.249327    0.003763
  10 H :   -0.280681    0.002423
  11 C :    0.870481    0.451486
  12 C :    0.915356    0.013565
  13 H :   -0.278353    0.000898
  14 H :   -0.261716    0.000696
  15 H :   -0.272288    0.010490
  16 C :    0.920962    0.007610
  17 H :   -0.270179    0.004047
  18 H :   -0.262935    0.000478
  19 H :   -0.271696    0.000361
  20 H :   -0.311977    0.148953
  21 H :   -0.318726    0.148834
  22 H :   -0.295728    0.013183

  Mayer bond orders larger than 0.100000
B(  0-C ,  1-C ) :   0.3782 B(  0-C ,  2-C ) :  -0.1319 B(  0-C ,  8-C ) :   0.7028
B(  0-C , 12-C ) :   0.3106 B(  0-C , 13-H ) :  -0.1105 B(  0-C , 14-H ) :  -0.1315
B(  0-C , 15-H ) :  -0.1512 B(  0-C , 17-H ) :  -0.2054 B(  0-C , 18-H ) :  -0.1888
B(  0-C , 19-H ) :  -0.1810 B(  1-C ,  2-C ) :   1.0218 B(  1-C ,  3-H ) :   1.0789
B(  1-C ,  4-H ) :   0.9675 B(  1-C , 16-C ) :   0.1265 B(  2-C ,  5-C ) :   1.0331
B(  2-C ,  6-H ) :   0.9086 B(  2-C ,  7-H ) :   1.0749 B(  2-C ,  8-C ) :  -0.1228
B(  5-C ,  8-C ) :   0.6849 B(  5-C ,  9-H ) :   0.9168 B(  5-C , 10-H ) :   1.0643
B(  8-C , 11-C ) :   0.5527 B(  8-C , 20-H ) :  -0.1345 B(  8-C , 21-H ) :  -0.1152
B(  8-C , 22-H ) :   1.0142 B( 11-C , 20-H ) :   1.0309 B( 11-C , 21-H ) :   1.0542
B( 12-C , 13-H ) :   1.0780 B( 12-C , 14-H ) :   1.0607 B( 12-C , 15-H ) :   1.1256
B( 12-C , 16-C ) :   0.1226 B( 16-C , 17-H ) :   1.1292 B( 16-C , 18-H ) :   1.1232
B( 16-C , 19-H ) :   1.0988

MP2 TOTAL ENERGY:     -313.215197866 Eh
FINAL SINGLE POINT ENERGY      -313.215197866209

DIPOLE MOMENT
-------------
                                X             Y             Z
Electronic contribution:      1.29891       1.06778      -0.97074
Nuclear contribution   :     -1.27979      -1.14549       0.95880
                        -----------------------------------------
Total Dipole Moment    :      0.01912      -0.07771      -0.01195
                        -----------------------------------------
Magnitude (a.u.)       :      0.08092
Magnitude (Debye)      :      0.20567

Rotational constants in cm-1:     0.080282     0.071557     0.052288
Rotational constants in MHz :  2406.784208  2145.233954  1567.554266

                             ****ORCA TERMINATED NORMALLY****
TOTAL RUN TIME: 0 days 1 hours 36 minutes 11 seconds 731 msec
