                         Program Version 4.2.1 -  RELEASE  -
|  1> %pal
|  2>  nprocs 32
|  3> end
|  4> !RI-MP2 aug-cc-pVQZ aug-cc-pVQZ/C TightSCF
|  5> %maxcore 4500
|  6> *xyzfile 0 1  09_26P.xyz
|  7>
|  8>
|  9>                          ****END OF INPUT****

CARTESIAN COORDINATES (ANGSTROEM)
---------------------------------
  C     -0.687031    2.030998   -0.322779
  C     -0.449015    0.619143    0.143161
  C      0.804930    0.256833    0.843948
  C      2.011153    0.364396   -0.189211
  C      3.314412    0.085713    0.573431
  C      4.483895    0.192458   -0.373641
  N     -1.286502   -0.338073   -0.068066
  C     -2.588944   -0.234682   -0.719624
  C     -3.714522   -0.048657    0.291450
  H     -2.738331   -1.149991   -1.294052
  H     -2.557462    0.593364   -1.427231
  C     -5.070867    0.049869   -0.395874
  H     -3.520010    0.849998    0.885484
  H     -3.712572   -0.892460    0.988448
  C     -6.207053    0.237490    0.605314
  H     -5.258754   -0.848507   -0.984876
  H     -5.065764    0.895389   -1.094067
  C     -7.601131    0.320696   -0.024326
  H     -6.043260    1.164473    1.164512
  H     -6.194059   -0.579397    1.335180
  C     -8.087711   -1.043373   -0.546790
  N     -8.632228    0.881735    0.853897
  H     -7.550960    0.960401   -0.911806
  O     -7.363452   -1.852086   -1.057705
  O     -9.395493   -1.236703   -0.405927
  H     -9.729652   -0.451073    0.077740
  O      0.271217    2.907808    0.122066
  H     -1.681194    2.341181    0.023590
  H     -0.734352    1.977799   -1.425663
  H      1.157673    2.510428   -0.274574
  O      0.642673   -1.042110    1.372661
  H      0.966221    1.006370    1.627379
  H      1.533226   -1.422091    1.484620
  O      2.076292    1.547524   -0.821750
  H      1.850550   -0.504187   -0.867106
  O      3.271071   -1.227413    1.148656
  H      3.428986    0.831105    1.368372
  H      4.124974   -1.405499    1.557413
  O      5.640593   -0.242915    0.387104
  H      4.611814    1.217683   -0.711067
  H      4.350288   -0.472834   -1.230132
  H     -8.678579    1.890469    0.796159
  H     -8.476309    0.630583    1.824428
  P      7.084807   -0.308379   -0.279822
  O      7.908227   -0.916359    0.955086
  H      8.696982   -0.401232    1.154657
  O      6.998877   -1.515550   -1.330871
  H      6.734685   -2.362922   -0.956758
  O      7.622755    0.913976   -0.875536
  H     -0.985903   -1.233689    0.325220

 Total Charge           Charge          ....    0
 Multiplicity           Mult            ....    1
 Number of Electrons    NEL             ....  206
 Basis Dimension        Dim             .... 3154

ORBITAL ENERGIES
----------------

  NO   OCC          E(Eh)            E(eV)
   0   2.0000     -80.094865     -2179.4921
   1   2.0000     -20.607729      -560.7648
   2   2.0000     -20.600977      -560.5811
   3   2.0000     -20.598301      -560.5083
   4   2.0000     -20.588438      -560.2399
   5   2.0000     -20.571716      -559.7849
   6   2.0000     -20.569623      -559.7279
   7   2.0000     -20.547963      -559.1385
   8   2.0000     -20.510647      -558.1231
   9   2.0000     -20.504079      -557.9444
  10   2.0000     -20.435341      -556.0739
  11   2.0000     -15.664887      -426.2632
  12   2.0000     -15.597091      -424.4184
  13   2.0000     -11.388662      -309.9013
  14   2.0000     -11.363090      -309.2054
  15   2.0000     -11.314357      -307.8793
  16   2.0000     -11.309975      -307.7601
  17   2.0000     -11.302829      -307.5656
  18   2.0000     -11.299474      -307.4743
  19   2.0000     -11.283319      -307.0347
  20   2.0000     -11.276257      -306.8425
  21   2.0000     -11.268732      -306.6378
  22   2.0000     -11.264705      -306.5282
  23   2.0000     -11.262283      -306.4623
  24   2.0000     -11.251240      -306.1618
  25   2.0000      -7.611381      -207.1162
  26   2.0000      -5.510400      -149.9456
  27   2.0000      -5.510047      -149.9360
  28   2.0000      -5.508788      -149.9017
  29   2.0000      -1.470482       -40.0139
  30   2.0000      -1.453609       -39.5547
  31   2.0000      -1.402698       -38.1694
  32   2.0000      -1.388842       -37.7923
  33   2.0000      -1.382950       -37.6320
  34   2.0000      -1.373216       -37.3671
  35   2.0000      -1.366786       -37.1921
  36   2.0000      -1.347046       -36.6550
  37   2.0000      -1.328045       -36.1380
  38   2.0000      -1.293781       -35.2056
  39   2.0000      -1.257765       -34.2255
  40   2.0000      -1.241115       -33.7725
  41   2.0000      -1.129009       -30.7219
  42   2.0000      -1.077350       -29.3162
  43   2.0000      -1.034440       -28.1485
  44   2.0000      -1.022608       -27.8266
  45   2.0000      -0.973771       -26.4977
  46   2.0000      -0.963653       -26.2223
  47   2.0000      -0.914635       -24.8885
  48   2.0000      -0.892396       -24.2833
  49   2.0000      -0.845248       -23.0004
  50   2.0000      -0.831997       -22.6398
  51   2.0000      -0.823051       -22.3963
  52   2.0000      -0.821914       -22.3654
  53   2.0000      -0.795554       -21.6481
  54   2.0000      -0.764665       -20.8076
  55   2.0000      -0.763519       -20.7764
  56   2.0000      -0.749716       -20.4008
  57   2.0000      -0.735392       -20.0110
  58   2.0000      -0.726340       -19.7647
  59   2.0000      -0.703766       -19.1504
  60   2.0000      -0.702140       -19.1062
  61   2.0000      -0.694105       -18.8876
  62   2.0000      -0.689452       -18.7609
  63   2.0000      -0.685624       -18.6568
  64   2.0000      -0.683374       -18.5955
  65   2.0000      -0.666444       -18.1349
  66   2.0000      -0.650107       -17.6903
  67   2.0000      -0.645703       -17.5705
  68   2.0000      -0.644494       -17.5376
  69   2.0000      -0.639209       -17.3938
  70   2.0000      -0.629213       -17.1218
  71   2.0000      -0.623539       -16.9674
  72   2.0000      -0.616342       -16.7715
  73   2.0000      -0.608335       -16.5536
  74   2.0000      -0.603915       -16.4333
  75   2.0000      -0.592426       -16.1207
  76   2.0000      -0.587800       -15.9948
  77   2.0000      -0.572985       -15.5917
  78   2.0000      -0.570792       -15.5320
  79   2.0000      -0.569047       -15.4846
  80   2.0000      -0.566060       -15.4033
  81   2.0000      -0.558576       -15.1996
  82   2.0000      -0.551961       -15.0196
  83   2.0000      -0.545109       -14.8332
  84   2.0000      -0.542057       -14.7501
  85   2.0000      -0.529627       -14.4119
  86   2.0000      -0.525883       -14.3100
  87   2.0000      -0.518336       -14.1047
  88   2.0000      -0.514996       -14.0137
  89   2.0000      -0.505977       -13.7683
  90   2.0000      -0.501935       -13.6584
  91   2.0000      -0.494216       -13.4483
  92   2.0000      -0.485842       -13.2204
  93   2.0000      -0.483211       -13.1488
  94   2.0000      -0.470278       -12.7969
  95   2.0000      -0.467839       -12.7305
  96   2.0000      -0.464422       -12.6376
  97   2.0000      -0.460642       -12.5347
  98   2.0000      -0.448686       -12.2094
  99   2.0000      -0.433764       -11.8033
 100   2.0000      -0.427140       -11.6231
 101   2.0000      -0.355309        -9.6685
 102   2.0000      -0.349034        -9.4977
 103   0.0000       0.005803         0.1579
 104   0.0000       0.015932         0.4335
 105   0.0000       0.018794         0.5114
 106   0.0000       0.024469         0.6658
 107   0.0000       0.025336         0.6894

MULLIKEN ATOMIC CHARGES
-----------------------
   0 C :    0.283408
   1 C :    0.152683
   2 C :    1.069874
   3 C :    0.797152
   4 C :    0.632710
   5 C :    0.028406
   6 N :   -0.734857
   7 C :   -0.513193
   8 C :   -0.499172
   9 H :    0.408932
  10 H :    0.332306
  11 C :   -0.172961
  12 H :    0.276292
  13 H :    0.340952
  14 C :   -0.719988
  15 H :    0.388281
  16 H :    0.224649
  17 C :    0.089423
  18 H :    0.261452
  19 H :    0.208189
  20 C :    1.344178
  21 N :   -0.826855
  22 H :    0.311635
  23 O :   -0.937683
  24 O :   -0.925754
  25 H :    0.384265
  26 O :   -1.215724
  27 H :    0.326526
  28 H :    0.157364
  29 H :    0.492147
  30 O :   -1.246328
  31 H :    0.374412
  32 H :    0.299730
  33 O :   -1.318985
  34 H :    0.114137
  35 O :   -0.889793
  36 H :    0.169517
  37 H :    0.258431
  38 O :   -1.030301
  39 H :    0.348880
  40 H :    0.104480
  41 H :    0.203362
  42 H :    0.270894
  43 P :    2.658794
  44 O :   -1.013182
  45 H :    0.380867
  46 O :   -0.917622
  47 H :    0.383686
  48 O :   -1.227007
  49 H :    0.111392
Sum of atomic charges:   -0.0000000

LOEWDIN ATOMIC CHARGES
----------------------
   0 C :    0.165255
   1 C :   -0.094672
   2 C :   -0.176153
   3 C :   -0.412678
   4 C :   -0.228571
   5 C :    0.136954
   6 N :    0.944848
   7 C :    0.460502
   8 C :    0.553102
   9 H :   -0.246248
  10 H :   -0.297107
  11 C :    0.529835
  12 H :   -0.264201
  13 H :   -0.250970
  14 C :    0.516590
  15 H :   -0.328932
  16 H :   -0.250695
  17 C :   -0.036503
  18 H :   -0.268393
  19 H :   -0.259641
  20 C :   -1.000472
  21 N :    1.300136
  22 H :   -0.286989
  23 O :    0.714068
  24 O :    1.263246
  25 H :   -0.948413
  26 O :    1.230326
  27 H :   -0.307342
  28 H :   -0.273982
  29 H :   -1.285544
  30 O :    1.340499
  31 H :   -0.298085
  32 H :   -0.977405
  33 O :    0.922539
  34 H :   -0.317775
  35 O :    1.358874
  36 H :   -0.281604
  37 H :   -0.778941
  38 O :    0.691179
  39 H :   -0.300962
  40 H :   -0.292339
  41 H :   -0.453209
  42 H :   -0.459143
  43 P :   -0.944203
  44 O :    1.089596
  45 H :   -0.872428
  46 O :    1.094327
  47 H :   -0.855367
  48 O :    0.293843
  49 H :   -0.556748

  Mayer bond orders larger than 0.100000
B(  0-C ,  1-C ) :   0.5218 B(  0-C , 26-O ) :   0.4001 B(  0-C , 27-H ) :   0.9722
B(  0-C , 28-H ) :   1.0431 B(  1-C ,  2-C ) :   0.6543 B(  1-C ,  6-N ) :   0.8484
B(  1-C , 28-H ) :  -0.1540 B(  1-C , 30-O ) :   0.3060 B(  2-C ,  3-C ) :   0.8941
B(  2-C ,  6-N ) :  -0.1337 B(  2-C , 30-O ) :  -0.1988 B(  2-C , 31-H ) :   0.8169
B(  2-C , 33-O ) :   0.1919 B(  3-C ,  4-C ) :   0.6034 B(  3-C , 30-O ) :   0.1239
B(  3-C , 34-H ) :   1.0674 B(  3-C , 35-O ) :   0.1440 B(  4-C ,  5-C ) :   1.1091
B(  4-C , 33-O ) :   0.1684 B(  4-C , 36-H ) :   1.0570 B(  5-C , 33-O ) :   0.1203
B(  5-C , 35-O ) :   0.1959 B(  5-C , 38-O ) :   0.5768 B(  5-C , 39-H ) :   0.8418
B(  5-C , 40-H ) :   0.9290 B(  5-C , 46-O ) :  -0.2157 B(  6-N ,  7-C ) :   0.9512
B(  6-N , 49-H ) :   1.0721 B(  7-C ,  8-C ) :   1.2705 B(  7-C ,  9-H ) :   0.8220
B(  7-C , 10-H ) :   0.8978 B(  7-C , 12-H ) :   0.1016 B(  8-C , 11-C ) :   1.0061
B(  8-C , 12-H ) :   0.8134 B(  8-C , 13-H ) :   0.8011 B( 11-C , 14-C ) :   0.9753
B( 11-C , 15-H ) :   0.7732 B( 11-C , 16-H ) :   0.8819 B( 11-C , 17-C ) :  -0.1774
B( 14-C , 17-C ) :   1.2470 B( 14-C , 18-H ) :   0.8811 B( 14-C , 19-H ) :   0.8421
B( 15-H , 23-O ) :  -0.1669 B( 17-C , 20-C ) :   1.0454 B( 17-C , 21-N ) :   0.5172
B( 17-C , 22-H ) :   0.8195 B( 17-C , 23-O ) :   0.2192 B( 17-C , 24-O ) :   0.1707
B( 20-C , 23-O ) :   1.2654 B( 20-C , 24-O ) :   0.4920 B( 21-N , 25-H ) :   0.1269
B( 21-N , 41-H ) :   1.0186 B( 21-N , 42-H ) :   0.8901 B( 23-O , 24-O ) :   0.1092
B( 24-O , 25-H ) :   0.7386 B( 26-O , 29-H ) :   0.5413 B( 29-H , 33-O ) :   0.1483
B( 30-O , 32-H ) :   0.9551 B( 30-O , 49-H ) :   0.1308 B( 32-H , 35-O ) :   0.1387
B( 35-O , 37-H ) :   1.0076 B( 38-O , 43-P ) :   0.7915 B( 40-H , 46-O ) :   0.1469
B( 43-P , 44-O ) :   0.4819 B( 43-P , 46-O ) :   0.6284 B( 43-P , 48-O ) :   1.2960
B( 44-O , 45-H ) :   0.9297 B( 46-O , 47-H ) :   0.8648

MP2 TOTAL ENERGY:    -1673.312351679 Eh
FINAL SINGLE POINT ENERGY     -1673.312351679384

DIPOLE MOMENT
-------------
                                X             Y             Z
Electronic contribution:     38.40896      -6.30967      -1.66285
Nuclear contribution   :    -41.84443       5.38041       3.68541
                        -----------------------------------------
Total Dipole Moment    :     -3.43547      -0.92926       2.02256
                        -----------------------------------------
Magnitude (a.u.)       :      4.09349
Magnitude (Debye)      :     10.40483

Rotational constants in cm-1:     0.023815     0.001382     0.001352
Rotational constants in MHz :   713.953566    41.435190    40.535216

                             ****ORCA TERMINATED NORMALLY****
TOTAL RUN TIME: 0 days 10 hours 8 minutes 13 seconds 392 msec
