                         Program Version 4.2.1 -  RELEASE  -
|  1> %pal
|  2>  nprocs 32
|  3> end
|  4> !RI-MP2 aug-cc-pVQZ aug-cc-pVQZ/C TightSCF
|  5> %maxcore 4500
|  6> *xyzfile -1 1  07_6R.xyz
|  7>
|  8>
|  9>                          ****END OF INPUT****

CARTESIAN COORDINATES (ANGSTROEM)
---------------------------------
  C     -1.089824    1.078966    0.256177
  C     -2.578367    0.770856    0.215668
  C     -2.852755   -0.704058    0.538416
  H     -2.941430    0.981401   -0.789547
  H     -3.119968    1.414519    0.907997
  C     -1.863336   -1.649986   -0.130878
  C     -0.441165   -1.189287    0.038978
  O     -0.414413    0.112741   -0.535815
  C     -0.738099    2.435454   -0.400815
  C      0.710160   -1.975771   -0.538953
  O      1.883098   -1.670923    0.200457
  H      0.844266   -1.739786   -1.597759
  H      0.531298   -3.045267   -0.425285
  P      2.677254   -0.232724   -0.001918
  O      1.935708    0.860777    0.747655
  O      3.043118   -0.068664   -1.431976
  O      3.975797   -0.578541    0.917154
  H      4.596099   -1.104302    0.404151
  O     -2.241422   -2.647914   -0.700866
  O     -4.173148   -1.056326    0.204148
  H     -2.691023   -0.859017    1.615652
  H     -4.111834   -1.893741   -0.278054
  O     -1.595494    3.183377   -0.799949
  O      0.543369    2.717809   -0.455324
  H      1.139000    1.993795   -0.085752
  O     -0.629671    1.053841    1.574355
  H      0.355799    1.014512    1.531488
  H     -0.256241   -1.117722    1.115612

 Total Charge           Charge          ....   -1
 Multiplicity           Mult            ....    1
 Number of Electrons    NEL             ....  148
 Basis Dimension        Dim             .... 1904

ORBITAL ENERGIES
----------------

  NO   OCC          E(Eh)            E(eV)
   0   2.0000     -79.935448     -2175.1541
   1   2.0000     -20.481596      -557.3326
   2   2.0000     -20.477414      -557.2188
   3   2.0000     -20.473133      -557.1023
   4   2.0000     -20.461060      -556.7737
   5   2.0000     -20.456882      -556.6601
   6   2.0000     -20.454346      -556.5911
   7   2.0000     -20.450098      -556.4755
   8   2.0000     -20.420856      -555.6797
   9   2.0000     -20.379513      -554.5548
  10   2.0000     -20.356666      -553.9330
  11   2.0000     -11.259354      -306.3826
  12   2.0000     -11.254112      -306.2400
  13   2.0000     -11.253574      -306.2253
  14   2.0000     -11.208178      -304.9900
  15   2.0000     -11.199577      -304.7560
  16   2.0000     -11.187893      -304.4380
  17   2.0000     -11.137536      -303.0678
  18   2.0000      -7.451341      -202.7613
  19   2.0000      -5.350769      -145.6018
  20   2.0000      -5.349931      -145.5790
  21   2.0000      -5.348471      -145.5393
  22   2.0000      -1.354136       -36.8479
  23   2.0000      -1.332779       -36.2668
  24   2.0000      -1.315930       -35.8083
  25   2.0000      -1.291656       -35.1478
  26   2.0000      -1.278198       -34.7815
  27   2.0000      -1.250891       -34.0385
  28   2.0000      -1.237240       -33.6670
  29   2.0000      -1.235645       -33.6236
  30   2.0000      -1.173442       -31.9310
  31   2.0000      -1.131828       -30.7986
  32   2.0000      -0.974502       -26.5175
  33   2.0000      -0.963323       -26.2133
  34   2.0000      -0.857139       -23.3239
  35   2.0000      -0.787668       -21.4335
  36   2.0000      -0.767028       -20.8719
  37   2.0000      -0.706801       -19.2330
  38   2.0000      -0.672167       -18.2906
  39   2.0000      -0.665104       -18.0984
  40   2.0000      -0.658554       -17.9202
  41   2.0000      -0.634669       -17.2702
  42   2.0000      -0.624714       -16.9993
  43   2.0000      -0.594991       -16.1905
  44   2.0000      -0.583968       -15.8906
  45   2.0000      -0.573088       -15.5945
  46   2.0000      -0.550921       -14.9913
  47   2.0000      -0.539862       -14.6904
  48   2.0000      -0.527433       -14.3522
  49   2.0000      -0.519035       -14.1237
  50   2.0000      -0.513847       -13.9825
  51   2.0000      -0.499056       -13.5800
  52   2.0000      -0.494544       -13.4572
  53   2.0000      -0.478817       -13.0293
  54   2.0000      -0.474303       -12.9064
  55   2.0000      -0.464966       -12.6524
  56   2.0000      -0.450775       -12.2662
  57   2.0000      -0.443183       -12.0596
  58   2.0000      -0.433278       -11.7901
  59   2.0000      -0.429346       -11.6831
  60   2.0000      -0.418750       -11.3948
  61   2.0000      -0.410789       -11.1782
  62   2.0000      -0.405637       -11.0379
  63   2.0000      -0.395609       -10.7651
  64   2.0000      -0.392472       -10.6797
  65   2.0000      -0.371339       -10.1047
  66   2.0000      -0.363258        -9.8848
  67   2.0000      -0.353200        -9.6111
  68   2.0000      -0.348694        -9.4884
  69   2.0000      -0.343713        -9.3529
  70   2.0000      -0.318836        -8.6760
  71   2.0000      -0.314111        -8.5474
  72   2.0000      -0.308153        -8.3853
  73   2.0000      -0.298599        -8.1253
  74   0.0000       0.094938         2.5834
  75   0.0000       0.100183         2.7261
  76   0.0000       0.106106         2.8873
  77   0.0000       0.108130         2.9424
  78   0.0000       0.113854         3.0981

MULLIKEN ATOMIC CHARGES
-----------------------
   0 C :    1.612788
   1 C :   -0.824855
   2 C :    0.688275
   3 H :    0.161609
   4 H :    0.325315
   5 C :    0.699697
   6 C :    0.591103
   7 O :   -0.863936
   8 C :    1.243735
   9 C :   -0.166767
  10 O :   -1.153660
  11 H :    0.245253
  12 H :    0.284449
  13 P :    2.845463
  14 O :   -1.215563
  15 O :   -1.275917
  16 O :   -1.111579
  17 H :    0.373934
  18 O :   -1.024141
  19 O :   -1.073096
  20 H :    0.178972
  21 H :    0.355033
  22 O :   -0.928625
  23 O :   -1.051717
  24 H :    0.541658
  25 O :   -1.280958
  26 H :    0.452024
  27 H :    0.371510
Sum of atomic charges:   -1.0000000

LOEWDIN ATOMIC CHARGES
----------------------
   0 C :   -1.023819
   1 C :    0.456761
   2 C :   -0.240558
   3 H :   -0.303382
   4 H :   -0.264259
   5 C :   -0.603962
   6 C :   -0.299130
   7 O :    0.910706
   8 C :   -1.076618
   9 C :    0.090059
  10 O :    0.687672
  11 H :   -0.315939
  12 H :   -0.316327
  13 P :   -1.123373
  14 O :    0.623294
  15 O :    0.259541
  16 O :    1.045868
  17 H :   -0.920572
  18 O :    0.799294
  19 O :    1.288126
  20 H :   -0.295455
  21 H :   -0.934145
  22 O :    0.666039
  23 O :    1.236071
  24 H :   -1.201523
  25 O :    1.308447
  26 H :   -1.071513
  27 H :   -0.381304

  Mayer bond orders larger than 0.100000
B(  0-C ,  1-C ) :   0.3908 B(  0-C ,  3-H ) :  -0.1310 B(  0-C ,  7-O ) :   0.6546
B(  0-C ,  8-C ) :   1.2283 B(  0-C , 14-O ) :  -0.1222 B(  0-C , 22-O ) :   0.4290
B(  0-C , 23-O ) :   0.1714 B(  0-C , 25-O ) :  -0.1590 B(  1-C ,  2-C ) :   0.9766
B(  1-C ,  3-H ) :   1.1089 B(  1-C ,  4-H ) :   0.9003 B(  1-C , 19-O ) :   0.1911
B(  2-C ,  5-C ) :   1.2344 B(  2-C ,  6-C ) :  -0.2214 B(  2-C , 18-O ) :   0.2365
B(  2-C , 20-H ) :   0.9587 B(  5-C ,  6-C ) :   0.6307 B(  5-C ,  7-O ) :   0.1800
B(  5-C , 18-O ) :   0.1327 B(  5-C , 19-O ) :   0.2314 B(  6-C ,  7-O ) :   0.6687
B(  6-C ,  9-C ) :   0.5704 B(  6-C , 10-O ) :  -0.3071 B(  6-C , 11-H ) :  -0.1155
B(  6-C , 18-O ) :   0.5013 B(  6-C , 27-H ) :   0.8711 B(  8-C , 22-O ) :   0.8780
B(  8-C , 23-O ) :   0.6856 B(  8-C , 25-O ) :   0.2809 B(  9-C , 10-O ) :   0.8233
B(  9-C , 11-H ) :   1.0164 B(  9-C , 12-H ) :   1.0034 B( 10-O , 13-P ) :   0.6363
B( 13-P , 14-O ) :   0.9932 B( 13-P , 15-O ) :   1.1179 B( 13-P , 16-O ) :   0.2388
B( 14-O , 16-O ) :  -0.1464 B( 14-O , 24-H ) :   0.1311 B( 16-O , 17-H ) :   0.9358
B( 19-O , 21-H ) :   0.8683 B( 22-O , 23-O ) :   0.1648 B( 23-O , 24-H ) :   0.5885
B( 25-O , 26-H ) :   0.7739

MP2 TOTAL ENERGY:    -1364.941024122 Eh
FINAL SINGLE POINT ENERGY     -1364.941024121638

DIPOLE MOMENT
-------------
                                X             Y             Z
Electronic contribution:      6.86963       1.76918      -1.31925
Nuclear contribution   :     -7.90803      -3.97374       2.31991
                        -----------------------------------------
Total Dipole Moment    :     -1.03840      -2.20456       1.00066
                        -----------------------------------------
Magnitude (a.u.)       :      2.63433
Magnitude (Debye)      :      6.69593

Rotational constants in cm-1:     0.019662     0.010460     0.007725
Rotational constants in MHz :   589.442885   313.594532   231.579223

                             ****ORCA TERMINATED NORMALLY****
TOTAL RUN TIME: 0 days 3 hours 28 minutes 33 seconds 724 msec
