                         Program Version 4.2.1 -  RELEASE  -
|  1> %pal
|  2>  nprocs 32
|  3> end
|  4> !RI-MP2 aug-cc-pVQZ aug-cc-pVQZ/C TightSCF
|  5> %maxcore 4500
|  6> *xyzfile -1 1  09_3P.xyz
|  7>
|  8>
|  9>                          ****END OF INPUT****

CARTESIAN COORDINATES (ANGSTROEM)
---------------------------------
  C     -1.469228    1.440427    0.128838
  C     -1.528016   -0.060904   -0.026557
  C     -0.489284   -0.831950    0.739553
  O     -2.353837   -0.589428   -0.749485
  C      0.868467   -0.668092    0.060518
  C      1.780867    0.235276    0.425671
  C      3.043297    0.246814   -0.403129
  H     -2.020209    1.710053    1.036776
  H     -0.431178    1.755229    0.259052
  H     -1.939267    1.928304   -0.725796
  H      3.926407    0.081988    0.226921
  H      3.066437   -0.512258   -1.217274
  H      3.195415    1.230616   -0.865687
  H     -0.802980   -1.879062    0.786517
  H     -0.404673   -0.421106    1.749255
  H      1.004131   -1.347771   -0.803244

 Total Charge           Charge          ....   -1
 Multiplicity           Mult            ....    1
 Number of Electrons    NEL             ....   54
 Basis Dimension        Dim             ....  974

ORBITAL ENERGIES
----------------

  NO   OCC          E(Eh)            E(eV)
   0   2.0000     -20.391041      -554.8684
   1   2.0000     -11.175521      -304.1014
   2   2.0000     -11.082172      -301.5612
   3   2.0000     -11.062841      -301.0352
   4   2.0000     -11.040665      -300.4318
   5   2.0000     -11.013896      -299.7033
   6   2.0000     -10.987020      -298.9720
   7   2.0000      -1.232816       -33.5466
   8   2.0000      -0.905138       -24.6300
   9   2.0000      -0.847663       -23.0661
  10   2.0000      -0.805021       -21.9057
  11   2.0000      -0.700175       -19.0527
  12   2.0000      -0.582563       -15.8524
  13   2.0000      -0.514360       -13.9964
  14   2.0000      -0.487087       -13.2543
  15   2.0000      -0.484124       -13.1737
  16   2.0000      -0.451414       -12.2836
  17   2.0000      -0.416047       -11.3212
  18   2.0000      -0.392462       -10.6794
  19   2.0000      -0.388602       -10.5744
  20   2.0000      -0.379142       -10.3170
  21   2.0000      -0.352561        -9.5937
  22   2.0000      -0.332070        -9.0361
  23   2.0000      -0.295378        -8.0376
  24   2.0000      -0.263591        -7.1727
  25   2.0000      -0.137635        -3.7452
  26   2.0000      -0.097498        -2.6530
  27   0.0000       0.110672         3.0115
  28   0.0000       0.115203         3.1348
  29   0.0000       0.118322         3.2197
  30   0.0000       0.122116         3.3229
  31   0.0000       0.131131         3.5683

MULLIKEN ATOMIC CHARGES
-----------------------
   0 C :   -0.988696
   1 C :    0.918292
   2 C :   -0.500686
   3 O :   -0.906043
   4 C :   -0.621171
   5 C :   -0.500908
   6 C :   -0.758734
   7 H :    0.266099
   8 H :    0.297843
   9 H :    0.309626
  10 H :    0.235581
  11 H :    0.196066
  12 H :    0.224576
  13 H :    0.296154
  14 H :    0.238051
  15 H :    0.293950
Sum of atomic charges:   -1.0000000

LOEWDIN ATOMIC CHARGES
----------------------
   0 C :    0.851920
   1 C :   -0.708023
   2 C :    0.344167
   3 O :    0.688947
   4 C :    0.135961
   5 C :    0.164559
   6 C :    0.672058
   7 H :   -0.297036
   8 H :   -0.359983
   9 H :   -0.318499
  10 H :   -0.370205
  11 H :   -0.365931
  12 H :   -0.366565
  13 H :   -0.337769
  14 H :   -0.354625
  15 H :   -0.378975

  Mayer bond orders larger than 0.100000
B(  0-C ,  1-C ) :   0.8748 B(  0-C ,  3-O ) :   0.1345 B(  0-C ,  7-H ) :   0.9250
B(  0-C ,  8-H ) :   0.8990 B(  0-C ,  9-H ) :   0.9561 B(  1-C ,  2-C ) :   0.9609
B(  1-C ,  3-O ) :   1.0586 B(  2-C ,  3-O ) :   0.1620 B(  2-C ,  4-C ) :   0.8600
B(  2-C , 13-H ) :   0.9394 B(  2-C , 14-H ) :   0.9479 B(  4-C ,  5-C ) :   1.4477
B(  4-C ,  6-C ) :  -0.1269 B(  4-C , 15-H ) :   0.8703 B(  5-C ,  6-C ) :   0.8698
B(  6-C , 10-H ) :   0.9988 B(  6-C , 11-H ) :   0.9123 B(  6-C , 12-H ) :   0.9744

MP2 TOTAL ENERGY:     -308.692435388 Eh
FINAL SINGLE POINT ENERGY      -308.692435388254

DIPOLE MOMENT
-------------
                                X             Y             Z
Electronic contribution:     -7.02316      -2.35697      -0.49732
Nuclear contribution   :      5.69432       2.59940       0.44545
                        -----------------------------------------
Total Dipole Moment    :     -1.32883       0.24243      -0.05188
                        -----------------------------------------
Magnitude (a.u.)       :      1.35176
Magnitude (Debye)      :      3.43591

Rotational constants in cm-1:     0.185920     0.044698     0.040943
Rotational constants in MHz :  5573.743664  1340.000188  1227.445243

                             ****ORCA TERMINATED NORMALLY****
TOTAL RUN TIME: 0 days 0 hours 21 minutes 10 seconds 602 msec
