                         Program Version 4.2.1 -  RELEASE  -
|  1> %pal
|  2>  nprocs 32
|  3> end
|  4> !RI-MP2 aug-cc-pVQZ aug-cc-pVQZ/C TightSCF
|  5> %maxcore 4500
|  6> *xyzfile 0 1  02_41P.xyz
|  7>
|  8>
|  9>                          ****END OF INPUT****

CARTESIAN COORDINATES (ANGSTROEM)
---------------------------------
  C      0.659220    0.161054    0.623642
  C      0.844450   -0.918040   -0.442473
  C      1.549881    1.417035    0.277653
  O      0.836483    2.460060    0.922180
  C      1.317164    1.729588   -1.189147
  C      0.101620    2.258610   -1.240186
  C     -0.382115    2.290605    0.199234
  C     -0.746083    0.842163    0.632987
  C     -1.870313    0.231647   -0.163172
  O     -2.344184   -0.869013    0.432463
  O     -2.345824    0.704792   -1.161125
  O      0.004466   -1.396809   -1.153496
  O      2.132237   -1.302624   -0.472381
  C      2.458525   -2.322482   -1.422177
  C     -3.329260   -1.594915   -0.306720
  H     -1.111200    3.047835    0.470179
  H      3.524975   -2.498349   -1.311098
  H      2.226433   -1.986256   -2.432501
  H      1.895090   -3.230901   -1.210878
  H     -3.600079   -2.442997    0.316699
  H     -2.901154   -1.932214   -1.250548
  H     -4.198988   -0.969071   -0.504077
  H     -1.056852    0.870314    1.676895
  N      1.015479   -0.335629    1.940980
  H      2.015153   -0.492498    1.975186
  C      0.304671   -1.529797    2.377706
  H      0.639137   -1.789151    3.382467
  H     -0.766374   -1.331433    2.415172
  H      0.454173   -2.403703    1.725967
  H      1.975873    1.467203   -2.003697
  H     -0.488194    2.529870   -2.100721
  H      2.571674    1.346697    0.638891

 Total Charge           Charge          ....    0
 Multiplicity           Mult            ....    1
 Number of Electrons    NEL             ....  128
 Basis Dimension        Dim             .... 2050

ORBITAL ENERGIES
----------------

  NO   OCC          E(Eh)            E(eV)
   0   2.0000     -20.612111      -560.8841
   1   2.0000     -20.592763      -560.3576
   2   2.0000     -20.559322      -559.4476
   3   2.0000     -20.553444      -559.2876
   4   2.0000     -20.534460      -558.7711
   5   2.0000     -15.556220      -423.3063
   6   2.0000     -11.384035      -309.7753
   7   2.0000     -11.373611      -309.4917
   8   2.0000     -11.298482      -307.4473
   9   2.0000     -11.295891      -307.3768
  10   2.0000     -11.294479      -307.3384
  11   2.0000     -11.293294      -307.3061
  12   2.0000     -11.275949      -306.8342
  13   2.0000     -11.251723      -306.1749
  14   2.0000     -11.247627      -306.0635
  15   2.0000     -11.233915      -305.6904
  16   2.0000     -11.229185      -305.5616
  17   2.0000      -1.477065       -40.1930
  18   2.0000      -1.458546       -39.6891
  19   2.0000      -1.411250       -38.4021
  20   2.0000      -1.373912       -37.3861
  21   2.0000      -1.356045       -36.8999
  22   2.0000      -1.229831       -33.4654
  23   2.0000      -1.103548       -30.0291
  24   2.0000      -1.051003       -28.5992
  25   2.0000      -1.028810       -27.9954
  26   2.0000      -0.981265       -26.7016
  27   2.0000      -0.967749       -26.3338
  28   2.0000      -0.908694       -24.7268
  29   2.0000      -0.860680       -23.4203
  30   2.0000      -0.826093       -22.4791
  31   2.0000      -0.789096       -21.4724
  32   2.0000      -0.770174       -20.9575
  33   2.0000      -0.759103       -20.6562
  34   2.0000      -0.739779       -20.1304
  35   2.0000      -0.723624       -19.6908
  36   2.0000      -0.696869       -18.9628
  37   2.0000      -0.691461       -18.8156
  38   2.0000      -0.679993       -18.5036
  39   2.0000      -0.673773       -18.3343
  40   2.0000      -0.666747       -18.1431
  41   2.0000      -0.648511       -17.6469
  42   2.0000      -0.618688       -16.8354
  43   2.0000      -0.613818       -16.7028
  44   2.0000      -0.601783       -16.3754
  45   2.0000      -0.580235       -15.7890
  46   2.0000      -0.573640       -15.6095
  47   2.0000      -0.565613       -15.3911
  48   2.0000      -0.558856       -15.2072
  49   2.0000      -0.555356       -15.1120
  50   2.0000      -0.551775       -15.0146
  51   2.0000      -0.536350       -14.5948
  52   2.0000      -0.531171       -14.4539
  53   2.0000      -0.525189       -14.2911
  54   2.0000      -0.519282       -14.1304
  55   2.0000      -0.496717       -13.5164
  56   2.0000      -0.479505       -13.0480
  57   2.0000      -0.474869       -12.9218
  58   2.0000      -0.471246       -12.8233
  59   2.0000      -0.455964       -12.4074
  60   2.0000      -0.442178       -12.0323
  61   2.0000      -0.432059       -11.7569
  62   2.0000      -0.382121       -10.3980
  63   2.0000      -0.362587        -9.8665
  64   0.0000       0.018614         0.5065
  65   0.0000       0.026591         0.7236
  66   0.0000       0.029090         0.7916
  67   0.0000       0.030478         0.8294
  68   0.0000       0.038304         1.0423

MULLIKEN ATOMIC CHARGES
-----------------------
   0 C :    1.925648
   1 C :    1.787379
   2 C :    0.386051
   3 O :   -1.390594
   4 C :   -0.637093
   5 C :   -0.693187
   6 C :    0.370190
   7 C :   -0.457612
   8 C :    1.663985
   9 O :   -0.885623
  10 O :   -1.118737
  11 O :   -1.156339
  12 O :   -1.002631
  13 C :   -1.077414
  14 C :   -1.011238
  15 H :    0.483863
  16 H :    0.459887
  17 H :    0.387439
  18 H :    0.390428
  19 H :    0.414141
  20 H :    0.373981
  21 H :    0.367850
  22 H :    0.366504
  23 N :   -0.848270
  24 H :    0.092558
  25 C :   -1.070080
  26 H :    0.377777
  27 H :    0.243208
  28 H :    0.223646
  29 H :    0.268112
  30 H :    0.344295
  31 H :    0.421875
Sum of atomic charges:    0.0000000

LOEWDIN ATOMIC CHARGES
----------------------
   0 C :   -0.491355
   1 C :   -1.105297
   2 C :   -0.259621
   3 O :    0.928931
   4 C :    0.385398
   5 C :    0.386685
   6 C :   -0.234470
   7 C :    0.031725
   8 C :   -1.111447
   9 O :    0.865283
  10 O :    0.766537
  11 O :    0.784757
  12 O :    0.874753
  13 C :    0.596370
  14 C :    0.586088
  15 H :   -0.257608
  16 H :   -0.316499
  17 H :   -0.310145
  18 H :   -0.310185
  19 H :   -0.317729
  20 H :   -0.314654
  21 H :   -0.316371
  22 H :   -0.317489
  23 N :    0.906339
  24 H :   -0.523513
  25 C :    0.785898
  26 H :   -0.279178
  27 H :   -0.323088
  28 H :   -0.276077
  29 H :   -0.279986
  30 H :   -0.284426
  31 H :   -0.269625

  Mayer bond orders larger than 0.100000
B(  0-C ,  1-C ) :   1.2414 B(  0-C ,  2-C ) :   0.3300 B(  0-C ,  3-O ) :  -0.4809
B(  0-C ,  5-C ) :   0.1582 B(  0-C ,  6-C ) :  -0.1435 B(  0-C ,  7-C ) :   0.6384
B(  0-C ,  9-O ) :  -0.1922 B(  0-C , 11-O ) :   0.3729 B(  0-C , 12-O ) :  -0.1153
B(  0-C , 23-N ) :  -0.1473 B(  0-C , 24-H ) :  -0.1556 B(  0-C , 25-C ) :  -0.3492
B(  0-C , 27-H ) :  -0.1005 B(  0-C , 31-H ) :  -0.1879 B(  1-C ,  2-C ) :   0.1063
B(  1-C , 11-O ) :   0.5681 B(  1-C , 12-O ) :   0.6059 B(  1-C , 13-C ) :  -0.3369
B(  1-C , 23-N ) :   0.1210 B(  2-C ,  3-O ) :   0.4606 B(  2-C ,  4-C ) :   1.0647
B(  2-C ,  5-C ) :  -0.2254 B(  2-C ,  6-C ) :   0.2854 B(  2-C , 31-H ) :   0.9956
B(  3-O ,  4-C ) :   0.1319 B(  3-O ,  6-C ) :   0.7065 B(  3-O ,  7-C ) :   0.2259
B(  4-C ,  5-C ) :   1.7165 B(  4-C ,  6-C ) :  -0.2456 B(  4-C , 29-H ) :   1.0209
B(  5-C ,  6-C ) :   1.0134 B(  5-C ,  7-C ) :  -0.2039 B(  5-C , 15-H ) :  -0.1074
B(  5-C , 30-H ) :   0.9631 B(  6-C ,  7-C ) :   0.9039 B(  6-C , 15-H ) :   0.8266
B(  7-C ,  8-C ) :   1.1344 B(  7-C , 10-O ) :   0.3236 B(  7-C , 11-O ) :  -0.1455
B(  7-C , 22-H ) :   0.8324 B(  7-C , 23-N ) :   0.2803 B(  8-C ,  9-O ) :   0.8839
B(  8-C , 10-O ) :   0.4507 B(  8-C , 14-C ) :  -0.2014 B(  8-C , 22-H ) :   0.1073
B(  9-O , 10-O ) :   0.1987 B(  9-O , 14-C ) :   0.9858 B( 11-O , 12-O ) :   0.2837
B( 12-O , 13-C ) :   1.1569 B( 13-C , 16-H ) :   0.8199 B( 13-C , 17-H ) :   0.8980
B( 13-C , 18-H ) :   0.8952 B( 14-C , 19-H ) :   0.8687 B( 14-C , 20-H ) :   0.8584
B( 14-C , 21-H ) :   0.9047 B( 23-N , 24-H ) :   1.1455 B( 23-N , 25-C ) :   1.0253
B( 25-C , 26-H ) :   0.9219 B( 25-C , 27-H ) :   0.9601 B( 25-C , 28-H ) :   1.0384

MP2 TOTAL ENERGY:     -857.783744804 Eh
FINAL SINGLE POINT ENERGY      -857.783744804079

DIPOLE MOMENT
-------------
                                X             Y             Z
Electronic contribution:     -0.41651       8.58974      -1.69103
Nuclear contribution   :      1.15448      -9.78839       1.77049
                        -----------------------------------------
Total Dipole Moment    :      0.73797      -1.19865       0.07946
                        -----------------------------------------
Magnitude (a.u.)       :      1.40985
Magnitude (Debye)      :      3.58356

Rotational constants in cm-1:     0.019324     0.017207     0.013580
Rotational constants in MHz :   579.329891   515.839569   407.119130

                             ****ORCA TERMINATED NORMALLY****
TOTAL RUN TIME: 0 days 4 hours 16 minutes 16 seconds 281 msec
