                         Program Version 4.2.1 -  RELEASE  -
|  1> %pal
|  2>  nprocs 32
|  3> end
|  4> !RI-MP2 aug-cc-pVQZ aug-cc-pVQZ/C TightSCF
|  5> %maxcore 4500
|  6> *xyzfile 0 1  04_34P2.xyz
|  7>
|  8>
|  9>                          ****END OF INPUT****

CARTESIAN COORDINATES (ANGSTROEM)
---------------------------------
  C      2.284159    0.005656   -0.000508
  C      1.586465   -1.194551    0.001167
  C      0.200280   -1.202467    0.003772
  C     -0.504142   -0.001277    0.002097
  C      0.193273    1.202966   -0.002724
  C      1.580506    1.201488   -0.001293
  S     -2.279257   -0.083009   -0.006248
  H      3.366837    0.008667   -0.000780
  H      2.123446   -2.135460    0.002492
  H     -0.336095   -2.143950    0.009423
  H     -0.342556    2.144570   -0.007542
  H      2.112389    2.145370   -0.002953
  H     -2.499156    1.238056    0.084272

 Total Charge           Charge          ....    0
 Multiplicity           Mult            ....    1
 Number of Electrons    NEL             ....   58
 Basis Dimension        Dim             ....  840

ORBITAL ENERGIES
----------------

  NO   OCC          E(Eh)            E(eV)
   0   2.0000     -91.966036     -2502.5231
   1   2.0000     -11.277309      -306.8712
   2   2.0000     -11.242726      -305.9301
   3   2.0000     -11.242148      -305.9144
   4   2.0000     -11.241245      -305.8898
   5   2.0000     -11.239748      -305.8491
   6   2.0000     -11.235175      -305.7246
   7   2.0000      -8.968432      -244.0434
   8   2.0000      -6.650079      -180.9578
   9   2.0000      -6.649117      -180.9317
  10   2.0000      -6.648188      -180.9064
  11   2.0000      -1.169428       -31.8218
  12   2.0000      -1.059293       -28.8248
  13   2.0000      -1.026189       -27.9240
  14   2.0000      -0.949828       -25.8461
  15   2.0000      -0.839068       -22.8322
  16   2.0000      -0.810489       -22.0545
  17   2.0000      -0.704978       -19.1834
  18   2.0000      -0.647479       -17.6188
  19   2.0000      -0.636961       -17.3326
  20   2.0000      -0.597642       -16.2627
  21   2.0000      -0.579544       -15.7702
  22   2.0000      -0.528075       -14.3696
  23   2.0000      -0.524534       -14.2733
  24   2.0000      -0.503594       -13.7035
  25   2.0000      -0.469235       -12.7685
  26   2.0000      -0.417588       -11.3632
  27   2.0000      -0.348119        -9.4728
  28   2.0000      -0.309791        -8.4298
  29   0.0000       0.024815         0.6753
  30   0.0000       0.028434         0.7737
  31   0.0000       0.031541         0.8583
  32   0.0000       0.042073         1.1449
  33   0.0000       0.044835         1.2200

MULLIKEN ATOMIC CHARGES
-----------------------
   0 C :   -0.231953
   1 C :   -0.316621
   2 C :   -0.133739
   3 C :   -0.105409
   4 C :   -0.256500
   5 C :   -0.313900
   6 S :   -0.184030
   7 H :    0.320562
   8 H :    0.263038
   9 H :    0.380937
  10 H :    0.302772
  11 H :    0.272708
  12 H :    0.002135
Sum of atomic charges:   -0.0000000

LOEWDIN ATOMIC CHARGES
----------------------
   0 C :    0.330463
   1 C :    0.324091
   2 C :    0.207228
   3 C :   -0.566657
   4 C :    0.229106
   5 C :    0.326215
   6 S :    1.606025
   7 H :   -0.324566
   8 H :   -0.320174
   9 H :   -0.348304
  10 H :   -0.353982
  11 H :   -0.320069
  12 H :   -0.789376

  Mayer bond orders larger than 0.100000
B(  0-C ,  1-C ) :   1.1400 B(  0-C ,  5-C ) :   1.1557 B(  0-C ,  7-H ) :   0.9944
B(  1-C ,  2-C ) :   1.2758 B(  1-C ,  3-C ) :  -0.1201 B(  1-C ,  4-C ) :   0.1332
B(  1-C ,  5-C ) :  -0.1059 B(  1-C ,  8-H ) :   1.0819 B(  2-C ,  3-C ) :   1.1065
B(  2-C ,  5-C ) :   0.1204 B(  2-C ,  6-S ) :  -0.2256 B(  2-C ,  8-H ) :  -0.1085
B(  2-C ,  9-H ) :   0.8894 B(  3-C ,  4-C ) :   1.0404 B(  3-C ,  5-C ) :  -0.1619
B(  3-C ,  6-S ) :   0.8339 B(  3-C , 12-H ) :  -0.1403 B(  4-C ,  5-C ) :   1.3037
B(  4-C ,  6-S ) :  -0.1338 B(  4-C , 10-H ) :   0.9479 B(  4-C , 11-H ) :  -0.1107
B(  5-C , 11-H ) :   1.0708 B(  6-S , 12-H ) :   1.1380

MP2 TOTAL ENERGY:     -629.549992070 Eh
FINAL SINGLE POINT ENERGY      -629.549992070041

DIPOLE MOMENT
-------------
                                X             Y             Z
Electronic contribution:     -4.04609      -0.93381      -0.06249
Nuclear contribution   :      4.44437       1.24557       0.08414
                        -----------------------------------------
Total Dipole Moment    :      0.39828       0.31176       0.02165
                        -----------------------------------------
Magnitude (a.u.)       :      0.50625
Magnitude (Debye)      :      1.28679

Rotational constants in cm-1:     0.188452     0.052631     0.041143
Rotational constants in MHz :  5649.652365  1577.836013  1233.430247

                             ****ORCA TERMINATED NORMALLY****
TOTAL RUN TIME: 0 days 0 hours 17 minutes 38 seconds 462 msec
