                         Program Version 4.2.1 -  RELEASE  -
|  1> %pal
|  2>  nprocs 32
|  3> end
|  4> !RI-MP2 aug-cc-pVQZ aug-cc-pVQZ/C TightSCF
|  5> %maxcore 4500
|  6> *xyzfile 0 2  04_39R2.xyz
|  7>
|  8>
|  9>                          ****END OF INPUT****

CARTESIAN COORDINATES (ANGSTROEM)
---------------------------------
  C      1.618375   -0.335880    0.000000
  C      0.437163    0.620998    0.000000
  H      1.600506   -0.978021    0.881730
  H      2.560270    0.219283   -0.000023
  H      1.600480   -0.978053   -0.881706
  S     -1.188203   -0.159039    0.000000
  H      0.458377    1.285347   -0.869952
  H      0.458380    1.285351    0.869949

 Total Charge           Charge          ....    0
 Multiplicity           Mult            ....    2
 Number of Electrons    NEL             ....   33
 Basis Dimension        Dim             ....  474

ORBITAL ENERGIES
----------------
                 SPIN UP ORBITALS
  NO   OCC          E(Eh)            E(eV)
   0   1.0000     -91.965644     -2502.5124
   1   1.0000     -11.265189      -306.5414
   2   1.0000     -11.226009      -305.4752
   3   1.0000      -8.967588      -244.0205
   4   1.0000      -6.663473      -181.3223
   5   1.0000      -6.645047      -180.8209
   6   1.0000      -6.643625      -180.7822
   7   1.0000      -1.078862       -29.3573
   8   1.0000      -0.947250       -25.7760
   9   1.0000      -0.815522       -22.1915
  10   1.0000      -0.638460       -17.3734
  11   1.0000      -0.593601       -16.1527
  12   1.0000      -0.545234       -14.8366
  13   1.0000      -0.523107       -14.2345
  14   1.0000      -0.471619       -12.8334
  15   1.0000      -0.426083       -11.5943
  16   1.0000      -0.367406        -9.9976
  17   0.0000       0.026211         0.7132
  18   0.0000       0.036815         1.0018
  19   0.0000       0.037151         1.0109
  20   0.0000       0.043272         1.1775
  21   0.0000       0.058633         1.5955

                 SPIN DOWN ORBITALS
  NO   OCC          E(Eh)            E(eV)
   0   1.0000     -91.956566     -2502.2654
   1   1.0000     -11.266228      -306.5697
   2   1.0000     -11.225993      -305.4748
   3   1.0000      -8.957598      -243.7486
   4   1.0000      -6.639966      -180.6827
   5   1.0000      -6.638381      -180.6395
   6   1.0000      -6.622513      -180.2077
   7   1.0000      -1.062591       -28.9146
   8   1.0000      -0.907824       -24.7032
   9   1.0000      -0.773383       -21.0448
  10   1.0000      -0.624418       -16.9913
  11   1.0000      -0.588910       -16.0251
  12   1.0000      -0.543005       -14.7759
  13   1.0000      -0.510368       -13.8878
  14   1.0000      -0.461062       -12.5461
  15   1.0000      -0.348387        -9.4801
  16   0.0000       0.020120         0.5475
  17   0.0000       0.026361         0.7173
  18   0.0000       0.037222         1.0129
  19   0.0000       0.040028         1.0892
  20   0.0000       0.043631         1.1873

MULLIKEN ATOMIC CHARGES AND SPIN POPULATIONS
--------------------------------------------
   0 C :   -0.750859    0.018112
   1 C :   -0.430975   -0.161941
   2 H :    0.261865   -0.001689
   3 H :    0.237652   -0.000923
   4 H :    0.261866   -0.001690
   5 S :   -0.103058    1.092623
   6 H :    0.261754    0.027754
   7 H :    0.261755    0.027754
Sum of atomic charges         :    0.0000000

LOEWDIN ATOMIC CHARGES AND SPIN POPULATIONS
-------------------------------------------
   0 C :    0.791818    0.010239
   1 C :   -0.089095    0.188386
   2 H :   -0.316406    0.001204
   3 H :   -0.295497   -0.000159
   4 H :   -0.316408    0.001204
   5 S :    1.039186    0.752646
   6 H :   -0.406800    0.023240
   7 H :   -0.406799    0.023239

  Mayer bond orders larger than 0.100000
B(  0-C ,  1-C ) :   0.9955 B(  0-C ,  2-H ) :   0.9360 B(  0-C ,  3-H ) :   0.9233
B(  0-C ,  4-H ) :   0.9360 B(  1-C ,  5-S ) :   0.9864 B(  1-C ,  6-H ) :   0.8822
B(  1-C ,  7-H ) :   0.8822

MP2 TOTAL ENERGY:     -476.749711269 Eh
FINAL SINGLE POINT ENERGY      -476.749711268758

DIPOLE MOMENT
-------------
                                X             Y             Z
Electronic contribution:     -6.14967      -0.55940       0.00000
Nuclear contribution   :      6.80854       0.85054      -0.00000
                        -----------------------------------------
Total Dipole Moment    :      0.65887       0.29114      -0.00000
                        -----------------------------------------
Magnitude (a.u.)       :      0.72033
Magnitude (Debye)      :      1.83093

Rotational constants in cm-1:     1.111571     0.180107     0.164340
Rotational constants in MHz : 33324.062867  5399.462925  4926.799346

                             ****ORCA TERMINATED NORMALLY****
TOTAL RUN TIME: 0 days 0 hours 2 minutes 42 seconds 434 msec
