                         Program Version 4.2.1 -  RELEASE  -
|  1> %pal
|  2>  nprocs 32
|  3> end
|  4> !RI-MP2 aug-cc-pVQZ aug-cc-pVQZ/C TightSCF
|  5> %maxcore 4500
|  6> *xyzfile -1 1  09_23R.xyz
|  7>
|  8>
|  9>                          ****END OF INPUT****

CARTESIAN COORDINATES (ANGSTROEM)
---------------------------------
  C     -3.069069   -0.268812    1.508698
  C     -2.389259   -0.128914    0.140921
  H     -2.334265   -0.381078    2.311353
  H     -3.734752   -1.139683    1.534584
  H     -3.665460    0.621383    1.729786
  C     -3.466550   -0.104715   -0.945521
  H     -3.996497   -1.064214   -1.003612
  H     -3.009745    0.127686   -1.908200
  H     -4.201899    0.678623   -0.735640
  C     -1.573452    1.185239    0.112550
  C     -0.790398    1.441945   -1.167056
  H     -0.961849    1.153759    1.038888
  H     -2.293758    1.998796    0.312320
  C      0.463570    2.300905   -0.989357
  C      1.547321    1.634718   -0.144294
  H      0.211794    3.275520   -0.544197
  H      0.893886    2.515694   -1.975753
  C      1.588391    1.970216    1.321539
  H      1.500286    3.052109    1.462928
  H      2.512044    1.635129    1.802974
  H      0.745493    1.520665    1.854945
  C      2.341299    0.693809   -0.668862
  C      3.148950   -0.328843    0.089227
  C      2.275024   -1.335471    0.895078
  H      3.850038    0.138520    0.792380
  H      3.768516   -0.886559   -0.620169
  C      1.012838   -1.723430    0.167206
  H      1.997285   -0.878215    1.847462
  H      2.884178   -2.219955    1.128464
  C     -0.175352   -1.327938    0.619506
  C      1.210979   -2.428420   -1.145930
  H      1.929062   -3.248946   -1.036659
  H      1.614098   -1.742412   -1.897464
  H      0.282633   -2.842358   -1.537193
  C     -1.492122   -1.375244   -0.100498
  H     -2.068751   -2.262974    0.199004
  H     -1.315189   -1.466768   -1.172230
  H     -0.454166    0.484783   -1.583453
  H      2.239405    0.515855   -1.737525
  H     -0.185406   -0.815630    1.577771

 Total Charge           Charge          ....   -1
 Multiplicity           Mult            ....    1
 Number of Electrons    NEL             ....  116
 Basis Dimension        Dim             .... 2350

ORBITAL ENERGIES
----------------

  NO   OCC          E(Eh)            E(eV)
   0   2.0000     -11.105040      -302.1835
   1   2.0000     -11.103260      -302.1351
   2   2.0000     -11.101762      -302.0943
   3   2.0000     -11.098704      -302.0111
   4   2.0000     -11.087030      -301.6934
   5   2.0000     -11.086702      -301.6845
   6   2.0000     -11.085832      -301.6608
   7   2.0000     -11.083772      -301.6048
   8   2.0000     -11.083256      -301.5907
   9   2.0000     -11.080138      -301.5059
  10   2.0000     -11.066175      -301.1259
  11   2.0000     -11.059481      -300.9438
  12   2.0000     -11.042099      -300.4708
  13   2.0000     -11.038867      -300.3829
  14   2.0000     -10.956746      -298.1482
  15   2.0000      -0.994212       -27.0539
  16   2.0000      -0.963988       -26.2314
  17   2.0000      -0.943786       -25.6817
  18   2.0000      -0.883565       -24.0430
  19   2.0000      -0.838985       -22.8299
  20   2.0000      -0.818654       -22.2767
  21   2.0000      -0.806349       -21.9419
  22   2.0000      -0.795359       -21.6428
  23   2.0000      -0.770366       -20.9627
  24   2.0000      -0.741722       -20.1833
  25   2.0000      -0.696583       -18.9550
  26   2.0000      -0.607425       -16.5289
  27   2.0000      -0.593030       -16.1372
  28   2.0000      -0.563201       -15.3255
  29   2.0000      -0.547871       -14.9083
  30   2.0000      -0.519155       -14.1269
  31   2.0000      -0.498253       -13.5582
  32   2.0000      -0.483456       -13.1555
  33   2.0000      -0.476372       -12.9627
  34   2.0000      -0.463641       -12.6163
  35   2.0000      -0.458965       -12.4891
  36   2.0000      -0.442705       -12.0466
  37   2.0000      -0.440274       -11.9805
  38   2.0000      -0.424893       -11.5619
  39   2.0000      -0.421097       -11.4586
  40   2.0000      -0.414218       -11.2714
  41   2.0000      -0.411593       -11.2000
  42   2.0000      -0.394841       -10.7442
  43   2.0000      -0.390491       -10.6258
  44   2.0000      -0.381279       -10.3751
  45   2.0000      -0.367261        -9.9937
  46   2.0000      -0.359145        -9.7728
  47   2.0000      -0.348508        -9.4834
  48   2.0000      -0.338322        -9.2062
  49   2.0000      -0.335799        -9.1376
  50   2.0000      -0.325213        -8.8495
  51   2.0000      -0.310470        -8.4483
  52   2.0000      -0.299341        -8.1455
  53   2.0000      -0.270320        -7.3558
  54   2.0000      -0.254279        -6.9193
  55   2.0000      -0.207085        -5.6351
  56   2.0000      -0.180249        -4.9048
  57   2.0000      -0.039310        -1.0697
  58   0.0000       0.089482         2.4349
  59   0.0000       0.095256         2.5921
  60   0.0000       0.096131         2.6159
  61   0.0000       0.102631         2.7927
  62   0.0000       0.104274         2.8374

MULLIKEN ATOMIC CHARGES
-----------------------
   0 C :   -1.313526
   1 C :    2.080676
   2 H :    0.153266
   3 H :    0.152070
   4 H :    0.152756
   5 C :   -1.318394
   6 H :    0.155870
   7 H :    0.145808
   8 H :    0.157153
   9 C :   -0.299857
  10 C :   -1.035975
  11 H :    0.189684
  12 H :    0.164035
  13 C :   -0.593395
  14 C :    0.894140
  15 H :    0.167991
  16 H :    0.248566
  17 C :   -1.107102
  18 H :    0.189762
  19 H :    0.213715
  20 H :    0.196037
  21 C :   -0.417759
  22 C :   -0.434199
  23 C :   -0.516878
  24 H :    0.207471
  25 H :    0.121281
  26 C :    0.729114
  27 H :    0.113421
  28 H :    0.282865
  29 C :   -0.268332
  30 C :   -1.137244
  31 H :    0.214143
  32 H :    0.150793
  33 H :    0.232705
  34 C :   -0.312376
  35 H :    0.340713
  36 H :    0.041772
  37 H :   -0.065873
  38 H :    0.096449
  39 H :    0.028658
Sum of atomic charges:   -1.0000000

LOEWDIN ATOMIC CHARGES
----------------------
   0 C :    0.891587
   1 C :   -0.296871
   2 H :   -0.281257
   3 H :   -0.274404
   4 H :   -0.276146
   5 C :    0.885129
   6 H :   -0.271679
   7 H :   -0.305550
   8 H :   -0.272617
   9 C :    0.387346
  10 C :    0.401061
  11 H :   -0.373239
  12 H :   -0.291616
  13 C :    0.393278
  14 C :   -0.028146
  15 H :   -0.321560
  16 H :   -0.335444
  17 C :    0.902314
  18 H :   -0.278231
  19 H :   -0.311801
  20 H :   -0.312732
  21 C :    0.360150
  22 C :    0.490774
  23 C :    0.494652
  24 H :   -0.293594
  25 H :   -0.293684
  26 C :   -0.004323
  27 H :   -0.322330
  28 H :   -0.268776
  29 C :    0.404736
  30 C :    0.908495
  31 H :   -0.277963
  32 H :   -0.292442
  33 H :   -0.307458
  34 C :    0.492284
  35 H :   -0.264229
  36 H :   -0.335370
  37 H :   -0.440404
  38 H :   -0.334735
  39 H :   -0.345206

  Mayer bond orders larger than 0.100000
B(  0-C ,  1-C ) :  -0.2146 B(  0-C ,  2-H ) :   1.1926 B(  0-C ,  3-H ) :   1.2104
B(  0-C ,  4-H ) :   1.2600 B(  0-C ,  5-C ) :   0.1811 B(  1-C ,  2-H ) :  -0.2897
B(  1-C ,  3-H ) :  -0.2951 B(  1-C ,  4-H ) :  -0.2957 B(  1-C ,  5-C ) :  -0.1307
B(  1-C ,  6-H ) :  -0.2307 B(  1-C ,  7-H ) :  -0.2443 B(  1-C ,  8-H ) :  -0.2030
B(  1-C ,  9-C ) :   0.6125 B(  1-C , 10-C ) :  -0.3576 B(  1-C , 34-C ) :   0.6055
B(  5-C ,  6-H ) :   1.2275 B(  5-C ,  7-H ) :   1.1243 B(  5-C ,  8-H ) :   1.1895
B(  5-C , 10-C ) :   0.2016 B(  7-H , 10-C ) :   0.2093 B(  9-C , 10-C ) :   0.2546
B(  9-C , 11-H ) :   1.0794 B(  9-C , 12-H ) :   1.0660 B(  9-C , 13-C ) :  -0.1062
B( 10-C , 11-H ) :   0.1476 B( 10-C , 12-H ) :  -0.1801 B( 10-C , 13-C ) :   0.7207
B( 10-C , 16-H ) :  -0.1313 B( 10-C , 36-H ) :  -0.1110 B( 10-C , 37-H ) :   1.1725
B( 13-C , 14-C ) :   0.2341 B( 13-C , 15-H ) :   1.2191 B( 13-C , 16-H ) :   1.1588
B( 13-C , 21-C ) :  -0.1595 B( 14-C , 15-H ) :  -0.2677 B( 14-C , 16-H ) :  -0.1347
B( 14-C , 17-C ) :   0.5301 B( 14-C , 18-H ) :  -0.1895 B( 14-C , 19-H ) :  -0.1305
B( 14-C , 21-C ) :   1.1225 B( 14-C , 22-C ) :  -0.3367 B( 14-C , 38-H ) :  -0.2594
B( 17-C , 18-H ) :   1.1586 B( 17-C , 19-H ) :   1.1444 B( 17-C , 20-H ) :   0.9605
B( 21-C , 22-C ) :   0.6060 B( 21-C , 24-H ) :  -0.1166 B( 21-C , 25-H ) :  -0.2217
B( 21-C , 38-H ) :   1.3134 B( 22-C , 23-C ) :   0.7884 B( 22-C , 24-H ) :   1.0931
B( 22-C , 25-H ) :   1.2150 B( 22-C , 26-C ) :  -0.1761 B( 23-C , 26-C ) :   0.5754
B( 23-C , 27-H ) :   1.1535 B( 23-C , 28-H ) :   1.0424 B( 23-C , 29-C ) :  -0.2514
B( 26-C , 28-H ) :  -0.1610 B( 26-C , 29-C ) :   1.3581 B( 26-C , 30-C ) :   0.2695
B( 26-C , 31-H ) :  -0.2018 B( 26-C , 34-C ) :  -0.3000 B( 26-C , 39-H ) :  -0.2834
B( 29-C , 34-C ) :   0.5193 B( 29-C , 35-H ) :  -0.2534 B( 29-C , 39-H ) :   1.4127
B( 30-C , 31-H ) :   1.1696 B( 30-C , 32-H ) :   1.0631 B( 30-C , 33-H ) :   1.0966
B( 34-C , 35-H ) :   0.9760 B( 34-C , 36-H ) :   1.3045 B( 34-C , 39-H ) :  -0.1366

MP2 TOTAL ENERGY:     -585.438829417 Eh
FINAL SINGLE POINT ENERGY      -585.438829417135

DIPOLE MOMENT
-------------
                                X             Y             Z
Electronic contribution:      5.12698      -0.71816      -0.24590
Nuclear contribution   :     -3.98904      -1.29385       1.93589
                        -----------------------------------------
Total Dipole Moment    :      1.13793      -2.01201       1.69000
                        -----------------------------------------
Magnitude (a.u.)       :      2.86342
Magnitude (Debye)      :      7.27823

Rotational constants in cm-1:     0.027278     0.015950     0.012743
Rotational constants in MHz :   817.776594   478.165331   382.038462

                             ****ORCA TERMINATED NORMALLY****
TOTAL RUN TIME: 0 days 7 hours 41 minutes 54 seconds 295 msec
