                         Program Version 4.2.1 -  RELEASE  -
|  1> %pal
|  2>  nprocs 32
|  3> end
|  4> !RI-MP2 aug-cc-pVQZ aug-cc-pVQZ/C TightSCF
|  5> %maxcore 4500
|  6> *xyzfile 0 1  10_45TS.xyz
|  7>
|  8>
|  9>                          ****END OF INPUT****

CARTESIAN COORDINATES (ANGSTROEM)
---------------------------------
  C      0.135774   -2.358284   -0.449993
  H     -0.227450   -2.944753   -1.314959
  C      1.254932   -1.441691   -0.885563
  C     -0.231289    0.523174   -0.612949
  H     -0.410239    1.093656    0.297400
  H     -0.344500    1.212395   -1.450293
  C     -1.331639   -0.537186   -0.710317
  H     -1.382067   -0.903398   -1.754548
  N     -0.959288   -1.640007    0.165089
  C      2.282751    0.652418   -0.140017
  C      2.423061   -2.007484   -1.361153
  H      2.923582   -1.492721   -2.163489
  H      2.516113   -3.090597   -1.392965
  C      3.415123   -0.036838    0.337766
  C      4.041720   -1.186072   -0.121360
  C      1.166123   -0.064962   -0.632971
  H      4.441540   -1.184232   -1.119833
  H      3.752124    0.306434    1.315712
  C      4.829312   -2.044313    0.836086
  H      4.781844   -3.094699    0.541354
  H      5.887780   -1.762854    0.843968
  H      4.444420   -1.967648    1.854225
  C     -2.062791   -2.515142    0.504922
  H     -2.543493   -2.930875   -0.400097
  H     -1.667611   -3.357673    1.077046
  C     -2.684232    0.058405   -0.376117
  C     -3.507851   -0.497898    0.601538
  C     -3.079244   -1.746070    1.326236
  H     -2.628738   -1.483096    2.288213
  H     -3.951209   -2.371257    1.534366
  H      0.541714   -3.075360    0.272334
  C     -4.736984    0.097779    0.879532
  H     -5.373892   -0.342981    1.639344
  C     -3.124486    1.184568   -1.071862
  H     -2.501573    1.609028   -1.850709
  C     -5.157463    1.226822    0.199084
  H     -6.116714    1.675200    0.428052
  C     -4.346436    1.769874   -0.789860
  H     -4.668065    2.644709   -1.341995
  C      2.214629    2.141957    0.300256
  C      1.674614    2.259975    1.734985
  H      0.669809    1.847836    1.831036
  H      2.318052    1.728389    2.439322
  H      1.639182    3.309424    2.040627
  C      1.378541    3.022489   -0.647727
  H      1.576454    2.774455   -1.693273
  H      0.309015    2.951266   -0.472736
  H      1.655823    4.068352   -0.498689
  C      3.631312    2.750420    0.267679
  H      4.054704    2.691328   -0.737644
  H      4.321923    2.254568    0.948166
  H      3.583618    3.803500    0.555283

 Total Charge           Charge          ....    0
 Multiplicity           Mult            ....    1
 Number of Electrons    NEL             ....  168
 Basis Dimension        Dim             .... 3174

ORBITAL ENERGIES
----------------

  NO   OCC          E(Eh)            E(eV)
   0   2.0000     -15.540610      -422.8815
   1   2.0000     -11.254963      -306.2631
   2   2.0000     -11.246802      -306.0410
   3   2.0000     -11.245590      -306.0081
   4   2.0000     -11.237910      -305.7991
   5   2.0000     -11.236598      -305.7634
   6   2.0000     -11.234491      -305.7060
   7   2.0000     -11.232165      -305.6428
   8   2.0000     -11.230930      -305.6092
   9   2.0000     -11.226574      -305.4906
  10   2.0000     -11.225783      -305.4691
  11   2.0000     -11.225071      -305.4497
  12   2.0000     -11.224859      -305.4440
  13   2.0000     -11.224140      -305.4244
  14   2.0000     -11.223606      -305.4099
  15   2.0000     -11.221231      -305.3452
  16   2.0000     -11.217330      -305.2391
  17   2.0000     -11.216031      -305.2037
  18   2.0000     -11.215176      -305.1805
  19   2.0000     -11.213262      -305.1284
  20   2.0000     -11.206072      -304.9327
  21   2.0000     -11.203881      -304.8731
  22   2.0000     -11.203040      -304.8502
  23   2.0000      -1.251866       -34.0650
  24   2.0000      -1.154877       -31.4258
  25   2.0000      -1.138287       -30.9744
  26   2.0000      -1.088774       -29.6270
  27   2.0000      -1.068332       -29.0708
  28   2.0000      -1.053582       -28.6694
  29   2.0000      -1.045353       -28.4455
  30   2.0000      -1.002645       -27.2834
  31   2.0000      -0.991804       -26.9883
  32   2.0000      -0.965447       -26.2711
  33   2.0000      -0.928291       -25.2601
  34   2.0000      -0.926564       -25.2131
  35   2.0000      -0.917879       -24.9768
  36   2.0000      -0.886620       -24.1262
  37   2.0000      -0.856486       -23.3062
  38   2.0000      -0.837196       -22.7813
  39   2.0000      -0.824618       -22.4390
  40   2.0000      -0.806663       -21.9504
  41   2.0000      -0.767674       -20.8895
  42   2.0000      -0.749614       -20.3980
  43   2.0000      -0.731348       -19.9010
  44   2.0000      -0.692330       -18.8393
  45   2.0000      -0.667846       -18.1730
  46   2.0000      -0.664153       -18.0725
  47   2.0000      -0.652030       -17.7426
  48   2.0000      -0.638973       -17.3873
  49   2.0000      -0.631455       -17.1828
  50   2.0000      -0.627746       -17.0818
  51   2.0000      -0.608813       -16.5666
  52   2.0000      -0.602384       -16.3917
  53   2.0000      -0.595799       -16.2125
  54   2.0000      -0.589994       -16.0546
  55   2.0000      -0.586319       -15.9545
  56   2.0000      -0.579459       -15.7679
  57   2.0000      -0.569968       -15.5096
  58   2.0000      -0.563552       -15.3350
  59   2.0000      -0.561357       -15.2753
  60   2.0000      -0.545623       -14.8471
  61   2.0000      -0.542879       -14.7725
  62   2.0000      -0.541753       -14.7418
  63   2.0000      -0.532902       -14.5010
  64   2.0000      -0.522338       -14.2135
  65   2.0000      -0.521009       -14.1774
  66   2.0000      -0.517508       -14.0821
  67   2.0000      -0.515324       -14.0227
  68   2.0000      -0.510761       -13.8985
  69   2.0000      -0.498717       -13.5708
  70   2.0000      -0.497750       -13.5445
  71   2.0000      -0.487355       -13.2616
  72   2.0000      -0.475275       -12.9329
  73   2.0000      -0.469547       -12.7770
  74   2.0000      -0.461196       -12.5498
  75   2.0000      -0.454604       -12.3704
  76   2.0000      -0.443609       -12.0712
  77   2.0000      -0.436186       -11.8692
  78   2.0000      -0.416419       -11.3313
  79   2.0000      -0.359025        -9.7696
  80   2.0000      -0.326831        -8.8935
  81   2.0000      -0.319619        -8.6973
  82   2.0000      -0.294372        -8.0103
  83   2.0000      -0.273384        -7.4391
  84   0.0000       0.020627         0.5613
  85   0.0000       0.024422         0.6646
  86   0.0000       0.025463         0.6929
  87   0.0000       0.027528         0.7491
  88   0.0000       0.032104         0.8736

MULLIKEN ATOMIC CHARGES
-----------------------
   0 C :   -0.184573
   1 H :    0.299597
   2 C :   -0.244985
   3 C :    0.126980
   4 H :    0.472351
   5 H :    0.152298
   6 C :    1.416254
   7 H :    0.271267
   8 N :   -0.216998
   9 C :    0.846425
  10 C :   -1.243061
  11 H :    0.179151
  12 H :    0.151856
  13 C :   -0.340315
  14 C :   -0.364494
  15 C :    0.428943
  16 H :    0.229775
  17 H :    0.088295
  18 C :   -1.019266
  19 H :    0.243312
  20 H :    0.269943
  21 H :    0.200179
  22 C :   -0.953283
  23 H :    0.263878
  24 H :    0.227127
  25 C :    0.579070
  26 C :    0.235253
  27 C :   -0.737103
  28 H :    0.194090
  29 H :    0.197752
  30 H :    0.130711
  31 C :   -0.685741
  32 H :    0.225922
  33 C :   -0.836812
  34 H :    0.117910
  35 C :   -0.456724
  36 H :    0.257664
  37 C :   -0.499593
  38 H :    0.202432
  39 C :    2.047119
  40 C :   -1.375569
  41 H :    0.279640
  42 H :    0.098703
  43 H :    0.195893
  44 C :   -1.379523
  45 H :    0.176390
  46 H :    0.262683
  47 H :    0.159167
  48 C :   -1.352638
  49 H :    0.195757
  50 H :    0.223694
  51 H :    0.243197
Sum of atomic charges:    0.0000000

LOEWDIN ATOMIC CHARGES
----------------------
   0 C :    0.334215
   1 H :   -0.257296
   2 C :   -0.038523
   3 C :    0.503376
   4 H :   -0.317456
   5 H :   -0.308101
   6 C :   -0.041434
   7 H :   -0.254515
   8 N :    0.538442
   9 C :    0.023934
  10 C :    0.717129
  11 H :   -0.346328
  12 H :   -0.274917
  13 C :    0.343119
  14 C :    0.341194
  15 C :    0.029982
  16 H :   -0.364901
  17 H :   -0.352009
  18 C :    0.931134
  19 H :   -0.291298
  20 H :   -0.278707
  21 H :   -0.296674
  22 C :    0.354905
  23 H :   -0.240071
  24 H :   -0.271765
  25 C :   -0.024433
  26 C :   -0.036163
  27 C :    0.524671
  28 H :   -0.255823
  29 H :   -0.274309
  30 H :   -0.271299
  31 C :    0.358303
  32 H :   -0.312886
  33 C :    0.363008
  34 H :   -0.314921
  35 C :    0.349024
  36 H :   -0.320882
  37 C :    0.357150
  38 H :   -0.319515
  39 C :   -0.266073
  40 C :    0.935554
  41 H :   -0.283533
  42 H :   -0.269246
  43 H :   -0.258587
  44 C :    0.911259
  45 H :   -0.246538
  46 H :   -0.321210
  47 H :   -0.276714
  48 C :    0.897167
  49 H :   -0.250745
  50 H :   -0.301401
  51 H :   -0.275289

  Mayer bond orders larger than 0.100000
B(  0-C ,  1-H ) :   1.0753 B(  0-C ,  2-C ) :   0.1246 B(  0-C ,  8-N ) :   1.0081
B(  0-C , 10-C ) :  -0.2252 B(  0-C , 30-H ) :   1.1503 B(  1-H ,  2-C ) :  -0.2081
B(  2-C ,  3-C ) :  -0.3620 B(  2-C ,  8-N ) :   0.1509 B(  2-C ,  9-C ) :  -0.3283
B(  2-C , 10-C ) :   1.5134 B(  2-C , 12-H ) :  -0.1223 B(  2-C , 14-C ) :  -0.1598
B(  2-C , 15-C ) :   0.6449 B(  2-C , 25-C ) :   0.1004 B(  2-C , 30-H ) :  -0.1269
B(  3-C ,  4-H ) :   0.7284 B(  3-C ,  5-H ) :   0.7792 B(  3-C ,  6-C ) :   0.8657
B(  3-C ,  7-H ) :   0.2199 B(  3-C ,  9-C ) :  -0.4730 B(  3-C , 15-C ) :   0.2253
B(  3-C , 25-C ) :   0.1892 B(  3-C , 26-C ) :   0.1069 B(  3-C , 33-C ) :   0.2652
B(  3-C , 39-C ) :   0.1232 B(  3-C , 44-C ) :  -0.1610 B(  4-H ,  5-H ) :   0.1180
B(  4-H , 15-C ) :   0.1834 B(  4-H , 25-C ) :  -0.3038 B(  4-H , 33-C ) :  -0.1658
B(  4-H , 39-C ) :   0.1121 B(  5-H ,  9-C ) :   0.1000 B(  5-H , 15-C ) :   0.1387
B(  5-H , 33-C ) :   0.1087 B(  6-C ,  7-H ) :   0.9413 B(  6-C ,  8-N ) :   0.5658
B(  6-C , 15-C ) :  -0.3234 B(  6-C , 22-C ) :  -0.2130 B(  6-C , 25-C ) :  -0.3221
B(  6-C , 26-C ) :  -0.4883 B(  6-C , 33-C ) :  -0.7849 B(  7-H ,  8-N ) :  -0.1153
B(  7-H , 25-C ) :  -0.1004 B(  8-N ,  9-C ) :   0.1012 B(  8-N , 22-C ) :   0.7039
B(  8-N , 23-H ) :  -0.1547 B(  9-C , 10-C ) :   0.2652 B(  9-C , 13-C ) :   0.7506
B(  9-C , 14-C ) :  -0.3184 B(  9-C , 15-C ) :   1.1271 B(  9-C , 39-C ) :   0.4462
B(  9-C , 40-C ) :  -0.1230 B(  9-C , 44-C ) :  -0.2606 B(  9-C , 48-C ) :  -0.2012
B( 10-C , 11-H ) :   1.2151 B( 10-C , 12-H ) :   1.2163 B( 10-C , 13-C ) :  -0.2140
B( 10-C , 14-C ) :   0.5721 B( 10-C , 15-C ) :  -0.4369 B( 13-C , 14-C ) :   0.8568
B( 13-C , 17-H ) :   1.1235 B( 13-C , 18-C ) :  -0.1658 B( 13-C , 21-H ) :   0.1269
B( 13-C , 39-C ) :  -0.2640 B( 14-C , 15-C ) :   0.2789 B( 14-C , 16-H ) :   1.0081
B( 14-C , 18-C ) :   0.6540 B( 14-C , 20-H ) :  -0.1156 B( 14-C , 21-H ) :  -0.1552
B( 15-C , 39-C ) :  -0.2547 B( 18-C , 19-H ) :   1.0466 B( 18-C , 20-H ) :   1.0444
B( 18-C , 21-H ) :   1.0656 B( 22-C , 23-H ) :   0.9855 B( 22-C , 24-H ) :   1.0232
B( 22-C , 25-C ) :   0.1282 B( 22-C , 27-C ) :   1.2237 B( 25-C , 26-C ) :   1.0429
B( 25-C , 27-C ) :  -0.1525 B( 25-C , 31-C ) :  -0.6029 B( 25-C , 33-C ) :   1.0643
B( 25-C , 34-H ) :  -0.1030 B( 25-C , 37-C ) :  -0.2804 B( 26-C , 27-C ) :   0.4134
B( 26-C , 29-H ) :  -0.1867 B( 26-C , 31-C ) :   1.0782 B( 26-C , 32-H ) :  -0.1102
B( 26-C , 35-C ) :  -0.3000 B( 27-C , 28-H ) :   1.0585 B( 27-C , 29-H ) :   1.1474
B( 31-C , 32-H ) :   1.0719 B( 31-C , 33-C ) :   0.1491 B( 31-C , 35-C ) :   1.3266
B( 31-C , 36-H ) :  -0.1965 B( 31-C , 37-C ) :   0.1694 B( 33-C , 34-H ) :   1.2825
B( 33-C , 37-C ) :   1.2191 B( 33-C , 38-H ) :  -0.1968 B( 35-C , 36-H ) :   1.1572
B( 35-C , 37-C ) :   1.2018 B( 36-H , 37-C ) :  -0.1356 B( 37-C , 38-H ) :   1.2211
B( 39-C , 42-H ) :  -0.2566 B( 39-C , 43-H ) :  -0.1506 B( 39-C , 45-H ) :  -0.2694
B( 39-C , 46-H ) :  -0.1865 B( 39-C , 47-H ) :  -0.1453 B( 39-C , 49-H ) :  -0.2553
B( 39-C , 50-H ) :  -0.2056 B( 39-C , 51-H ) :  -0.1572 B( 40-C , 41-H ) :   1.0406
B( 40-C , 42-H ) :   1.2711 B( 40-C , 43-H ) :   1.1612 B( 40-C , 44-C ) :   0.1057
B( 40-C , 48-C ) :   0.1496 B( 44-C , 45-H ) :   1.2301 B( 44-C , 46-H ) :   1.0808
B( 44-C , 47-H ) :   1.1991 B( 44-C , 48-C ) :   0.2034 B( 48-C , 49-H ) :   1.2075
B( 48-C , 50-H ) :   1.1253 B( 48-C , 51-H ) :   1.1303

MP2 TOTAL ENERGY:     -908.797132605 Eh
FINAL SINGLE POINT ENERGY      -908.797132605304

DIPOLE MOMENT
-------------
                                X             Y             Z
Electronic contribution:    -17.89889      -4.39480      -3.81205
Nuclear contribution   :     18.05636       4.06222       3.81330
                        -----------------------------------------
Total Dipole Moment    :      0.15746      -0.33257       0.00124
                        -----------------------------------------
Magnitude (a.u.)       :      0.36797
Magnitude (Debye)      :      0.93531

Rotational constants in cm-1:     0.014611     0.005684     0.004585
Rotational constants in MHz :   438.024172   170.409287   137.468642

                             ****ORCA TERMINATED NORMALLY****
TOTAL RUN TIME: 0 days 19 hours 12 minutes 52 seconds 434 msec
