                         Program Version 4.2.1 -  RELEASE  -
|  1> %pal
|  2>  nprocs 32
|  3> end
|  4> !RI-MP2 aug-cc-pVQZ aug-cc-pVQZ/C TightSCF
|  5> %maxcore 4500
|  6> *xyzfile 0 1  02_24TS.xyz
|  7>
|  8>
|  9>                          ****END OF INPUT****

CARTESIAN COORDINATES (ANGSTROEM)
---------------------------------
  C      2.485343   -0.947783   -0.169996
  C      1.001627   -1.058158   -0.329573
  C      0.182035   -1.716405    0.558014
  C     -1.206572   -1.555316    0.507919
  C     -1.823272   -0.723668   -0.393674
  C     -0.612558    1.266697    0.087586
  C     -1.710693    2.234632    0.205218
  H     -1.320335    3.223516    0.460902
  H     -2.428239    1.941430    0.974126
  C      0.583999    0.959324    0.075272
  C     -3.304798   -0.497965   -0.373370
  H     -3.802778   -1.185962   -1.064547
  H     -3.572770    0.510544   -0.690765
  H     -1.334682   -0.511708   -1.336611
  H     -1.797589   -1.947506    1.330722
  H      0.648751   -0.885747   -1.340606
  C      2.019037    1.282410    0.264047
  H      2.242701    1.252015    1.340296
  H      2.247792    2.281143   -0.108501
  H      3.032029   -1.558488   -0.889889
  H      2.784918   -1.242123    0.845386
  H      0.619221   -2.164005    1.445651
  H     -3.721733   -0.664386    0.621883
  H     -2.257972    2.331244   -0.735121
  O      2.871975    0.394679   -0.430199

 Total Charge           Charge          ....    0
 Multiplicity           Mult            ....    1
 Number of Electrons    NEL             ....   82
 Basis Dimension        Dim             .... 1524

ORBITAL ENERGIES
----------------

  NO   OCC          E(Eh)            E(eV)
   0   2.0000     -20.554717      -559.3223
   1   2.0000     -11.290702      -307.2356
   2   2.0000     -11.275748      -306.8287
   3   2.0000     -11.240380      -305.8663
   4   2.0000     -11.239313      -305.8373
   5   2.0000     -11.238030      -305.8023
   6   2.0000     -11.224996      -305.4477
   7   2.0000     -11.221424      -305.3505
   8   2.0000     -11.219603      -305.3009
   9   2.0000     -11.219195      -305.2898
  10   2.0000     -11.215805      -305.1976
  11   2.0000      -1.381047       -37.5802
  12   2.0000      -1.112079       -30.2612
  13   2.0000      -1.058924       -28.8148
  14   2.0000      -1.039848       -28.2957
  15   2.0000      -0.994584       -27.0640
  16   2.0000      -0.959428       -26.1074
  17   2.0000      -0.905455       -24.6387
  18   2.0000      -0.855294       -23.2737
  19   2.0000      -0.809588       -22.0300
  20   2.0000      -0.733712       -19.9653
  21   2.0000      -0.686002       -18.6671
  22   2.0000      -0.675088       -18.3701
  23   2.0000      -0.657448       -17.8901
  24   2.0000      -0.634181       -17.2570
  25   2.0000      -0.616457       -16.7747
  26   2.0000      -0.602485       -16.3945
  27   2.0000      -0.597803       -16.2670
  28   2.0000      -0.579775       -15.7765
  29   2.0000      -0.555676       -15.1207
  30   2.0000      -0.550641       -14.9837
  31   2.0000      -0.546742       -14.8776
  32   2.0000      -0.538276       -14.6472
  33   2.0000      -0.514938       -14.0122
  34   2.0000      -0.495966       -13.4959
  35   2.0000      -0.485415       -13.2088
  36   2.0000      -0.467166       -12.7122
  37   2.0000      -0.431634       -11.7453
  38   2.0000      -0.360849        -9.8192
  39   2.0000      -0.319362        -8.6903
  40   2.0000      -0.287634        -7.8269
  41   0.0000       0.023781         0.6471
  42   0.0000       0.028910         0.7867
  43   0.0000       0.030545         0.8312
  44   0.0000       0.031790         0.8650
  45   0.0000       0.040329         1.0974

MULLIKEN ATOMIC CHARGES
-----------------------
   0 C :   -0.143343
   1 C :    0.093812
   2 C :   -0.480989
   3 C :   -0.404802
   4 C :    0.087205
   5 C :    0.018109
   6 C :   -0.568899
   7 H :    0.246267
   8 H :    0.185137
   9 C :   -0.227680
  10 C :   -0.971002
  11 H :    0.282182
  12 H :    0.206378
  13 H :    0.316250
  14 H :    0.226898
  15 H :    0.326128
  16 C :    0.173726
  17 H :    0.235327
  18 H :    0.335267
  19 H :    0.426950
  20 H :    0.116345
  21 H :    0.215658
  22 H :    0.154238
  23 H :    0.187962
  24 O :   -1.037124
Sum of atomic charges:    0.0000000

LOEWDIN ATOMIC CHARGES
----------------------
   0 C :    0.162754
   1 C :    0.197708
   2 C :    0.352596
   3 C :    0.345491
   4 C :    0.284572
   5 C :    0.152866
   6 C :    0.863722
   7 H :   -0.294718
   8 H :   -0.309053
   9 C :    0.077134
  10 C :    0.907552
  11 H :   -0.273625
  12 H :   -0.328872
  13 H :   -0.351368
  14 H :   -0.321863
  15 H :   -0.332800
  16 C :    0.125190
  17 H :   -0.301663
  18 H :   -0.322574
  19 H :   -0.301097
  20 H :   -0.301674
  21 H :   -0.313308
  22 H :   -0.292566
  23 H :   -0.313198
  24 O :    0.888793

  Mayer bond orders larger than 0.100000
B(  0-C ,  1-C ) :   0.6493 B(  0-C , 19-H ) :   0.8586 B(  0-C , 20-H ) :   1.1266
B(  0-C , 24-O ) :   0.6803 B(  1-C ,  2-C ) :   1.1765 B(  1-C ,  3-C ) :  -0.3722
B(  1-C ,  9-C ) :   0.2864 B(  1-C , 15-H ) :   0.8977 B(  1-C , 20-H ) :  -0.1398
B(  2-C ,  3-C ) :   1.1718 B(  2-C ,  4-C ) :  -0.1536 B(  2-C , 14-H ) :  -0.1129
B(  2-C , 21-H ) :   1.0596 B(  3-C ,  4-C ) :   1.4226 B(  3-C , 14-H ) :   1.0429
B(  3-C , 21-H ) :  -0.1468 B(  4-C ,  5-C ) :   0.3252 B(  4-C ,  9-C ) :  -0.1148
B(  4-C , 10-C ) :   0.4340 B(  4-C , 11-H ) :  -0.1596 B(  4-C , 12-H ) :  -0.1436
B(  4-C , 13-H ) :   0.9121 B(  4-C , 22-H ) :  -0.1177 B(  5-C ,  6-C ) :   0.2352
B(  5-C ,  8-H ) :  -0.1692 B(  5-C ,  9-C ) :   1.9941 B(  5-C , 16-C ) :  -0.1055
B(  5-C , 23-H ) :  -0.2061 B(  6-C ,  7-H ) :   1.0513 B(  6-C ,  8-H ) :   1.0774
B(  6-C , 23-H ) :   1.0917 B(  9-C , 16-C ) :   0.6551 B(  9-C , 18-H ) :  -0.1134
B( 10-C , 11-H ) :   1.0526 B( 10-C , 12-H ) :   1.0774 B( 10-C , 22-H ) :   1.0826
B( 16-C , 17-H ) :   0.9407 B( 16-C , 18-H ) :   1.0125 B( 16-C , 24-O ) :   0.6533

MP2 TOTAL ENERGY:     -463.754679873 Eh
FINAL SINGLE POINT ENERGY      -463.754679872635

DIPOLE MOMENT
-------------
                                X             Y             Z
Electronic contribution:      8.17692      -1.20874      -0.58825
Nuclear contribution   :     -8.83226       1.42108       0.86744
                        -----------------------------------------
Total Dipole Moment    :     -0.65533       0.21233       0.27919
                        -----------------------------------------
Magnitude (a.u.)       :      0.74330
Magnitude (Debye)      :      1.88932

Rotational constants in cm-1:     0.059429     0.027278     0.020078
Rotational constants in MHz :  1781.650953   817.777248   601.923643

                             ****ORCA TERMINATED NORMALLY****
TOTAL RUN TIME: 0 days 1 hours 42 minutes 7 seconds 262 msec
