                         Program Version 4.2.1 -  RELEASE  -
|  1> %pal
|  2>  nprocs 32
|  3> end
|  4> !RI-MP2 aug-cc-pVQZ aug-cc-pVQZ/C TightSCF
|  5> %maxcore 4500
|  6> *xyzfile 0 1  04_32R1.xyz
|  7>
|  8>
|  9>                          ****END OF INPUT****

CARTESIAN COORDINATES (ANGSTROEM)
---------------------------------
  H     -3.550853   -0.796061    0.000239
  O     -3.171828    0.087044    0.000203
  C     -1.811820    0.015934    0.000116
  C     -1.124169   -1.190641    0.000079
  C      0.263571   -1.200490   -0.000010
  C      0.954303   -0.002195   -0.000062
  C      0.273882    1.206318   -0.000025
  C     -1.109907    1.215184    0.000064
  H     -1.660859    2.146568    0.000094
  H      0.803384   -2.137970   -0.000039
  H     -1.668140   -2.129197    0.000119
  H      0.826284    2.136534   -0.000066
  Cl     2.702921   -0.010640   -0.000173

 Total Charge           Charge          ....    0
 Multiplicity           Mult            ....    1
 Number of Electrons    NEL             ....   66
 Basis Dimension        Dim             ....  874

ORBITAL ENERGIES
----------------

  NO   OCC          E(Eh)            E(eV)
   0   2.0000    -104.835934     -2852.7308
   1   2.0000     -20.598817      -560.5223
   2   2.0000     -11.313717      -307.8619
   3   2.0000     -11.294778      -307.3465
   4   2.0000     -11.256556      -306.3065
   5   2.0000     -11.254783      -306.2582
   6   2.0000     -11.247583      -306.0623
   7   2.0000     -11.241783      -305.9045
   8   2.0000     -10.561222      -287.3855
   9   2.0000      -8.028368      -218.4630
  10   2.0000      -8.026673      -218.4169
  11   2.0000      -8.026588      -218.4146
  12   2.0000      -1.418255       -38.5927
  13   2.0000      -1.190585       -32.3975
  14   2.0000      -1.115208       -30.3464
  15   2.0000      -1.040611       -28.3165
  16   2.0000      -0.991581       -26.9823
  17   2.0000      -0.868096       -23.6221
  18   2.0000      -0.827159       -22.5081
  19   2.0000      -0.751550       -20.4507
  20   2.0000      -0.690796       -18.7975
  21   2.0000      -0.659854       -17.9555
  22   2.0000      -0.626636       -17.0516
  23   2.0000      -0.609419       -16.5831
  24   2.0000      -0.605450       -16.4751
  25   2.0000      -0.585356       -15.9283
  26   2.0000      -0.535384       -14.5685
  27   2.0000      -0.531565       -14.4646
  28   2.0000      -0.515554       -14.0289
  29   2.0000      -0.457630       -12.4527
  30   2.0000      -0.453468       -12.3395
  31   2.0000      -0.360637        -9.8134
  32   2.0000      -0.320410        -8.7188
  33   0.0000       0.020254         0.5511
  34   0.0000       0.029757         0.8097
  35   0.0000       0.033319         0.9067
  36   0.0000       0.043833         1.1928
  37   0.0000       0.049558         1.3485

MULLIKEN ATOMIC CHARGES
-----------------------
   0 H :    0.361880
   1 O :   -0.778298
   2 C :    1.035699
   3 C :   -0.526858
   4 C :   -0.057043
   5 C :   -0.402293
   6 C :   -0.198016
   7 C :   -0.468817
   8 H :    0.337662
   9 H :    0.435415
  10 H :    0.223225
  11 H :    0.398615
  12 Cl:   -0.361171
Sum of atomic charges:   -0.0000000

LOEWDIN ATOMIC CHARGES
----------------------
   0 H :   -0.802184
   1 O :    1.277434
   2 C :   -0.445374
   3 C :    0.320088
   4 C :    0.190450
   5 C :   -0.858164
   6 C :    0.191594
   7 C :    0.312106
   8 H :   -0.323414
   9 H :   -0.352600
  10 H :   -0.321766
  11 H :   -0.352506
  12 Cl:    1.164337

  Mayer bond orders larger than 0.100000
B(  0-H ,  1-O ) :   0.8910 B(  0-H ,  2-C ) :  -0.1084 B(  1-O ,  3-C ) :   0.2149
B(  1-O ,  7-C ) :   0.2940 B(  2-C ,  3-C ) :   1.2461 B(  2-C ,  4-C ) :  -0.1569
B(  2-C ,  6-C ) :  -0.1736 B(  2-C ,  7-C ) :   1.2483 B(  3-C ,  4-C ) :   1.2402
B(  3-C , 10-H ) :   1.0606 B(  4-C ,  5-C ) :   1.1230 B(  4-C ,  9-H ) :   0.8605
B(  4-C , 10-H ) :  -0.1122 B(  4-C , 12-Cl) :  -0.2050 B(  5-C ,  6-C ) :   1.1693
B(  5-C , 12-Cl) :   1.0516 B(  6-C ,  7-C ) :   1.3130 B(  6-C ,  8-H ) :  -0.1030
B(  6-C , 11-H ) :   0.8888 B(  6-C , 12-Cl) :  -0.1477 B(  7-C ,  8-H ) :   0.9340
B(  7-C , 11-H ) :  -0.1046

MP2 TOTAL ENERGY:     -766.105634749 Eh
FINAL SINGLE POINT ENERGY      -766.105634748766

DIPOLE MOMENT
-------------
                                X             Y             Z
Electronic contribution:      8.09445       0.21204      -0.00052
Nuclear contribution   :     -8.83875      -0.73618       0.00058
                        -----------------------------------------
Total Dipole Moment    :     -0.74430      -0.52414       0.00005
                        -----------------------------------------
Magnitude (a.u.)       :      0.91033
Magnitude (Debye)      :      2.31388

Rotational constants in cm-1:     0.190014     0.032353     0.027646
Rotational constants in MHz :  5696.489588   969.915740   828.799727

                             ****ORCA TERMINATED NORMALLY****
TOTAL RUN TIME: 0 days 0 hours 19 minutes 42 seconds 772 msec
