                         Program Version 4.2.1 -  RELEASE  -
|  1> %pal
|  2>  nprocs 32
|  3> end
|  4> !RI-MP2 aug-cc-pVQZ aug-cc-pVQZ/C TightSCF
|  5> %maxcore 4500
|  6> *xyzfile -1 1  08_6R2.xyz
|  7>
|  8>
|  9>                          ****END OF INPUT****

CARTESIAN COORDINATES (ANGSTROEM)
---------------------------------
  N      1.590212    1.140865    0.000075
  C      2.248818   -0.020803    0.000069
  N      1.538125   -1.167479    0.000029
  C      0.265124   -0.710943    0.000012
  C      0.287456    0.718743    0.000013
  C     -0.931414    1.368044   -0.000029
  N     -2.073645    0.673788   -0.000066
  N     -0.880646   -1.410991   -0.000033
  C     -1.974226   -0.665114   -0.000066
  H     -2.920734   -1.201359   -0.000105
  H     -1.005957    2.453306   -0.000019
  H      3.333816   -0.044782    0.000102

 Total Charge           Charge          ....   -1
 Multiplicity           Mult            ....    1
 Number of Electrons    NEL             ....   62
 Basis Dimension        Dim             ....  858

ORBITAL ENERGIES
----------------

  NO   OCC          E(Eh)            E(eV)
   0   2.0000     -15.400981      -419.0820
   1   2.0000     -15.398717      -419.0204
   2   2.0000     -15.371561      -418.2814
   3   2.0000     -15.365020      -418.1034
   4   2.0000     -11.141998      -303.1892
   5   2.0000     -11.124134      -302.7031
   6   2.0000     -11.123691      -302.6910
   7   2.0000     -11.122752      -302.6655
   8   2.0000     -11.083206      -301.5894
   9   2.0000      -1.165140       -31.7051
  10   2.0000      -1.113688       -30.3050
  11   2.0000      -1.028961       -27.9994
  12   2.0000      -0.957325       -26.0501
  13   2.0000      -0.862991       -23.4832
  14   2.0000      -0.722008       -19.6468
  15   2.0000      -0.693026       -18.8582
  16   2.0000      -0.625595       -17.0233
  17   2.0000      -0.555917       -15.1273
  18   2.0000      -0.522336       -14.2135
  19   2.0000      -0.469539       -12.7768
  20   2.0000      -0.440868       -11.9966
  21   2.0000      -0.439510       -11.9597
  22   2.0000      -0.401778       -10.9329
  23   2.0000      -0.357181        -9.7194
  24   2.0000      -0.343376        -9.3437
  25   2.0000      -0.289250        -7.8709
  26   2.0000      -0.282879        -7.6975
  27   2.0000      -0.258819        -7.0428
  28   2.0000      -0.233584        -6.3562
  29   2.0000      -0.174456        -4.7472
  30   2.0000      -0.146367        -3.9828
  31   0.0000       0.107444         2.9237
  32   0.0000       0.112040         3.0488
  33   0.0000       0.114371         3.1122
  34   0.0000       0.154280         4.1982
  35   0.0000       0.155786         4.2392

MULLIKEN ATOMIC CHARGES
-----------------------
   0 N :   -0.739084
   1 C :   -0.370775
   2 N :   -0.792982
   3 C :    0.722325
   4 C :    0.268687
   5 C :   -0.053415
   6 N :   -0.681515
   7 N :   -0.633352
   8 C :   -0.319298
   9 H :    0.584941
  10 H :    0.448248
  11 H :    0.566219
Sum of atomic charges:   -1.0000000

LOEWDIN ATOMIC CHARGES
----------------------
   0 N :    0.514554
   1 C :   -0.310648
   2 N :    0.513508
   3 C :   -0.802462
   4 C :   -0.542654
   5 C :    0.022701
   6 N :    0.517541
   7 N :    0.544190
   8 C :   -0.272940
   9 H :   -0.424327
  10 H :   -0.366078
  11 H :   -0.393385

  Mayer bond orders larger than 0.100000
B(  0-N ,  1-C ) :   1.6440 B(  0-N ,  4-C ) :   0.7477 B(  1-C ,  2-N ) :   1.4966
B(  1-C , 11-H ) :   0.6975 B(  2-N ,  3-C ) :   0.8452 B(  3-C ,  4-C ) :   1.2737
B(  3-C ,  7-N ) :   1.0022 B(  4-C ,  5-C ) :   1.1844 B(  5-C ,  6-N ) :   1.1282
B(  5-C , 10-H ) :   0.8574 B(  6-N ,  8-C ) :   1.4246 B(  7-N ,  8-C ) :   1.4650
B(  8-C ,  9-H ) :   0.7159

MP2 TOTAL ENERGY:     -410.773625504 Eh
FINAL SINGLE POINT ENERGY      -410.773625503571

DIPOLE MOMENT
-------------
                                X             Y             Z
Electronic contribution:      0.16158      -0.66752       0.00001
Nuclear contribution   :     -0.56927       1.15679      -0.00002
                        -----------------------------------------
Total Dipole Moment    :     -0.40769       0.48927      -0.00001
                        -----------------------------------------
Magnitude (a.u.)       :      0.63686
Magnitude (Debye)      :      1.61878

Rotational constants in cm-1:     0.141484     0.060144     0.042204
Rotational constants in MHz :  4241.592925  1803.071483  1265.230744

                             ****ORCA TERMINATED NORMALLY****
TOTAL RUN TIME: 0 days 0 hours 17 minutes 26 seconds 824 msec
