                         Program Version 4.2.1 -  RELEASE  -
|  1> %pal
|  2>  nprocs 32
|  3> end
|  4> !RI-MP2 aug-cc-pVQZ aug-cc-pVQZ/C TightSCF
|  5> %maxcore 4500
|  6> *xyzfile 0 1  04_23R1.xyz
|  7>
|  8>
|  9>                          ****END OF INPUT****

CARTESIAN COORDINATES (ANGSTROEM)
---------------------------------
  C     -2.529849   -0.103247    0.987313
  S     -1.792261   -0.321828   -0.653291
  C     -0.497444    0.949981   -0.599612
  C      0.646676    0.663647    0.370866
  C      1.654758    1.817138    0.379785
  C      1.353018   -0.608203   -0.039032
  O      1.481126   -1.480179    0.977739
  O      1.788795   -0.827166   -1.136358
  H     -3.405794   -0.749425    1.027321
  H     -1.847349   -0.398777    1.783398
  H     -2.851876    0.928449    1.134523
  H      1.162143    2.744582    0.677176
  H      2.084491    1.955583   -0.613805
  H      2.468448    1.626513    1.081798
  H     -0.104643    1.005700   -1.615736
  H     -0.952407    1.913870   -0.361379
  H      0.254885    0.522236    1.378766
  H      1.945949   -2.256621    0.633620

 Total Charge           Charge          ....    0
 Multiplicity           Mult            ....    1
 Number of Electrons    NEL             ....   72
 Basis Dimension        Dim             .... 1104

ORBITAL ENERGIES
----------------

  NO   OCC          E(Eh)            E(eV)
   0   2.0000     -91.946131     -2501.9814
   1   2.0000     -20.611300      -560.8620
   2   2.0000     -20.544052      -559.0321
   3   2.0000     -11.381460      -309.7053
   4   2.0000     -11.263255      -306.4887
   5   2.0000     -11.256531      -306.3058
   6   2.0000     -11.253544      -306.2245
   7   2.0000     -11.234009      -305.6929
   8   2.0000      -8.947937      -243.4857
   9   2.0000      -6.629517      -180.3983
  10   2.0000      -6.628554      -180.3721
  11   2.0000      -6.627704      -180.3490
  12   2.0000      -1.468135       -39.9500
  13   2.0000      -1.363042       -37.0903
  14   2.0000      -1.117298       -30.4032
  15   2.0000      -1.041019       -28.3276
  16   2.0000      -0.950956       -25.8768
  17   2.0000      -0.909167       -24.7397
  18   2.0000      -0.827479       -22.5169
  19   2.0000      -0.772177       -21.0120
  20   2.0000      -0.714417       -19.4403
  21   2.0000      -0.697250       -18.9731
  22   2.0000      -0.645171       -17.5560
  23   2.0000      -0.620906       -16.8957
  24   2.0000      -0.605917       -16.4879
  25   2.0000      -0.594204       -16.1691
  26   2.0000      -0.589899       -16.0520
  27   2.0000      -0.565885       -15.3985
  28   2.0000      -0.548541       -14.9265
  29   2.0000      -0.537723       -14.6322
  30   2.0000      -0.514610       -14.0032
  31   2.0000      -0.485506       -13.2113
  32   2.0000      -0.479020       -13.0348
  33   2.0000      -0.449013       -12.2183
  34   2.0000      -0.430760       -11.7216
  35   2.0000      -0.343238        -9.3400
  36   0.0000       0.022633         0.6159
  37   0.0000       0.029264         0.7963
  38   0.0000       0.029974         0.8156
  39   0.0000       0.036642         0.9971
  40   0.0000       0.043710         1.1894

MULLIKEN ATOMIC CHARGES
-----------------------
   0 C :   -1.058339
   1 S :   -0.028842
   2 C :   -0.607723
   3 C :    0.241480
   4 C :   -0.961844
   5 C :    1.295295
   6 O :   -0.805640
   7 O :   -0.898587
   8 H :    0.424395
   9 H :    0.304897
  10 H :    0.265649
  11 H :    0.252567
  12 H :    0.237362
  13 H :    0.267022
  14 H :    0.263287
  15 H :    0.221817
  16 H :    0.258801
  17 H :    0.328402
Sum of atomic charges:    0.0000000

LOEWDIN ATOMIC CHARGES
----------------------
   0 C :    0.556646
   1 S :    1.349492
   2 C :    0.121176
   3 C :   -0.047544
   4 C :    0.920889
   5 C :   -1.091598
   6 O :    1.274431
   7 O :    0.738171
   8 H :   -0.389105
   9 H :   -0.371729
  10 H :   -0.361902
  11 H :   -0.272840
  12 H :   -0.279689
  13 H :   -0.266478
  14 H :   -0.380561
  15 H :   -0.347612
  16 H :   -0.346670
  17 H :   -0.805076

  Mayer bond orders larger than 0.100000
B(  0-C ,  1-S ) :   1.0525 B(  0-C ,  8-H ) :   0.8223 B(  0-C ,  9-H ) :   0.8923
B(  0-C , 10-H ) :   0.9209 B(  1-S ,  2-C ) :   0.9289 B(  2-C ,  3-C ) :   0.7159
B(  2-C ,  4-C ) :   0.1046 B(  2-C , 14-H ) :   0.9048 B(  2-C , 15-H ) :   0.9499
B(  3-C ,  4-C ) :   0.6454 B(  3-C ,  5-C ) :   0.9432 B(  3-C ,  6-O ) :  -0.1497
B(  3-C , 16-H ) :   0.8869 B(  4-C , 11-H ) :   0.9763 B(  4-C , 12-H ) :   0.9949
B(  4-C , 13-H ) :   0.9946 B(  5-C ,  6-O ) :   0.7740 B(  5-C ,  7-O ) :   1.2388
B(  6-O ,  7-O ) :   0.1450 B(  6-O , 17-H ) :   0.9379

MP2 TOTAL ENERGY:     -744.233856707 Eh
FINAL SINGLE POINT ENERGY      -744.233856706904

DIPOLE MOMENT
-------------
                                X             Y             Z
Electronic contribution:      1.04153      -6.73790      -4.05922
Nuclear contribution   :     -1.14803       7.32134       5.18275
                        -----------------------------------------
Total Dipole Moment    :     -0.10650       0.58344       1.12353
                        -----------------------------------------
Magnitude (a.u.)       :      1.27046
Magnitude (Debye)      :      3.22925

Rotational constants in cm-1:     0.077894     0.037404     0.033429
Rotational constants in MHz :  2335.205351  1121.342304  1002.173688

                             ****ORCA TERMINATED NORMALLY****
TOTAL RUN TIME: 0 days 0 hours 31 minutes 11 seconds 953 msec
