                         Program Version 4.2.1 -  RELEASE  -
|  1> %pal
|  2>  nprocs 32
|  3> end
|  4> !RI-MP2 aug-cc-pVQZ aug-cc-pVQZ/C TightSCF
|  5> %maxcore 4500
|  6> *xyzfile 0 2  04_51R2.xyz
|  7>
|  8>
|  9>                          ****END OF INPUT****

CARTESIAN COORDINATES (ANGSTROEM)
---------------------------------
  N      0.000000    0.311563    0.000004
  C     -1.196352   -0.480300    0.000027
  C      1.196352   -0.480300   -0.000024
  C     -2.447818    0.380566   -0.000010
  H      1.190494   -1.149548    0.876127
  H     -1.190493   -1.149474    0.876234
  H     -1.190490   -1.149551   -0.876122
  C      2.447818    0.380566    0.000005
  H      1.190489   -1.149477   -0.876229
  H     -2.469463    1.022447    0.882100
  H      2.469472    1.022369    0.882172
  H     -3.348199   -0.237857    0.000020
  H     -2.469468    1.022366   -0.882179
  H      2.469459    1.022444   -0.882107
  H      3.348199   -0.237857   -0.000028

 Total Charge           Charge          ....    0
 Multiplicity           Mult            ....    2
 Number of Electrons    NEL             ....   41
 Basis Dimension        Dim             ....  860

ORBITAL ENERGIES
----------------
                 SPIN UP ORBITALS
  NO   OCC          E(Eh)            E(eV)
   0   1.0000     -15.571066      -423.7102
   1   1.0000     -11.247095      -306.0490
   2   1.0000     -11.247075      -306.0485
   3   1.0000     -11.209562      -305.0277
   4   1.0000     -11.209562      -305.0277
   5   1.0000      -1.232845       -33.5474
   6   1.0000      -1.032743       -28.1024
   7   1.0000      -0.963519       -26.2187
   8   1.0000      -0.836508       -22.7626
   9   1.0000      -0.799525       -21.7562
  10   1.0000      -0.676290       -18.4028
  11   1.0000      -0.640285       -17.4230
  12   1.0000      -0.601800       -16.3758
  13   1.0000      -0.578205       -15.7337
  14   1.0000      -0.541659       -14.7393
  15   1.0000      -0.529203       -14.4004
  16   1.0000      -0.513086       -13.9618
  17   1.0000      -0.486630       -13.2419
  18   1.0000      -0.485265       -13.2047
  19   1.0000      -0.423743       -11.5306
  20   1.0000      -0.413021       -11.2389
  21   0.0000       0.027084         0.7370
  22   0.0000       0.030919         0.8413
  23   0.0000       0.035517         0.9665
  24   0.0000       0.036038         0.9806
  25   0.0000       0.048638         1.3235

                 SPIN DOWN ORBITALS
  NO   OCC          E(Eh)            E(eV)
   0   1.0000     -15.539134      -422.8413
   1   1.0000     -11.250140      -306.1319
   2   1.0000     -11.250121      -306.1314
   3   1.0000     -11.209445      -305.0245
   4   1.0000     -11.209444      -305.0245
   5   1.0000      -1.161038       -31.5935
   6   1.0000      -1.032308       -28.0905
   7   1.0000      -0.945915       -25.7397
   8   1.0000      -0.834554       -22.7094
   9   1.0000      -0.768125       -20.9018
  10   1.0000      -0.628917       -17.1137
  11   1.0000      -0.626385       -17.0448
  12   1.0000      -0.597210       -16.2509
  13   1.0000      -0.574777       -15.6405
  14   1.0000      -0.537049       -14.6139
  15   1.0000      -0.508975       -13.8499
  16   1.0000      -0.507293       -13.8041
  17   1.0000      -0.482724       -13.1356
  18   1.0000      -0.478740       -13.0272
  19   1.0000      -0.390561       -10.6277
  20   0.0000       0.027259         0.7417
  21   0.0000       0.030915         0.8412
  22   0.0000       0.035435         0.9642
  23   0.0000       0.036097         0.9823
  24   0.0000       0.048650         1.3238

MULLIKEN ATOMIC CHARGES AND SPIN POPULATIONS
--------------------------------------------
   0 N :   -0.481049    1.047914
   1 C :   -0.112590   -0.147300
   2 C :   -0.112572   -0.147306
   3 C :   -0.879005    0.011539
   4 H :    0.241556    0.060794
   5 H :    0.241556    0.060797
   6 H :    0.241568    0.060792
   7 C :   -0.878966    0.011537
   8 H :    0.241575    0.060800
   9 H :    0.230624   -0.002331
  10 H :    0.230639   -0.002331
  11 H :    0.287713   -0.005122
  12 H :    0.230633   -0.002331
  13 H :    0.230634   -0.002331
  14 H :    0.287684   -0.005121
Sum of atomic charges         :   -0.0000000

LOEWDIN ATOMIC CHARGES AND SPIN POPULATIONS
-------------------------------------------
   0 N :    0.692494    0.617867
   1 C :    0.238792    0.142197
   2 C :    0.238792    0.142197
   3 C :    0.896202    0.003533
   4 H :   -0.299455    0.023153
   5 H :   -0.299455    0.023156
   6 H :   -0.299455    0.023153
   7 C :    0.896202    0.003533
   8 H :   -0.299455    0.023155
   9 H :   -0.295571   -0.000312
  10 H :   -0.295570   -0.000311
  11 H :   -0.291190   -0.000349
  12 H :   -0.295570   -0.000311
  13 H :   -0.295571   -0.000312
  14 H :   -0.291190   -0.000349

  Mayer bond orders larger than 0.100000
B(  0-N ,  1-C ) :   0.9434 B(  0-N ,  2-C ) :   0.9434 B(  1-C ,  3-C ) :   0.8813
B(  1-C ,  5-H ) :   0.8731 B(  1-C ,  6-H ) :   0.8731 B(  2-C ,  4-H ) :   0.8731
B(  2-C ,  7-C ) :   0.8813 B(  2-C ,  8-H ) :   0.8731 B(  3-C ,  9-H ) :   0.9560
B(  3-C , 11-H ) :   0.9869 B(  3-C , 12-H ) :   0.9560 B(  7-C , 10-H ) :   0.9560
B(  7-C , 13-H ) :   0.9560 B(  7-C , 14-H ) :   0.9869

MP2 TOTAL ENERGY:     -212.732252685 Eh
FINAL SINGLE POINT ENERGY      -212.732252684817

DIPOLE MOMENT
-------------
                                X             Y             Z
Electronic contribution:     -0.00000       0.43338       0.00001
Nuclear contribution   :      0.00000      -1.04863      -0.00001
                        -----------------------------------------
Total Dipole Moment    :     -0.00000      -0.61525      -0.00000
                        -----------------------------------------
Magnitude (a.u.)       :      0.61525
Magnitude (Debye)      :      1.56385

Rotational constants in cm-1:     0.642034     0.070994     0.067097
Rotational constants in MHz : 19247.681518  2128.336854  2011.511757

                             ****ORCA TERMINATED NORMALLY****
TOTAL RUN TIME: 0 days 0 hours 16 minutes 38 seconds 201 msec
