                         Program Version 4.2.1 -  RELEASE  -
|  1> %pal
|  2>  nprocs 32
|  3> end
|  4> !RI-MP2 aug-cc-pVQZ aug-cc-pVQZ/C TightSCF
|  5> %maxcore 4500
|  6> *xyzfile 0 1  04_53R1.xyz
|  7>
|  8>
|  9>                          ****END OF INPUT****

CARTESIAN COORDINATES (ANGSTROEM)
---------------------------------
  C      2.872282    0.018805    0.011395
  C      2.174859   -1.179422   -0.043633
  C      0.787230   -1.181240   -0.063949
  C      0.070220    0.012961   -0.034468
  C      0.780759    1.209854    0.026114
  C      2.168724    1.213922    0.048325
  H      3.955452    0.021665    0.026187
  H      2.712601   -2.119886   -0.069429
  H      0.245583   -2.117491   -0.101364
  H      0.255401    2.155761    0.056164
  H      2.701121    2.156671    0.092360
  C     -1.457242   -0.021370   -0.008333
  O     -1.931921   -1.225243   -0.620142
  H     -1.671107   -1.222284   -1.546329
  C     -2.084186    1.172265   -0.726812
  H     -3.165938    1.036245   -0.756134
  H     -1.874419    2.113982   -0.218680
  H     -1.713288    1.251388   -1.751991
  C     -1.945055   -0.097836    1.434781
  H     -1.612878    0.775318    1.998275
  H     -3.035334   -0.144631    1.456451
  H     -1.547373   -0.992430    1.915091

 Total Charge           Charge          ....    0
 Multiplicity           Mult            ....    1
 Number of Electrons    NEL             ....   74
 Basis Dimension        Dim             .... 1352

ORBITAL ENERGIES
----------------

  NO   OCC          E(Eh)            E(eV)
   0   2.0000     -20.552771      -559.2693
   1   2.0000     -11.293278      -307.3057
   2   2.0000     -11.236303      -305.7553
   3   2.0000     -11.233106      -305.6683
   4   2.0000     -11.231867      -305.6346
   5   2.0000     -11.230722      -305.6035
   6   2.0000     -11.229689      -305.5754
   7   2.0000     -11.226367      -305.4850
   8   2.0000     -11.218063      -305.2590
   9   2.0000     -11.211798      -305.0885
  10   2.0000      -1.364784       -37.1377
  11   2.0000      -1.156735       -31.4764
  12   2.0000      -1.068845       -29.0848
  13   2.0000      -1.015251       -27.6264
  14   2.0000      -0.998164       -27.1614
  15   2.0000      -0.943755       -25.6809
  16   2.0000      -0.846205       -23.0264
  17   2.0000      -0.824987       -22.4490
  18   2.0000      -0.774389       -21.0722
  19   2.0000      -0.716225       -19.4895
  20   2.0000      -0.674506       -18.3542
  21   2.0000      -0.638586       -17.3768
  22   2.0000      -0.621529       -16.9127
  23   2.0000      -0.617892       -16.8137
  24   2.0000      -0.605109       -16.4658
  25   2.0000      -0.586934       -15.9713
  26   2.0000      -0.552536       -15.0353
  27   2.0000      -0.540873       -14.7179
  28   2.0000      -0.533715       -14.5231
  29   2.0000      -0.527534       -14.3549
  30   2.0000      -0.505391       -13.7524
  31   2.0000      -0.501551       -13.6479
  32   2.0000      -0.490604       -13.3500
  33   2.0000      -0.466278       -12.6881
  34   2.0000      -0.441514       -12.0142
  35   2.0000      -0.337589        -9.1863
  36   2.0000      -0.330588        -8.9958
  37   0.0000       0.023705         0.6451
  38   0.0000       0.027796         0.7564
  39   0.0000       0.029847         0.8122
  40   0.0000       0.034331         0.9342
  41   0.0000       0.040160         1.0928

MULLIKEN ATOMIC CHARGES
-----------------------
   0 C :   -0.397179
   1 C :   -0.373094
   2 C :   -0.758197
   3 C :    0.730571
   4 C :   -0.541375
   5 C :   -0.323855
   6 H :    0.347664
   7 H :    0.215494
   8 H :    0.225007
   9 H :    0.214220
  10 H :    0.191716
  11 C :    2.156544
  12 O :   -1.186549
  13 H :    0.324673
  14 C :   -1.184867
  15 H :    0.258409
  16 H :    0.240841
  17 H :    0.221003
  18 C :   -1.105432
  19 H :    0.212101
  20 H :    0.279196
  21 H :    0.253108
Sum of atomic charges:   -0.0000000

LOEWDIN ATOMIC CHARGES
----------------------
   0 C :    0.337431
   1 C :    0.350825
   2 C :    0.337737
   3 C :   -0.097051
   4 C :    0.343446
   5 C :    0.351756
   6 H :   -0.322644
   7 H :   -0.319477
   8 H :   -0.336789
   9 H :   -0.337305
  10 H :   -0.318728
  11 C :   -0.646848
  12 O :    1.297043
  13 H :   -0.773058
  14 C :    0.893804
  15 H :   -0.276966
  16 H :   -0.293670
  17 H :   -0.264115
  18 C :    0.897234
  19 H :   -0.271841
  20 H :   -0.275209
  21 H :   -0.275573

  Mayer bond orders larger than 0.100000
B(  0-C ,  1-C ) :   1.1457 B(  0-C ,  2-C ) :   0.1250 B(  0-C ,  3-C ) :  -0.1129
B(  0-C ,  4-C ) :   0.1055 B(  0-C ,  5-C ) :   1.1621 B(  0-C ,  6-H ) :   0.9980
B(  1-C ,  2-C ) :   1.3779 B(  1-C ,  3-C ) :  -0.3608 B(  1-C ,  4-C ) :   0.1568
B(  1-C ,  7-H ) :   1.1627 B(  2-C ,  3-C ) :   0.8164 B(  2-C ,  5-C ) :   0.1547
B(  2-C ,  7-H ) :  -0.1602 B(  2-C ,  8-H ) :   1.0208 B(  2-C , 11-C ) :  -0.2708
B(  3-C ,  4-C ) :   0.7077 B(  3-C ,  5-C ) :  -0.4502 B(  3-C , 11-C ) :   0.5988
B(  4-C ,  5-C ) :   1.4127 B(  4-C ,  9-H ) :   1.0600 B(  4-C , 10-H ) :  -0.1412
B(  4-C , 11-C ) :  -0.2548 B(  5-C , 10-H ) :   1.1909 B( 11-C , 12-O ) :  -0.4665
B( 11-C , 14-C ) :   0.5733 B( 11-C , 16-H ) :  -0.1167 B( 11-C , 18-C ) :   0.4247
B( 11-C , 19-H ) :  -0.1178 B( 12-O , 13-H ) :   0.9493 B( 12-O , 14-C ) :   0.1721
B( 12-O , 18-C ) :   0.1549 B( 14-C , 15-H ) :   0.9939 B( 14-C , 16-H ) :   1.0450
B( 14-C , 17-H ) :   1.0266 B( 14-C , 18-C ) :   0.1481 B( 18-C , 19-H ) :   1.0475
B( 18-C , 20-H ) :   0.9933 B( 18-C , 21-H ) :   1.0130

MP2 TOTAL ENERGY:     -424.678426501 Eh
FINAL SINGLE POINT ENERGY      -424.678426500720

DIPOLE MOMENT
-------------
                                X             Y             Z
Electronic contribution:      5.08983      -2.49930      -1.33284
Nuclear contribution   :     -4.87833       2.95416       1.11312
                        -----------------------------------------
Total Dipole Moment    :      0.21150       0.45485      -0.21972
                        -----------------------------------------
Magnitude (a.u.)       :      0.54763
Magnitude (Debye)      :      1.39197

Rotational constants in cm-1:     0.088134     0.031942     0.027528
Rotational constants in MHz :  2642.181760   957.599704   825.270062

                             ****ORCA TERMINATED NORMALLY****
TOTAL RUN TIME: 0 days 1 hours 1 minutes 46 seconds 305 msec
