                         Program Version 4.2.1 -  RELEASE  -
|  1> %pal
|  2>  nprocs 32
|  3> end
|  4> !RI-MP2 aug-cc-pVQZ aug-cc-pVQZ/C TightSCF
|  5> %maxcore 4500
|  6> *xyzfile -1 1  08_10P2.xyz
|  7>
|  8>
|  9>                          ****END OF INPUT****

CARTESIAN COORDINATES (ANGSTROEM)
---------------------------------
  S      2.010853   -0.473170   -0.146556
  C      0.922909    0.497514    0.971586
  C     -0.439311    0.846559    0.363098
  H      1.409986    1.441627    1.227812
  H      0.756138   -0.051547    1.902972
  N     -0.238361    1.646879   -0.847275
  C     -1.330940   -0.373359    0.085229
  H     -1.006563    1.445969    1.081023
  O     -2.527501   -0.332621    0.290152
  O     -0.756491   -1.441350   -0.437968
  H      0.259180   -1.305108   -0.477117
  H      0.510991    1.210203   -1.383252
  H     -1.078857    1.668917   -1.412560

 Total Charge           Charge          ....   -1
 Multiplicity           Mult            ....    1
 Number of Electrons    NEL             ....   64
 Basis Dimension        Dim             ....  840

ORBITAL ENERGIES
----------------

  NO   OCC          E(Eh)            E(eV)
   0   2.0000     -91.710065     -2495.5577
   1   2.0000     -20.430972      -555.9550
   2   2.0000     -20.386590      -554.7473
   3   2.0000     -15.409213      -419.3060
   4   2.0000     -11.221895      -305.3633
   5   2.0000     -11.127587      -302.7970
   6   2.0000     -11.096957      -301.9636
   7   2.0000      -8.713031      -237.0936
   8   2.0000      -6.394879      -174.0135
   9   2.0000      -6.393391      -173.9730
  10   2.0000      -6.393222      -173.9684
  11   2.0000      -1.295240       -35.2453
  12   2.0000      -1.196493       -32.5582
  13   2.0000      -1.055029       -28.7088
  14   2.0000      -0.873471       -23.7684
  15   2.0000      -0.763120       -20.7655
  16   2.0000      -0.651406       -17.7257
  17   2.0000      -0.645120       -17.5546
  18   2.0000      -0.552550       -15.0356
  19   2.0000      -0.540344       -14.7035
  20   2.0000      -0.503018       -13.6878
  21   2.0000      -0.478708       -13.0263
  22   2.0000      -0.434826       -11.8322
  23   2.0000      -0.416159       -11.3243
  24   2.0000      -0.403089       -10.9686
  25   2.0000      -0.383824       -10.4444
  26   2.0000      -0.318732        -8.6732
  27   2.0000      -0.314634        -8.5616
  28   2.0000      -0.273810        -7.4508
  29   2.0000      -0.253154        -6.8887
  30   2.0000      -0.151882        -4.1329
  31   2.0000      -0.143262        -3.8984
  32   0.0000       0.114613         3.1188
  33   0.0000       0.118826         3.2334
  34   0.0000       0.127921         3.4809
  35   0.0000       0.131036         3.5657
  36   0.0000       0.140675         3.8280

MULLIKEN ATOMIC CHARGES
-----------------------
   0 S :   -0.772598
   1 C :   -0.646743
   2 C :   -0.007847
   3 H :    0.267524
   4 H :    0.226822
   5 N :   -0.789618
   6 C :    1.282831
   7 H :    0.344826
   8 O :   -0.883502
   9 O :   -0.946207
  10 H :    0.406074
  11 H :    0.314443
  12 H :    0.203996
Sum of atomic charges:   -1.0000000

LOEWDIN ATOMIC CHARGES
----------------------
   0 S :    0.948258
   1 C :   -0.094823
   2 C :   -0.233566
   3 H :   -0.401974
   4 H :   -0.390915
   5 N :    1.244654
   6 C :   -1.122502
   7 H :   -0.352701
   8 O :    0.622762
   9 O :    1.161983
  10 H :   -1.224564
  11 H :   -0.638851
  12 H :   -0.517761

  Mayer bond orders larger than 0.100000
B(  0-S ,  1-C ) :   0.9873 B(  0-S , 10-H ) :   0.2506 B(  1-C ,  2-C ) :   0.9105
B(  1-C ,  3-H ) :   0.9341 B(  1-C ,  4-H ) :   0.9776 B(  2-C ,  5-N ) :   0.8162
B(  2-C ,  6-C ) :   0.9069 B(  2-C ,  7-H ) :   0.8114 B(  5-N , 11-H ) :   0.8369
B(  5-N , 12-H ) :   0.9533 B(  6-C ,  8-O ) :   1.2967 B(  6-C ,  9-O ) :   0.8171
B(  8-O ,  9-O ) :   0.1139 B(  9-O , 10-H ) :   0.5779

MP2 TOTAL ENERGY:     -720.506993674 Eh
FINAL SINGLE POINT ENERGY      -720.506993673712

DIPOLE MOMENT
-------------
                                X             Y             Z
Electronic contribution:     -1.52008      -3.52609      -0.76571
Nuclear contribution   :      0.72447       4.33934       0.92186
                        -----------------------------------------
Total Dipole Moment    :     -0.79562       0.81326       0.15615
                        -----------------------------------------
Magnitude (a.u.)       :      1.14838
Magnitude (Debye)      :      2.91895

Rotational constants in cm-1:     0.118616     0.052779     0.043874
Rotational constants in MHz :  3556.014753  1582.267985  1315.310435

                             ****ORCA TERMINATED NORMALLY****
TOTAL RUN TIME: 0 days 0 hours 16 minutes 34 seconds 334 msec
