                         Program Version 4.2.1 -  RELEASE  -
|  1> %pal
|  2>  nprocs 32
|  3> end
|  4> !RI-MP2 aug-cc-pVQZ aug-cc-pVQZ/C TightSCF
|  5> %maxcore 4500
|  6> *xyzfile 0 1  10_77P.xyz
|  7>
|  8>
|  9>                          ****END OF INPUT****

CARTESIAN COORDINATES (ANGSTROEM)
---------------------------------
  C     -0.434101   -1.141411    0.267627
  C     -1.790261   -0.719860   -0.218860
  C      0.696034   -0.903438   -0.388290
  C      2.078639   -1.001990    0.170719
  C      2.663671    0.348917    0.711780
  C      3.149361   -1.486285   -0.823459
  C     -2.118200    0.755774    0.234173
  C     -1.066024    1.671857   -0.307755
  C     -3.529694    1.150451   -0.206489
  C      0.111053    1.823320    0.293739
  C      1.353194    2.228370   -0.363891
  C      2.486850    1.539922   -0.202137
  C      4.141206   -0.020618    0.885231
  C      4.486890   -0.865413   -0.355923
  H      2.896695   -1.138224   -1.828171
  H      3.183272   -2.575991   -0.867823
  H      4.907183   -0.235565   -1.142845
  H      5.239644   -1.621369   -0.127689
  H      4.255638   -0.622337    1.790710
  H      4.783318    0.855409    0.995844
  C     -2.887457   -1.678499    0.254068
  C     -4.594007    0.169124    0.273474
  H     -3.552889    1.199758   -1.302442
  H     -3.749525    2.159278    0.153521
  C     -4.280936   -1.249293   -0.192895
  H     -5.579668    0.480451   -0.082911
  H     -4.637409    0.188117    1.368968
  H     -2.859365   -1.728561    1.349927
  H     -2.664019   -2.685996   -0.107369
  H     -4.339722   -1.291156   -1.287005
  H     -5.029114   -1.950566    0.186532
  H      1.320729    3.042525   -1.082010
  H      3.355881    1.840916   -0.781306
  H     -1.782112   -0.712610   -1.315758
  H     -2.073025    0.767717    1.330213
  H      0.630929   -0.480748   -1.388826
  H     -0.386293   -1.533704    1.283801
  H     -1.194419    2.012560   -1.334516
  H      0.217568    1.412025    1.293231
  H      2.197685    0.569122    1.675634
  H      2.061703   -1.676605    1.033620

 Total Charge           Charge          ....    0
 Multiplicity           Mult            ....    1
 Number of Electrons    NEL             ....  126
 Basis Dimension        Dim             .... 2464

ORBITAL ENERGIES
----------------

  NO   OCC          E(Eh)            E(eV)
   0   2.0000     -11.226056      -305.4765
   1   2.0000     -11.225947      -305.4736
   2   2.0000     -11.224808      -305.4426
   3   2.0000     -11.224760      -305.4412
   4   2.0000     -11.224586      -305.4365
   5   2.0000     -11.221203      -305.3444
   6   2.0000     -11.218499      -305.2709
   7   2.0000     -11.214659      -305.1664
   8   2.0000     -11.214465      -305.1611
   9   2.0000     -11.213831      -305.1439
  10   2.0000     -11.213714      -305.1407
  11   2.0000     -11.213497      -305.1348
  12   2.0000     -11.213368      -305.1313
  13   2.0000     -11.212952      -305.1199
  14   2.0000     -11.212414      -305.1053
  15   2.0000     -11.212110      -305.0970
  16   2.0000     -11.209818      -305.0346
  17   2.0000      -1.146127       -31.1877
  18   2.0000      -1.129712       -30.7410
  19   2.0000      -1.084008       -29.4974
  20   2.0000      -1.060400       -28.8549
  21   2.0000      -1.033168       -28.1139
  22   2.0000      -1.002207       -27.2714
  23   2.0000      -0.982931       -26.7469
  24   2.0000      -0.943923       -25.6854
  25   2.0000      -0.937703       -25.5162
  26   2.0000      -0.845250       -23.0004
  27   2.0000      -0.837251       -22.7827
  28   2.0000      -0.800944       -21.7948
  29   2.0000      -0.774633       -21.0788
  30   2.0000      -0.768126       -20.9018
  31   2.0000      -0.755904       -20.5692
  32   2.0000      -0.747342       -20.3362
  33   2.0000      -0.703716       -19.1491
  34   2.0000      -0.665319       -18.1043
  35   2.0000      -0.650029       -17.6882
  36   2.0000      -0.636794       -17.3280
  37   2.0000      -0.624653       -16.9977
  38   2.0000      -0.611804       -16.6480
  39   2.0000      -0.608144       -16.5485
  40   2.0000      -0.595857       -16.2141
  41   2.0000      -0.586104       -15.9487
  42   2.0000      -0.564371       -15.3573
  43   2.0000      -0.552414       -15.0320
  44   2.0000      -0.543054       -14.7773
  45   2.0000      -0.533923       -14.5288
  46   2.0000      -0.526790       -14.3347
  47   2.0000      -0.515256       -14.0208
  48   2.0000      -0.499575       -13.5941
  49   2.0000      -0.492490       -13.4013
  50   2.0000      -0.480343       -13.0708
  51   2.0000      -0.476743       -12.9728
  52   2.0000      -0.474996       -12.9253
  53   2.0000      -0.473365       -12.8809
  54   2.0000      -0.464574       -12.6417
  55   2.0000      -0.454969       -12.3803
  56   2.0000      -0.454205       -12.3595
  57   2.0000      -0.449913       -12.2428
  58   2.0000      -0.433690       -11.8013
  59   2.0000      -0.428211       -11.6522
  60   2.0000      -0.391135       -10.6433
  61   2.0000      -0.337792        -9.1918
  62   2.0000      -0.298768        -8.1299
  63   0.0000       0.023804         0.6477
  64   0.0000       0.025371         0.6904
  65   0.0000       0.026235         0.7139
  66   0.0000       0.029541         0.8039
  67   0.0000       0.034875         0.9490

MULLIKEN ATOMIC CHARGES
-----------------------
   0 C :   -0.589480
   1 C :    0.998932
   2 C :   -0.247471
   3 C :    0.466250
   4 C :    0.569343
   5 C :   -0.771107
   6 C :    1.090535
   7 C :   -0.352953
   8 C :   -0.563234
   9 C :   -0.627847
  10 C :   -0.296675
  11 C :   -0.691076
  12 C :   -0.900359
  13 C :   -0.489891
  14 H :    0.166869
  15 H :    0.239775
  16 H :    0.105898
  17 H :    0.318528
  18 H :    0.165021
  19 H :    0.233712
  20 C :   -0.551610
  21 C :   -0.609726
  22 H :    0.110753
  23 H :    0.243112
  24 C :   -0.606445
  25 H :    0.212878
  26 H :    0.096857
  27 H :    0.111126
  28 H :    0.244620
  29 H :    0.109020
  30 H :    0.204676
  31 H :    0.265612
  32 H :    0.218347
  33 H :    0.162752
  34 H :    0.220852
  35 H :   -0.059956
  36 H :    0.081055
  37 H :    0.102846
  38 H :    0.196781
  39 H :    0.325662
  40 H :    0.096020
Sum of atomic charges:   -0.0000000

LOEWDIN ATOMIC CHARGES
----------------------
   0 C :    0.406581
   1 C :    0.123763
   2 C :    0.390208
   3 C :    0.128047
   4 C :    0.116856
   5 C :    0.558072
   6 C :    0.117209
   7 C :    0.388007
   8 C :    0.530034
   9 C :    0.334040
  10 C :    0.391758
  11 C :    0.400531
  12 C :    0.532012
  13 C :    0.563052
  14 H :   -0.271453
  15 H :   -0.247759
  16 H :   -0.266990
  17 H :   -0.257833
  18 H :   -0.255831
  19 H :   -0.255119
  20 C :    0.529770
  21 C :    0.543154
  22 H :   -0.264202
  23 H :   -0.251682
  24 C :    0.543538
  25 H :   -0.256683
  26 H :   -0.259507
  27 H :   -0.263564
  28 H :   -0.251715
  29 H :   -0.259443
  30 H :   -0.256675
  31 H :   -0.319262
  32 H :   -0.315096
  33 H :   -0.280244
  34 H :   -0.278043
  35 H :   -0.305347
  36 H :   -0.285396
  37 H :   -0.287352
  38 H :   -0.343275
  39 H :   -0.282296
  40 H :   -0.281860

  Mayer bond orders larger than 0.100000
B(  0-C ,  1-C ) :   0.3844 B(  0-C ,  2-C ) :   1.6009 B(  0-C ,  3-C ) :  -0.4310
B(  0-C , 33-H ) :  -0.1528 B(  0-C , 36-H ) :   1.3187 B(  1-C ,  2-C ) :  -0.5831
B(  1-C ,  3-C ) :   0.1344 B(  1-C ,  6-C ) :   0.9905 B(  1-C , 20-C ) :   0.1845
B(  1-C , 21-C ) :   0.1357 B(  1-C , 24-C ) :  -0.2581 B(  1-C , 27-H ) :  -0.2032
B(  1-C , 28-H ) :  -0.1444 B(  1-C , 33-H ) :   0.9856 B(  1-C , 36-H ) :  -0.1148
B(  2-C ,  3-C ) :   0.6255 B(  2-C ,  4-C ) :   0.1062 B(  2-C , 35-H ) :   1.1480
B(  2-C , 40-H ) :  -0.1367 B(  3-C ,  4-C ) :   0.6771 B(  3-C ,  5-C ) :   0.4384
B(  3-C , 13-C ) :  -0.1546 B(  3-C , 14-H ) :  -0.1911 B(  3-C , 35-H ) :  -0.1071
B(  3-C , 40-H ) :   1.1733 B(  4-C , 10-C ) :  -0.2077 B(  4-C , 11-C ) :   0.8181
B(  4-C , 12-C ) :   0.3653 B(  4-C , 13-C ) :  -0.2340 B(  4-C , 18-H ) :  -0.1703
B(  4-C , 39-H ) :   0.8104 B(  5-C , 13-C ) :   1.0372 B(  5-C , 14-H ) :   1.1255
B(  5-C , 15-H ) :   1.0359 B(  6-C ,  7-C ) :   0.3420 B(  6-C ,  9-C ) :  -0.6046
B(  6-C , 21-C ) :  -0.2903 B(  6-C , 22-H ) :  -0.1790 B(  6-C , 23-H ) :  -0.1566
B(  6-C , 34-H ) :   0.9681 B(  7-C ,  9-C ) :   1.7038 B(  7-C , 10-C ) :  -0.5461
B(  7-C , 34-H ) :  -0.1456 B(  7-C , 37-H ) :   1.2016 B(  8-C , 21-C ) :   0.9345
B(  8-C , 22-H ) :   1.1780 B(  8-C , 23-H ) :   1.0844 B(  8-C , 24-C ) :  -0.1170
B(  8-C , 25-H ) :  -0.1054 B(  9-C , 10-C ) :   1.0124 B(  9-C , 11-C ) :  -0.2319
B(  9-C , 38-H ) :   1.1751 B( 10-C , 11-C ) :   1.5740 B( 10-C , 31-H ) :   1.0917
B( 10-C , 32-H ) :  -0.1611 B( 11-C , 31-H ) :  -0.1785 B( 11-C , 32-H ) :   1.0754
B( 12-C , 13-C ) :   1.0717 B( 12-C , 18-H ) :   1.1662 B( 12-C , 19-H ) :   1.0829
B( 13-C , 16-H ) :   1.1342 B( 13-C , 17-H ) :   0.8918 B( 20-C , 21-C ) :  -0.1306
B( 20-C , 24-C ) :   0.8849 B( 20-C , 27-H ) :   1.1919 B( 20-C , 28-H ) :   1.0694
B( 20-C , 30-H ) :  -0.1227 B( 21-C , 24-C ) :   0.8862 B( 21-C , 25-H ) :   1.0404
B( 21-C , 26-H ) :   1.1047 B( 24-C , 29-H ) :   1.1033 B( 24-C , 30-H ) :   1.0585
B( 33-H , 34-H ) :   0.1698

MP2 TOTAL ENERGY:     -660.959505831 Eh
FINAL SINGLE POINT ENERGY      -660.959505831004

DIPOLE MOMENT
-------------
                                X             Y             Z
Electronic contribution:      2.88817       3.64690       0.20095
Nuclear contribution   :     -2.89846      -3.86027      -0.19342
                        -----------------------------------------
Total Dipole Moment    :     -0.01029      -0.21338       0.00753
                        -----------------------------------------
Magnitude (a.u.)       :      0.21376
Magnitude (Debye)      :      0.54333

Rotational constants in cm-1:     0.037693     0.008467     0.007332
Rotational constants in MHz :  1130.004083   253.830491   219.796488

                             ****ORCA TERMINATED NORMALLY****
TOTAL RUN TIME: 0 days 6 hours 35 minutes 52 seconds 42 msec
