                         Program Version 4.2.1 -  RELEASE  -
|  1> %pal
|  2>  nprocs 32
|  3> end
|  4> !RI-MP2 aug-cc-pVQZ aug-cc-pVQZ/C TightSCF
|  5> %maxcore 4500
|  6> *xyzfile -1 1  05_2P.xyz
|  7>
|  8>
|  9>                          ****END OF INPUT****

CARTESIAN COORDINATES (ANGSTROEM)
---------------------------------
  O     -0.332111    1.488490   -0.354358
  C     -0.444420    0.296874    0.295840
  C     -1.836925   -0.242339   -0.002307
  O     -2.784290    0.268909    0.828893
  O     -2.162970   -0.987269   -0.896871
  C      0.604870   -0.762451   -0.129423
  C      2.030611   -0.274865    0.048264
  H      0.441947   -0.983124   -1.188074
  H      0.498209   -1.692840    0.433097
  O      2.935485   -1.001683    0.458850
  N      2.191966    1.013321   -0.309166
  H     -3.629278   -0.033663    0.471071
  H      1.270281    1.533204   -0.428722
  H      3.080225    1.438310   -0.093773
  H     -0.378879    0.393983    1.404215

 Total Charge           Charge          ....   -1
 Multiplicity           Mult            ....    1
 Number of Electrons    NEL             ....   70
 Basis Dimension        Dim             ....  996

ORBITAL ENERGIES
----------------

  NO   OCC          E(Eh)            E(eV)
   0   2.0000     -20.467037      -556.9364
   1   2.0000     -20.399707      -555.1042
   2   2.0000     -20.359802      -554.0184
   3   2.0000     -20.283552      -551.9435
   4   2.0000     -15.399878      -419.0520
   5   2.0000     -11.227468      -305.5149
   6   2.0000     -11.187148      -304.4178
   7   2.0000     -11.119747      -302.5837
   8   2.0000     -11.072278      -301.2920
   9   2.0000      -1.319793       -35.9134
  10   2.0000      -1.216686       -33.1077
  11   2.0000      -1.211750       -32.9734
  12   2.0000      -1.102177       -29.9918
  13   2.0000      -1.033989       -28.1363
  14   2.0000      -0.866202       -23.5705
  15   2.0000      -0.766096       -20.8465
  16   2.0000      -0.644337       -17.5333
  17   2.0000      -0.604464       -16.4483
  18   2.0000      -0.562556       -15.3079
  19   2.0000      -0.554522       -15.0893
  20   2.0000      -0.530594       -14.4382
  21   2.0000      -0.495440       -13.4816
  22   2.0000      -0.485566       -13.2129
  23   2.0000      -0.447536       -12.1781
  24   2.0000      -0.429077       -11.6758
  25   2.0000      -0.426174       -11.5968
  26   2.0000      -0.410225       -11.1628
  27   2.0000      -0.355345        -9.6694
  28   2.0000      -0.349691        -9.5156
  29   2.0000      -0.336956        -9.1690
  30   2.0000      -0.317189        -8.6311
  31   2.0000      -0.266188        -7.2433
  32   2.0000      -0.250454        -6.8152
  33   2.0000      -0.201091        -5.4720
  34   2.0000      -0.197342        -5.3699
  35   0.0000       0.106879         2.9083
  36   0.0000       0.115393         3.1400
  37   0.0000       0.126466         3.4413
  38   0.0000       0.129058         3.5118
  39   0.0000       0.139880         3.8063

MULLIKEN ATOMIC CHARGES
-----------------------
   0 O :   -1.099571
   1 C :    0.554146
   2 C :    1.032649
   3 O :   -0.753514
   4 O :   -0.883395
   5 C :   -0.606102
   6 C :    0.996207
   7 H :    0.228228
   8 H :    0.248575
   9 O :   -0.932930
  10 N :   -0.801714
  11 H :    0.313276
  12 H :    0.370276
  13 H :    0.153160
  14 H :    0.180710
Sum of atomic charges:   -1.0000000

LOEWDIN ATOMIC CHARGES
----------------------
   0 O :    0.733526
   1 C :   -0.572299
   2 C :   -1.109816
   3 O :    1.227621
   4 O :    0.682800
   5 C :    0.388005
   6 C :   -0.881034
   7 H :   -0.315516
   8 H :   -0.318801
   9 O :    0.626493
  10 N :    1.179269
  11 H :   -0.862126
  12 H :   -0.917980
  13 H :   -0.509181
  14 H :   -0.350960

  Mayer bond orders larger than 0.100000
B(  0-O ,  1-C ) :   0.6673 B(  0-O ,  2-C ) :   0.1178 B(  0-O ,  5-C ) :   0.1461
B(  0-O , 12-H ) :   0.2444 B(  1-C ,  2-C ) :   0.9953 B(  1-C ,  5-C ) :   0.8911
B(  1-C ,  6-C ) :  -0.1196 B(  1-C , 14-H ) :   0.9642 B(  2-C ,  3-O ) :   0.7591
B(  2-C ,  4-O ) :   1.3020 B(  3-O , 11-H ) :   0.9356 B(  5-C ,  6-C ) :   1.1115
B(  5-C ,  7-H ) :   0.8767 B(  5-C ,  8-H ) :   0.9519 B(  5-C ,  9-O ) :   0.1628
B(  6-C ,  9-O ) :   1.0294 B(  6-C , 10-N ) :   1.2675 B(  9-O , 10-N ) :   0.1606
B( 10-N , 12-H ) :   0.6940 B( 10-N , 13-H ) :   1.0474

MP2 TOTAL ENERGY:     -511.099237367 Eh
FINAL SINGLE POINT ENERGY      -511.099237367192

DIPOLE MOMENT
-------------
                                X             Y             Z
Electronic contribution:     -2.16951      -0.86557      -0.04822
Nuclear contribution   :      1.23453       0.64567       0.58525
                        -----------------------------------------
Total Dipole Moment    :     -0.93498      -0.21989       0.53703
                        -----------------------------------------
Magnitude (a.u.)       :      1.10043
Magnitude (Debye)      :      2.79706

Rotational constants in cm-1:     0.123453     0.029910     0.026824
Rotational constants in MHz :  3701.032355   896.685968   804.156275

                             ****ORCA TERMINATED NORMALLY****
TOTAL RUN TIME: 0 days 0 hours 23 minutes 10 seconds 760 msec
