                         Program Version 4.2.1 -  RELEASE  -
|  1> %pal
|  2>  nprocs 32
|  3> end
|  4> !RI-MP2 aug-cc-pVQZ aug-cc-pVQZ/C TightSCF
|  5> %maxcore 4500
|  6> *xyzfile -1 1  05_3TS.xyz
|  7>
|  8>
|  9>                          ****END OF INPUT****

CARTESIAN COORDINATES (ANGSTROEM)
---------------------------------
  O      0.729333    1.733865    0.553982
  C      0.532155    0.733095   -0.171879
  C      1.516290   -0.355162   -0.297099
  O      2.641878   -0.089727    0.481391
  O      1.303492   -1.527905   -0.681143
  C     -0.785615    0.534577   -0.895009
  H      1.572512    0.559955   -1.353828
  C     -1.848669   -0.074271   -0.003779
  H     -0.637405   -0.177788   -1.712096
  H     -1.162443    1.476869   -1.291869
  O     -3.023758    0.187107   -0.155351
  H      2.451763    0.778998    0.877272
  C     -1.370220   -1.049143    1.035855
  H     -0.850079   -0.489824    1.819394
  H     -2.216374   -1.584156    1.465283
  H     -0.629174   -1.725346    0.596277

 Total Charge           Charge          ....   -1
 Multiplicity           Mult            ....    1
 Number of Electrons    NEL             ....   70
 Basis Dimension        Dim             .... 1042

ORBITAL ENERGIES
----------------

  NO   OCC          E(Eh)            E(eV)
   0   2.0000     -20.418985      -555.6288
   1   2.0000     -20.408921      -555.3550
   2   2.0000     -20.358619      -553.9862
   3   2.0000     -20.315107      -552.8022
   4   2.0000     -11.207801      -304.9798
   5   2.0000     -11.195541      -304.6462
   6   2.0000     -11.176636      -304.1317
   7   2.0000     -11.103694      -302.1469
   8   2.0000     -11.098040      -301.9930
   9   2.0000      -1.263674       -34.3863
  10   2.0000      -1.252166       -34.0732
  11   2.0000      -1.190121       -32.3848
  12   2.0000      -1.138108       -30.9695
  13   2.0000      -0.929563       -25.2947
  14   2.0000      -0.856128       -23.2964
  15   2.0000      -0.773699       -21.0534
  16   2.0000      -0.623495       -16.9662
  17   2.0000      -0.592712       -16.1285
  18   2.0000      -0.551295       -15.0015
  19   2.0000      -0.530268       -14.4293
  20   2.0000      -0.511248       -13.9118
  21   2.0000      -0.478437       -13.0189
  22   2.0000      -0.468736       -12.7549
  23   2.0000      -0.464752       -12.6465
  24   2.0000      -0.431682       -11.7467
  25   2.0000      -0.423333       -11.5195
  26   2.0000      -0.412722       -11.2307
  27   2.0000      -0.386172       -10.5083
  28   2.0000      -0.362781        -9.8718
  29   2.0000      -0.357574        -9.7301
  30   2.0000      -0.307239        -8.3604
  31   2.0000      -0.300382        -8.1738
  32   2.0000      -0.284799        -7.7498
  33   2.0000      -0.237916        -6.4740
  34   2.0000      -0.160650        -4.3715
  35   0.0000       0.106490         2.8977
  36   0.0000       0.117107         3.1866
  37   0.0000       0.122966         3.3461
  38   0.0000       0.128744         3.5033
  39   0.0000       0.136409         3.7119

MULLIKEN ATOMIC CHARGES
-----------------------
   0 O :   -1.152619
   1 C :    0.714818
   2 C :    1.102153
   3 O :   -0.957792
   4 O :   -1.081646
   5 C :   -0.554086
   6 H :    0.048501
   7 C :    0.931441
   8 H :    0.242813
   9 H :    0.301762
  10 O :   -0.869669
  11 H :    0.380768
  12 C :   -0.952489
  13 H :    0.233823
  14 H :    0.316826
  15 H :    0.295395
Sum of atomic charges:   -1.0000000

LOEWDIN ATOMIC CHARGES
----------------------
   0 O :    0.714317
   1 C :   -0.809920
   2 C :   -1.149882
   3 O :    1.214922
   4 O :    0.609980
   5 C :    0.406002
   6 H :   -0.284200
   7 C :   -0.652150
   8 H :   -0.328152
   9 H :   -0.317298
  10 O :    0.710392
  11 H :   -1.009729
  12 C :    0.876049
  13 H :   -0.292580
  14 H :   -0.311644
  15 H :   -0.376107

  Mayer bond orders larger than 0.100000
B(  0-O ,  1-C ) :   0.5425 B(  0-O ,  2-C ) :   0.2194 B(  0-O ,  5-C ) :   0.2182
B(  1-C ,  2-C ) :   1.3167 B(  1-C ,  3-O ) :   0.1091 B(  1-C ,  5-C ) :   0.9228
B(  1-C ,  6-H ) :   0.4676 B(  2-C ,  3-O ) :   0.4427 B(  2-C ,  4-O ) :   1.0660
B(  2-C ,  6-H ) :   0.5797 B(  3-O , 11-H ) :   0.8140 B(  5-C ,  7-C ) :   0.9478
B(  5-C ,  8-H ) :   0.8903 B(  5-C ,  9-H ) :   0.9017 B(  5-C , 10-O ) :   0.1831
B(  7-C , 10-O ) :   1.0356 B(  7-C , 12-C ) :   0.8759 B( 10-O , 12-C ) :   0.1385
B( 12-C , 13-H ) :   0.9280 B( 12-C , 14-H ) :   0.9447 B( 12-C , 15-H ) :   0.9267

MP2 TOTAL ENERGY:     -494.982803802 Eh
FINAL SINGLE POINT ENERGY      -494.982803802145

DIPOLE MOMENT
-------------
                                X             Y             Z
Electronic contribution:      0.43758       1.32254      -0.09009
Nuclear contribution   :     -1.42842      -1.14310       0.39889
                        -----------------------------------------
Total Dipole Moment    :     -0.99084       0.17944       0.30880
                        -----------------------------------------
Magnitude (a.u.)       :      1.05325
Magnitude (Debye)      :      2.67714

Rotational constants in cm-1:     0.097404     0.036243     0.031667
Rotational constants in MHz :  2920.098158  1086.532714   949.353925

                             ****ORCA TERMINATED NORMALLY****
TOTAL RUN TIME: 0 days 0 hours 31 minutes 5 seconds 502 msec
