                         Program Version 4.2.1 -  RELEASE  -
|  1> %pal
|  2>  nprocs 32
|  3> end
|  4> !RI-MP2 aug-cc-pVQZ aug-cc-pVQZ/C TightSCF
|  5> %maxcore 4500
|  6> *xyzfile 0 1  10_67TS.xyz
|  7>
|  8>
|  9>                          ****END OF INPUT****

CARTESIAN COORDINATES (ANGSTROEM)
---------------------------------
  C      0.499997    0.277035    0.794719
  C     -0.071556   -1.073430    0.695327
  C     -0.322408    1.411698    0.999300
  C     -1.098643   -1.544382    1.588017
  C     -1.590332    1.501785    1.581897
  C     -2.115957   -0.862539    2.178352
  C     -2.392713    0.517886    2.103156
  H     -1.077617   -2.616535    1.759118
  H     -2.810429   -1.452790    2.768295
  H     -3.314643    0.846423    2.571327
  H     -1.973232    2.514319    1.663255
  C     -1.098554    1.110924   -1.605542
  H      0.161105    2.365328    0.830026
  C     -0.738086   -1.136101   -1.128444
  H      0.697286   -1.817527    0.556559
  C     -1.791537   -0.080740   -1.167728
  C      0.343977   -0.613503   -1.891603
  H     -0.985262   -2.187469   -1.177744
  C      0.134730    0.745198   -2.122767
  H     -1.521046    2.101849   -1.655702
  H      1.227570   -1.172170   -2.163245
  H      0.847623    1.419884   -2.574660
  C     -3.109884   -0.221709   -0.925194
  C     -4.078632    0.913751   -1.059218
  C     -3.738773   -1.546349   -0.620380
  H     -3.012256   -2.318782   -0.383079
  H     -4.324312   -1.880333   -1.484166
  H     -4.433078   -1.459211    0.218201
  H     -3.592669    1.877093   -1.191449
  H     -4.716601    0.969530   -0.173966
  H     -4.739371    0.744801   -1.915936
  C      1.840102    0.466069    0.441992
  C      2.324695    1.799452    0.320082
  N      2.655021    2.896877    0.206802
  C      2.825309   -0.592410    0.210042
  O      2.654574   -1.795112    0.255339
  O      4.032120   -0.070368   -0.075316
  C      5.083602   -1.006733   -0.301469
  H      5.965508   -0.406591   -0.509288
  H      5.241022   -1.626828    0.580996
  H      4.849694   -1.650705   -1.149584

 Total Charge           Charge          ....    0
 Multiplicity           Mult            ....    1
 Number of Electrons    NEL             ....  156
 Basis Dimension        Dim             .... 2634

ORBITAL ENERGIES
----------------

  NO   OCC          E(Eh)            E(eV)
   0   2.0000     -20.585221      -560.1523
   1   2.0000     -20.521744      -558.4251
   2   2.0000     -15.530259      -422.5998
   3   2.0000     -11.371948      -309.4464
   4   2.0000     -11.284908      -307.0780
   5   2.0000     -11.282320      -307.0075
   6   2.0000     -11.275079      -306.8105
   7   2.0000     -11.273977      -306.7805
   8   2.0000     -11.272995      -306.7538
   9   2.0000     -11.267648      -306.6083
  10   2.0000     -11.263709      -306.5011
  11   2.0000     -11.249720      -306.1204
  12   2.0000     -11.248286      -306.0814
  13   2.0000     -11.247215      -306.0523
  14   2.0000     -11.245400      -306.0029
  15   2.0000     -11.245186      -305.9971
  16   2.0000     -11.244268      -305.9721
  17   2.0000     -11.244244      -305.9714
  18   2.0000     -11.244162      -305.9692
  19   2.0000     -11.243038      -305.9386
  20   2.0000     -11.240489      -305.8693
  21   2.0000     -11.237606      -305.7908
  22   2.0000      -1.450479       -39.4695
  23   2.0000      -1.343785       -36.5662
  24   2.0000      -1.206247       -32.8236
  25   2.0000      -1.192482       -32.4491
  26   2.0000      -1.152420       -31.3589
  27   2.0000      -1.113525       -30.3006
  28   2.0000      -1.094221       -29.7753
  29   2.0000      -1.065579       -28.9959
  30   2.0000      -1.018886       -27.7253
  31   2.0000      -0.992242       -27.0003
  32   2.0000      -0.977893       -26.6098
  33   2.0000      -0.965893       -26.2833
  34   2.0000      -0.949168       -25.8282
  35   2.0000      -0.909220       -24.7411
  36   2.0000      -0.876823       -23.8596
  37   2.0000      -0.845459       -23.0061
  38   2.0000      -0.786941       -21.4137
  39   2.0000      -0.765682       -20.8353
  40   2.0000      -0.755598       -20.5609
  41   2.0000      -0.746964       -20.3259
  42   2.0000      -0.732041       -19.9198
  43   2.0000      -0.710868       -19.3437
  44   2.0000      -0.697086       -18.9687
  45   2.0000      -0.691624       -18.8201
  46   2.0000      -0.664093       -18.0709
  47   2.0000      -0.662922       -18.0390
  48   2.0000      -0.638815       -17.3831
  49   2.0000      -0.627304       -17.0698
  50   2.0000      -0.623180       -16.9576
  51   2.0000      -0.613731       -16.7005
  52   2.0000      -0.607238       -16.5238
  53   2.0000      -0.594750       -16.1840
  54   2.0000      -0.586138       -15.9496
  55   2.0000      -0.577613       -15.7176
  56   2.0000      -0.569806       -15.5052
  57   2.0000      -0.563278       -15.3276
  58   2.0000      -0.562286       -15.3006
  59   2.0000      -0.550629       -14.9834
  60   2.0000      -0.543678       -14.7942
  61   2.0000      -0.537544       -14.6273
  62   2.0000      -0.536011       -14.5856
  63   2.0000      -0.528417       -14.3789
  64   2.0000      -0.517253       -14.0752
  65   2.0000      -0.512657       -13.9501
  66   2.0000      -0.507656       -13.8140
  67   2.0000      -0.495515       -13.4837
  68   2.0000      -0.479835       -13.0570
  69   2.0000      -0.464825       -12.6485
  70   2.0000      -0.456073       -12.4104
  71   2.0000      -0.454899       -12.3784
  72   2.0000      -0.426242       -11.5986
  73   2.0000      -0.416732       -11.3399
  74   2.0000      -0.393068       -10.6959
  75   2.0000      -0.347160        -9.4467
  76   2.0000      -0.303978        -8.2717
  77   2.0000      -0.251366        -6.8400
  78   0.0000       0.012795         0.3482
  79   0.0000       0.013088         0.3561
  80   0.0000       0.021615         0.5882
  81   0.0000       0.023570         0.6414
  82   0.0000       0.027333         0.7438

MULLIKEN ATOMIC CHARGES
-----------------------
   0 C :    1.296132
   1 C :    0.561506
   2 C :   -0.171178
   3 C :   -0.600053
   4 C :   -0.387487
   5 C :   -0.332144
   6 C :   -0.458632
   7 H :    0.053625
   8 H :    0.123766
   9 H :    0.171789
  10 H :    0.115690
  11 C :   -0.568766
  12 H :    0.260587
  13 C :    0.305059
  14 H :    0.471874
  15 C :    0.330564
  16 C :   -0.660197
  17 H :    0.239443
  18 C :   -0.396410
  19 H :    0.193325
  20 H :    0.295425
  21 H :    0.150613
  22 C :    1.155587
  23 C :   -1.190997
  24 C :   -1.076835
  25 H :    0.305690
  26 H :    0.293195
  27 H :    0.144406
  28 H :    0.285252
  29 H :    0.142742
  30 H :    0.306399
  31 C :   -0.877093
  32 C :    0.484287
  33 N :   -1.099327
  34 C :    1.988136
  35 O :   -1.147844
  36 O :   -0.946065
  37 C :   -0.905971
  38 H :    0.430966
  39 H :    0.375196
  40 H :    0.337744
Sum of atomic charges:   -0.0000000

LOEWDIN ATOMIC CHARGES
----------------------
   0 C :   -0.116969
   1 C :    0.232840
   2 C :    0.336737
   3 C :    0.398219
   4 C :    0.368410
   5 C :    0.349459
   6 C :    0.351305
   7 H :   -0.304220
   8 H :   -0.321649
   9 H :   -0.328128
  10 H :   -0.316513
  11 C :    0.358561
  12 H :   -0.397115
  13 C :    0.229851
  14 H :   -0.514340
  15 C :   -0.106057
  16 C :    0.375462
  17 H :   -0.277253
  18 C :    0.386539
  19 H :   -0.274758
  20 H :   -0.263117
  21 H :   -0.276212
  22 C :   -0.002331
  23 C :    0.927113
  24 C :    0.923261
  25 H :   -0.322423
  26 H :   -0.254740
  27 H :   -0.276032
  28 H :   -0.315999
  29 H :   -0.276755
  30 H :   -0.259312
  31 C :   -0.222428
  32 C :   -0.425126
  33 N :    0.462544
  34 C :   -1.098710
  35 O :    0.785614
  36 O :    0.839019
  37 C :    0.578254
  38 H :   -0.321240
  39 H :   -0.315015
  40 H :   -0.316747

  Mayer bond orders larger than 0.100000
B(  0-C ,  1-C ) :   0.9873 B(  0-C ,  2-C ) :   1.1925 B(  0-C ,  4-C ) :  -0.3246
B(  0-C ,  5-C ) :  -0.1081 B(  0-C , 14-H ) :  -0.1906 B(  0-C , 31-C ) :   0.4457
B(  0-C , 32-C ) :  -0.5135 B(  0-C , 34-C ) :  -0.1760 B(  0-C , 35-O ) :  -0.2035
B(  1-C ,  2-C ) :  -0.1592 B(  1-C ,  3-C ) :   0.7695 B(  1-C ,  5-C ) :  -0.1271
B(  1-C ,  7-H ) :  -0.1417 B(  1-C , 13-C ) :   0.2911 B(  1-C , 14-H ) :   0.7613
B(  1-C , 15-C ) :   0.1178 B(  1-C , 16-C ) :  -0.1096 B(  1-C , 31-C ) :  -0.2969
B(  1-C , 34-C ) :   0.1206 B(  2-C ,  4-C ) :   0.9295 B(  2-C , 10-H ) :  -0.1979
B(  2-C , 12-H ) :   1.0398 B(  2-C , 16-C ) :   0.1642 B(  2-C , 31-C ) :  -0.3508
B(  3-C ,  4-C ) :   0.2466 B(  3-C ,  5-C ) :   1.3619 B(  3-C ,  7-H ) :   1.3520
B(  3-C ,  8-H ) :  -0.1777 B(  3-C , 14-H ) :  -0.2943 B(  4-C ,  6-C ) :   1.3874
B(  4-C ,  9-H ) :  -0.1861 B(  4-C , 10-H ) :   1.2636 B(  5-C ,  6-C ) :   1.0534
B(  5-C ,  7-H ) :  -0.1311 B(  5-C ,  8-H ) :   1.2256 B(  5-C ,  9-H ) :  -0.1372
B(  6-C ,  9-H ) :   1.1885 B( 11-C , 15-C ) :   0.9659 B( 11-C , 18-C ) :   1.3023
B( 11-C , 19-H ) :   1.1224 B( 11-C , 21-H ) :  -0.1083 B( 11-C , 22-C ) :  -0.3099
B( 13-C , 15-C ) :   0.8994 B( 13-C , 16-C ) :   0.7642 B( 13-C , 17-H ) :   0.9913
B( 13-C , 18-C ) :  -0.4305 B( 13-C , 22-C ) :  -0.3482 B( 13-C , 35-O ) :   0.1848
B( 14-H , 31-C ) :   0.1782 B( 15-C , 18-C ) :  -0.2034 B( 15-C , 22-C ) :   0.6570
B( 15-C , 28-H ) :   0.1173 B( 16-C , 17-H ) :  -0.2482 B( 16-C , 18-C ) :   1.2652
B( 16-C , 20-H ) :   1.1403 B( 18-C , 19-H ) :  -0.1094 B( 18-C , 21-H ) :   1.3237
B( 22-C , 23-C ) :   0.3516 B( 22-C , 24-C ) :   0.1074 B( 22-C , 25-H ) :  -0.1585
B( 22-C , 26-H ) :  -0.1601 B( 22-C , 27-H ) :  -0.2402 B( 22-C , 28-H ) :  -0.1403
B( 22-C , 29-H ) :  -0.1840 B( 22-C , 30-H ) :  -0.1928 B( 23-C , 28-H ) :   1.0392
B( 23-C , 29-H ) :   1.1893 B( 23-C , 30-H ) :   1.0562 B( 24-C , 25-H ) :   1.0627
B( 24-C , 26-H ) :   1.0523 B( 24-C , 27-H ) :   1.2094 B( 31-C , 32-C ) :   1.5452
B( 31-C , 33-N ) :   0.2239 B( 31-C , 34-C ) :   1.2887 B( 31-C , 35-O ) :   0.6946
B( 32-C , 33-N ) :   1.7425 B( 32-C , 36-O ) :   0.1075 B( 34-C , 35-O ) :   0.4134
B( 34-C , 36-O ) :   0.4408 B( 34-C , 37-C ) :  -0.2832 B( 35-O , 36-O ) :   0.1930
B( 36-O , 37-C ) :   0.9484 B( 37-C , 38-H ) :   0.8566 B( 37-C , 39-H ) :   0.8821
B( 37-C , 40-H ) :   0.9011

MP2 TOTAL ENERGY:     -938.970422705 Eh
FINAL SINGLE POINT ENERGY      -938.970422705442

DIPOLE MOMENT
-------------
                                X             Y             Z
Electronic contribution:     14.64200       4.42772       2.62927
Nuclear contribution   :    -17.36680      -5.75452      -3.42247
                        -----------------------------------------
Total Dipole Moment    :     -2.72480      -1.32680      -0.79320
                        -----------------------------------------
Magnitude (a.u.)       :      3.13275
Magnitude (Debye)      :      7.96281

Rotational constants in cm-1:     0.018503     0.007144     0.007033
Rotational constants in MHz :   554.694201   214.160364   210.852553

                             ****ORCA TERMINATED NORMALLY****
TOTAL RUN TIME: 0 days 13 hours 26 minutes 56 seconds 760 msec
