                         Program Version 4.2.1 -  RELEASE  -
|  1> %pal
|  2>  nprocs 32
|  3> end
|  4> !RI-MP2 aug-cc-pVQZ aug-cc-pVQZ/C TightSCF
|  5> %maxcore 4500
|  6> *xyzfile 0 1  03_41R1.xyz
|  7>
|  8>
|  9>                          ****END OF INPUT****

CARTESIAN COORDINATES (ANGSTROEM)
---------------------------------
  Cl     2.042366   -1.579995   -0.237173
  C      1.134534   -0.021336    0.160634
  C     -0.304996   -0.444918    0.469572
  C      1.185284    0.804298   -1.092980
  C      1.707756    2.014736   -1.211298
  H     -0.282564   -1.180878    1.278014
  H     -0.710084   -0.952347   -0.408668
  C     -1.221358    0.714474    0.851465
  H     -0.905419    1.150578    1.802174
  C     -2.683738    0.272113    0.996363
  H     -1.161242    1.505331    0.100094
  H     -3.281713    1.106749    1.371666
  H     -2.758053   -0.524069    1.743921
  C     -3.267713   -0.197666   -0.256165
  C     -3.729174   -0.575047   -1.294147
  H     -4.144950   -0.913051   -2.211880
  C      1.833151    0.600642    1.356102
  H      1.361122    1.548631    1.620432
  H      2.885006    0.785731    1.141987
  H      1.769146   -0.067898    2.214862
  H      0.724008    0.330759   -1.954841
  H      2.180750    2.529050   -0.383890
  H      1.681286    2.537543   -2.159195

 Total Charge           Charge          ....    0
 Multiplicity           Mult            ....    1
 Number of Electrons    NEL             ....   84
 Basis Dimension        Dim             .... 1402

ORBITAL ENERGIES
----------------

  NO   OCC          E(Eh)            E(eV)
   0   2.0000    -104.809703     -2852.0170
   1   2.0000     -11.309973      -307.7600
   2   2.0000     -11.256988      -306.3182
   3   2.0000     -11.243408      -305.9487
   4   2.0000     -11.237579      -305.7901
   5   2.0000     -11.233861      -305.6889
   6   2.0000     -11.233629      -305.6826
   7   2.0000     -11.232258      -305.6453
   8   2.0000     -11.229777      -305.5778
   9   2.0000     -11.220299      -305.3199
  10   2.0000     -10.535721      -286.6915
  11   2.0000      -8.002603      -217.7619
  12   2.0000      -8.001091      -217.7208
  13   2.0000      -8.001076      -217.7203
  14   2.0000      -1.166491       -31.7418
  15   2.0000      -1.098452       -29.8904
  16   2.0000      -1.049554       -28.5598
  17   2.0000      -1.027306       -27.9544
  18   2.0000      -0.989305       -26.9204
  19   2.0000      -0.952621       -25.9221
  20   2.0000      -0.869249       -23.6535
  21   2.0000      -0.824951       -22.4481
  22   2.0000      -0.732929       -19.9440
  23   2.0000      -0.720809       -19.6142
  24   2.0000      -0.669517       -18.2185
  25   2.0000      -0.657848       -17.9010
  26   2.0000      -0.631683       -17.1890
  27   2.0000      -0.626538       -17.0490
  28   2.0000      -0.612519       -16.6675
  29   2.0000      -0.571305       -15.5460
  30   2.0000      -0.561009       -15.2658
  31   2.0000      -0.554413       -15.0864
  32   2.0000      -0.534794       -14.5525
  33   2.0000      -0.512023       -13.9329
  34   2.0000      -0.499056       -13.5800
  35   2.0000      -0.486125       -13.2281
  36   2.0000      -0.477842       -13.0027
  37   2.0000      -0.433273       -11.7900
  38   2.0000      -0.425403       -11.5758
  39   2.0000      -0.389782       -10.6065
  40   2.0000      -0.388718       -10.5776
  41   2.0000      -0.375456       -10.2167
  42   0.0000       0.021721         0.5911
  43   0.0000       0.026261         0.7146
  44   0.0000       0.028083         0.7642
  45   0.0000       0.033121         0.9013
  46   0.0000       0.038792         1.0556

MULLIKEN ATOMIC CHARGES
-----------------------
   0 Cl:   -0.622835
   1 C :    0.935774
   2 C :   -0.236491
   3 C :   -0.454187
   4 C :   -0.790268
   5 H :    0.284658
   6 H :    0.253440
   7 C :   -0.311407
   8 H :    0.289805
   9 C :   -0.121309
  10 H :    0.269779
  11 H :    0.312526
  12 H :    0.235484
  13 C :    0.129495
  14 C :   -1.102458
  15 H :    0.297511
  16 C :   -1.020000
  17 H :    0.201090
  18 H :    0.276748
  19 H :    0.251627
  20 H :    0.314386
  21 H :    0.301665
  22 H :    0.304968
Sum of atomic charges:    0.0000000

LOEWDIN ATOMIC CHARGES
----------------------
   0 Cl:    1.212064
   1 C :   -0.897124
   2 C :    0.373266
   3 C :    0.218068
   4 C :    0.808598
   5 H :   -0.291553
   6 H :   -0.325304
   7 C :    0.500421
   8 H :   -0.271012
   9 C :    0.446942
  10 H :   -0.273110
  11 H :   -0.293186
  12 H :   -0.291888
  13 C :    0.095132
  14 C :    0.585251
  15 H :   -0.460169
  16 C :    0.780613
  17 H :   -0.296158
  18 H :   -0.299805
  19 H :   -0.287793
  20 H :   -0.338446
  21 H :   -0.358299
  22 H :   -0.336506

  Mayer bond orders larger than 0.100000
B(  0-Cl,  1-C ) :   0.3778 B(  0-Cl,  2-C ) :  -0.1034 B(  1-C ,  2-C ) :   0.6482
B(  1-C ,  3-C ) :   0.7533 B(  1-C , 16-C ) :   0.5783 B(  1-C , 18-H ) :  -0.1124
B(  2-C ,  3-C ) :  -0.1046 B(  2-C ,  5-H ) :   0.8896 B(  2-C ,  6-H ) :   0.9116
B(  2-C ,  7-C ) :   0.7840 B(  2-C ,  9-C ) :  -0.1001 B(  3-C ,  4-C ) :   1.7175
B(  3-C , 20-H ) :   0.9631 B(  3-C , 22-H ) :  -0.1188 B(  4-C , 21-H ) :   0.9406
B(  4-C , 22-H ) :   1.0300 B(  7-C ,  8-H ) :   0.8887 B(  7-C ,  9-C ) :   0.9724
B(  7-C , 10-H ) :   0.8530 B(  7-C , 13-C ) :  -0.2204 B(  9-C , 11-H ) :   0.9525
B(  9-C , 12-H ) :   0.9355 B(  9-C , 13-C ) :   0.6234 B(  9-C , 14-C ) :  -0.2801
B( 13-C , 14-C ) :   2.3883 B( 13-C , 15-H ) :  -0.2773 B( 14-C , 15-H ) :   1.2873
B( 16-C , 17-H ) :   1.0148 B( 16-C , 18-H ) :   1.0452 B( 16-C , 19-H ) :   1.0067

MP2 TOTAL ENERGY:     -809.772838510 Eh
FINAL SINGLE POINT ENERGY      -809.772838510326

DIPOLE MOMENT
-------------
                                X             Y             Z
Electronic contribution:      5.22326      -9.30596      -4.07943
Nuclear contribution   :     -5.60378      10.18773       4.52560
                        -----------------------------------------
Total Dipole Moment    :     -0.38051       0.88177       0.44617
                        -----------------------------------------
Magnitude (a.u.)       :      1.05896
Magnitude (Debye)      :      2.69165

Rotational constants in cm-1:     0.052791     0.019830     0.018660
Rotational constants in MHz :  1582.630292   594.501707   559.421261

                             ****ORCA TERMINATED NORMALLY****
TOTAL RUN TIME: 0 days 1 hours 11 minutes 56 seconds 265 msec
