                         Program Version 4.2.1 -  RELEASE  -
|  1> %pal
|  2>  nprocs 32
|  3> end
|  4> !RI-MP2 aug-cc-pVQZ aug-cc-pVQZ/C TightSCF
|  5> %maxcore 4500
|  6> *xyzfile -1 1  07_6TS.xyz
|  7>
|  8>
|  9>                          ****END OF INPUT****

CARTESIAN COORDINATES (ANGSTROEM)
---------------------------------
  C     -1.288032    0.973226    0.201172
  C     -2.620278    0.251583    0.115396
  C     -2.421909   -1.192771    0.543800
  H     -2.977841    0.286420   -0.915258
  H     -3.357773    0.745669    0.747533
  C     -1.223880   -1.857987   -0.144679
  C     -0.081769   -1.043055   -0.382708
  O     -0.344382    0.370463   -0.633480
  C     -1.377127    2.418795   -0.306570
  C      0.993366   -1.488227   -1.313766
  H      0.736662   -0.847241    0.812737
  O      2.345520   -1.262754   -0.828514
  H      0.914343   -0.973305   -2.276521
  H      0.907970   -2.562575   -1.460964
  P      2.730885   -0.132802    0.258196
  O      4.132093   -0.234096    0.680922
  O      1.594267   -0.281022    1.344827
  O      2.448443    1.280833   -0.474176
  H      1.503345    1.444554   -0.617943
  O     -1.298782   -3.076006   -0.338543
  O     -3.580669   -1.955557    0.293930
  H     -2.188495   -1.207626    1.616016
  H     -3.233123   -2.831170    0.054041
  O     -2.386700    3.023737   -0.539177
  O     -0.154602    2.964410   -0.425927
  H     -0.264994    3.881491   -0.709295
  O     -0.876835    1.021082    1.545831
  H      0.087586    0.877713    1.595292

 Total Charge           Charge          ....   -1
 Multiplicity           Mult            ....    1
 Number of Electrons    NEL             ....  148
 Basis Dimension        Dim             .... 1904

ORBITAL ENERGIES
----------------

  NO   OCC          E(Eh)            E(eV)
   0   2.0000     -79.948262     -2175.5028
   1   2.0000     -20.532230      -558.7104
   2   2.0000     -20.476749      -557.2007
   3   2.0000     -20.471536      -557.0588
   4   2.0000     -20.465141      -556.8848
   5   2.0000     -20.451597      -556.5163
   6   2.0000     -20.449828      -556.4681
   7   2.0000     -20.448065      -556.4201
   8   2.0000     -20.422044      -555.7121
   9   2.0000     -20.416027      -555.5483
  10   2.0000     -20.364912      -554.1574
  11   2.0000     -11.301283      -307.5235
  12   2.0000     -11.267309      -306.5991
  13   2.0000     -11.211082      -305.0691
  14   2.0000     -11.182869      -304.3013
  15   2.0000     -11.179514      -304.2100
  16   2.0000     -11.135719      -303.0183
  17   2.0000     -11.133711      -302.9637
  18   2.0000      -7.464241      -203.1123
  19   2.0000      -5.363333      -145.9437
  20   2.0000      -5.362944      -145.9331
  21   2.0000      -5.361715      -145.8997
  22   2.0000      -1.395176       -37.9647
  23   2.0000      -1.333083       -36.2750
  24   2.0000      -1.298325       -35.3292
  25   2.0000      -1.288043       -35.0494
  26   2.0000      -1.281050       -34.8591
  27   2.0000      -1.249316       -33.9956
  28   2.0000      -1.237508       -33.6743
  29   2.0000      -1.235633       -33.6233
  30   2.0000      -1.202756       -32.7286
  31   2.0000      -1.152229       -31.3537
  32   2.0000      -0.970163       -26.3995
  33   2.0000      -0.945428       -25.7264
  34   2.0000      -0.859406       -23.3856
  35   2.0000      -0.804196       -21.8833
  36   2.0000      -0.755592       -20.5607
  37   2.0000      -0.718375       -19.5480
  38   2.0000      -0.675142       -18.3715
  39   2.0000      -0.658967       -17.9314
  40   2.0000      -0.640698       -17.4343
  41   2.0000      -0.629795       -17.1376
  42   2.0000      -0.622233       -16.9318
  43   2.0000      -0.604163       -16.4401
  44   2.0000      -0.583639       -15.8816
  45   2.0000      -0.569473       -15.4962
  46   2.0000      -0.554227       -15.0813
  47   2.0000      -0.550861       -14.9897
  48   2.0000      -0.544330       -14.8120
  49   2.0000      -0.538136       -14.6434
  50   2.0000      -0.523763       -14.2523
  51   2.0000      -0.514597       -14.0029
  52   2.0000      -0.501402       -13.6439
  53   2.0000      -0.479825       -13.0567
  54   2.0000      -0.469875       -12.7860
  55   2.0000      -0.463846       -12.6219
  56   2.0000      -0.447704       -12.1826
  57   2.0000      -0.439150       -11.9499
  58   2.0000      -0.431292       -11.7361
  59   2.0000      -0.424237       -11.5441
  60   2.0000      -0.422415       -11.4945
  61   2.0000      -0.417576       -11.3628
  62   2.0000      -0.409648       -11.1471
  63   2.0000      -0.404387       -11.0039
  64   2.0000      -0.392869       -10.6905
  65   2.0000      -0.382571       -10.4103
  66   2.0000      -0.377806       -10.2806
  67   2.0000      -0.357352        -9.7240
  68   2.0000      -0.351352        -9.5608
  69   2.0000      -0.338095        -9.2000
  70   2.0000      -0.329773        -8.9736
  71   2.0000      -0.329175        -8.9573
  72   2.0000      -0.294877        -8.0240
  73   2.0000      -0.210203        -5.7199
  74   0.0000       0.092894         2.5278
  75   0.0000       0.102777         2.7967
  76   0.0000       0.105052         2.8586
  77   0.0000       0.111003         3.0205
  78   0.0000       0.115638         3.1467

MULLIKEN ATOMIC CHARGES
-----------------------
   0 C :    1.714015
   1 C :   -0.809308
   2 C :    0.739573
   3 H :    0.165481
   4 H :    0.319486
   5 C :    0.943794
   6 C :    0.356396
   7 O :   -1.081799
   8 C :    1.098350
   9 C :   -0.056184
  10 H :    0.584451
  11 O :   -1.003998
  12 H :    0.228248
  13 H :    0.338852
  14 P :    2.616633
  15 O :   -1.405547
  16 O :   -1.297337
  17 O :   -0.987922
  18 H :    0.414715
  19 O :   -1.097731
  20 O :   -1.086776
  21 H :    0.186176
  22 H :    0.387142
  23 O :   -0.937579
  24 O :   -0.765238
  25 H :    0.300174
  26 O :   -1.244615
  27 H :    0.380549
Sum of atomic charges:   -1.0000000

LOEWDIN ATOMIC CHARGES
----------------------
   0 C :   -1.054910
   1 C :    0.438510
   2 C :   -0.266565
   3 H :   -0.278608
   4 H :   -0.270190
   5 C :   -0.645591
   6 C :   -0.405153
   7 O :    0.889458
   8 C :   -1.057691
   9 C :    0.112830
  10 H :   -1.034408
  11 O :    0.686870
  12 H :   -0.312851
  13 H :   -0.352669
  14 P :   -0.980475
  15 O :    0.217031
  16 O :    0.971809
  17 O :    1.096005
  18 H :   -1.065711
  19 O :    0.762892
  20 O :    1.279599
  21 H :   -0.302873
  22 H :   -0.970111
  23 O :    0.719287
  24 O :    1.271477
  25 H :   -0.786921
  26 O :    1.311948
  27 H :   -0.972989

  Mayer bond orders larger than 0.100000
B(  0-C ,  1-C ) :   0.6896 B(  0-C ,  3-H ) :  -0.1064 B(  0-C ,  7-O ) :   0.6323
B(  0-C ,  8-C ) :   1.0950 B(  0-C , 16-O ) :  -0.1532 B(  0-C , 23-O ) :   0.3940
B(  0-C , 26-O ) :  -0.2297 B(  0-C , 27-H ) :  -0.1012 B(  1-C ,  2-C ) :   0.9315
B(  1-C ,  3-H ) :   1.0622 B(  1-C ,  4-H ) :   0.8799 B(  1-C , 20-O ) :   0.2602
B(  2-C ,  5-C ) :   1.1701 B(  2-C ,  6-C ) :  -0.1639 B(  2-C , 19-O ) :   0.2983
B(  2-C , 20-O ) :  -0.1066 B(  2-C , 21-H ) :   0.9783 B(  5-C ,  6-C ) :   0.9841
B(  5-C , 19-O ) :  -0.1590 B(  5-C , 20-O ) :   0.2600 B(  6-C ,  7-O ) :   0.5268
B(  6-C ,  9-C ) :   0.6791 B(  6-C , 10-H ) :   0.3045 B(  6-C , 16-O ) :  -0.1855
B(  6-C , 19-O ) :   0.6520 B(  6-C , 26-O ) :   0.1286 B(  8-C , 23-O ) :   0.9290
B(  8-C , 24-O ) :   0.7960 B(  8-C , 26-O ) :   0.2078 B(  9-C , 11-O ) :   0.4895
B(  9-C , 12-H ) :   0.9844 B(  9-C , 13-H ) :   0.8959 B( 10-H , 16-O ) :   0.2263
B( 11-O , 14-P ) :   0.6890 B( 11-O , 15-O ) :  -0.2827 B( 14-P , 15-O ) :   1.1008
B( 14-P , 16-O ) :   0.8809 B( 14-P , 17-O ) :   0.6439 B( 15-O , 16-O ) :  -0.1744
B( 15-O , 17-O ) :  -0.1507 B( 17-O , 18-H ) :   0.8710 B( 20-O , 22-H ) :   0.8485
B( 23-O , 24-O ) :   0.1276 B( 24-O , 25-H ) :   0.9755 B( 26-O , 27-H ) :   0.8411

MP2 TOTAL ENERGY:    -1364.895999004 Eh
FINAL SINGLE POINT ENERGY     -1364.895999003520

DIPOLE MOMENT
-------------
                                X             Y             Z
Electronic contribution:      8.17899       2.48703       0.40028
Nuclear contribution   :    -10.11225      -0.99773      -1.34629
                        -----------------------------------------
Total Dipole Moment    :     -1.93327       1.48930      -0.94601
                        -----------------------------------------
Magnitude (a.u.)       :      2.61734
Magnitude (Debye)      :      6.65275

Rotational constants in cm-1:     0.017899     0.011359     0.007944
Rotational constants in MHz :   536.585263   340.530535   238.162572

                             ****ORCA TERMINATED NORMALLY****
TOTAL RUN TIME: 0 days 3 hours 31 minutes 25 seconds 541 msec
