                         Program Version 4.2.1 -  RELEASE  -
|  1> %pal
|  2>  nprocs 32
|  3> end
|  4> !RI-MP2 aug-cc-pVQZ aug-cc-pVQZ/C TightSCF
|  5> %maxcore 4500
|  6> *xyzfile 1 1  09_25TS.xyz
|  7>
|  8>
|  9>                          ****END OF INPUT****

CARTESIAN COORDINATES (ANGSTROEM)
---------------------------------
  C      0.146869   -0.018567   -0.094694
  C      0.198189    1.527736   -0.121246
  C      0.946350    1.869533    1.169086
  N      2.140697    1.021614    1.132507
  H      0.356140    1.601025    2.043828
  H      1.196273    2.928181    1.239974
  C      1.475329   -0.611322    0.397595
  C      2.569468   -0.919357   -0.625706
  N      3.766454   -1.421745    0.031610
  H      2.733028   -0.040255   -1.250576
  H      2.172484   -1.705257   -1.270119
  N      1.429819   -1.531550    1.367178
  C      0.441268   -1.633016    2.431354
  N      1.054699    1.942808   -1.242314
  C      1.198059    3.377621   -1.496798
  H      1.655823    3.878807   -0.642470
  H      0.259863    3.890634   -1.730287
  H     -0.546743   -1.846404    2.027465
  H      4.487673   -0.720088    0.135505
  H      4.173882   -2.207109   -0.457335
  C     -0.318235   -0.660027   -1.404886
  H     -0.593936   -0.289328    0.654730
  C     -0.885684   -2.041992   -1.189639
  H      0.450818   -0.702716   -2.174097
  H     -1.150282   -0.082542   -1.815526
  O     -0.863122   -2.761351   -2.313278
  O     -1.332772   -2.447359   -0.149547
  C     -1.193457    2.190985   -0.152700
  C     -2.222977    1.704988    0.868333
  H     -1.620762    2.076443   -1.151487
  H     -1.048110    3.262769   -0.007569
  C     -2.939613    0.448261    0.439506
  H     -3.002205    2.465292    0.975159
  H     -1.811718    1.561670    1.867998
  O     -3.296443   -0.311945    1.479372
  O     -3.174456    0.154403   -0.702718
  H     -3.751381   -1.097641    1.138859
  H     -1.304481   -3.608356   -2.148617
  H      0.729048    1.499585   -2.092400
  H      0.402624   -0.728507    3.046341
  H      0.727833   -2.461837    3.074971
  H      1.873652    3.508184   -2.341588
  H      2.570130    0.857974    2.037874
  H      2.822697    1.410925    0.488482
  H      2.316921   -2.008381    1.496166

 Total Charge           Charge          ....    1
 Multiplicity           Mult            ....    1
 Number of Electrons    NEL             ....  156
 Basis Dimension        Dim             .... 2750

ORBITAL ENERGIES
----------------

  NO   OCC          E(Eh)            E(eV)
   0   2.0000     -20.717820      -563.7605
   1   2.0000     -20.710574      -563.5634
   2   2.0000     -20.655860      -562.0745
   3   2.0000     -20.647809      -561.8554
   4   2.0000     -15.750911      -428.6041
   5   2.0000     -15.706068      -427.3838
   6   2.0000     -15.683092      -426.7586
   7   2.0000     -15.677451      -426.6051
   8   2.0000     -11.497960      -312.8754
   9   2.0000     -11.488495      -312.6178
  10   2.0000     -11.482704      -312.4603
  11   2.0000     -11.410753      -310.5024
  12   2.0000     -11.405999      -310.3730
  13   2.0000     -11.403303      -310.2996
  14   2.0000     -11.385824      -309.8240
  15   2.0000     -11.375765      -309.5503
  16   2.0000     -11.370124      -309.3968
  17   2.0000     -11.364099      -309.2329
  18   2.0000     -11.359486      -309.1073
  19   2.0000     -11.353201      -308.9363
  20   2.0000      -1.579470       -42.9796
  21   2.0000      -1.571644       -42.7666
  22   2.0000      -1.475786       -40.1582
  23   2.0000      -1.467591       -39.9352
  24   2.0000      -1.425408       -38.7873
  25   2.0000      -1.380150       -37.5558
  26   2.0000      -1.337740       -36.4018
  27   2.0000      -1.319064       -35.8936
  28   2.0000      -1.232325       -33.5333
  29   2.0000      -1.194147       -32.4944
  30   2.0000      -1.136434       -30.9239
  31   2.0000      -1.129993       -30.7487
  32   2.0000      -1.060510       -28.8579
  33   2.0000      -1.047002       -28.4904
  34   2.0000      -1.043718       -28.4010
  35   2.0000      -1.028558       -27.9885
  36   2.0000      -0.945687       -25.7335
  37   2.0000      -0.935767       -25.4635
  38   2.0000      -0.905540       -24.6410
  39   2.0000      -0.885556       -24.0972
  40   2.0000      -0.858134       -23.3510
  41   2.0000      -0.842671       -22.9302
  42   2.0000      -0.829032       -22.5591
  43   2.0000      -0.820488       -22.3266
  44   2.0000      -0.814381       -22.1604
  45   2.0000      -0.813848       -22.1459
  46   2.0000      -0.811445       -22.0805
  47   2.0000      -0.808850       -22.0099
  48   2.0000      -0.798050       -21.7160
  49   2.0000      -0.774947       -21.0874
  50   2.0000      -0.763876       -20.7861
  51   2.0000      -0.753343       -20.4995
  52   2.0000      -0.749582       -20.3972
  53   2.0000      -0.735040       -20.0014
  54   2.0000      -0.729924       -19.8622
  55   2.0000      -0.723030       -19.6746
  56   2.0000      -0.708723       -19.2853
  57   2.0000      -0.704413       -19.1681
  58   2.0000      -0.692669       -18.8485
  59   2.0000      -0.688721       -18.7411
  60   2.0000      -0.685514       -18.6538
  61   2.0000      -0.679615       -18.4933
  62   2.0000      -0.670465       -18.2443
  63   2.0000      -0.663501       -18.0548
  64   2.0000      -0.652292       -17.7498
  65   2.0000      -0.649911       -17.6850
  66   2.0000      -0.642702       -17.4888
  67   2.0000      -0.628425       -17.1003
  68   2.0000      -0.620659       -16.8890
  69   2.0000      -0.606148       -16.4941
  70   2.0000      -0.602160       -16.3856
  71   2.0000      -0.594875       -16.1874
  72   2.0000      -0.584376       -15.9017
  73   2.0000      -0.566092       -15.4041
  74   2.0000      -0.557230       -15.1630
  75   2.0000      -0.547782       -14.9059
  76   2.0000      -0.512498       -13.9458
  77   2.0000      -0.505816       -13.7640
  78   0.0000      -0.072365        -1.9692
  79   0.0000      -0.058893        -1.6026
  80   0.0000      -0.053838        -1.4650
  81   0.0000      -0.051750        -1.4082
  82   0.0000      -0.041546        -1.1305

MULLIKEN ATOMIC CHARGES
-----------------------
   0 C :    1.849557
   1 C :    2.325657
   2 C :   -0.642020
   3 N :   -0.282759
   4 H :    0.248584
   5 H :    0.100636
   6 C :    1.716288
   7 C :   -0.316367
   8 N :   -0.927715
   9 H :    0.418541
  10 H :    0.277025
  11 N :   -0.868494
  12 C :   -1.200365
  13 N :   -0.613318
  14 C :   -1.125876
  15 H :    0.190193
  16 H :    0.283206
  17 H :    0.230896
  18 H :    0.226937
  19 H :    0.100193
  20 C :   -1.249809
  21 H :   -0.745243
  22 C :    1.872595
  23 H :    0.143822
  24 H :    0.269366
  25 O :   -1.024336
  26 O :   -1.125868
  27 C :   -0.375892
  28 C :   -0.816383
  29 H :    0.175506
  30 H :    0.021310
  31 C :    1.696595
  32 H :    0.333559
  33 H :    0.242213
  34 O :   -0.923910
  35 O :   -1.171058
  36 H :    0.331136
  37 H :    0.387268
  38 H :   -0.047687
  39 H :    0.265468
  40 H :    0.298438
  41 H :    0.281960
  42 H :   -0.076706
  43 H :    0.107853
  44 H :    0.139004
Sum of atomic charges:    1.0000000

LOEWDIN ATOMIC CHARGES
----------------------
   0 C :    0.118910
   1 C :   -0.346378
   2 C :    0.454983
   3 N :    1.276513
   4 H :   -0.267571
   5 H :   -0.243672
   6 C :   -0.223469
   7 C :    0.410350
   8 N :    1.328453
   9 H :   -0.283795
  10 H :   -0.279249
  11 N :    0.926305
  12 C :    0.859931
  13 N :    0.931396
  14 C :    0.825407
  15 H :   -0.293003
  16 H :   -0.273660
  17 H :   -0.345174
  18 H :   -0.462236
  19 H :   -0.457679
  20 C :    0.492043
  21 H :   -0.446497
  22 C :   -0.970063
  23 H :   -0.304111
  24 H :   -0.337718
  25 O :    1.296587
  26 O :    0.791628
  27 C :    0.550438
  28 C :    0.520430
  29 H :   -0.283201
  30 H :   -0.276079
  31 C :   -1.009612
  32 H :   -0.254324
  33 H :   -0.299809
  34 O :    1.298060
  35 O :    0.789865
  36 H :   -0.780798
  37 H :   -0.776494
  38 H :   -0.528167
  39 H :   -0.259375
  40 H :   -0.262634
  41 H :   -0.271736
  42 H :   -0.368775
  43 H :   -0.430354
  44 H :   -0.535666

  Mayer bond orders larger than 0.100000
B(  0-C ,  1-C ) :   1.2520 B(  0-C ,  2-C ) :  -0.4983 B(  0-C ,  4-H ) :  -0.2206
B(  0-C ,  6-C ) :   1.2447 B(  0-C , 11-N ) :  -0.1768 B(  0-C , 12-C ) :  -0.3399
B(  0-C , 13-N ) :   0.2267 B(  0-C , 20-C ) :   0.2551 B(  0-C , 21-H ) :   0.4809
B(  0-C , 22-C ) :  -0.3486 B(  0-C , 24-H ) :  -0.1496 B(  0-C , 25-O ) :   0.1848
B(  0-C , 26-O ) :  -0.7364 B(  0-C , 27-C ) :  -0.1448 B(  0-C , 31-C ) :  -0.2302
B(  0-C , 35-O ) :  -0.5843 B(  1-C ,  2-C ) :   0.2982 B(  1-C ,  3-N ) :  -0.2418
B(  1-C ,  4-H ) :  -0.1161 B(  1-C ,  5-H ) :  -0.3182 B(  1-C ,  6-C ) :   0.1799
B(  1-C , 11-N ) :   0.1047 B(  1-C , 13-N ) :  -0.2508 B(  1-C , 14-C ) :  -0.4234
B(  1-C , 15-H ) :  -0.1901 B(  1-C , 20-C ) :   0.1803 B(  1-C , 27-C ) :  -0.4451
B(  1-C , 28-C ) :  -0.1855 B(  1-C , 29-H ) :  -0.2294 B(  1-C , 30-H ) :  -0.3813
B(  1-C , 38-H ) :  -0.3658 B(  2-C ,  3-N ) :   0.8235 B(  2-C ,  4-H ) :   1.0693
B(  2-C ,  5-H ) :   1.4017 B(  2-C , 13-N ) :  -0.1369 B(  2-C , 42-H ) :  -0.1493
B(  3-N ,  6-C ) :   0.6671 B(  3-N , 42-H ) :   1.3281 B(  3-N , 43-H ) :   1.0777
B(  6-C ,  7-C ) :   0.2823 B(  6-C ,  8-N ) :  -0.3487 B(  6-C ,  9-H ) :  -0.2268
B(  6-C , 10-H ) :  -0.1972 B(  6-C , 11-N ) :   0.3210 B(  6-C , 12-C ) :  -0.4568
B(  6-C , 17-H ) :  -0.1828 B(  6-C , 21-H ) :  -0.1315 B(  6-C , 44-H ) :  -0.1136
B(  7-C ,  8-N ) :   0.6672 B(  7-C ,  9-H ) :   0.9153 B(  7-C , 10-H ) :   1.0880
B(  7-C , 13-N ) :  -0.1018 B(  8-N , 18-H ) :   1.0301 B(  8-N , 19-H ) :   1.1391
B( 11-N , 12-C ) :   1.0056 B( 11-N , 21-H ) :   0.1208 B( 11-N , 26-O ) :   0.1648
B( 11-N , 44-H ) :   1.1184 B( 12-C , 17-H ) :   0.9843 B( 12-C , 21-H ) :   0.3301
B( 12-C , 39-H ) :   1.0388 B( 12-C , 40-H ) :   1.0255 B( 13-N , 14-C ) :   0.8864
B( 13-N , 27-C ) :   0.1879 B( 13-N , 38-H ) :   1.4165 B( 13-N , 41-H ) :  -0.1189
B( 14-C , 15-H ) :   1.0790 B( 14-C , 16-H ) :   1.0577 B( 14-C , 41-H ) :   1.0450
B( 17-H , 21-H ) :   0.1519 B( 20-C , 21-H ) :  -0.1919 B( 20-C , 22-C ) :   1.4296
B( 20-C , 23-H ) :   1.0164 B( 20-C , 24-H ) :   1.0179 B( 20-C , 26-O ) :   0.6344
B( 21-H , 22-C ) :   0.2030 B( 21-H , 31-C ) :   0.2090 B( 21-H , 34-O ) :  -0.1895
B( 21-H , 35-O ) :   0.7741 B( 22-C , 24-H ) :   0.1560 B( 22-C , 25-O ) :   0.1598
B( 22-C , 26-O ) :   0.9146 B( 23-H , 25-O ) :   0.1422 B( 25-O , 26-O ) :   0.2347
B( 25-O , 37-H ) :   0.9542 B( 27-C , 28-C ) :   0.5674 B( 27-C , 29-H ) :   1.3792
B( 27-C , 30-H ) :   1.4246 B( 27-C , 31-C ) :  -0.1385 B( 27-C , 33-H ) :  -0.1186
B( 27-C , 35-O ) :  -0.2486 B( 28-C , 31-C ) :   1.1518 B( 28-C , 32-H ) :   0.9536
B( 28-C , 33-H ) :   1.1092 B( 31-C , 34-O ) :   0.6134 B( 31-C , 35-O ) :   0.8709
B( 34-O , 36-H ) :   0.9313

MP2 TOTAL ENERGY:     -990.569589964 Eh
FINAL SINGLE POINT ENERGY      -990.569589964271

DIPOLE MOMENT
-------------
                                X             Y             Z
Electronic contribution:    -11.46176     -10.72083      -2.42850
Nuclear contribution   :     14.27831      11.57450       3.18570
                        -----------------------------------------
Total Dipole Moment    :      2.81654       0.85366       0.75720
                        -----------------------------------------
Magnitude (a.u.)       :      3.03891
Magnitude (Debye)      :      7.72431

Rotational constants in cm-1:     0.012841     0.010783     0.008448
Rotational constants in MHz :   384.954825   323.265309   253.253708

                             ****ORCA TERMINATED NORMALLY****
TOTAL RUN TIME: 0 days 12 hours 37 minutes 13 seconds 117 msec
