                         Program Version 4.2.1 -  RELEASE  -
|  1> %pal
|  2>  nprocs 32
|  3> end
|  4> !RI-MP2 aug-cc-pVQZ aug-cc-pVQZ/C TightSCF
|  5> %maxcore 4500
|  6> *xyzfile 0 1  04_40P2.xyz
|  7>
|  8>
|  9>                          ****END OF INPUT****

CARTESIAN COORDINATES (ANGSTROEM)
---------------------------------
  C     -1.831862    0.016550    0.005511
  C     -1.144844   -1.190839   -0.000185
  C      0.242309   -1.195638   -0.009971
  C      0.952824   -0.002038   -0.007534
  C      0.252637    1.202236   -0.016128
  C     -1.130559    1.216513   -0.002972
  S      2.742790   -0.016432   -0.071300
  H     -1.690526   -2.128734   -0.000060
  H      0.777878   -2.136258   -0.018251
  H      0.800380    2.135819   -0.034222
  H     -1.682752    2.147351   -0.006167
  O     -3.190665    0.086032    0.015125
  H     -3.567840   -0.798019    0.012444
  H      2.960509    0.073807    1.253742

 Total Charge           Charge          ....    0
 Multiplicity           Mult            ....    1
 Number of Electrons    NEL             ....   66
 Basis Dimension        Dim             ....  920

ORBITAL ENERGIES
----------------

  NO   OCC          E(Eh)            E(eV)
   0   2.0000     -91.956062     -2502.2516
   1   2.0000     -20.598251      -560.5069
   2   2.0000     -11.313307      -307.8507
   3   2.0000     -11.261786      -306.4488
   4   2.0000     -11.251861      -306.1787
   5   2.0000     -11.249904      -306.1255
   6   2.0000     -11.241018      -305.8837
   7   2.0000     -11.235173      -305.7246
   8   2.0000      -8.958021      -243.7601
   9   2.0000      -6.639628      -180.6735
  10   2.0000      -6.638753      -180.6496
  11   2.0000      -6.637910      -180.6267
  12   2.0000      -1.417889       -38.5827
  13   2.0000      -1.167664       -31.7738
  14   2.0000      -1.048058       -28.5191
  15   2.0000      -1.033729       -28.1292
  16   2.0000      -0.941029       -25.6067
  17   2.0000      -0.859885       -23.3987
  18   2.0000      -0.816751       -22.2249
  19   2.0000      -0.747225       -20.3330
  20   2.0000      -0.683182       -18.5903
  21   2.0000      -0.650819       -17.7097
  22   2.0000      -0.618536       -16.8312
  23   2.0000      -0.603392       -16.4191
  24   2.0000      -0.601932       -16.3794
  25   2.0000      -0.581129       -15.8133
  26   2.0000      -0.551202       -14.9990
  27   2.0000      -0.506575       -13.7846
  28   2.0000      -0.498533       -13.5658
  29   2.0000      -0.463755       -12.6194
  30   2.0000      -0.368685       -10.0324
  31   2.0000      -0.354721        -9.6524
  32   2.0000      -0.324827        -8.8390
  33   0.0000       0.020917         0.5692
  34   0.0000       0.029973         0.8156
  35   0.0000       0.031798         0.8653
  36   0.0000       0.042142         1.1467
  37   0.0000       0.045289         1.2324

MULLIKEN ATOMIC CHARGES
-----------------------
   0 C :    1.006195
   1 C :   -0.442882
   2 C :   -0.180357
   3 C :   -0.278838
   4 C :   -0.381556
   5 C :   -0.422489
   6 S :   -0.168212
   7 H :    0.212416
   8 H :    0.366316
   9 H :    0.331113
  10 H :    0.340985
  11 O :   -0.778345
  12 H :    0.368440
  13 H :    0.027213
Sum of atomic charges:    0.0000000

LOEWDIN ATOMIC CHARGES
----------------------
   0 C :   -0.444635
   1 C :    0.327713
   2 C :    0.217050
   3 C :   -0.568037
   4 C :    0.218822
   5 C :    0.319747
   6 S :    1.564425
   7 H :   -0.323237
   8 H :   -0.348165
   9 H :   -0.346845
  10 H :   -0.325160
  11 O :    1.279482
  12 H :   -0.801799
  13 H :   -0.769360

  Mayer bond orders larger than 0.100000
B(  0-C ,  1-C ) :   1.2064 B(  0-C ,  4-C ) :  -0.1031 B(  0-C ,  5-C ) :   1.2550
B(  0-C ,  7-H ) :  -0.1153 B(  0-C , 12-H ) :  -0.1091 B(  1-C ,  2-C ) :   1.2554
B(  1-C ,  3-C ) :  -0.1067 B(  1-C ,  5-C ) :  -0.1179 B(  1-C ,  7-H ) :   1.0800
B(  1-C , 11-O ) :   0.2012 B(  2-C ,  3-C ) :   1.0632 B(  2-C ,  6-S ) :  -0.2752
B(  2-C ,  7-H ) :  -0.1181 B(  2-C ,  8-H ) :   0.9348 B(  3-C ,  4-C ) :   1.1101
B(  3-C ,  5-C ) :  -0.1390 B(  3-C ,  6-S ) :   1.1271 B(  4-C ,  5-C ) :   1.3526
B(  4-C ,  6-S ) :  -0.1909 B(  4-C ,  9-H ) :   0.9828 B(  4-C , 10-H ) :  -0.1057
B(  5-C , 10-H ) :   0.9358 B(  5-C , 11-O ) :   0.3121 B(  6-S , 13-H ) :   1.0630
B( 11-O , 12-H ) :   0.8877

MP2 TOTAL ENERGY:     -704.701620066 Eh
FINAL SINGLE POINT ENERGY      -704.701620065626

DIPOLE MOMENT
-------------
                                X             Y             Z
Electronic contribution:      1.90486       0.18820      -0.87897
Nuclear contribution   :     -2.49264      -0.69178       1.18863
                        -----------------------------------------
Total Dipole Moment    :     -0.58777      -0.50358       0.30966
                        -----------------------------------------
Magnitude (a.u.)       :      0.83364
Magnitude (Debye)      :      2.11894

Rotational constants in cm-1:     0.186838     0.032530     0.027864
Rotational constants in MHz :  5601.261881   975.238571   835.346561

                             ****ORCA TERMINATED NORMALLY****
TOTAL RUN TIME: 0 days 0 hours 19 minutes 41 seconds 191 msec
