                         Program Version 4.2.1 -  RELEASE  -
|  1> %pal
|  2>  nprocs 32
|  3> end
|  4> !RI-MP2 aug-cc-pVQZ aug-cc-pVQZ/C TightSCF
|  5> %maxcore 4500
|  6> *xyzfile 0 1  10_5P.xyz
|  7>
|  8>
|  9>                          ****END OF INPUT****

CARTESIAN COORDINATES (ANGSTROEM)
---------------------------------
  C      2.224800   -1.907895    0.311798
  C     -1.536593   -0.633312    0.977255
  C     -0.400851   -0.015036    0.652414
  C      2.546564   -0.569932    0.129681
  O      0.705753    0.003017    1.483018
  C      1.120291    1.384867   -0.213581
  N      1.793145    0.492959    0.717770
  H      1.363046   -2.181795    0.902243
  O     -0.127324    0.709548   -0.453726
  C      3.022021   -2.887018   -0.266943
  C      4.131218   -2.543988   -1.024040
  H      4.746272   -3.313407   -1.473372
  C      4.453010   -1.202820   -1.191673
  H      5.326040   -0.920522   -1.767472
  C      3.673014   -0.217736   -0.610104
  H      3.945861    0.825854   -0.710968
  H      2.764441   -3.929469   -0.123978
  C     -2.759005   -0.549360    0.153647
  C     -4.000696   -0.821990    0.739119
  C     -2.744469   -0.228713   -1.210353
  C     -5.175502   -0.759262    0.004773
  H     -4.055660   -1.081094    1.788016
  C     -3.919656   -0.168235   -1.941961
  H     -1.805011   -0.033731   -1.704844
  C     -5.143978   -0.429322   -1.341612
  H     -6.120569   -0.970715    0.491211
  H     -3.875545    0.078816   -2.996377
  H     -6.060058   -0.381798   -1.917700
  C     -1.577690   -1.411527    2.267894
  H     -2.024883   -2.395829    2.110049
  H     -2.171703   -0.899767    3.030711
  H     -0.579035   -1.549844    2.677836
  C      0.895092    2.777464    0.354381
  H      0.391758    2.652846    1.318474
  C     -0.003143    3.588109   -0.575554
  H     -0.180929    4.581344   -0.159506
  H     -0.966772    3.101103   -0.724600
  H      0.467376    3.719500   -1.555148
  C      2.238905    3.462435    0.584517
  H      2.773476    3.600291   -0.361100
  H      2.870611    2.879681    1.255489
  H      2.091626    4.450613    1.023572
  H      1.660217    1.416320   -1.159215

 Total Charge           Charge          ....    0
 Multiplicity           Mult            ....    1
 Number of Electrons    NEL             ....  158
 Basis Dimension        Dim             .... 2726

ORBITAL ENERGIES
----------------

  NO   OCC          E(Eh)            E(eV)
   0   2.0000     -20.627965      -561.3155
   1   2.0000     -20.603248      -560.6429
   2   2.0000     -15.642553      -425.6555
   3   2.0000     -11.352660      -308.9216
   4   2.0000     -11.337827      -308.5180
   5   2.0000     -11.283952      -307.0519
   6   2.0000     -11.244050      -305.9661
   7   2.0000     -11.241865      -305.9067
   8   2.0000     -11.240296      -305.8640
   9   2.0000     -11.240108      -305.8589
  10   2.0000     -11.237919      -305.7993
  11   2.0000     -11.235821      -305.7422
  12   2.0000     -11.233937      -305.6910
  13   2.0000     -11.223554      -305.4084
  14   2.0000     -11.223150      -305.3975
  15   2.0000     -11.222530      -305.3806
  16   2.0000     -11.221842      -305.3618
  17   2.0000     -11.219917      -305.3095
  18   2.0000     -11.219665      -305.3026
  19   2.0000     -11.218787      -305.2787
  20   2.0000     -11.216599      -305.2192
  21   2.0000     -11.216507      -305.2167
  22   2.0000      -1.519592       -41.3502
  23   2.0000      -1.394146       -37.9367
  24   2.0000      -1.221744       -33.2454
  25   2.0000      -1.156975       -31.4829
  26   2.0000      -1.146322       -31.1930
  27   2.0000      -1.091997       -29.7147
  28   2.0000      -1.076564       -29.2948
  29   2.0000      -1.027418       -27.9575
  30   2.0000      -1.013842       -27.5881
  31   2.0000      -1.005953       -27.3734
  32   2.0000      -0.986052       -26.8318
  33   2.0000      -0.943734       -25.6803
  34   2.0000      -0.930514       -25.3206
  35   2.0000      -0.909506       -24.7489
  36   2.0000      -0.845502       -23.0073
  37   2.0000      -0.831870       -22.6363
  38   2.0000      -0.825126       -22.4528
  39   2.0000      -0.817078       -22.2338
  40   2.0000      -0.809820       -22.0363
  41   2.0000      -0.783194       -21.3118
  42   2.0000      -0.741439       -20.1756
  43   2.0000      -0.705940       -19.2096
  44   2.0000      -0.697255       -18.9733
  45   2.0000      -0.685758       -18.6604
  46   2.0000      -0.675336       -18.3768
  47   2.0000      -0.656673       -17.8690
  48   2.0000      -0.645541       -17.5661
  49   2.0000      -0.622847       -16.9485
  50   2.0000      -0.620500       -16.8847
  51   2.0000      -0.615460       -16.7475
  52   2.0000      -0.606131       -16.4937
  53   2.0000      -0.598463       -16.2850
  54   2.0000      -0.592281       -16.1168
  55   2.0000      -0.588146       -16.0043
  56   2.0000      -0.577359       -15.7107
  57   2.0000      -0.569105       -15.4861
  58   2.0000      -0.562350       -15.3023
  59   2.0000      -0.554455       -15.0875
  60   2.0000      -0.546056       -14.8589
  61   2.0000      -0.542278       -14.7561
  62   2.0000      -0.537978       -14.6391
  63   2.0000      -0.533267       -14.5109
  64   2.0000      -0.523671       -14.2498
  65   2.0000      -0.521660       -14.1951
  66   2.0000      -0.503961       -13.7135
  67   2.0000      -0.499219       -13.5844
  68   2.0000      -0.490278       -13.3411
  69   2.0000      -0.487358       -13.2617
  70   2.0000      -0.484187       -13.1754
  71   2.0000      -0.479236       -13.0407
  72   2.0000      -0.475925       -12.9506
  73   2.0000      -0.439286       -11.9536
  74   2.0000      -0.372890       -10.1468
  75   2.0000      -0.348540        -9.4842
  76   2.0000      -0.328789        -8.9468
  77   2.0000      -0.326139        -8.8747
  78   2.0000      -0.281579        -7.6621
  79   0.0000       0.020359         0.5540
  80   0.0000       0.025015         0.6807
  81   0.0000       0.025526         0.6946
  82   0.0000       0.027953         0.7606
  83   0.0000       0.032093         0.8733

MULLIKEN ATOMIC CHARGES
-----------------------
   0 C :   -0.591726
   1 C :    0.295810
   2 C :    1.538229
   3 C :    0.997847
   4 O :   -1.202897
   5 C :    1.454435
   6 N :   -0.337348
   7 H :    0.430595
   8 O :   -1.233968
   9 C :   -0.441405
  10 C :   -0.425305
  11 H :    0.354047
  12 C :   -0.477583
  13 H :    0.188898
  14 C :   -0.438859
  15 H :    0.332637
  16 H :    0.165976
  17 C :    0.801032
  18 C :   -0.674617
  19 C :   -0.742226
  20 C :   -0.317477
  21 H :    0.248008
  22 C :   -0.445234
  23 H :    0.413252
  24 C :   -0.393542
  25 H :    0.217811
  26 H :    0.190170
  27 H :    0.362730
  28 C :   -1.163239
  29 H :    0.253910
  30 H :    0.307738
  31 H :    0.299304
  32 C :   -0.015645
  33 H :    0.290547
  34 C :   -1.143485
  35 H :    0.256970
  36 H :    0.410043
  37 H :    0.165566
  38 C :   -0.988705
  39 H :    0.134714
  40 H :    0.255105
  41 H :    0.246093
  42 H :    0.421795
Sum of atomic charges:   -0.0000000

LOEWDIN ATOMIC CHARGES
----------------------
   0 C :    0.348378
   1 C :   -0.084953
   2 C :   -0.808179
   3 C :   -0.267504
   4 O :    0.744577
   5 C :   -0.417162
   6 N :    0.203741
   7 H :   -0.353515
   8 O :    0.932388
   9 C :    0.351365
  10 C :    0.341144
  11 H :   -0.323751
  12 C :    0.347851
  13 H :   -0.316603
  14 C :    0.332278
  15 H :   -0.315491
  16 H :   -0.315353
  17 C :   -0.092675
  18 C :    0.330594
  19 C :    0.336601
  20 C :    0.345551
  21 H :   -0.352403
  22 C :    0.344793
  23 H :   -0.389774
  24 C :    0.333612
  25 H :   -0.320380
  26 H :   -0.320918
  27 H :   -0.325004
  28 C :    0.867030
  29 H :   -0.280265
  30 H :   -0.278399
  31 H :   -0.330790
  32 C :    0.094223
  33 H :   -0.274465
  34 C :    0.934071
  35 H :   -0.269951
  36 H :   -0.281477
  37 H :   -0.267954
  38 C :    0.929874
  39 H :   -0.270010
  40 H :   -0.278977
  41 H :   -0.268309
  42 H :   -0.313808

  Mayer bond orders larger than 0.100000
B(  0-C ,  2-C ) :   0.1536 B(  0-C ,  3-C ) :   0.9533 B(  0-C ,  5-C ) :  -0.1478
B(  0-C ,  6-N ) :  -0.1584 B(  0-C ,  7-H ) :   0.6607 B(  0-C ,  9-C ) :   1.3044
B(  0-C , 16-H ) :  -0.1309 B(  1-C ,  2-C ) :   1.3624 B(  1-C ,  4-O ) :  -0.1490
B(  1-C ,  8-O ) :   0.2083 B(  1-C , 17-C ) :   0.4116 B(  1-C , 18-C ) :  -0.5987
B(  1-C , 19-C ) :  -0.1686 B(  1-C , 21-H ) :   0.1252 B(  1-C , 28-C ) :   0.7701
B(  1-C , 29-H ) :  -0.1303 B(  1-C , 30-H ) :  -0.1583 B(  2-C ,  4-O ) :   0.3058
B(  2-C ,  5-C ) :  -0.1830 B(  2-C ,  8-O ) :   0.7334 B(  2-C , 17-C ) :  -0.1372
B(  2-C , 28-C ) :  -0.2844 B(  3-C ,  4-O ) :  -0.1704 B(  3-C ,  5-C ) :  -0.1913
B(  3-C ,  6-N ) :   1.1164 B(  3-C ,  9-C ) :  -0.5390 B(  3-C , 12-C ) :  -0.3887
B(  3-C , 14-C ) :   1.0197 B(  3-C , 15-H ) :  -0.1024 B(  4-O ,  5-C ) :   0.4253
B(  4-O ,  8-O ) :   0.1111 B(  5-C ,  6-N ) :   0.2321 B(  5-C ,  8-O ) :   0.1276
B(  5-C , 14-C ) :  -0.1284 B(  5-C , 32-C ) :   0.5058 B(  5-C , 34-C ) :  -0.1146
B(  5-C , 42-H ) :   0.9202 B(  6-N ,  8-O ) :   0.1741 B(  6-N , 42-H ) :  -0.1803
B(  8-O , 17-C ) :  -0.1154 B(  8-O , 32-C ) :   0.1481 B(  9-C , 10-C ) :   1.2702
B(  9-C , 11-H ) :  -0.1034 B(  9-C , 14-C ) :   0.1042 B(  9-C , 16-H ) :   1.2182
B( 10-C , 11-H ) :   0.9932 B( 10-C , 12-C ) :   1.2155 B( 10-C , 16-H ) :  -0.1044
B( 12-C , 13-H ) :   1.2166 B( 12-C , 14-C ) :   1.2645 B( 13-H , 14-C ) :  -0.1630
B( 14-C , 15-H ) :   0.9030 B( 17-C , 18-C ) :   1.1022 B( 17-C , 19-C ) :   0.9174
B( 17-C , 20-C ) :  -0.4247 B( 17-C , 21-H ) :  -0.1569 B( 17-C , 22-C ) :  -0.4807
B( 18-C , 19-C ) :   0.1275 B( 18-C , 20-C ) :   1.2101 B( 18-C , 21-H ) :   1.0106
B( 18-C , 22-C ) :   0.1319 B( 18-C , 25-H ) :  -0.1773 B( 18-C , 27-H ) :  -0.1126
B( 19-C , 22-C ) :   1.2845 B( 19-C , 23-H ) :   0.7735 B( 19-C , 26-H ) :  -0.1386
B( 20-C , 24-C ) :   1.1614 B( 20-C , 25-H ) :   1.1883 B( 22-C , 24-C ) :   1.2673
B( 22-C , 26-H ) :   1.1927 B( 24-C , 25-H ) :  -0.1124 B( 24-C , 27-H ) :   0.9754
B( 28-C , 29-H ) :   1.0733 B( 28-C , 30-H ) :   0.9992 B( 28-C , 31-H ) :   0.9690
B( 32-C , 33-H ) :   0.9881 B( 32-C , 34-C ) :   0.6968 B( 32-C , 35-H ) :  -0.1177
B( 32-C , 38-C ) :   0.5376 B( 32-C , 40-H ) :  -0.1010 B( 32-C , 41-H ) :  -0.1380
B( 34-C , 35-H ) :   1.0722 B( 34-C , 36-H ) :   0.8507 B( 34-C , 37-H ) :   1.0522
B( 34-C , 38-C ) :   0.1742 B( 38-C , 39-H ) :   1.0742 B( 38-C , 40-H ) :   1.0199
B( 38-C , 41-H ) :   1.0781

MP2 TOTAL ENERGY:     -940.204144998 Eh
FINAL SINGLE POINT ENERGY      -940.204144998331

DIPOLE MOMENT
-------------
                                X             Y             Z
Electronic contribution:      0.13776      -9.32954      -0.28447
Nuclear contribution   :      0.58286       9.70680      -0.03641
                        -----------------------------------------
Total Dipole Moment    :      0.72062       0.37726      -0.32087
                        -----------------------------------------
Magnitude (a.u.)       :      0.87440
Magnitude (Debye)      :      2.22255

Rotational constants in cm-1:     0.014330     0.006050     0.005065
Rotational constants in MHz :   429.601348   181.360598   151.844740

                             ****ORCA TERMINATED NORMALLY****
TOTAL RUN TIME: 0 days 10 hours 23 minutes 18 seconds 506 msec
