                         Program Version 4.2.1 -  RELEASE  -
|  1> %pal
|  2>  nprocs 32
|  3> end
|  4> !RI-MP2 aug-cc-pVQZ aug-cc-pVQZ/C TightSCF
|  5> %maxcore 4500
|  6> *xyzfile 0 1  03_11P2.xyz
|  7>
|  8>
|  9>                          ****END OF INPUT****

CARTESIAN COORDINATES (ANGSTROEM)
---------------------------------
  C      0.360813    0.000001    0.000003
  C      0.810826   -1.172414    0.856287
  C      0.810816    1.327778    0.587201
  C      0.810846   -0.155355   -1.443475
  H      0.446637   -1.072307    1.879133
  H      1.903668   -1.204515    0.879791
  H      0.446704   -2.116297    0.449634
  H      0.446640    1.447591    1.607930
  H      0.446665    2.163514   -0.010969
  H      1.903656    1.364163    0.603312
  H      0.446659   -1.091220   -1.868203
  H      1.903688   -0.159662   -1.482987
  H      0.446744    0.668754   -2.057595
  Cl    -1.479462   -0.000005   -0.000008

 Total Charge           Charge          ....    0
 Multiplicity           Mult            ....    1
 Number of Electrons    NEL             ....   50
 Basis Dimension        Dim             ....  818

ORBITAL ENERGIES
----------------

  NO   OCC          E(Eh)            E(eV)
   0   2.0000    -104.806399     -2851.9271
   1   2.0000     -11.304621      -307.6144
   2   2.0000     -11.227179      -305.5071
   3   2.0000     -11.227179      -305.5071
   4   2.0000     -11.227157      -305.5065
   5   2.0000     -10.532529      -286.6047
   6   2.0000      -7.999438      -217.6758
   7   2.0000      -7.997968      -217.6358
   8   2.0000      -7.997968      -217.6358
   9   2.0000      -1.153761       -31.3954
  10   2.0000      -1.023656       -27.8551
  11   2.0000      -0.952685       -25.9239
  12   2.0000      -0.952684       -25.9238
  13   2.0000      -0.752842       -20.4859
  14   2.0000      -0.633509       -17.2387
  15   2.0000      -0.621879       -16.9222
  16   2.0000      -0.621877       -16.9221
  17   2.0000      -0.560915       -15.2633
  18   2.0000      -0.560914       -15.2632
  19   2.0000      -0.529435       -14.4067
  20   2.0000      -0.499569       -13.5940
  21   2.0000      -0.499568       -13.5939
  22   2.0000      -0.474825       -12.9206
  23   2.0000      -0.424249       -11.5444
  24   2.0000      -0.424249       -11.5444
  25   0.0000       0.024837         0.6758
  26   0.0000       0.033325         0.9068
  27   0.0000       0.033326         0.9068
  28   0.0000       0.040511         1.1024
  29   0.0000       0.053758         1.4628

MULLIKEN ATOMIC CHARGES
-----------------------
   0 C :    1.032253
   1 C :   -0.975808
   2 C :   -0.975826
   3 C :   -0.975807
   4 H :    0.281409
   5 H :    0.253778
   6 H :    0.281397
   7 H :    0.281403
   8 H :    0.281423
   9 H :    0.253776
  10 H :    0.281406
  11 H :    0.253756
  12 H :    0.281418
  13 Cl:   -0.554578
Sum of atomic charges:    0.0000000

LOEWDIN ATOMIC CHARGES
----------------------
   0 C :   -0.925357
   1 C :    0.791387
   2 C :    0.791389
   3 C :    0.791390
   4 H :   -0.300180
   5 H :   -0.278655
   6 H :   -0.300184
   7 H :   -0.300182
   8 H :   -0.300185
   9 H :   -0.278655
  10 H :   -0.300181
  11 H :   -0.278658
  12 H :   -0.300178
  13 Cl:    1.188250

  Mayer bond orders larger than 0.100000
B(  0-C ,  1-C ) :   0.6569 B(  0-C ,  2-C ) :   0.6569 B(  0-C ,  3-C ) :   0.6569
B(  0-C , 13-Cl) :   0.3624 B(  1-C ,  4-H ) :   0.9858 B(  1-C ,  5-H ) :   0.9279
B(  1-C ,  6-H ) :   0.9858 B(  2-C ,  7-H ) :   0.9858 B(  2-C ,  8-H ) :   0.9858
B(  2-C ,  9-H ) :   0.9279 B(  3-C , 10-H ) :   0.9858 B(  3-C , 11-H ) :   0.9279
B(  3-C , 12-H ) :   0.9858

MP2 TOTAL ENERGY:     -617.286016435 Eh
FINAL SINGLE POINT ENERGY      -617.286016434561

DIPOLE MOMENT
-------------
                                X             Y             Z
Electronic contribution:     -9.66064      -0.00003      -0.00005
Nuclear contribution   :     10.65916       0.00003       0.00006
                        -----------------------------------------
Total Dipole Moment    :      0.99852       0.00000       0.00001
                        -----------------------------------------
Magnitude (a.u.)       :      0.99852
Magnitude (Debye)      :      2.53804

Rotational constants in cm-1:     0.151887     0.099552     0.099552
Rotational constants in MHz :  4553.466841  2984.507469  2984.498430

                             ****ORCA TERMINATED NORMALLY****
TOTAL RUN TIME: 0 days 0 hours 12 minutes 16 seconds 139 msec
