                         Program Version 4.2.1 -  RELEASE  -
|  1> %pal
|  2>  nprocs 32
|  3> end
|  4> !RI-MP2 aug-cc-pVQZ aug-cc-pVQZ/C TightSCF
|  5> %maxcore 4500
|  6> *xyzfile 0 1  02_43P.xyz
|  7>
|  8>
|  9>                          ****END OF INPUT****

CARTESIAN COORDINATES (ANGSTROEM)
---------------------------------
  C      0.517417   -1.137942    0.020451
  C      0.422160   -0.644457    1.440712
  C      0.877001    1.211003    0.106076
  C      0.618282    0.669283    1.486490
  S      1.943324   -0.130401   -0.657067
  C     -2.525035    0.579103    0.369694
  C     -0.624640   -0.501441   -0.813979
  C     -0.375673    1.031207   -0.783796
  C     -1.675951    1.689361   -0.257156
  H     -2.402094    0.534857    1.455096
  H     -2.211419    2.141300   -1.093606
  H     -1.458912    2.492163    0.448401
  H     -3.593335    0.661784    0.169147
  O      3.183509   -0.354850    0.140365
  C     -1.991431   -0.730285   -0.176810
  O     -2.540488   -1.796715   -0.112860
  H      0.579563    1.288519    2.371819
  H      0.187099   -1.288856    2.276106
  H      0.647056   -2.205988   -0.124397
  H     -0.635920   -0.917131   -1.822412
  H      1.345293    2.189952    0.043675
  H     -0.147464    1.407346   -1.780890

 Total Charge           Charge          ....    0
 Multiplicity           Mult            ....    1
 Number of Electrons    NEL             ....   96
 Basis Dimension        Dim             .... 1424

ORBITAL ENERGIES
----------------

  NO   OCC          E(Eh)            E(eV)
   0   2.0000     -92.068723     -2505.3173
   1   2.0000     -20.558050      -559.4130
   2   2.0000     -20.512950      -558.1857
   3   2.0000     -11.340998      -308.6042
   4   2.0000     -11.286527      -307.1220
   5   2.0000     -11.283109      -307.0290
   6   2.0000     -11.267377      -306.6009
   7   2.0000     -11.265241      -306.5428
   8   2.0000     -11.255118      -306.2673
   9   2.0000     -11.253331      -306.2187
  10   2.0000     -11.252524      -306.1968
  11   2.0000     -11.247004      -306.0465
  12   2.0000      -9.056168      -246.4309
  13   2.0000      -6.737701      -183.3422
  14   2.0000      -6.737630      -183.3402
  15   2.0000      -6.736466      -183.3086
  16   2.0000      -1.405994       -38.2590
  17   2.0000      -1.343204       -36.5504
  18   2.0000      -1.210780       -32.9470
  19   2.0000      -1.113649       -30.3039
  20   2.0000      -1.040173       -28.3045
  21   2.0000      -1.026917       -27.9438
  22   2.0000      -0.949662       -25.8416
  23   2.0000      -0.926689       -25.2165
  24   2.0000      -0.819467       -22.2988
  25   2.0000      -0.805490       -21.9185
  26   2.0000      -0.765392       -20.8274
  27   2.0000      -0.732322       -19.9275
  28   2.0000      -0.721721       -19.6390
  29   2.0000      -0.681695       -18.5499
  30   2.0000      -0.670698       -18.2506
  31   2.0000      -0.625977       -17.0337
  32   2.0000      -0.611896       -16.6505
  33   2.0000      -0.604354       -16.4453
  34   2.0000      -0.592292       -16.1171
  35   2.0000      -0.584273       -15.8989
  36   2.0000      -0.564811       -15.3693
  37   2.0000      -0.557041       -15.1578
  38   2.0000      -0.549085       -14.9414
  39   2.0000      -0.534581       -14.5467
  40   2.0000      -0.511987       -13.9319
  41   2.0000      -0.499358       -13.5882
  42   2.0000      -0.494268       -13.4497
  43   2.0000      -0.478428       -13.0187
  44   2.0000      -0.425675       -11.5832
  45   2.0000      -0.403613       -10.9829
  46   2.0000      -0.394022       -10.7219
  47   2.0000      -0.355485        -9.6732
  48   0.0000       0.015876         0.4320
  49   0.0000       0.023610         0.6425
  50   0.0000       0.027575         0.7504
  51   0.0000       0.029322         0.7979
  52   0.0000       0.039214         1.0671

MULLIKEN ATOMIC CHARGES
-----------------------
   0 C :   -0.105106
   1 C :   -0.550189
   2 C :   -0.244781
   3 C :   -0.400659
   4 S :    1.002702
   5 C :   -0.687316
   6 C :   -0.380056
   7 C :    0.144620
   8 C :   -0.746549
   9 H :    0.214763
  10 H :    0.231280
  11 H :    0.242937
  12 H :    0.301170
  13 O :   -1.308750
  14 C :    1.280700
  15 O :   -1.029049
  16 H :    0.291482
  17 H :    0.267487
  18 H :    0.372212
  19 H :    0.392462
  20 H :    0.384371
  21 H :    0.326268
Sum of atomic charges:    0.0000000

LOEWDIN ATOMIC CHARGES
----------------------
   0 C :   -0.037486
   1 C :    0.322895
   2 C :   -0.033365
   3 C :    0.322141
   4 S :    0.773195
   5 C :    0.531693
   6 C :    0.022518
   7 C :    0.056115
   8 C :    0.564031
   9 H :   -0.276936
  10 H :   -0.258046
  11 H :   -0.257698
  12 H :   -0.267914
  13 O :    0.076132
  14 C :   -0.632000
  15 O :    0.755356
  16 H :   -0.273217
  17 H :   -0.270384
  18 H :   -0.290216
  19 H :   -0.265789
  20 H :   -0.291762
  21 H :   -0.269261

  Mayer bond orders larger than 0.100000
B(  0-C ,  1-C ) :   0.8916 B(  0-C ,  3-C ) :  -0.1800 B(  0-C ,  4-S ) :   0.7878
B(  0-C ,  6-C ) :   0.8768 B(  0-C , 13-O ) :  -0.1156 B(  0-C , 18-H ) :   0.9190
B(  1-C ,  2-C ) :  -0.1136 B(  1-C ,  3-C ) :   1.4917 B(  1-C , 13-O ) :   0.1226
B(  1-C , 17-H ) :   1.1082 B(  2-C ,  3-C ) :   0.9367 B(  2-C ,  4-S ) :   0.8276
B(  2-C ,  7-C ) :   0.6988 B(  2-C , 13-O ) :  -0.1606 B(  2-C , 20-H ) :   0.9573
B(  3-C , 13-O ) :   0.1407 B(  3-C , 16-H ) :   1.0776 B(  4-S , 13-O ) :   1.2548
B(  5-C ,  8-C ) :   1.1015 B(  5-C ,  9-H ) :   0.9297 B(  5-C , 12-H ) :   0.8997
B(  5-C , 14-C ) :   1.0702 B(  5-C , 15-O ) :   0.2539 B(  6-C ,  7-C ) :   0.8962
B(  6-C , 14-C ) :   0.9399 B(  6-C , 15-O ) :   0.4104 B(  6-C , 19-H ) :   0.8048
B(  7-C ,  8-C ) :   0.6040 B(  7-C , 21-H ) :   0.9224 B(  8-C , 10-H ) :   1.0370
B(  8-C , 11-H ) :   0.9971 B(  8-C , 14-C ) :  -0.1184 B( 14-C , 15-O ) :   0.4112

MP2 TOTAL ENERGY:     -896.312551023 Eh
FINAL SINGLE POINT ENERGY      -896.312551022740

DIPOLE MOMENT
-------------
                                X             Y             Z
Electronic contribution:      6.39365      -4.71841      -2.11843
Nuclear contribution   :     -7.65748       6.20719       1.94272
                        -----------------------------------------
Total Dipole Moment    :     -1.26383       1.48878      -0.17571
                        -----------------------------------------
Magnitude (a.u.)       :      1.96077
Magnitude (Debye)      :      4.98388

Rotational constants in cm-1:     0.058035     0.023946     0.021496
Rotational constants in MHz :  1739.858202   717.890194   644.441509

                             ****ORCA TERMINATED NORMALLY****
TOTAL RUN TIME: 0 days 1 hours 37 minutes 23 seconds 175 msec
