                         Program Version 4.2.1 -  RELEASE  -
|  1> %pal
|  2>  nprocs 32
|  3> end
|  4> !RI-MP2 aug-cc-pVQZ aug-cc-pVQZ/C TightSCF
|  5> %maxcore 4500
|  6> *xyzfile 1 1  05_8P.xyz
|  7>
|  8>
|  9>                          ****END OF INPUT****

CARTESIAN COORDINATES (ANGSTROEM)
---------------------------------
  C      3.320881   -0.184707   -0.607514
  C      2.239312   -1.232337   -0.824063
  C      1.034574   -1.086251    0.183668
  H      1.849837   -1.156193   -1.843427
  H      2.618895   -2.249035   -0.704575
  C      1.502063   -1.421026    1.615165
  H      1.758268   -2.480138    1.651991
  H      0.708684   -1.244354    2.342949
  H      2.378274   -0.856923    1.924778
  C      0.638330    0.332218    0.030997
  C      1.570137    1.386409    0.431904
  C      2.731114    1.215000   -0.633637
  H      4.069213   -0.276503   -1.397990
  H      3.847667   -0.355095    0.333641
  C      1.046702    2.814894    0.463075
  C     -0.112764   -2.014314   -0.232744
  C     -1.441256   -1.619637    0.423646
  H      0.147571   -3.042448    0.021242
  H     -0.221962   -1.993586   -1.320267
  C     -0.644686    0.601897   -0.579536
  C     -1.685667   -0.095047    0.398632
  H     -0.735725    0.086531   -1.540053
  H     -0.868123    1.656675   -0.702186
  H     -1.469643   -1.961208    1.458983
  H     -2.252806   -2.137854   -0.086585
  C     -3.081500    0.309831   -0.015057
  H     -1.514996    0.314670    1.396214
  C     -3.878560    0.909444    0.861576
  H     -3.549823    1.141059    1.868124
  H     -4.896137    1.178922    0.606359
  C     -3.507389   -0.001365   -1.420911
  H     -3.343818   -1.051179   -1.677575
  H     -2.954923    0.599726   -2.149954
  H     -4.565648    0.213355   -1.560171
  H      2.336870    1.454141   -1.625750
  H      3.469522    1.980391   -0.390825
  H      0.188073    2.918645    1.128344
  H      0.761550    3.168547   -0.528929
  H      1.830648    3.475888    0.832869
  H      2.020781    1.125912    1.391593

 Total Charge           Charge          ....    1
 Multiplicity           Mult            ....    1
 Number of Electrons    NEL             ....  114
 Basis Dimension        Dim             .... 2350

ORBITAL ENERGIES
----------------

  NO   OCC          E(Eh)            E(eV)
   0   2.0000     -11.502134      -312.9890
   1   2.0000     -11.406141      -310.3769
   2   2.0000     -11.403630      -310.3085
   3   2.0000     -11.395106      -310.0766
   4   2.0000     -11.391986      -309.9917
   5   2.0000     -11.387525      -309.8703
   6   2.0000     -11.381435      -309.7046
   7   2.0000     -11.365897      -309.2818
   8   2.0000     -11.363922      -309.2280
   9   2.0000     -11.363487      -309.2162
  10   2.0000     -11.360205      -309.1269
  11   2.0000     -11.357111      -309.0427
  12   2.0000     -11.356542      -309.0272
  13   2.0000     -11.332065      -308.3612
  14   2.0000     -11.330578      -308.3207
  15   2.0000      -1.351664       -36.7807
  16   2.0000      -1.262085       -34.3431
  17   2.0000      -1.235564       -33.6214
  18   2.0000      -1.201233       -32.6872
  19   2.0000      -1.152997       -31.3746
  20   2.0000      -1.151091       -31.3228
  21   2.0000      -1.082355       -29.4524
  22   2.0000      -1.075986       -29.2791
  23   2.0000      -1.054426       -28.6924
  24   2.0000      -1.031370       -28.0650
  25   2.0000      -0.979184       -26.6449
  26   2.0000      -0.959104       -26.0986
  27   2.0000      -0.930792       -25.3281
  28   2.0000      -0.864949       -23.5365
  29   2.0000      -0.853049       -23.2126
  30   2.0000      -0.824496       -22.4357
  31   2.0000      -0.804015       -21.8783
  32   2.0000      -0.779190       -21.2028
  33   2.0000      -0.766936       -20.8694
  34   2.0000      -0.752563       -20.4783
  35   2.0000      -0.746402       -20.3106
  36   2.0000      -0.734970       -19.9996
  37   2.0000      -0.723814       -19.6960
  38   2.0000      -0.715552       -19.4711
  39   2.0000      -0.710477       -19.3331
  40   2.0000      -0.698833       -19.0162
  41   2.0000      -0.690579       -18.7916
  42   2.0000      -0.686190       -18.6722
  43   2.0000      -0.676230       -18.4012
  44   2.0000      -0.668328       -18.1861
  45   2.0000      -0.659277       -17.9398
  46   2.0000      -0.650761       -17.7081
  47   2.0000      -0.642050       -17.4711
  48   2.0000      -0.635987       -17.3061
  49   2.0000      -0.625404       -17.0181
  50   2.0000      -0.619524       -16.8581
  51   2.0000      -0.614766       -16.7286
  52   2.0000      -0.602179       -16.3861
  53   2.0000      -0.595890       -16.2150
  54   2.0000      -0.592931       -16.1345
  55   2.0000      -0.574204       -15.6249
  56   2.0000      -0.470579       -12.8051
  57   0.0000      -0.108997        -2.9660
  58   0.0000      -0.066271        -1.8033
  59   0.0000      -0.060596        -1.6489
  60   0.0000      -0.054799        -1.4912
  61   0.0000      -0.051526        -1.4021

MULLIKEN ATOMIC CHARGES
-----------------------
   0 C :   -0.537536
   1 C :   -0.731415
   2 C :    1.864630
   3 H :    0.129887
   4 H :    0.192998
   5 C :   -1.310387
   6 H :    0.175480
   7 H :    0.186127
   8 H :    0.221465
   9 C :    1.817324
  10 C :    0.371727
  11 C :   -0.641155
  12 H :    0.198936
  13 H :    0.121125
  14 C :   -1.120230
  15 C :   -0.815687
  16 C :   -0.611072
  17 H :    0.093041
  18 H :    0.055972
  19 C :   -0.696220
  20 C :    0.905898
  21 H :    0.135514
  22 H :    0.153868
  23 H :    0.110535
  24 H :    0.184054
  25 C :   -0.204644
  26 H :    0.343334
  27 C :   -1.003560
  28 H :    0.171848
  29 H :    0.235013
  30 C :   -0.771160
  31 H :    0.144326
  32 H :    0.188907
  33 H :    0.339816
  34 H :    0.160949
  35 H :    0.217669
  36 H :    0.179790
  37 H :    0.123306
  38 H :    0.226409
  39 H :    0.193115
Sum of atomic charges:    1.0000000

LOEWDIN ATOMIC CHARGES
----------------------
   0 C :    0.593228
   1 C :    0.589084
   2 C :   -0.180849
   3 H :   -0.244273
   4 H :   -0.228574
   5 C :    0.985795
   6 H :   -0.242474
   7 H :   -0.238793
   8 H :   -0.283569
   9 C :    0.093268
  10 C :    0.217666
  11 C :    0.599595
  12 H :   -0.235163
  13 H :   -0.257460
  14 C :    0.981312
  15 C :    0.558692
  16 C :    0.607348
  17 H :   -0.235764
  18 H :   -0.262432
  19 C :    0.610547
  20 C :    0.166766
  21 H :   -0.267073
  22 H :   -0.274579
  23 H :   -0.242800
  24 H :   -0.269921
  25 C :   -0.011938
  26 H :   -0.296838
  27 C :    0.851159
  28 H :   -0.325104
  29 H :   -0.323393
  30 C :    0.921945
  31 H :   -0.278619
  32 H :   -0.274383
  33 H :   -0.287042
  34 H :   -0.234521
  35 H :   -0.232802
  36 H :   -0.246796
  37 H :   -0.262775
  38 H :   -0.250187
  39 H :   -0.288282

  Mayer bond orders larger than 0.100000
B(  0-C ,  1-C ) :   0.8287 B(  0-C ,  2-C ) :  -0.2213 B(  0-C , 11-C ) :   0.9341
B(  0-C , 12-H ) :   1.0233 B(  0-C , 13-H ) :   1.1716 B(  1-C ,  3-H ) :   1.2778
B(  1-C ,  4-H ) :   1.1282 B(  1-C ,  9-C ) :  -0.1959 B(  1-C , 15-C ) :   0.1129
B(  2-C ,  3-H ) :  -0.1748 B(  2-C ,  4-H ) :  -0.1302 B(  2-C ,  6-H ) :  -0.2492
B(  2-C ,  7-H ) :  -0.1679 B(  2-C ,  8-H ) :  -0.2021 B(  2-C ,  9-C ) :   0.7462
B(  2-C , 15-C ) :   0.1890 B(  2-C , 16-C ) :  -0.3177 B(  2-C , 17-H ) :  -0.2460
B(  2-C , 18-H ) :  -0.1424 B(  5-C ,  6-H ) :   1.2378 B(  5-C ,  7-H ) :   1.2329
B(  5-C ,  8-H ) :   1.1688 B(  5-C ,  9-C ) :  -0.1483 B(  9-C , 10-C ) :   0.3515
B(  9-C , 11-C ) :  -0.4928 B(  9-C , 14-C ) :  -0.3122 B(  9-C , 15-C ) :  -0.1443
B(  9-C , 19-C ) :   0.8892 B(  9-C , 20-C ) :   0.2123 B(  9-C , 22-H ) :  -0.1852
B(  9-C , 34-H ) :  -0.1347 B( 10-C , 11-C ) :   0.6765 B( 10-C , 14-C ) :   0.2887
B( 10-C , 19-C ) :  -0.2589 B( 10-C , 36-H ) :  -0.1784 B( 10-C , 37-H ) :  -0.2437
B( 10-C , 38-H ) :  -0.1594 B( 10-C , 39-H ) :   1.0538 B( 11-C , 14-C ) :   0.1034
B( 11-C , 34-H ) :   1.1678 B( 11-C , 35-H ) :   1.0345 B( 14-C , 36-H ) :   1.2007
B( 14-C , 37-H ) :   1.2253 B( 14-C , 38-H ) :   1.1067 B( 15-C , 16-C ) :   0.8898
B( 15-C , 17-H ) :   1.2565 B( 15-C , 18-H ) :   1.3805 B( 15-C , 19-C ) :   0.1757
B( 15-C , 24-H ) :  -0.1214 B( 16-C , 20-C ) :   0.5400 B( 16-C , 23-H ) :   1.2246
B( 16-C , 24-H ) :   1.0765 B( 16-C , 25-C ) :   0.1926 B( 19-C , 20-C ) :   0.9416
B( 19-C , 21-H ) :   1.0604 B( 19-C , 22-H ) :   1.1301 B( 20-C , 23-H ) :  -0.1390
B( 20-C , 26-H ) :   1.0893 B( 20-C , 27-C ) :  -0.4389 B( 25-C , 26-H ) :  -0.1679
B( 25-C , 27-C ) :   1.6789 B( 25-C , 28-H ) :  -0.2138 B( 25-C , 29-H ) :  -0.1529
B( 25-C , 30-C ) :   0.5664 B( 25-C , 31-H ) :  -0.1189 B( 25-C , 33-H ) :  -0.1029
B( 27-C , 28-H ) :   1.2274 B( 27-C , 29-H ) :   1.1175 B( 27-C , 30-C ) :   0.1113
B( 30-C , 31-H ) :   1.1326 B( 30-C , 32-H ) :   1.0223 B( 30-C , 33-H ) :   0.9229

MP2 TOTAL ENERGY:     -585.248464271 Eh
FINAL SINGLE POINT ENERGY      -585.248464270605

DIPOLE MOMENT
-------------
                                X             Y             Z
Electronic contribution:     -0.57362      -0.33557       0.53207
Nuclear contribution   :      1.69557       0.53630      -0.60072
                        -----------------------------------------
Total Dipole Moment    :      1.12195       0.20073      -0.06865
                        -----------------------------------------
Magnitude (a.u.)       :      1.14183
Magnitude (Debye)      :      2.90230

Rotational constants in cm-1:     0.032668     0.014212     0.011912
Rotational constants in MHz :   979.368644   426.068039   357.124310

                             ****ORCA TERMINATED NORMALLY****
TOTAL RUN TIME: 0 days 8 hours 6 minutes 52 seconds 168 msec
