                         Program Version 4.2.1 -  RELEASE  -
|  1> %pal
|  2>  nprocs 32
|  3> end
|  4> !RI-MP2 aug-cc-pVQZ aug-cc-pVQZ/C TightSCF
|  5> %maxcore 4500
|  6> *xyzfile 0 1  10_48R.xyz
|  7>
|  8>
|  9>                          ****END OF INPUT****

CARTESIAN COORDINATES (ANGSTROEM)
---------------------------------
  C     -2.798793    0.842171    0.409892
  C     -1.734243    1.494873   -0.490164
  C     -0.531686    0.617344   -0.494391
  C     -0.471516   -0.628039   -0.026827
  C     -1.603361   -1.416564    0.533624
  C     -2.907936   -0.674766    0.191787
  H     -2.114955    1.622927   -1.510702
  H     -1.488582    2.499201   -0.130170
  H     -2.533949    1.028901    1.456259
  H     -3.771789    1.310798    0.243784
  H     -1.622720   -2.434721    0.133720
  H     -1.490615   -1.518799    1.620120
  H     -3.155147   -0.864044   -0.858419
  H     -3.733698   -1.074312    0.785324
  C      2.805981    0.612396    0.732007
  C      1.846954    1.608363    0.059071
  C      1.033440   -0.740334   -0.217656
  C      1.943174   -0.626656    1.009317
  H      3.280627    1.014953    1.629370
  H      2.374775    2.378386   -0.506225
  H      1.245029    2.117927    0.818017
  H      2.527172   -1.537533    1.140773
  H      1.342772   -0.476337    1.910006
  H      3.603369    0.344570    0.032526
  O      1.519103   -1.778140   -1.047447
  H      0.973003   -1.815193   -1.838225
  C      0.952558    0.720504   -0.817746
  H      1.204455    0.772646   -1.880056

 Total Charge           Charge          ....    0
 Multiplicity           Mult            ....    1
 Number of Electrons    NEL             ....   90
 Basis Dimension        Dim             .... 1696

ORBITAL ENERGIES
----------------

  NO   OCC          E(Eh)            E(eV)
   0   2.0000     -20.548073      -559.1415
   1   2.0000     -11.277550      -306.8777
   2   2.0000     -11.224843      -305.4435
   3   2.0000     -11.223091      -305.3958
   4   2.0000     -11.221595      -305.3551
   5   2.0000     -11.220868      -305.3353
   6   2.0000     -11.220839      -305.3346
   7   2.0000     -11.218400      -305.2682
   8   2.0000     -11.212567      -305.1095
   9   2.0000     -11.211901      -305.0913
  10   2.0000     -11.209508      -305.0262
  11   2.0000     -11.207676      -304.9764
  12   2.0000      -1.357807       -36.9478
  13   2.0000      -1.170031       -31.8382
  14   2.0000      -1.096799       -29.8454
  15   2.0000      -1.038051       -28.2468
  16   2.0000      -1.010276       -27.4910
  17   2.0000      -0.957962       -26.0675
  18   2.0000      -0.914081       -24.8734
  19   2.0000      -0.841466       -22.8975
  20   2.0000      -0.820343       -22.3227
  21   2.0000      -0.773150       -21.0385
  22   2.0000      -0.762487       -20.7483
  23   2.0000      -0.701185       -19.0802
  24   2.0000      -0.665706       -18.1148
  25   2.0000      -0.653939       -17.7946
  26   2.0000      -0.617222       -16.7955
  27   2.0000      -0.606384       -16.5005
  28   2.0000      -0.590210       -16.0604
  29   2.0000      -0.588166       -16.0048
  30   2.0000      -0.574472       -15.6322
  31   2.0000      -0.556954       -15.1555
  32   2.0000      -0.552395       -15.0314
  33   2.0000      -0.532511       -14.4904
  34   2.0000      -0.521433       -14.1889
  35   2.0000      -0.504209       -13.7202
  36   2.0000      -0.488132       -13.2827
  37   2.0000      -0.483000       -13.1431
  38   2.0000      -0.470391       -12.8000
  39   2.0000      -0.468683       -12.7535
  40   2.0000      -0.464833       -12.6487
  41   2.0000      -0.433785       -11.8039
  42   2.0000      -0.415788       -11.3142
  43   2.0000      -0.392353       -10.6765
  44   2.0000      -0.329594        -8.9687
  45   0.0000       0.022760         0.6193
  46   0.0000       0.027637         0.7520
  47   0.0000       0.028959         0.7880
  48   0.0000       0.030243         0.8229
  49   0.0000       0.040247         1.0952

MULLIKEN ATOMIC CHARGES
-----------------------
   0 C :   -0.537431
   1 C :   -0.342566
   2 C :    0.336173
   3 C :   -0.494190
   4 C :   -0.264587
   5 C :   -0.611222
   6 H :    0.184257
   7 H :    0.206535
   8 H :    0.141084
   9 H :    0.247513
  10 H :    0.265045
  11 H :    0.135264
  12 H :    0.152270
  13 H :    0.254655
  14 C :   -0.589817
  15 C :   -0.592350
  16 C :    1.778008
  17 C :   -0.663905
  18 H :    0.313855
  19 H :    0.314627
  20 H :    0.118909
  21 H :    0.325415
  22 H :    0.143086
  23 H :    0.195415
  24 O :   -1.268419
  25 H :    0.329251
  26 C :   -0.260718
  27 H :    0.183838
Sum of atomic charges:   -0.0000000

LOEWDIN ATOMIC CHARGES
----------------------
   0 C :    0.526828
   1 C :    0.562551
   2 C :    0.019505
   3 C :    0.016112
   4 C :    0.561307
   5 C :    0.524565
   6 H :   -0.264911
   7 H :   -0.268397
   8 H :   -0.262801
   9 H :   -0.260669
  10 H :   -0.266454
  11 H :   -0.264512
  12 H :   -0.263460
  13 H :   -0.261095
  14 C :    0.547997
  15 C :    0.556110
  16 C :   -0.595537
  17 C :    0.529106
  18 H :   -0.252547
  19 H :   -0.256677
  20 H :   -0.266849
  21 H :   -0.271128
  22 H :   -0.263935
  23 H :   -0.259347
  24 O :    1.308428
  25 H :   -0.788549
  26 C :    0.160199
  27 H :   -0.245840

  Mayer bond orders larger than 0.100000
B(  0-C ,  1-C ) :   0.9725 B(  0-C ,  2-C ) :  -0.1602 B(  0-C ,  5-C ) :   0.8739
B(  0-C ,  8-H ) :   1.0608 B(  0-C ,  9-H ) :   0.9927 B(  1-C ,  2-C ) :   0.2468
B(  1-C ,  6-H ) :   1.1078 B(  1-C ,  7-H ) :   1.0340 B(  2-C ,  3-C ) :   1.6646
B(  2-C ,  6-H ) :  -0.1608 B(  2-C , 26-C ) :   0.7998 B(  3-C ,  4-C ) :   0.1539
B(  3-C ,  5-C ) :  -0.1337 B(  3-C , 10-H ) :  -0.1812 B(  3-C , 16-C ) :   0.9902
B(  3-C , 24-O ) :   0.4571 B(  3-C , 25-H ) :   0.1010 B(  3-C , 26-C ) :  -0.3174
B(  4-C ,  5-C ) :   1.0093 B(  4-C , 10-H ) :   1.0232 B(  4-C , 11-H ) :   1.0680
B(  5-C , 12-H ) :   1.0563 B(  5-C , 13-H ) :   0.9733 B( 14-C , 15-C ) :   1.0523
B( 14-C , 17-C ) :   1.0343 B( 14-C , 18-H ) :   0.8454 B( 14-C , 23-H ) :   1.0112
B( 15-C , 19-H ) :   0.8901 B( 15-C , 20-H ) :   1.0660 B( 15-C , 26-C ) :   0.7530
B( 16-C , 17-C ) :   0.6296 B( 16-C , 24-O ) :  -1.0088 B( 16-C , 25-H ) :  -0.1158
B( 16-C , 26-C ) :   0.9897 B( 17-C , 21-H ) :   0.8918 B( 17-C , 22-H ) :   1.0617
B( 24-O , 25-H ) :   0.9316 B( 24-O , 26-C ) :   0.3670 B( 26-C , 27-H ) :   0.9335

MP2 TOTAL ENERGY:     -503.103711304 Eh
FINAL SINGLE POINT ENERGY      -503.103711303584

DIPOLE MOMENT
-------------
                                X             Y             Z
Electronic contribution:      2.78901      -2.98778      -3.14802
Nuclear contribution   :     -3.43337       3.43855       3.11773
                        -----------------------------------------
Total Dipole Moment    :     -0.64436       0.45077      -0.03029
                        -----------------------------------------
Magnitude (a.u.)       :      0.78697
Magnitude (Debye)      :      2.00031

Rotational constants in cm-1:     0.056513     0.024458     0.020399
Rotational constants in MHz :  1694.215045   733.220541   611.551035

                             ****ORCA TERMINATED NORMALLY****
TOTAL RUN TIME: 0 days 2 hours 27 minutes 43 seconds 174 msec
