                         Program Version 4.2.1 -  RELEASE  -
|  1> %pal
|  2>  nprocs 32
|  3> end
|  4> !RI-MP2 aug-cc-pVQZ aug-cc-pVQZ/C TightSCF
|  5> %maxcore 4500
|  6> *xyzfile 1 1  05_20P1.xyz
|  7>
|  8>
|  9>                          ****END OF INPUT****

CARTESIAN COORDINATES (ANGSTROEM)
---------------------------------
  C      2.966004   -0.002683   -0.000106
  C      2.278034   -1.216829    0.000048
  C      0.902229   -1.221523    0.000092
  C      0.210411    0.007343   -0.000021
  C      0.912961    1.228066   -0.000174
  C      2.290149    1.216120   -0.000217
  H      4.049476   -0.007749   -0.000139
  H      2.825938   -2.149735    0.000133
  H      0.348640   -2.152062    0.000212
  H      0.373494    2.167662   -0.000260
  H      2.844736    2.144937   -0.000336
  C     -1.192974    0.030027    0.000017
  C     -2.275408    1.056718   -0.000031
  C     -3.193904   -0.179158    0.000200
  H     -2.309421    1.682569   -0.891901
  H     -2.309302    1.682915    0.891597
  H     -3.763367   -0.379873    0.902827
  O     -1.960201   -1.014636    0.000158
  H     -3.763598   -0.380069   -0.902237

 Total Charge           Charge          ....    1
 Multiplicity           Mult            ....    1
 Number of Electrons    NEL             ....   70
 Basis Dimension        Dim             .... 1214

ORBITAL ENERGIES
----------------

  NO   OCC          E(Eh)            E(eV)
   0   2.0000     -20.810307      -566.2772
   1   2.0000     -11.557382      -314.4923
   2   2.0000     -11.481847      -312.4369
   3   2.0000     -11.434854      -311.1582
   4   2.0000     -11.423484      -310.8488
   5   2.0000     -11.418551      -310.7146
   6   2.0000     -11.415095      -310.6205
   7   2.0000     -11.414503      -310.6044
   8   2.0000     -11.389297      -309.9185
   9   2.0000     -11.388451      -309.8955
  10   2.0000      -1.667794       -45.3830
  11   2.0000      -1.336771       -36.3754
  12   2.0000      -1.242282       -33.8042
  13   2.0000      -1.225953       -33.3599
  14   2.0000      -1.189442       -32.3664
  15   2.0000      -1.117275       -30.4026
  16   2.0000      -1.021786       -27.8042
  17   2.0000      -0.997848       -27.1528
  18   2.0000      -0.937176       -25.5019
  19   2.0000      -0.909142       -24.7390
  20   2.0000      -0.884098       -24.0575
  21   2.0000      -0.860737       -23.4219
  22   2.0000      -0.840762       -22.8783
  23   2.0000      -0.789743       -21.4900
  24   2.0000      -0.772296       -21.0152
  25   2.0000      -0.760316       -20.6892
  26   2.0000      -0.740099       -20.1391
  27   2.0000      -0.721746       -19.6397
  28   2.0000      -0.708450       -19.2779
  29   2.0000      -0.697623       -18.9833
  30   2.0000      -0.670513       -18.2456
  31   2.0000      -0.665048       -18.0969
  32   2.0000      -0.657817       -17.9001
  33   2.0000      -0.518725       -14.1152
  34   2.0000      -0.504822       -13.7369
  35   0.0000      -0.136180        -3.7057
  36   0.0000      -0.078745        -2.1428
  37   0.0000      -0.062037        -1.6881
  38   0.0000      -0.060882        -1.6567
  39   0.0000      -0.060789        -1.6542

MULLIKEN ATOMIC CHARGES
-----------------------
   0 C :   -0.352594
   1 C :   -0.306068
   2 C :   -0.258109
   3 C :   -0.076103
   4 C :   -0.287476
   5 C :   -0.336022
   6 H :    0.312445
   7 H :    0.286439
   8 H :    0.348766
   9 H :    0.328081
  10 H :    0.302352
  11 C :    1.302562
  12 C :   -0.764333
  13 C :   -0.298444
  14 H :    0.368849
  15 H :    0.368890
  16 H :    0.395110
  17 O :   -0.729406
  18 H :    0.395062
Sum of atomic charges:    1.0000000

LOEWDIN ATOMIC CHARGES
----------------------
   0 C :    0.403408
   1 C :    0.407485
   2 C :    0.374312
   3 C :   -0.063174
   4 C :    0.366061
   5 C :    0.406206
   6 H :   -0.283924
   7 H :   -0.301922
   8 H :   -0.295484
   9 H :   -0.293361
  10 H :   -0.302690
  11 C :   -0.386450
  12 C :    0.594194
  13 C :    0.379944
  14 H :   -0.237663
  15 H :   -0.237653
  16 H :   -0.249762
  17 O :    0.970229
  18 H :   -0.249756

  Mayer bond orders larger than 0.100000
B(  0-C ,  1-C ) :   1.1592 B(  0-C ,  5-C ) :   1.1775 B(  0-C ,  6-H ) :   1.0309
B(  1-C ,  2-C ) :   1.3187 B(  1-C ,  3-C ) :  -0.4525 B(  1-C ,  7-H ) :   1.1129
B(  2-C ,  3-C ) :   0.9369 B(  2-C ,  4-C ) :   0.1380 B(  2-C ,  5-C ) :   0.1203
B(  2-C ,  7-H ) :  -0.1178 B(  2-C ,  8-H ) :   0.8776 B(  2-C , 11-C ) :  -0.3301
B(  3-C ,  4-C ) :   0.9071 B(  3-C ,  5-C ) :  -0.3940 B(  3-C ,  8-H ) :  -0.1004
B(  3-C ,  9-H ) :  -0.1512 B(  3-C , 11-C ) :   0.4898 B(  3-C , 12-C ) :  -0.1555
B(  3-C , 17-O ) :   0.2478 B(  4-C ,  5-C ) :   1.2572 B(  4-C ,  9-H ) :   0.9464
B(  4-C , 10-H ) :  -0.1166 B(  4-C , 11-C ) :  -0.4192 B(  5-C , 10-H ) :   1.0811
B(  8-H , 11-C ) :   0.1104 B(  9-H , 11-C ) :   0.1304 B( 11-C , 12-C ) :   0.9296
B( 11-C , 13-C ) :  -0.2727 B( 11-C , 17-O ) :   0.5055 B( 12-C , 13-C ) :   1.2911
B( 12-C , 14-H ) :   0.8315 B( 12-C , 15-H ) :   0.8315 B( 12-C , 17-O ) :   0.1590
B( 13-C , 16-H ) :   0.8253 B( 13-C , 17-O ) :   0.7102 B( 13-C , 18-H ) :   0.8254

MP2 TOTAL ENERGY:     -422.573869137 Eh
FINAL SINGLE POINT ENERGY      -422.573869137447

DIPOLE MOMENT
-------------
                                X             Y             Z
Electronic contribution:      0.65391      -1.86060       0.00009
Nuclear contribution   :     -1.73656       2.59597      -0.00010
                        -----------------------------------------
Total Dipole Moment    :     -1.08265       0.73537      -0.00001
                        -----------------------------------------
Magnitude (a.u.)       :      1.30878
Magnitude (Debye)      :      3.32666

Rotational constants in cm-1:     0.129965     0.028564     0.023630
Rotational constants in MHz :  3896.247811   856.332887   708.423879

                             ****ORCA TERMINATED NORMALLY****
TOTAL RUN TIME: 0 days 0 hours 48 minutes 8 seconds 973 msec
