                         Program Version 4.2.1 -  RELEASE  -
|  1> %pal
|  2>  nprocs 32
|  3> end
|  4> !RI-MP2 aug-cc-pVQZ aug-cc-pVQZ/C TightSCF
|  5> %maxcore 4500
|  6> *xyzfile 0 1  02_48TS.xyz
|  7>
|  8>
|  9>                          ****END OF INPUT****

CARTESIAN COORDINATES (ANGSTROEM)
---------------------------------
  C     -2.767155   -0.702362   -1.889792
  C     -2.071275   -1.397357   -0.932193
  C     -1.360629   -0.700105    0.060171
  C     -1.360629    0.700105    0.060171
  C     -2.071275    1.397357   -0.932193
  C     -2.767155    0.702362   -1.889792
  H     -3.319519   -1.237578   -2.652451
  H     -2.070640   -2.479436   -0.938065
  C     -0.595738   -1.332560    1.097453
  C     -0.595738    1.332560    1.097453
  H     -2.070640    2.479436   -0.938065
  H     -3.319519    1.237578   -2.652451
  N     -0.228628   -0.658247    2.183427
  N     -0.228628    0.658247    2.183427
  C     -0.459656    2.822883    1.174341
  H     -0.079452    3.238245    0.239956
  H     -1.428414    3.287597    1.378271
  H      0.220955    3.074503    1.984723
  C     -0.459655   -2.822883    1.174341
  H     -1.428414   -3.287597    1.378271
  H     -0.079452   -3.238245    0.239956
  H      0.220955   -3.074503    1.984723
  C      3.491587   -0.699655   -1.174859
  C      2.478212   -1.440532   -0.550879
  C      1.534266   -0.627740    0.036207
  C      1.534266    0.627740    0.036207
  C      2.478212    1.440532   -0.550879
  C      3.491587    0.699655   -1.174859
  H      4.300750   -1.225860   -1.668804
  H      2.479051   -2.523424   -0.550310
  H      2.479051    2.523424   -0.550310
  H      4.300750    1.225860   -1.668804

 Total Charge           Charge          ....    0
 Multiplicity           Mult            ....    1
 Number of Electrons    NEL             ....  124
 Basis Dimension        Dim             .... 2084

ORBITAL ENERGIES
----------------

  NO   OCC          E(Eh)            E(eV)
   0   2.0000     -15.589377      -424.2085
   1   2.0000     -15.588500      -424.1846
   2   2.0000     -11.292386      -307.2814
   3   2.0000     -11.292362      -307.2808
   4   2.0000     -11.257248      -306.3253
   5   2.0000     -11.257236      -306.3250
   6   2.0000     -11.254562      -306.2522
   7   2.0000     -11.253390      -306.2203
   8   2.0000     -11.251172      -306.1600
   9   2.0000     -11.250502      -306.1417
  10   2.0000     -11.249588      -306.1168
  11   2.0000     -11.249098      -306.1035
  12   2.0000     -11.239451      -305.8410
  13   2.0000     -11.238256      -305.8085
  14   2.0000     -11.231805      -305.6330
  15   2.0000     -11.228939      -305.5550
  16   2.0000     -11.228421      -305.5409
  17   2.0000     -11.228421      -305.5409
  18   2.0000      -1.342064       -36.5194
  19   2.0000      -1.178744       -32.0753
  20   2.0000      -1.164221       -31.6801
  21   2.0000      -1.138743       -30.9868
  22   2.0000      -1.072405       -29.1816
  23   2.0000      -1.034815       -28.1587
  24   2.0000      -1.018999       -27.7284
  25   2.0000      -1.007086       -27.4042
  26   2.0000      -1.000817       -27.2336
  27   2.0000      -0.948659       -25.8143
  28   2.0000      -0.881579       -23.9890
  29   2.0000      -0.872452       -23.7406
  30   2.0000      -0.836503       -22.7624
  31   2.0000      -0.804264       -21.8851
  32   2.0000      -0.787773       -21.4364
  33   2.0000      -0.742147       -20.1948
  34   2.0000      -0.718698       -19.5568
  35   2.0000      -0.689801       -18.7704
  36   2.0000      -0.672842       -18.3090
  37   2.0000      -0.640386       -17.4258
  38   2.0000      -0.631980       -17.1970
  39   2.0000      -0.628095       -17.0913
  40   2.0000      -0.623735       -16.9727
  41   2.0000      -0.614913       -16.7326
  42   2.0000      -0.596063       -16.2197
  43   2.0000      -0.591292       -16.0899
  44   2.0000      -0.581815       -15.8320
  45   2.0000      -0.555076       -15.1044
  46   2.0000      -0.545549       -14.8451
  47   2.0000      -0.544658       -14.8209
  48   2.0000      -0.542984       -14.7753
  49   2.0000      -0.533842       -14.5266
  50   2.0000      -0.532017       -14.4769
  51   2.0000      -0.522652       -14.2221
  52   2.0000      -0.517629       -14.0854
  53   2.0000      -0.499977       -13.6051
  54   2.0000      -0.457921       -12.4607
  55   2.0000      -0.394984       -10.7480
  56   2.0000      -0.387001       -10.5308
  57   2.0000      -0.376232       -10.2378
  58   2.0000      -0.343603        -9.3499
  59   2.0000      -0.341351        -9.2886
  60   2.0000      -0.327732        -8.9180
  61   2.0000      -0.315967        -8.5979
  62   0.0000       0.018923         0.5149
  63   0.0000       0.022772         0.6197
  64   0.0000       0.025546         0.6952
  65   0.0000       0.031244         0.8502
  66   0.0000       0.033437         0.9099

MULLIKEN ATOMIC CHARGES
-----------------------
   0 C :   -0.374462
   1 C :   -0.698483
   2 C :    0.373429
   3 C :    0.376589
   4 C :   -0.699017
   5 C :   -0.374026
   6 H :    0.265672
   7 H :    0.222931
   8 C :    1.413795
   9 C :    1.414343
  10 H :    0.222860
  11 H :    0.265678
  12 N :   -0.737727
  13 N :   -0.737829
  14 C :   -1.113759
  15 H :    0.140575
  16 H :    0.331600
  17 H :    0.282804
  18 C :   -1.113726
  19 H :    0.331598
  20 H :    0.140504
  21 H :    0.282600
  22 C :   -0.277024
  23 C :   -0.520468
  24 C :    0.037140
  25 C :    0.036444
  26 C :   -0.520053
  27 C :   -0.277320
  28 H :    0.250684
  29 H :    0.401820
  30 H :    0.402382
  31 H :    0.250443
Sum of atomic charges:   -0.0000000

LOEWDIN ATOMIC CHARGES
----------------------
   0 C :    0.373976
   1 C :    0.375630
   2 C :   -0.141666
   3 C :   -0.141666
   4 C :    0.375630
   5 C :    0.373976
   6 H :   -0.314770
   7 H :   -0.324168
   8 C :   -0.409089
   9 C :   -0.409089
  10 H :   -0.324168
  11 H :   -0.314770
  12 N :    0.376570
  13 N :    0.376570
  14 C :    0.881608
  15 H :   -0.295985
  16 H :   -0.270216
  17 H :   -0.301299
  18 C :    0.881608
  19 H :   -0.270215
  20 H :   -0.295985
  21 H :   -0.301300
  22 C :    0.319616
  23 C :    0.316042
  24 C :    0.066865
  25 C :    0.066865
  26 C :    0.316042
  27 C :    0.319616
  28 H :   -0.324263
  29 H :   -0.328851
  30 H :   -0.328850
  31 H :   -0.324264

  Mayer bond orders larger than 0.100000
B(  0-C ,  1-C ) :   1.2384 B(  0-C ,  2-C ) :  -0.2714 B(  0-C ,  5-C ) :   1.1422
B(  0-C ,  6-H ) :   1.1497 B(  1-C ,  2-C ) :   1.0366 B(  1-C ,  3-C ) :  -0.3098
B(  1-C ,  4-C ) :   0.2437 B(  1-C ,  6-H ) :  -0.1955 B(  1-C ,  7-H ) :   1.0385
B(  1-C ,  8-C ) :  -0.1797 B(  2-C ,  3-C ) :   0.4236 B(  2-C ,  4-C ) :  -0.3091
B(  2-C ,  8-C ) :   0.5659 B(  2-C ,  9-C ) :  -0.4428 B(  2-C , 12-N ) :   0.1715
B(  2-C , 13-N ) :   0.1153 B(  3-C ,  4-C ) :   1.0342 B(  3-C ,  5-C ) :  -0.2723
B(  3-C ,  8-C ) :  -0.4418 B(  3-C ,  9-C ) :   0.5655 B(  3-C , 12-N ) :   0.1146
B(  3-C , 13-N ) :   0.1728 B(  4-C ,  5-C ) :   1.2384 B(  4-C ,  9-C ) :  -0.1795
B(  4-C , 10-H ) :   1.0385 B(  4-C , 11-H ) :  -0.1960 B(  5-C , 11-H ) :   1.1499
B(  8-C ,  9-C ) :   0.4030 B(  8-C , 12-N ) :   0.2804 B(  8-C , 18-C ) :   0.3389
B(  8-C , 19-H ) :  -0.2370 B(  8-C , 20-H ) :  -0.1874 B(  8-C , 21-H ) :  -0.1003
B(  8-C , 24-C ) :   0.3827 B(  9-C , 13-N ) :   0.2791 B(  9-C , 14-C ) :   0.3389
B(  9-C , 15-H ) :  -0.1875 B(  9-C , 16-H ) :  -0.2367 B(  9-C , 17-H ) :  -0.1001
B(  9-C , 25-C ) :   0.3836 B( 12-N , 13-N ) :   0.5054 B( 12-N , 24-C ) :   0.1645
B( 13-N , 25-C ) :   0.1647 B( 14-C , 15-H ) :   1.1599 B( 14-C , 16-H ) :   1.0190
B( 14-C , 17-H ) :   1.0438 B( 18-C , 19-H ) :   1.0190 B( 18-C , 20-H ) :   1.1600
B( 18-C , 21-H ) :   1.0441 B( 22-C , 23-C ) :   1.3740 B( 22-C , 24-C ) :  -0.4518
B( 22-C , 25-C ) :  -0.1006 B( 22-C , 26-C ) :   0.1083 B( 22-C , 27-C ) :   1.2195
B( 22-C , 28-H ) :   1.1331 B( 23-C , 24-C ) :   0.8963 B( 23-C , 25-C ) :  -0.2364
B( 23-C , 26-C ) :   0.1718 B( 23-C , 27-C ) :   0.1086 B( 23-C , 28-H ) :  -0.1443
B( 23-C , 29-H ) :   0.8476 B( 24-C , 25-C ) :   1.7791 B( 24-C , 26-C ) :  -0.2359
B( 24-C , 27-C ) :  -0.1005 B( 25-C , 26-C ) :   0.8964 B( 25-C , 27-C ) :  -0.4520
B( 26-C , 27-C ) :   1.3747 B( 26-C , 30-H ) :   0.8468 B( 26-C , 31-H ) :  -0.1441
B( 27-C , 31-H ) :   1.1332

MP2 TOTAL ENERGY:     -726.216200595 Eh
FINAL SINGLE POINT ENERGY      -726.216200594617

DIPOLE MOMENT
-------------
                                X             Y             Z
Electronic contribution:     -0.70777      -0.00000       2.70911
Nuclear contribution   :      0.20155       0.00000      -4.36112
                        -----------------------------------------
Total Dipole Moment    :     -0.50622      -0.00000      -1.65201
                        -----------------------------------------
Magnitude (a.u.)       :      1.72783
Magnitude (Debye)      :      4.39180

Rotational constants in cm-1:     0.019648     0.012917     0.011961
Rotational constants in MHz :   589.030650   387.244682   358.579718

                             ****ORCA TERMINATED NORMALLY****
TOTAL RUN TIME: 0 days 4 hours 48 minutes 15 seconds 357 msec
