                         Program Version 4.2.1 -  RELEASE  -
|  1> %pal
|  2>  nprocs 32
|  3> end
|  4> !RI-MP2 aug-cc-pVQZ aug-cc-pVQZ/C TightSCF
|  5> %maxcore 4500
|  6> *xyzfile 0 2  04_82R2.xyz
|  7>
|  8>
|  9>                          ****END OF INPUT****

CARTESIAN COORDINATES (ANGSTROEM)
---------------------------------
  O     -2.045666   -1.294503    0.238245
  C     -3.187056   -0.859298   -0.575979
  C     -3.102700    0.666116   -0.575554
  C     -1.600827    0.903372   -0.489044
  C     -1.178547   -0.222391    0.468251
  C     -4.434339   -1.424489   -0.024790
  H     -3.007929   -1.226148   -1.590994
  H     -4.878467   -0.968576    0.848173
  H     -4.837892   -2.347899   -0.415629
  O     -3.737950    1.191682    0.566222
  O     -1.340906    2.193093   -0.017231
  N      0.191391   -0.671770    0.232780
  H     -1.256502    0.121459    1.504437
  C      1.294214    0.135044    0.142543
  C      0.660708   -1.966095    0.184598
  H     -1.140792    0.728156   -1.469328
  H     -3.533924    1.084569   -1.490381
  H     -3.286203    2.018557    0.780096
  H     -0.370613    2.265534    0.101729
  N      1.955974   -2.040605    0.055306
  C      2.373263   -0.727469    0.029227
  C      3.636453   -0.127829   -0.088591
  N      3.717841    1.208313   -0.081303
  C      2.599523    1.921280    0.033260
  N      1.353323    1.473942    0.148005
  N      4.763653   -0.849996   -0.208464
  H      4.722067   -1.854802   -0.207268
  H      5.645911   -0.372779   -0.280414
  H      2.723575    2.998807    0.031010
  H     -0.022485   -2.797684    0.242886

 Total Charge           Charge          ....    0
 Multiplicity           Mult            ....    2
 Number of Electrons    NEL             ....  131
 Basis Dimension        Dim             .... 1992

ORBITAL ENERGIES
----------------
                 SPIN UP ORBITALS
  NO   OCC          E(Eh)            E(eV)
   0   1.0000     -20.578179      -559.9607
   1   1.0000     -20.560021      -559.4666
   2   1.0000     -20.559367      -559.4488
   3   1.0000     -15.628689      -425.2782
   4   1.0000     -15.590699      -424.2445
   5   1.0000     -15.569869      -423.6777
   6   1.0000     -15.564107      -423.5209
   7   1.0000     -15.556441      -423.3123
   8   1.0000     -11.345138      -308.7169
   9   1.0000     -11.340694      -308.5960
  10   1.0000     -11.321758      -308.0807
  11   1.0000     -11.320303      -308.0411
  12   1.0000     -11.317454      -307.9636
  13   1.0000     -11.300689      -307.5074
  14   1.0000     -11.296332      -307.3888
  15   1.0000     -11.293422      -307.3096
  16   1.0000     -11.254535      -306.2515
  17   1.0000     -11.240797      -305.8776
  18   1.0000      -1.427083       -38.8329
  19   1.0000      -1.385497       -37.7013
  20   1.0000      -1.372943       -37.3597
  21   1.0000      -1.357301       -36.9340
  22   1.0000      -1.313057       -35.7301
  23   1.0000      -1.260126       -34.2898
  24   1.0000      -1.201815       -32.7031
  25   1.0000      -1.166850       -31.7516
  26   1.0000      -1.072694       -29.1895
  27   1.0000      -1.044636       -28.4260
  28   1.0000      -1.037708       -28.2375
  29   1.0000      -0.946053       -25.7434
  30   1.0000      -0.903625       -24.5889
  31   1.0000      -0.888054       -24.1652
  32   1.0000      -0.850536       -23.1443
  33   1.0000      -0.820210       -22.3190
  34   1.0000      -0.796059       -21.6619
  35   1.0000      -0.774585       -21.0775
  36   1.0000      -0.753100       -20.4929
  37   1.0000      -0.737952       -20.0807
  38   1.0000      -0.714077       -19.4310
  39   1.0000      -0.704983       -19.1836
  40   1.0000      -0.688531       -18.7359
  41   1.0000      -0.675839       -18.3905
  42   1.0000      -0.666998       -18.1499
  43   1.0000      -0.645720       -17.5709
  44   1.0000      -0.637309       -17.3421
  45   1.0000      -0.634786       -17.2734
  46   1.0000      -0.616824       -16.7846
  47   1.0000      -0.600896       -16.3512
  48   1.0000      -0.597241       -16.2517
  49   1.0000      -0.587533       -15.9876
  50   1.0000      -0.571938       -15.5632
  51   1.0000      -0.557601       -15.1731
  52   1.0000      -0.542656       -14.7664
  53   1.0000      -0.539693       -14.6858
  54   1.0000      -0.512662       -13.9502
  55   1.0000      -0.503511       -13.7012
  56   1.0000      -0.484836       -13.1931
  57   1.0000      -0.468328       -12.7439
  58   1.0000      -0.461154       -12.5486
  59   1.0000      -0.453913       -12.3516
  60   1.0000      -0.450470       -12.2579
  61   1.0000      -0.422112       -11.4863
  62   1.0000      -0.411722       -11.2035
  63   1.0000      -0.382666       -10.4129
  64   1.0000      -0.377546       -10.2735
  65   1.0000      -0.317450        -8.6383
  66   0.0000       0.021684         0.5900
  67   0.0000       0.024816         0.6753
  68   0.0000       0.028679         0.7804
  69   0.0000       0.031868         0.8672
  70   0.0000       0.037435         1.0187

                 SPIN DOWN ORBITALS
  NO   OCC          E(Eh)            E(eV)
   0   1.0000     -20.574870      -559.8707
   1   1.0000     -20.560073      -559.4680
   2   1.0000     -20.559316      -559.4474
   3   1.0000     -15.628559      -425.2747
   4   1.0000     -15.590698      -424.2445
   5   1.0000     -15.569873      -423.6778
   6   1.0000     -15.564109      -423.5209
   7   1.0000     -15.556443      -423.3123
   8   1.0000     -11.345135      -308.7168
   9   1.0000     -11.340621      -308.5940
  10   1.0000     -11.321756      -308.0806
  11   1.0000     -11.320279      -308.0404
  12   1.0000     -11.317456      -307.9636
  13   1.0000     -11.303669      -307.5885
  14   1.0000     -11.296278      -307.3873
  15   1.0000     -11.292707      -307.2902
  16   1.0000     -11.254534      -306.2514
  17   1.0000     -11.217467      -305.2428
  18   1.0000      -1.422206       -38.7002
  19   1.0000      -1.384504       -37.6743
  20   1.0000      -1.371103       -37.3096
  21   1.0000      -1.356955       -36.9246
  22   1.0000      -1.312848       -35.7244
  23   1.0000      -1.260117       -34.2895
  24   1.0000      -1.201131       -32.6844
  25   1.0000      -1.166646       -31.7460
  26   1.0000      -1.059758       -28.8375
  27   1.0000      -1.043927       -28.4067
  28   1.0000      -1.025029       -27.8925
  29   1.0000      -0.914161       -24.8756
  30   1.0000      -0.902420       -24.5561
  31   1.0000      -0.887493       -24.1499
  32   1.0000      -0.836484       -22.7619
  33   1.0000      -0.813942       -22.1485
  34   1.0000      -0.787450       -21.4276
  35   1.0000      -0.772498       -21.0207
  36   1.0000      -0.752178       -20.4678
  37   1.0000      -0.736407       -20.0386
  38   1.0000      -0.711957       -19.3733
  39   1.0000      -0.701493       -19.0886
  40   1.0000      -0.688254       -18.7283
  41   1.0000      -0.674494       -18.3539
  42   1.0000      -0.663899       -18.0656
  43   1.0000      -0.643949       -17.5227
  44   1.0000      -0.634647       -17.2696
  45   1.0000      -0.631110       -17.1734
  46   1.0000      -0.614519       -16.7219
  47   1.0000      -0.599238       -16.3061
  48   1.0000      -0.593668       -16.1545
  49   1.0000      -0.582484       -15.8502
  50   1.0000      -0.566343       -15.4110
  51   1.0000      -0.556661       -15.1475
  52   1.0000      -0.539415       -14.6782
  53   1.0000      -0.535315       -14.5667
  54   1.0000      -0.512653       -13.9500
  55   1.0000      -0.503189       -13.6925
  56   1.0000      -0.479477       -13.0472
  57   1.0000      -0.465785       -12.6747
  58   1.0000      -0.459256       -12.4970
  59   1.0000      -0.451177       -12.2771
  60   1.0000      -0.449638       -12.2353
  61   1.0000      -0.422050       -11.4846
  62   1.0000      -0.411298       -11.1920
  63   1.0000      -0.378137       -10.2896
  64   1.0000      -0.317453        -8.6383
  65   0.0000       0.021778         0.5926
  66   0.0000       0.024890         0.6773
  67   0.0000       0.028416         0.7732
  68   0.0000       0.031891         0.8678
  69   0.0000       0.036794         1.0012

MULLIKEN ATOMIC CHARGES AND SPIN POPULATIONS
--------------------------------------------
   0 O :   -1.051885    0.060054
   1 C :    0.093835   -0.175951
   2 C :    0.609325    0.006334
   3 C :    0.180825    0.002067
   4 C :    0.705636    0.006828
   5 C :   -0.943841    1.271108
   6 H :    0.228584    0.003834
   7 H :    0.406756   -0.066213
   8 H :    0.296571   -0.094686
   9 O :   -0.986614    0.001814
  10 O :   -1.021012    0.001694
  11 N :   -0.462316    0.001390
  12 H :    0.420467   -0.001962
  13 C :    1.083552    0.000883
  14 C :    0.309403   -0.004501
  15 H :    0.278923    0.000714
  16 H :    0.399321   -0.013765
  17 H :    0.291605    0.001041
  18 H :    0.224977   -0.000031
  19 N :   -1.018819   -0.000765
  20 C :   -0.271894   -0.000179
  21 C :    1.075573    0.000422
  22 N :   -0.933541   -0.000097
  23 C :   -0.069912   -0.000006
  24 N :   -0.704331   -0.000192
  25 N :   -0.829662   -0.000039
  26 H :    0.310022   -0.000026
  27 H :    0.270553    0.000029
  28 H :    0.584885   -0.000041
  29 H :    0.523015    0.000242
Sum of atomic charges         :   -0.0000000

LOEWDIN ATOMIC CHARGES AND SPIN POPULATIONS
-------------------------------------------
   0 O :    0.913453    0.044977
   1 C :   -0.227128    0.140703
   2 C :   -0.247553    0.019266
   3 C :   -0.250422    0.002108
   4 C :   -0.373325    0.005630
   5 C :    0.862059    0.460673
   6 H :   -0.307031    0.010610
   7 H :   -0.350620    0.150378
   8 H :   -0.328244    0.154693
   9 O :    1.308501    0.002723
  10 O :    1.331955    0.000803
  11 N :    0.438242    0.002207
  12 H :   -0.282442    0.000006
  13 C :   -0.563762    0.000460
  14 C :   -0.025623    0.000547
  15 H :   -0.270816    0.000211
  16 H :   -0.264273    0.003491
  17 H :   -0.853084    0.000012
  18 H :   -0.952473    0.000176
  19 N :    0.619622   -0.000055
  20 C :   -0.423847    0.000060
  21 C :   -0.492299    0.000034
  22 N :    0.599819   -0.000023
  23 C :   -0.133965    0.000015
  24 N :    0.657080   -0.000011
  25 N :    1.267308    0.000017
  26 H :   -0.480423    0.000002
  27 H :   -0.483099    0.000004
  28 H :   -0.369990    0.000008
  29 H :   -0.317621    0.000275

  Mayer bond orders larger than 0.100000
B(  0-O ,  1-C ) :   0.5622 B(  0-O ,  3-C ) :   0.2072 B(  0-O ,  4-C ) :   0.4247
B(  1-C ,  2-C ) :   0.9539 B(  1-C ,  5-C ) :   0.7675 B(  1-C ,  6-H ) :   0.9961
B(  1-C ,  8-H ) :  -0.1212 B(  1-C ,  9-O ) :   0.1482 B(  2-C ,  3-C ) :   0.8659
B(  2-C ,  9-O ) :   0.1332 B(  2-C , 10-O ) :   0.1066 B(  2-C , 16-H ) :   0.8839
B(  3-C ,  4-C ) :   0.8406 B(  3-C ,  9-O ) :   0.1833 B(  3-C , 10-O ) :   0.2315
B(  3-C , 11-N ) :   0.1606 B(  3-C , 15-H ) :   0.9481 B(  4-C , 11-N ) :   0.5882
B(  4-C , 12-H ) :   0.8404 B(  5-C ,  7-H ) :   0.8453 B(  5-C ,  8-H ) :   1.0456
B(  9-O , 17-H ) :   0.9294 B( 10-O , 18-H ) :   0.9512 B( 11-N , 13-C ) :   1.0349
B( 11-N , 14-C ) :   1.3315 B( 11-N , 24-N ) :   0.1443 B( 13-C , 14-C ) :   0.2245
B( 13-C , 19-N ) :   0.3691 B( 13-C , 20-C ) :   1.1965 B( 13-C , 21-C ) :  -0.3470
B( 13-C , 23-C ) :  -0.1505 B( 13-C , 24-N ) :   0.9704 B( 14-C , 19-N ) :   1.1466
B( 14-C , 20-C ) :   0.2409 B( 14-C , 29-H ) :   0.6431 B( 18-H , 24-N ) :   0.2019
B( 19-N , 20-C ) :   0.3614 B( 20-C , 21-C ) :   1.4203 B( 20-C , 22-N ) :   0.1977
B( 20-C , 23-C ) :   0.2108 B( 21-C , 22-N ) :   0.7160 B( 21-C , 25-N ) :   0.8658
B( 22-N , 23-C ) :   1.2899 B( 22-N , 25-N ) :   0.1345 B( 23-C , 24-N ) :   1.5961
B( 23-C , 28-H ) :   0.7027 B( 25-N , 26-H ) :   0.9101 B( 25-N , 27-H ) :   0.9857

MP2 TOTAL ENERGY:     -886.371971807 Eh
FINAL SINGLE POINT ENERGY      -886.371971806538

DIPOLE MOMENT
-------------
                                X             Y             Z
Electronic contribution:      9.48711      -0.07786       1.36584
Nuclear contribution   :     -9.12900      -0.31759      -1.89990
                        -----------------------------------------
Total Dipole Moment    :      0.35810      -0.39545      -0.53406
                        -----------------------------------------
Magnitude (a.u.)       :      0.75487
Magnitude (Debye)      :      1.91874

Rotational constants in cm-1:     0.035772     0.008677     0.007180
Rotational constants in MHz :  1072.427810   260.134078   215.242901

                             ****ORCA TERMINATED NORMALLY****
TOTAL RUN TIME: 0 days 5 hours 12 minutes 27 seconds 330 msec
