                         Program Version 4.2.1 -  RELEASE  -
|  1> %pal
|  2>  nprocs 32
|  3> end
|  4> !RI-MP2 aug-cc-pVQZ aug-cc-pVQZ/C TightSCF
|  5> %maxcore 4500
|  6> *xyzfile 0 1  10_82P.xyz
|  7>
|  8>
|  9>                          ****END OF INPUT****

CARTESIAN COORDINATES (ANGSTROEM)
---------------------------------
  C      1.213223    1.532138    1.527395
  C      0.369894    0.580114    0.658510
  C      1.302891   -0.348488   -0.076284
  C      2.349683    0.323179   -0.905078
  C      3.198129    1.238562   -0.005487
  C      2.321563    2.235975    0.745969
  H      1.657739    0.940681    2.333471
  H      0.549652    2.260330    1.996893
  H      2.973121   -0.402498   -1.425633
  H      1.850057    0.938821   -1.660792
  H      3.754655    0.618377    0.704436
  H      3.936708    1.757850   -0.619308
  H      1.883339    2.941338    0.035713
  H      2.931818    2.825015    1.434499
  C      1.243399   -1.686764    0.073100
  C      0.284017   -2.317331    0.929429
  C     -1.064671    3.838323   -0.242915
  C      2.152417   -2.563588   -0.602819
  N     -0.469856   -2.824525    1.631163
  N      2.882525   -3.262385   -1.147938
  C     -0.799954    2.568349   -0.274498
  C     -0.560223    1.290565   -0.320807
  C     -1.271392    0.438330   -1.343597
  H     -2.020680    1.026007   -1.869530
  H     -0.564717    0.018174   -2.060955
  O     -1.879648   -0.711677   -0.741538
  C     -3.094035   -0.529777   -0.169316
  C     -3.604936   -1.807685    0.417879
  O     -3.655257    0.531285   -0.162874
  H     -2.882234   -2.206606    1.130675
  H     -4.561718   -1.626253    0.900285
  H     -3.720713   -2.550443   -0.373217
  H     -1.857493    4.224218    0.388445
  H     -0.267579   -0.012242    1.318077
  H     -0.511426    4.547332   -0.849229

 Total Charge           Charge          ....    0
 Multiplicity           Mult            ....    1
 Number of Electrons    NEL             ....  136
 Basis Dimension        Dim             .... 2256

ORBITAL ENERGIES
----------------

  NO   OCC          E(Eh)            E(eV)
   0   2.0000     -20.606808      -560.7398
   1   2.0000     -20.545724      -559.0776
   2   2.0000     -15.583662      -424.0530
   3   2.0000     -15.583521      -424.0492
   4   2.0000     -11.381932      -309.7181
   5   2.0000     -11.321481      -308.0732
   6   2.0000     -11.318423      -307.9899
   7   2.0000     -11.310704      -307.7799
   8   2.0000     -11.293056      -307.2997
   9   2.0000     -11.290501      -307.2301
  10   2.0000     -11.278058      -306.8916
  11   2.0000     -11.271654      -306.7173
  12   2.0000     -11.267377      -306.6009
  13   2.0000     -11.263048      -306.4831
  14   2.0000     -11.253421      -306.2212
  15   2.0000     -11.251624      -306.1722
  16   2.0000     -11.249804      -306.1227
  17   2.0000     -11.241642      -305.9006
  18   2.0000     -11.232958      -305.6643
  19   2.0000      -1.468629       -39.9634
  20   2.0000      -1.367496       -37.2115
  21   2.0000      -1.252352       -34.0782
  22   2.0000      -1.234423       -33.5904
  23   2.0000      -1.196325       -32.5536
  24   2.0000      -1.129480       -30.7347
  25   2.0000      -1.103566       -30.0296
  26   2.0000      -1.051007       -28.5994
  27   2.0000      -1.042976       -28.3808
  28   2.0000      -1.016252       -27.6536
  29   2.0000      -0.986809       -26.8524
  30   2.0000      -0.920301       -25.0427
  31   2.0000      -0.887624       -24.1535
  32   2.0000      -0.857847       -23.3432
  33   2.0000      -0.799575       -21.7575
  34   2.0000      -0.790972       -21.5234
  35   2.0000      -0.782352       -21.2889
  36   2.0000      -0.729773       -19.8581
  37   2.0000      -0.708521       -19.2798
  38   2.0000      -0.702610       -19.1190
  39   2.0000      -0.688180       -18.7263
  40   2.0000      -0.678996       -18.4764
  41   2.0000      -0.652576       -17.7575
  42   2.0000      -0.644361       -17.5340
  43   2.0000      -0.631647       -17.1880
  44   2.0000      -0.626350       -17.0439
  45   2.0000      -0.609022       -16.5723
  46   2.0000      -0.602110       -16.3843
  47   2.0000      -0.587143       -15.9770
  48   2.0000      -0.584736       -15.9115
  49   2.0000      -0.579449       -15.7676
  50   2.0000      -0.575191       -15.6517
  51   2.0000      -0.566015       -15.4020
  52   2.0000      -0.559047       -15.2124
  53   2.0000      -0.550824       -14.9887
  54   2.0000      -0.541254       -14.7283
  55   2.0000      -0.535391       -14.5687
  56   2.0000      -0.517725       -14.0880
  57   2.0000      -0.497419       -13.5354
  58   2.0000      -0.496711       -13.5162
  59   2.0000      -0.494752       -13.4629
  60   2.0000      -0.488435       -13.2910
  61   2.0000      -0.486501       -13.2384
  62   2.0000      -0.474760       -12.9189
  63   2.0000      -0.473376       -12.8812
  64   2.0000      -0.456053       -12.4098
  65   2.0000      -0.402373       -10.9491
  66   2.0000      -0.383519       -10.4361
  67   2.0000      -0.381328       -10.3765
  68   0.0000       0.013944         0.3794
  69   0.0000       0.022599         0.6149
  70   0.0000       0.024957         0.6791
  71   0.0000       0.028957         0.7880
  72   0.0000       0.036105         0.9825

MULLIKEN ATOMIC CHARGES
-----------------------
   0 C :   -0.719768
   1 C :    0.923690
   2 C :    1.018654
   3 C :   -0.424829
   4 C :   -0.604364
   5 C :   -0.510337
   6 H :    0.110475
   7 H :    0.214025
   8 H :    0.326152
   9 H :    0.215628
  10 H :    0.204155
  11 H :    0.236209
  12 H :    0.130001
  13 H :    0.220787
  14 C :   -0.760454
  15 C :    0.644054
  16 C :   -0.848716
  17 C :    0.764041
  18 N :   -1.008253
  19 N :   -0.988746
  20 C :   -0.148707
  21 C :   -0.059369
  22 C :   -0.073260
  23 H :    0.449981
  24 H :    0.259746
  25 O :   -0.907237
  26 C :    1.014734
  27 C :   -0.837421
  28 O :   -0.900600
  29 H :    0.365903
  30 H :    0.324094
  31 H :    0.270878
  32 H :    0.249310
  33 H :    0.542738
  34 H :    0.306806
Sum of atomic charges:   -0.0000000

LOEWDIN ATOMIC CHARGES
----------------------
   0 C :    0.550131
   1 C :    0.090441
   2 C :   -0.086842
   3 C :    0.539808
   4 C :    0.572719
   5 C :    0.552320
   6 H :   -0.243527
   7 H :   -0.262318
   8 H :   -0.303915
   9 H :   -0.257436
  10 H :   -0.249224
  11 H :   -0.246459
  12 H :   -0.285633
  13 H :   -0.246419
  14 C :   -0.193074
  15 C :   -0.332620
  16 C :    0.785665
  17 C :   -0.341018
  18 N :    0.490303
  19 N :    0.452269
  20 C :    0.203724
  21 C :   -0.077016
  22 C :    0.141353
  23 H :   -0.340723
  24 H :   -0.308667
  25 O :    0.875871
  26 C :   -1.046755
  27 C :    0.871117
  28 O :    0.736229
  29 H :   -0.367863
  30 H :   -0.313819
  31 H :   -0.291135
  32 H :   -0.361707
  33 H :   -0.342036
  34 H :   -0.363744

  Mayer bond orders larger than 0.100000
B(  0-C ,  1-C ) :   0.4480 B(  0-C ,  4-C ) :  -0.1231 B(  0-C ,  5-C ) :   0.9157
B(  0-C ,  6-H ) :   1.2667 B(  0-C ,  7-H ) :   1.0594 B(  0-C , 21-C ) :   0.1957
B(  0-C , 33-H ) :  -0.2144 B(  1-C ,  2-C ) :   0.5832 B(  1-C ,  5-C ) :  -0.2110
B(  1-C ,  6-H ) :  -0.1572 B(  1-C ,  7-H ) :  -0.1179 B(  1-C , 14-C ) :  -0.1860
B(  1-C , 15-C ) :  -0.1654 B(  1-C , 16-C ) :   0.1286 B(  1-C , 21-C ) :   0.1064
B(  1-C , 33-H ) :   0.6777 B(  2-C ,  3-C ) :   0.4776 B(  2-C ,  4-C ) :  -0.1579
B(  2-C , 14-C ) :   1.1541 B(  2-C , 15-C ) :  -0.1946 B(  2-C , 17-C ) :  -0.5012
B(  2-C , 19-N ) :   0.1146 B(  2-C , 21-C ) :   0.1008 B(  3-C ,  4-C ) :   0.9354
B(  3-C ,  5-C ) :  -0.1289 B(  3-C ,  8-H ) :   0.9108 B(  3-C ,  9-H ) :   1.0065
B(  4-C ,  5-C ) :   0.9355 B(  4-C , 10-H ) :   1.0315 B(  4-C , 11-H ) :   0.9929
B(  5-C , 12-H ) :   1.0140 B(  5-C , 13-H ) :   0.9745 B( 14-C , 15-C ) :   1.3538
B( 14-C , 17-C ) :   1.6147 B( 14-C , 19-N ) :   0.1330 B( 15-C , 18-N ) :   2.0537
B( 16-C , 20-C ) :   1.7263 B( 16-C , 21-C ) :  -0.4259 B( 16-C , 32-H ) :   1.1599
B( 16-C , 34-H ) :   1.0441 B( 17-C , 19-N ) :   1.9230 B( 20-C , 21-C ) :   1.4829
B( 20-C , 32-H ) :  -0.2688 B( 20-C , 34-H ) :  -0.1911 B( 21-C , 22-C ) :   0.7177
B( 21-C , 24-H ) :   0.1238 B( 21-C , 28-O ) :  -0.1312 B( 22-C , 23-H ) :   0.8682
B( 22-C , 24-H ) :   0.8683 B( 22-C , 25-O ) :   0.4754 B( 22-C , 28-O ) :   0.1562
B( 24-H , 25-O ) :   0.1229 B( 25-O , 26-C ) :   0.8300 B( 25-O , 27-C ) :  -0.1042
B( 25-O , 33-H ) :   0.1061 B( 26-C , 27-C ) :   0.8291 B( 26-C , 28-O ) :   1.2585
B( 27-C , 29-H ) :   0.8202 B( 27-C , 30-H ) :   0.9786 B( 27-C , 31-H ) :   0.9532

MP2 TOTAL ENERGY:     -839.727667243 Eh
FINAL SINGLE POINT ENERGY      -839.727667243028

DIPOLE MOMENT
-------------
                                X             Y             Z
Electronic contribution:     -2.54752     -13.02573      -1.54598
Nuclear contribution   :      3.06679      15.20871       1.36766
                        -----------------------------------------
Total Dipole Moment    :      0.51926       2.18298      -0.17832
                        -----------------------------------------
Magnitude (a.u.)       :      2.25096
Magnitude (Debye)      :      5.72149

Rotational constants in cm-1:     0.014705     0.012252     0.007844
Rotational constants in MHz :   440.853086   367.311118   235.145159

                             ****ORCA TERMINATED NORMALLY****
TOTAL RUN TIME: 0 days 6 hours 24 minutes 16 seconds 223 msec
