                         Program Version 4.2.1 -  RELEASE  -
|  1> %pal
|  2>  nprocs 32
|  3> end
|  4> !RI-MP2 aug-cc-pVQZ aug-cc-pVQZ/C TightSCF
|  5> %maxcore 4500
|  6> *xyzfile 0 1  10_3R2.xyz
|  7>
|  8>
|  9>                          ****END OF INPUT****

CARTESIAN COORDINATES (ANGSTROEM)
---------------------------------
  C     -1.315422   -0.643757    0.000001
  C     -0.043529    0.115927    0.000004
  C     -2.478866   -0.010261    0.000015
  O      1.010666   -0.715311   -0.000022
  O      0.060290    1.315344    0.000029
  C      2.295974   -0.089091   -0.000023
  H      3.018370   -0.900757   -0.000095
  H      2.415378    0.532394   -0.887368
  H      2.415433    0.532283    0.887393
  H     -1.237875   -1.723715   -0.000016
  H     -2.510845    1.073105    0.000030
  H     -3.417057   -0.550487    0.000011

 Total Charge           Charge          ....    0
 Multiplicity           Mult            ....    1
 Number of Electrons    NEL             ....   46
 Basis Dimension        Dim             ....  756

ORBITAL ENERGIES
----------------

  NO   OCC          E(Eh)            E(eV)
   0   2.0000     -20.602083      -560.6112
   1   2.0000     -20.537801      -558.8620
   2   2.0000     -11.378149      -309.6152
   3   2.0000     -11.283957      -307.0521
   4   2.0000     -11.256343      -306.3007
   5   2.0000     -11.247137      -306.0502
   6   2.0000      -1.463269       -39.8176
   7   2.0000      -1.359224       -36.9864
   8   2.0000      -1.081470       -29.4283
   9   2.0000      -0.980782       -26.6884
  10   2.0000      -0.853774       -23.2324
  11   2.0000      -0.761753       -20.7284
  12   2.0000      -0.714645       -19.4465
  13   2.0000      -0.677509       -18.4360
  14   2.0000      -0.673356       -18.3230
  15   2.0000      -0.633235       -17.2312
  16   2.0000      -0.586243       -15.9525
  17   2.0000      -0.555836       -15.1251
  18   2.0000      -0.548980       -14.9385
  19   2.0000      -0.528166       -14.3721
  20   2.0000      -0.464629       -12.6432
  21   2.0000      -0.452818       -12.3218
  22   2.0000      -0.396835       -10.7984
  23   0.0000       0.025006         0.6804
  24   0.0000       0.028783         0.7832
  25   0.0000       0.036862         1.0031
  26   0.0000       0.045777         1.2457
  27   0.0000       0.047837         1.3017

MULLIKEN ATOMIC CHARGES
-----------------------
   0 C :   -0.682329
   1 C :    1.234645
   2 C :   -0.694574
   3 O :   -0.648195
   4 O :   -0.754624
   5 C :   -0.658522
   6 H :    0.440030
   7 H :    0.288387
   8 H :    0.288380
   9 H :    0.436174
  10 H :    0.383721
  11 H :    0.366907
Sum of atomic charges:   -0.0000000

LOEWDIN ATOMIC CHARGES
----------------------
   0 C :    0.284148
   1 C :   -1.145210
   2 C :    0.778331
   3 O :    0.827451
   4 O :    0.703616
   5 C :    0.570266
   6 H :   -0.324250
   7 H :   -0.317080
   8 H :   -0.317073
   9 H :   -0.365443
  10 H :   -0.357718
  11 H :   -0.337039

  Mayer bond orders larger than 0.100000
B(  0-C ,  1-C ) :   0.9000 B(  0-C ,  2-C ) :   1.7231 B(  0-C ,  4-O ) :   0.1136
B(  0-C ,  9-H ) :   0.7969 B(  0-C , 11-H ) :  -0.1011 B(  1-C ,  2-C ) :  -0.2221
B(  1-C ,  3-O ) :   0.9592 B(  1-C ,  4-O ) :   1.3349 B(  2-C , 10-H ) :   0.8375
B(  2-C , 11-H ) :   0.9800 B(  3-O ,  5-C ) :   0.8301 B(  5-C ,  6-H ) :   0.8160
B(  5-C ,  7-H ) :   0.9194 B(  5-C ,  8-H ) :   0.9194

MP2 TOTAL ENERGY:     -306.014412847 Eh
FINAL SINGLE POINT ENERGY      -306.014412847011

DIPOLE MOMENT
-------------
                                X             Y             Z
Electronic contribution:     -0.77521       0.36032       0.00003
Nuclear contribution   :      0.70274      -1.03131      -0.00004
                        -----------------------------------------
Total Dipole Moment    :     -0.07247      -0.67099      -0.00002
                        -----------------------------------------
Magnitude (a.u.)       :      0.67490
Magnitude (Debye)      :      1.71545

Rotational constants in cm-1:     0.347436     0.077853     0.064373
Rotational constants in MHz : 10415.882931  2333.983707  1929.842986

                             ****ORCA TERMINATED NORMALLY****
TOTAL RUN TIME: 0 days 0 hours 8 minutes 46 seconds 982 msec
