                         Program Version 4.2.1 -  RELEASE  -
|  1> %pal
|  2>  nprocs 32
|  3> end
|  4> !RI-MP2 aug-cc-pVQZ aug-cc-pVQZ/C TightSCF
|  5> %maxcore 4500
|  6> *xyzfile 0 1  04_90R1.xyz
|  7>
|  8>
|  9>                          ****END OF INPUT****

CARTESIAN COORDINATES (ANGSTROEM)
---------------------------------
  C      2.134632    0.061724   -0.701143
  C      2.424750    0.142606    0.800206
  O      2.824741   -0.762409    1.480636
  O      2.227818    1.380903    1.277514
  H      2.439896    1.370944    2.221306
  N      1.030426    0.884511   -1.144546
  C     -0.211685    0.439321   -0.642030
  C     -0.430778   -0.893846   -0.392426
  N      0.553606   -1.801946   -0.634790
  C      1.861306   -1.386968   -1.108590
  H      2.617981   -2.041165   -0.679268
  H      1.916591   -1.446432   -2.198020
  C     -1.231279    1.384097   -0.360025
  N     -2.417258    0.791236    0.118783
  C     -2.548228   -0.542030    0.342114
  N     -1.604577   -1.393923    0.098460
  O     -1.159950    2.598800   -0.484146
  N     -3.731855   -0.968777    0.891942
  H     -3.835609   -1.971807    0.889614
  H     -4.569193   -0.457644    0.661083
  H     -3.138777    1.443053    0.393661
  H      1.150892    1.876213   -0.978097
  H      0.426031   -2.717607   -0.237846
  H      3.046616    0.398956   -1.202053

 Total Charge           Charge          ....    0
 Multiplicity           Mult            ....    1
 Number of Electrons    NEL             ....  110
 Basis Dimension        Dim             .... 1614

ORBITAL ENERGIES
----------------

  NO   OCC          E(Eh)            E(eV)
   0   2.0000     -20.612809      -560.9031
   1   2.0000     -20.550838      -559.2167
   2   2.0000     -20.506779      -558.0178
   3   2.0000     -15.620609      -425.0584
   4   2.0000     -15.602586      -424.5679
   5   2.0000     -15.578557      -423.9141
   6   2.0000     -15.556073      -423.3023
   7   2.0000     -15.551122      -423.1675
   8   2.0000     -11.384902      -309.7989
   9   2.0000     -11.384382      -309.7848
  10   2.0000     -11.348257      -308.8018
  11   2.0000     -11.325474      -308.1818
  12   2.0000     -11.286950      -307.1335
  13   2.0000     -11.273868      -306.7775
  14   2.0000     -11.236909      -305.7719
  15   2.0000      -1.472788       -40.0766
  16   2.0000      -1.388678       -37.7878
  17   2.0000      -1.368255       -37.2321
  18   2.0000      -1.340730       -36.4831
  19   2.0000      -1.290827       -35.1252
  20   2.0000      -1.221935       -33.2505
  21   2.0000      -1.217828       -33.1388
  22   2.0000      -1.186285       -32.2805
  23   2.0000      -1.061625       -28.8883
  24   2.0000      -0.974056       -26.5054
  25   2.0000      -0.936256       -25.4768
  26   2.0000      -0.877825       -23.8868
  27   2.0000      -0.870426       -23.6855
  28   2.0000      -0.799045       -21.7431
  29   2.0000      -0.793618       -21.5954
  30   2.0000      -0.749690       -20.4001
  31   2.0000      -0.723942       -19.6995
  32   2.0000      -0.710784       -19.3414
  33   2.0000      -0.696626       -18.9562
  34   2.0000      -0.692532       -18.8448
  35   2.0000      -0.673173       -18.3180
  36   2.0000      -0.669426       -18.2160
  37   2.0000      -0.648149       -17.6370
  38   2.0000      -0.635379       -17.2895
  39   2.0000      -0.621870       -16.9219
  40   2.0000      -0.615390       -16.7456
  41   2.0000      -0.603870       -16.4321
  42   2.0000      -0.577815       -15.7231
  43   2.0000      -0.560184       -15.2434
  44   2.0000      -0.539893       -14.6912
  45   2.0000      -0.524987       -14.2856
  46   2.0000      -0.515884       -14.0379
  47   2.0000      -0.488370       -13.2892
  48   2.0000      -0.484186       -13.1754
  49   2.0000      -0.454868       -12.3776
  50   2.0000      -0.442615       -12.0442
  51   2.0000      -0.431748       -11.7485
  52   2.0000      -0.415463       -11.3053
  53   2.0000      -0.384129       -10.4527
  54   2.0000      -0.277386        -7.5480
  55   0.0000       0.015430         0.4199
  56   0.0000       0.026220         0.7135
  57   0.0000       0.030880         0.8403
  58   0.0000       0.034399         0.9360
  59   0.0000       0.039293         1.0692

MULLIKEN ATOMIC CHARGES
-----------------------
   0 C :   -0.026873
   1 C :    1.195828
   2 O :   -0.914448
   3 O :   -0.809791
   4 H :    0.333340
   5 N :   -0.748446
   6 C :   -0.352362
   7 C :    1.243062
   8 N :   -0.618487
   9 C :   -0.364496
  10 H :    0.333840
  11 H :    0.291430
  12 C :    1.537057
  13 N :   -0.693189
  14 C :    0.774673
  15 N :   -0.849690
  16 O :   -0.957697
  17 N :   -0.817296
  18 H :    0.305276
  19 H :    0.292501
  20 H :    0.043560
  21 H :    0.150024
  22 H :    0.162028
  23 H :    0.490157
Sum of atomic charges:    0.0000000

LOEWDIN ATOMIC CHARGES
----------------------
   0 C :   -0.096674
   1 C :   -1.010412
   2 O :    0.737385
   3 O :    1.276526
   4 H :   -0.794441
   5 N :    0.862649
   6 C :   -0.306022
   7 C :   -0.502532
   8 N :    0.878674
   9 C :    0.376875
  10 H :   -0.300261
  11 H :   -0.260579
  12 C :   -0.861686
  13 N :    0.823278
  14 C :   -0.627469
  15 N :    0.623003
  16 O :    0.696656
  17 N :    1.276989
  18 H :   -0.507834
  19 H :   -0.485248
  20 H :   -0.492644
  21 H :   -0.547315
  22 H :   -0.477650
  23 H :   -0.281265

  Mayer bond orders larger than 0.100000
B(  0-C ,  1-C ) :   1.0686 B(  0-C ,  2-O ) :   0.2150 B(  0-C ,  5-N ) :   0.7646
B(  0-C ,  9-C ) :   1.0106 B(  0-C , 23-H ) :   0.7213 B(  1-C ,  2-O ) :   1.1018
B(  1-C ,  3-O ) :   0.8262 B(  2-O ,  3-O ) :   0.1174 B(  3-O ,  4-H ) :   0.9244
B(  5-N ,  6-C ) :   0.3513 B(  5-N ,  7-C ) :   0.1378 B(  5-N , 21-H ) :   1.0653
B(  6-C ,  7-C ) :   1.4672 B(  6-C , 12-C ) :   1.6000 B(  6-C , 13-N ) :  -0.1349
B(  6-C , 15-N ) :   0.1732 B(  6-C , 16-O ) :   0.7605 B(  7-C ,  8-N ) :   0.8319
B(  7-C , 12-C ) :  -0.3139 B(  7-C , 15-N ) :   0.4991 B(  8-N ,  9-C ) :   0.8379
B(  8-N , 22-H ) :   1.1209 B(  9-C , 10-H ) :   0.8673 B(  9-C , 11-H ) :   0.9419
B( 12-C , 13-N ) :   0.9603 B( 12-C , 16-O ) :   0.3494 B( 12-C , 20-H ) :  -0.1256
B( 13-N , 14-C ) :   1.0422 B( 13-N , 16-O ) :   0.2840 B( 13-N , 20-H ) :   1.2547
B( 14-C , 15-N ) :   1.7540 B( 14-C , 17-N ) :   1.0017 B( 17-N , 18-H ) :   0.8864
B( 17-N , 19-H ) :   0.9216

MP2 TOTAL ENERGY:     -770.565888729 Eh
FINAL SINGLE POINT ENERGY      -770.565888728677

DIPOLE MOMENT
-------------
                                X             Y             Z
Electronic contribution:     -1.04782       2.43717       1.36009
Nuclear contribution   :      0.07785      -3.43305      -1.07383
                        -----------------------------------------
Total Dipole Moment    :     -0.96997      -0.99588       0.28626
                        -----------------------------------------
Magnitude (a.u.)       :      1.41935
Magnitude (Debye)      :      3.60771

Rotational constants in cm-1:     0.034175     0.016016     0.013583
Rotational constants in MHz :  1024.544487   480.139969   407.205850

                             ****ORCA TERMINATED NORMALLY****
TOTAL RUN TIME: 0 days 2 hours 7 minutes 42 seconds 181 msec
