                         Program Version 4.2.1 -  RELEASE  -
|  1> %pal
|  2>  nprocs 32
|  3> end
|  4> !RI-MP2 aug-cc-pVQZ aug-cc-pVQZ/C TightSCF
|  5> %maxcore 4500
|  6> *xyzfile 0 1  02_46TS.xyz
|  7>
|  8>
|  9>                          ****END OF INPUT****

CARTESIAN COORDINATES (ANGSTROEM)
---------------------------------
  C      4.018719   -2.394676    0.635736
  O      2.673351   -1.963711    0.468977
  H      4.444776   -2.697738   -0.322668
  C     -0.157264   -0.423823    0.489712
  C      0.945025   -0.253527   -0.345344
  C     -1.511629   -0.687853   -0.007828
  C     -1.948124   -0.265210   -1.268665
  C     -2.421136   -1.378028    0.798892
  C     -3.240939   -0.515894   -1.695830
  C     -3.713901   -1.635863    0.368492
  C      2.987374    1.317062   -0.982765
  C     -4.133621   -1.203600   -0.881296
  C      1.731844    1.625839   -0.222671
  C      0.682617    2.423296   -0.651408
  C     -0.490229    2.483381    0.105587
  C     -0.653816    1.797070    1.287654
  C     -1.962991    1.747830    2.007881
  O      3.422330    0.014449   -0.574192
  B      2.399657   -0.781441   -0.122009
  H      0.705247   -0.205981   -1.408009
  H      0.025886   -0.755394    1.506997
  H     -1.273811    0.281613   -1.915599
  H     -2.100639   -1.725335    1.774985
  H     -3.556716   -0.172682   -2.674257
  H     -4.395768   -2.178377    1.012872
  H      3.796785    2.012888   -0.752763
  H      2.818644    1.327738   -2.063841
  H     -5.142748   -1.402746   -1.220511
  H      1.889194    1.568522    0.850366
  H      0.216686    1.563837    1.886396
  H     -2.094872    0.800347    2.533624
  H     -2.800794    1.861213    1.317966
  H     -2.024744    2.544525    2.756874
  H      4.004957   -3.249265    1.310330
  H      4.636476   -1.599887    1.057201
  H      0.666121    2.786928   -1.674345
  H     -1.369992    2.925080   -0.352733

 Total Charge           Charge          ....    0
 Multiplicity           Mult            ....    1
 Number of Electrons    NEL             ....  130
 Basis Dimension        Dim             .... 2314

ORBITAL ENERGIES
----------------

  NO   OCC          E(Eh)            E(eV)
   0   2.0000     -20.558532      -559.4261
   1   2.0000     -20.555997      -559.3571
   2   2.0000     -11.290716      -307.2360
   3   2.0000     -11.272160      -306.7311
   4   2.0000     -11.250891      -306.1523
   5   2.0000     -11.238892      -305.8258
   6   2.0000     -11.236450      -305.7593
   7   2.0000     -11.235622      -305.7368
   8   2.0000     -11.226439      -305.4869
   9   2.0000     -11.226083      -305.4773
  10   2.0000     -11.225931      -305.4731
  11   2.0000     -11.220380      -305.3221
  12   2.0000     -11.220097      -305.3144
  13   2.0000     -11.219748      -305.3049
  14   2.0000     -11.218105      -305.2602
  15   2.0000     -11.216196      -305.2082
  16   2.0000     -11.214433      -305.1602
  17   2.0000      -7.629750      -207.6161
  18   2.0000      -1.390449       -37.8360
  19   2.0000      -1.354369       -36.8543
  20   2.0000      -1.152933       -31.3729
  21   2.0000      -1.116502       -30.3816
  22   2.0000      -1.057034       -28.7634
  23   2.0000      -1.043144       -28.3854
  24   2.0000      -1.008445       -27.4412
  25   2.0000      -0.980534       -26.6817
  26   2.0000      -0.968916       -26.3656
  27   2.0000      -0.934888       -25.4396
  28   2.0000      -0.886263       -24.1164
  29   2.0000      -0.848970       -23.1016
  30   2.0000      -0.823551       -22.4100
  31   2.0000      -0.813543       -22.1376
  32   2.0000      -0.774410       -21.0728
  33   2.0000      -0.728006       -19.8101
  34   2.0000      -0.715129       -19.4597
  35   2.0000      -0.698240       -19.0001
  36   2.0000      -0.680254       -18.5107
  37   2.0000      -0.666356       -18.1325
  38   2.0000      -0.646591       -17.5946
  39   2.0000      -0.633888       -17.2490
  40   2.0000      -0.631539       -17.1850
  41   2.0000      -0.627159       -17.0659
  42   2.0000      -0.614240       -16.7143
  43   2.0000      -0.600742       -16.3470
  44   2.0000      -0.588814       -16.0224
  45   2.0000      -0.580272       -15.7900
  46   2.0000      -0.576827       -15.6963
  47   2.0000      -0.572540       -15.5796
  48   2.0000      -0.549901       -14.9636
  49   2.0000      -0.541260       -14.7284
  50   2.0000      -0.525002       -14.2860
  51   2.0000      -0.510628       -13.8949
  52   2.0000      -0.508990       -13.8503
  53   2.0000      -0.500260       -13.6128
  54   2.0000      -0.495214       -13.4754
  55   2.0000      -0.488663       -13.2972
  56   2.0000      -0.485887       -13.2217
  57   2.0000      -0.478921       -13.0321
  58   2.0000      -0.465743       -12.6735
  59   2.0000      -0.457882       -12.4596
  60   2.0000      -0.450912       -12.2699
  61   2.0000      -0.357106        -9.7174
  62   2.0000      -0.333813        -9.0835
  63   2.0000      -0.319067        -8.6823
  64   2.0000      -0.253775        -6.9056
  65   0.0000       0.020810         0.5663
  66   0.0000       0.025008         0.6805
  67   0.0000       0.025681         0.6988
  68   0.0000       0.030601         0.8327
  69   0.0000       0.035111         0.9554

MULLIKEN ATOMIC CHARGES
-----------------------
   0 C :   -0.798822
   1 O :   -1.478704
   2 H :    0.327604
   3 C :    0.137581
   4 C :    0.445754
   5 C :    0.732490
   6 C :   -0.315138
   7 C :   -0.672051
   8 C :   -0.472845
   9 C :   -0.300449
  10 C :   -0.295029
  11 C :   -0.447413
  12 C :    0.140416
  13 C :   -0.506254
  14 C :   -0.305740
  15 C :    0.089723
  16 C :   -0.995815
  17 O :   -1.437921
  18 B :    2.045729
  19 H :    0.028302
  20 H :    0.053001
  21 H :    0.135973
  22 H :    0.220477
  23 H :    0.207294
  24 H :    0.193069
  25 H :    0.380373
  26 H :    0.176648
  27 H :    0.342507
  28 H :    0.356635
  29 H :    0.336596
  30 H :    0.201697
  31 H :    0.202529
  32 H :    0.300537
  33 H :    0.448828
  34 H :    0.352527
  35 H :    0.107932
  36 H :    0.061959
Sum of atomic charges:    0.0000000

LOEWDIN ATOMIC CHARGES
----------------------
   0 C :    0.596440
   1 O :    0.972486
   2 H :   -0.296189
   3 C :    0.312698
   4 C :    0.393667
   5 C :   -0.102161
   6 C :    0.338102
   7 C :    0.324530
   8 C :    0.352345
   9 C :    0.344934
  10 C :    0.223780
  11 C :    0.335956
  12 C :    0.207072
  13 C :    0.384646
  14 C :    0.350507
  15 C :    0.312341
  16 C :    0.916280
  17 O :    1.008363
  18 B :   -1.397106
  19 H :   -0.336361
  20 H :   -0.306772
  21 H :   -0.331025
  22 H :   -0.312756
  23 H :   -0.317388
  24 H :   -0.317897
  25 H :   -0.278792
  26 H :   -0.278775
  27 H :   -0.325757
  28 H :   -0.329756
  29 H :   -0.339065
  30 H :   -0.304863
  31 H :   -0.290744
  32 H :   -0.269229
  33 H :   -0.313032
  34 H :   -0.312402
  35 H :   -0.299599
  36 H :   -0.314477

  Mayer bond orders larger than 0.100000
B(  0-C ,  1-O ) :   1.0745 B(  0-C ,  2-H ) :   0.8877 B(  0-C , 33-H ) :   0.8187
B(  0-C , 34-H ) :   0.8421 B(  1-O ,  4-C ) :  -0.4990 B(  1-O , 17-O ) :  -0.1134
B(  3-C ,  4-C ) :   1.2618 B(  3-C ,  5-C ) :   0.4418 B(  3-C ,  7-C ) :  -0.3630
B(  3-C , 20-H ) :   1.1847 B(  4-C ,  5-C ) :  -0.1292 B(  4-C ,  6-C ) :  -0.2551
B(  4-C ,  7-C ) :   0.1002 B(  4-C , 10-C ) :  -0.1082 B(  4-C , 12-C ) :   0.2725
B(  4-C , 14-C ) :   0.1003 B(  4-C , 17-O ) :  -0.3552 B(  4-C , 18-B ) :   0.7264
B(  4-C , 19-H ) :   1.0561 B(  4-C , 21-H ) :  -0.1070 B(  5-C ,  6-C ) :   0.9700
B(  5-C ,  7-C ) :   0.7900 B(  5-C ,  8-C ) :  -0.3567 B(  5-C ,  9-C ) :  -0.3903
B(  5-C , 22-H ) :  -0.1020 B(  6-C ,  7-C ) :  -0.1217 B(  6-C ,  8-C ) :   1.2196
B(  6-C ,  9-C ) :   0.1208 B(  6-C , 21-H ) :   1.0836 B(  6-C , 23-H ) :  -0.1326
B(  7-C ,  8-C ) :   0.1672 B(  7-C ,  9-C ) :   1.3859 B(  7-C , 11-C ) :   0.1689
B(  7-C , 22-H ) :   1.0903 B(  7-C , 24-H ) :  -0.1849 B(  7-C , 27-H ) :  -0.1065
B(  8-C , 11-C ) :   1.1845 B(  8-C , 23-H ) :   1.1569 B(  9-C , 11-C ) :   1.0882
B(  9-C , 24-H ) :   1.2250 B( 10-C , 12-C ) :   0.5743 B( 10-C , 17-O ) :   0.9271
B( 10-C , 25-H ) :   0.9549 B( 10-C , 26-H ) :   1.1448 B( 11-C , 24-H ) :  -0.1173
B( 11-C , 27-H ) :   1.0181 B( 12-C , 13-C ) :   0.8708 B( 12-C , 14-C ) :  -0.4730
B( 12-C , 25-H ) :  -0.1552 B( 12-C , 26-H ) :  -0.1861 B( 12-C , 28-H ) :   1.0151
B( 13-C , 14-C ) :   1.0586 B( 13-C , 15-C ) :  -0.1703 B( 13-C , 35-H ) :   1.2175
B( 13-C , 36-H ) :  -0.2033 B( 14-C , 15-C ) :   1.2794 B( 14-C , 35-H ) :  -0.1974
B( 14-C , 36-H ) :   1.2126 B( 15-C , 16-C ) :   0.5705 B( 15-C , 29-H ) :   0.9252
B( 15-C , 30-H ) :  -0.1220 B( 15-C , 32-H ) :  -0.1486 B( 16-C , 30-H ) :   1.0914
B( 16-C , 31-H ) :   1.0177 B( 16-C , 32-H ) :   1.0494 B( 17-O , 18-B ) :   0.2591

MP2 TOTAL ENERGY:     -757.041322553 Eh
FINAL SINGLE POINT ENERGY      -757.041322552625

DIPOLE MOMENT
-------------
                                X             Y             Z
Electronic contribution:      3.77190      -3.97431      -3.69924
Nuclear contribution   :     -3.42124       4.32007       3.75064
                        -----------------------------------------
Total Dipole Moment    :      0.35066       0.34575       0.05140
                        -----------------------------------------
Magnitude (a.u.)       :      0.49513
Magnitude (Debye)      :      1.25851

Rotational constants in cm-1:     0.021289     0.009319     0.007861
Rotational constants in MHz :   638.218685   279.365929   235.656511

                             ****ORCA TERMINATED NORMALLY****
TOTAL RUN TIME: 0 days 6 hours 14 minutes 38 seconds 848 msec
