                         Program Version 4.2.1 -  RELEASE  -
|  1> %pal
|  2>  nprocs 32
|  3> end
|  4> !RI-MP2 aug-cc-pVQZ aug-cc-pVQZ/C TightSCF
|  5> %maxcore 4500
|  6> *xyzfile 0 1  10_87R.xyz
|  7>
|  8>
|  9>                          ****END OF INPUT****

CARTESIAN COORDINATES (ANGSTROEM)
---------------------------------
  O     -1.029040    0.924826   -0.533149
  C     -1.638011    0.194659    0.449530
  C     -1.294972    0.112202    1.726008
  C     -2.822600   -0.559040   -0.095267
  O     -3.050756   -0.368531   -1.400259
  O     -3.506394   -1.272333    0.576667
  C     -0.015363    1.850430   -0.178612
  C      1.339475    1.246188   -0.026552
  C      1.645445   -0.024948   -0.240928
  C      3.039342   -0.482779   -0.068769
  O      3.969583    0.200237    0.272499
  O      3.163161   -1.794339   -0.343994
  H     -2.387871    0.247381   -1.746723
  H      4.091765   -2.032352   -0.213269
  H     -0.433739    0.612801    2.143004
  H     -1.904288   -0.504011    2.370459
  H      0.006034    2.586379   -0.985708
  H     -0.305003    2.380410    0.735389
  H      0.909695   -0.759705   -0.539427
  H      2.131064    1.929963    0.269701

 Total Charge           Charge          ....    0
 Multiplicity           Mult            ....    1
 Number of Electrons    NEL             ....   90
 Basis Dimension        Dim             .... 1328

ORBITAL ENERGIES
----------------

  NO   OCC          E(Eh)            E(eV)
   0   2.0000     -20.627856      -561.3125
   1   2.0000     -20.620284      -561.1065
   2   2.0000     -20.612067      -560.8829
   3   2.0000     -20.552791      -559.2699
   4   2.0000     -20.545960      -559.0840
   5   2.0000     -11.397267      -310.1354
   6   2.0000     -11.393424      -310.0308
   7   2.0000     -11.333598      -308.4029
   8   2.0000     -11.330890      -308.3292
   9   2.0000     -11.284584      -307.0691
  10   2.0000     -11.261325      -306.4362
  11   2.0000     -11.254645      -306.2544
  12   2.0000      -1.480691       -40.2917
  13   2.0000      -1.477244       -40.1979
  14   2.0000      -1.446395       -39.3584
  15   2.0000      -1.372959       -37.3601
  16   2.0000      -1.371822       -37.3292
  17   2.0000      -1.128488       -30.7077
  18   2.0000      -1.081339       -29.4247
  19   2.0000      -1.008148       -27.4331
  20   2.0000      -0.911854       -24.8128
  21   2.0000      -0.875949       -23.8358
  22   2.0000      -0.820348       -22.3228
  23   2.0000      -0.786989       -21.4151
  24   2.0000      -0.756381       -20.5822
  25   2.0000      -0.742047       -20.1921
  26   2.0000      -0.717235       -19.5170
  27   2.0000      -0.701908       -19.0999
  28   2.0000      -0.675330       -18.3767
  29   2.0000      -0.662795       -18.0356
  30   2.0000      -0.651836       -17.7374
  31   2.0000      -0.644061       -17.5258
  32   2.0000      -0.635738       -17.2993
  33   2.0000      -0.616090       -16.7647
  34   2.0000      -0.607606       -16.5338
  35   2.0000      -0.586258       -15.9529
  36   2.0000      -0.566368       -15.4116
  37   2.0000      -0.556519       -15.1437
  38   2.0000      -0.539662       -14.6850
  39   2.0000      -0.500612       -13.6224
  40   2.0000      -0.490166       -13.3381
  41   2.0000      -0.468608       -12.7515
  42   2.0000      -0.462531       -12.5861
  43   2.0000      -0.411974       -11.2104
  44   2.0000      -0.381356       -10.3772
  45   0.0000       0.016485         0.4486
  46   0.0000       0.025770         0.7012
  47   0.0000       0.026752         0.7280
  48   0.0000       0.034132         0.9288
  49   0.0000       0.041220         1.1217

MULLIKEN ATOMIC CHARGES
-----------------------
   0 O :   -0.630387
   1 C :   -0.113991
   2 C :   -0.653245
   3 C :    1.549114
   4 O :   -0.877588
   5 O :   -0.734201
   6 C :   -0.141761
   7 C :   -0.200001
   8 C :   -1.050568
   9 C :    1.446472
  10 O :   -0.798967
  11 O :   -0.729818
  12 H :    0.390525
  13 H :    0.325159
  14 H :    0.380580
  15 H :    0.300584
  16 H :    0.407217
  17 H :    0.314240
  18 H :    0.431374
  19 H :    0.385261
Sum of atomic charges:    0.0000000

LOEWDIN ATOMIC CHARGES
----------------------
   0 O :    0.890849
   1 C :   -0.465047
   2 C :    0.776284
   3 C :   -1.078367
   4 O :    1.251076
   5 O :    0.673792
   6 C :    0.181291
   7 C :    0.362900
   8 C :    0.302151
   9 C :   -1.072894
  10 O :    0.697731
  11 O :    1.243533
  12 H :   -0.942800
  13 H :   -0.812212
  14 H :   -0.349956
  15 H :   -0.362063
  16 H :   -0.297002
  17 H :   -0.317242
  18 H :   -0.359629
  19 H :   -0.322395

  Mayer bond orders larger than 0.100000
B(  0-O ,  1-C ) :   0.5454 B(  0-O ,  3-C ) :  -0.1174 B(  0-O ,  6-C ) :   0.7875
B(  1-C ,  2-C ) :   1.4707 B(  1-C ,  3-C ) :   1.2309 B(  1-C ,  4-O ) :   0.1889
B(  1-C ,  5-O ) :   0.3270 B(  2-C , 14-H ) :   0.9159 B(  2-C , 15-H ) :   0.9554
B(  3-C ,  4-O ) :   0.6343 B(  3-C ,  5-O ) :   1.2016 B(  4-O ,  5-O ) :   0.1488
B(  4-O , 12-H ) :   0.7656 B(  5-O , 15-H ) :   0.1037 B(  6-C ,  7-C ) :   0.7787
B(  6-C ,  8-C ) :  -0.1718 B(  6-C , 16-H ) :   0.8651 B(  6-C , 17-H ) :   0.9641
B(  7-C ,  8-C ) :   1.4240 B(  7-C ,  9-C ) :  -0.3123 B(  7-C , 19-H ) :   0.8192
B(  8-C ,  9-C ) :   1.3252 B(  8-C , 10-O ) :   0.1928 B(  8-C , 11-O ) :   0.1670
B(  8-C , 18-H ) :   0.7566 B(  9-C , 10-O ) :   1.2011 B(  9-C , 11-O ) :   0.7152
B( 10-O , 11-O ) :   0.1076 B( 11-O , 13-H ) :   0.9344

MP2 TOTAL ENERGY:     -646.780287269 Eh
FINAL SINGLE POINT ENERGY      -646.780287268692

DIPOLE MOMENT
-------------
                                X             Y             Z
Electronic contribution:     -1.01791      -3.08333      -2.08379
Nuclear contribution   :      2.06257       4.34452       1.97459
                        -----------------------------------------
Total Dipole Moment    :      1.04466       1.26119      -0.10921
                        -----------------------------------------
Magnitude (a.u.)       :      1.64129
Magnitude (Debye)      :      4.17183

Rotational constants in cm-1:     0.059901     0.013831     0.012946
Rotational constants in MHz :  1795.797584   414.630642   388.105135

                             ****ORCA TERMINATED NORMALLY****
TOTAL RUN TIME: 0 days 0 hours 53 minutes 7 seconds 730 msec
