                         Program Version 4.2.1 -  RELEASE  -
|  1> %pal
|  2>  nprocs 32
|  3> end
|  4> !RI-MP2 aug-cc-pVQZ aug-cc-pVQZ/C TightSCF
|  5> %maxcore 4500
|  6> *xyzfile 1 1  10_33TS.xyz
|  7>
|  8>
|  9>                          ****END OF INPUT****

CARTESIAN COORDINATES (ANGSTROEM)
---------------------------------
  C      2.231458   -2.643998    0.533135
  C      0.873885   -1.916592    0.541482
  C      1.946461   -0.897601   -1.103550
  C      2.977536   -1.944440   -0.642596
  H      2.752642   -2.541899    1.486135
  H      2.093584   -3.709858    0.350198
  H      3.915128   -1.480357   -0.341043
  H      3.190524   -2.638583   -1.455893
  C      0.631712   -1.666906   -0.947338
  H     -0.260135   -1.085406   -1.154192
  H      0.620805   -2.588122   -1.527319
  H      0.073194   -2.384652    1.108191
  H      2.152861   -0.397096   -2.045955
  N      1.846826    0.072338   -0.000121
  N      1.072696   -0.522967    1.012974
  C     -0.781090    1.579818    0.363198
  C     -1.825674    0.602266    0.186627
  C     -2.314791    0.261483   -1.083179
  C     -2.433459    0.033248    1.316660
  C     -3.353920   -0.642310   -1.216301
  H     -1.904989    0.732473   -1.967721
  C     -3.463935   -0.875071    1.181065
  H     -2.076194    0.305443    2.303094
  C     -3.924005   -1.217742   -0.087516
  H     -3.733138   -0.887461   -2.200206
  H     -3.921532   -1.311421    2.059818
  H     -4.740927   -1.920675   -0.193827
  H     -0.752588    2.054798    1.340972
  C      1.850557    1.416957   -0.074958
  H      2.383194    1.766415   -0.955894
  C      0.093290    2.070740   -0.602658
  H      0.005259    1.606853   -1.583142
  H      1.566687   -0.488587    1.901499
  C      2.196265    2.145077    1.201174
  H      3.208716    1.857454    1.494469
  H      2.187370    3.222197    1.065035
  H      1.519295    1.887961    2.014707
  C      0.326315    3.573131   -0.676301
  H      1.281336    3.823366   -1.141607
  H     -0.460986    4.019348   -1.286363
  H      0.279600    4.043854    0.305411

 Total Charge           Charge          ....    1
 Multiplicity           Mult            ....    1
 Number of Electrons    NEL             ....  132
 Basis Dimension        Dim             .... 2498

ORBITAL ENERGIES
----------------

  NO   OCC          E(Eh)            E(eV)
   0   2.0000     -15.735167      -428.1757
   1   2.0000     -15.720105      -427.7658
   2   2.0000     -11.455708      -311.7257
   3   2.0000     -11.435601      -311.1785
   4   2.0000     -11.395078      -310.0758
   5   2.0000     -11.383899      -309.7716
   6   2.0000     -11.374377      -309.5125
   7   2.0000     -11.373909      -309.4998
   8   2.0000     -11.372671      -309.4661
   9   2.0000     -11.371222      -309.4267
  10   2.0000     -11.367539      -309.3265
  11   2.0000     -11.357883      -309.0637
  12   2.0000     -11.354799      -308.9798
  13   2.0000     -11.354551      -308.9730
  14   2.0000     -11.353319      -308.9395
  15   2.0000     -11.341810      -308.6264
  16   2.0000     -11.337465      -308.5081
  17   2.0000     -11.336360      -308.4780
  18   2.0000      -1.485490       -40.4222
  19   2.0000      -1.299625       -35.3646
  20   2.0000      -1.284251       -34.9462
  21   2.0000      -1.230989       -33.4969
  22   2.0000      -1.229323       -33.4516
  23   2.0000      -1.163272       -31.6542
  24   2.0000      -1.149075       -31.2679
  25   2.0000      -1.136628       -30.9292
  26   2.0000      -1.091223       -29.6937
  27   2.0000      -1.065350       -28.9896
  28   2.0000      -1.049868       -28.5684
  29   2.0000      -0.978626       -26.6298
  30   2.0000      -0.957591       -26.0574
  31   2.0000      -0.949930       -25.8489
  32   2.0000      -0.937543       -25.5118
  33   2.0000      -0.899221       -24.4691
  34   2.0000      -0.886514       -24.1233
  35   2.0000      -0.844519       -22.9805
  36   2.0000      -0.839752       -22.8508
  37   2.0000      -0.807711       -21.9789
  38   2.0000      -0.792041       -21.5525
  39   2.0000      -0.784501       -21.3474
  40   2.0000      -0.769544       -20.9404
  41   2.0000      -0.742072       -20.1928
  42   2.0000      -0.738422       -20.0935
  43   2.0000      -0.733078       -19.9481
  44   2.0000      -0.726096       -19.7581
  45   2.0000      -0.718048       -19.5391
  46   2.0000      -0.714715       -19.4484
  47   2.0000      -0.690985       -18.8027
  48   2.0000      -0.681285       -18.5387
  49   2.0000      -0.672416       -18.2974
  50   2.0000      -0.661606       -18.0032
  51   2.0000      -0.657390       -17.8885
  52   2.0000      -0.649678       -17.6786
  53   2.0000      -0.642653       -17.4875
  54   2.0000      -0.638979       -17.3875
  55   2.0000      -0.635664       -17.2973
  56   2.0000      -0.629720       -17.1355
  57   2.0000      -0.621147       -16.9023
  58   2.0000      -0.615916       -16.7599
  59   2.0000      -0.607835       -16.5400
  60   2.0000      -0.589792       -16.0491
  61   2.0000      -0.577590       -15.7170
  62   2.0000      -0.529090       -14.3973
  63   2.0000      -0.499186       -13.5836
  64   2.0000      -0.466205       -12.6861
  65   2.0000      -0.421835       -11.4787
  66   0.0000      -0.110324        -3.0021
  67   0.0000      -0.062713        -1.7065
  68   0.0000      -0.057786        -1.5724
  69   0.0000      -0.051780        -1.4090
  70   0.0000      -0.049957        -1.3594

MULLIKEN ATOMIC CHARGES
-----------------------
   0 C :   -0.754718
   1 C :    0.110575
   2 C :    0.110451
   3 C :   -0.757936
   4 H :    0.212322
   5 H :    0.256430
   6 H :    0.248873
   7 H :    0.204891
   8 C :   -1.264049
   9 H :    1.064041
  10 H :    0.042809
  11 H :    0.430023
  12 H :    0.267701
  13 N :    0.182602
  14 N :   -0.479822
  15 C :    0.636729
  16 C :    0.548146
  17 C :   -0.254795
  18 C :   -0.667847
  19 C :   -0.382629
  20 H :    0.243758
  21 C :   -0.279321
  22 H :    0.155274
  23 C :   -0.370413
  24 H :    0.242870
  25 H :    0.252225
  26 H :    0.385969
  27 H :    0.383563
  28 C :    0.486806
  29 H :    0.315533
  30 C :   -0.076498
  31 H :    0.222628
  32 H :    0.099408
  33 C :   -1.030832
  34 H :    0.205457
  35 H :    0.201225
  36 H :    0.265151
  37 C :   -1.095038
  38 H :    0.200687
  39 H :    0.260395
  40 H :    0.177357
Sum of atomic charges:    1.0000000

LOEWDIN ATOMIC CHARGES
----------------------
   0 C :    0.588208
   1 C :    0.027584
   2 C :    0.042492
   3 C :    0.584873
   4 H :   -0.250152
   5 H :   -0.245217
   6 H :   -0.247460
   7 H :   -0.246799
   8 C :    0.550948
   9 H :   -0.313146
  10 H :   -0.228552
  11 H :   -0.228907
  12 H :   -0.225725
  13 N :    0.365730
  14 N :    0.812275
  15 C :    0.412504
  16 C :   -0.059597
  17 C :    0.344697
  18 C :    0.360572
  19 C :    0.393298
  20 H :   -0.307895
  21 C :    0.386896
  22 H :   -0.295633
  23 C :    0.382965
  24 H :   -0.303125
  25 H :   -0.306565
  26 H :   -0.296789
  27 H :   -0.275533
  28 C :    0.120921
  29 H :   -0.276454
  30 C :    0.264093
  31 H :   -0.312517
  32 H :   -0.478576
  33 C :    0.957838
  34 H :   -0.243643
  35 H :   -0.299939
  36 H :   -0.286704
  37 C :    0.940643
  38 H :   -0.269507
  39 H :   -0.252546
  40 H :   -0.285556

  Mayer bond orders larger than 0.100000
B(  0-C ,  1-C ) :   0.5540 B(  0-C ,  2-C ) :  -0.2097 B(  0-C ,  3-C ) :   1.1759
B(  0-C ,  4-H ) :   1.0380 B(  0-C ,  5-H ) :   1.0181 B(  1-C ,  3-C ) :  -0.2506
B(  1-C ,  8-C ) :   0.9104 B(  1-C , 11-H ) :   0.8249 B(  1-C , 14-N ) :   0.9032
B(  2-C ,  3-C ) :   0.5333 B(  2-C ,  8-C ) :   0.9991 B(  2-C ,  9-H ) :  -0.1100
B(  2-C , 12-H ) :   0.9738 B(  2-C , 13-N ) :   0.7214 B(  2-C , 28-C ) :   0.1550
B(  3-C ,  6-H ) :   1.0299 B(  3-C ,  7-H ) :   1.0750 B(  8-C , 10-H ) :   1.3517
B(  9-H , 10-H ) :  -0.2646 B( 13-N , 14-N ) :   0.4954 B( 13-N , 15-C ) :   0.1060
B( 13-N , 28-C ) :   1.3132 B( 13-N , 30-C ) :   0.1502 B( 13-N , 33-C ) :   0.1047
B( 13-N , 36-H ) :   0.1678 B( 14-N , 32-H ) :   1.1558 B( 15-C , 16-C ) :   0.2093
B( 15-C , 17-C ) :  -0.2686 B( 15-C , 18-C ) :  -0.4535 B( 15-C , 27-H ) :   0.9718
B( 15-C , 30-C ) :   0.9783 B( 16-C , 17-C ) :   1.0626 B( 16-C , 18-C ) :   1.0000
B( 16-C , 19-C ) :  -0.4109 B( 16-C , 21-C ) :  -0.2983 B( 16-C , 22-H ) :  -0.1084
B( 16-C , 23-C ) :   0.1035 B( 16-C , 27-H ) :  -0.2358 B( 16-C , 30-C ) :  -0.1663
B( 17-C , 19-C ) :   1.3061 B( 17-C , 20-H ) :   1.0697 B( 17-C , 30-C ) :  -0.1233
B( 18-C , 19-C ) :   0.1427 B( 18-C , 21-C ) :   1.2956 B( 18-C , 22-H ) :   1.1670
B( 18-C , 23-C ) :   0.2031 B( 18-C , 25-H ) :  -0.1720 B( 19-C , 23-C ) :   1.1437
B( 19-C , 24-H ) :   1.1394 B( 21-C , 23-C ) :   1.0756 B( 21-C , 25-H ) :   1.1714
B( 23-C , 25-H ) :  -0.1015 B( 23-C , 26-H ) :   0.9929 B( 28-C , 29-H ) :   0.9539
B( 28-C , 30-C ) :   0.3525 B( 28-C , 33-C ) :   0.1434 B( 28-C , 34-H ) :  -0.1014
B( 28-C , 35-H ) :  -0.1193 B( 28-C , 36-H ) :  -0.2625 B( 30-C , 31-H ) :   1.0502
B( 30-C , 37-C ) :   0.1110 B( 30-C , 38-H ) :  -0.2080 B( 30-C , 39-H ) :  -0.1828
B( 30-C , 40-H ) :  -0.2395 B( 31-H , 37-C ) :  -0.1063 B( 33-C , 34-H ) :   1.1138
B( 33-C , 35-H ) :   1.1357 B( 33-C , 36-H ) :   1.0453 B( 37-C , 38-H ) :   1.2028
B( 37-C , 39-H ) :   1.0795 B( 37-C , 40-H ) :   1.1508

MP2 TOTAL ENERGY:     -731.423813618 Eh
FINAL SINGLE POINT ENERGY      -731.423813617862

DIPOLE MOMENT
-------------
                                X             Y             Z
Electronic contribution:     -9.22254      -3.43941       0.52407
Nuclear contribution   :      9.64433       3.98568      -0.42869
                        -----------------------------------------
Total Dipole Moment    :      0.42178       0.54626       0.09538
                        -----------------------------------------
Magnitude (a.u.)       :      0.69671
Magnitude (Debye)      :      1.77089

Rotational constants in cm-1:     0.018743     0.012302     0.009037
Rotational constants in MHz :   561.909430   368.801255   270.908686

                             ****ORCA TERMINATED NORMALLY****
TOTAL RUN TIME: 0 days 12 hours 48 minutes 52 seconds 48 msec
