                         Program Version 4.2.1 -  RELEASE  -
|  1> %pal
|  2>  nprocs 32
|  3> end
|  4> !RI-MP2 aug-cc-pVQZ aug-cc-pVQZ/C TightSCF
|  5> %maxcore 4500
|  6> *xyzfile 0 2  04_11P1.xyz
|  7>
|  8>
|  9>                          ****END OF INPUT****

CARTESIAN COORDINATES (ANGSTROEM)
---------------------------------
  N     -1.031915   -0.902207    0.201499
  H     -0.710681   -1.800655    0.542474
  C     -0.002514    0.001219   -0.245476
  H     -0.150080    0.248231   -1.302058
  C     -0.047378    1.323644    0.544035
  C      1.338158   -0.721317   -0.094621
  H     -1.045045    1.777974    0.376284
  H     -0.000928    1.150953    1.632578
  O      1.396330   -1.852606    0.348391
  N      2.414717   -0.017900   -0.499317
  H      2.331902    0.957854   -0.744491
  H      3.326123   -0.424599   -0.360459
  C     -2.341901   -0.645646    0.008819
  H     -2.998265   -1.465176    0.341735
  O     -2.771453    0.384298   -0.471610
  O      0.861268    2.249404    0.163482

 Total Charge           Charge          ....    0
 Multiplicity           Mult            ....    2
 Number of Electrons    NEL             ....   69
 Basis Dimension        Dim             .... 1042

ORBITAL ENERGIES
----------------
                 SPIN UP ORBITALS
  NO   OCC          E(Eh)            E(eV)
   0   1.0000     -20.645546      -561.7939
   1   1.0000     -20.542060      -558.9779
   2   1.0000     -20.533507      -558.7451
   3   1.0000     -15.599159      -424.4747
   4   1.0000     -15.598568      -424.4586
   5   1.0000     -11.373243      -309.4817
   6   1.0000     -11.358675      -309.0852
   7   1.0000     -11.302626      -307.5601
   8   1.0000     -11.301067      -307.5177
   9   1.0000      -1.445363       -39.3303
  10   1.0000      -1.411644       -38.4128
  11   1.0000      -1.396201       -37.9925
  12   1.0000      -1.254294       -34.1311
  13   1.0000      -1.235074       -33.6081
  14   1.0000      -1.043739       -28.4016
  15   1.0000      -0.911563       -24.8049
  16   1.0000      -0.848475       -23.0882
  17   1.0000      -0.801930       -21.8216
  18   1.0000      -0.780461       -21.2374
  19   1.0000      -0.740756       -20.1570
  20   1.0000      -0.725297       -19.7363
  21   1.0000      -0.691387       -18.8136
  22   1.0000      -0.675505       -18.3814
  23   1.0000      -0.663659       -18.0591
  24   1.0000      -0.646159       -17.5829
  25   1.0000      -0.616257       -16.7692
  26   1.0000      -0.602106       -16.3841
  27   1.0000      -0.583429       -15.8759
  28   1.0000      -0.561326       -15.2744
  29   1.0000      -0.529383       -14.4053
  30   1.0000      -0.499957       -13.6045
  31   1.0000      -0.450519       -12.2592
  32   1.0000      -0.443643       -12.0721
  33   1.0000      -0.437343       -11.9007
  34   1.0000      -0.407995       -11.1021
  35   0.0000       0.021669         0.5896
  36   0.0000       0.027777         0.7558
  37   0.0000       0.034343         0.9345
  38   0.0000       0.038627         1.0511
  39   0.0000       0.047059         1.2806

                 SPIN DOWN ORBITALS
  NO   OCC          E(Eh)            E(eV)
   0   1.0000     -20.605962      -560.7167
   1   1.0000     -20.541910      -558.9738
   2   1.0000     -20.533216      -558.7372
   3   1.0000     -15.599027      -424.4711
   4   1.0000     -15.598643      -424.4607
   5   1.0000     -11.373309      -309.4835
   6   1.0000     -11.358731      -309.0868
   7   1.0000     -11.305413      -307.6359
   8   1.0000     -11.301022      -307.5164
   9   1.0000      -1.412437       -38.4344
  10   1.0000      -1.395786       -37.9813
  11   1.0000      -1.319298       -35.8999
  12   1.0000      -1.252077       -34.0708
  13   1.0000      -1.233634       -33.5689
  14   1.0000      -1.033618       -28.1262
  15   1.0000      -0.890297       -24.2262
  16   1.0000      -0.848307       -23.0836
  17   1.0000      -0.798664       -21.7327
  18   1.0000      -0.775056       -21.0903
  19   1.0000      -0.726574       -19.7711
  20   1.0000      -0.695152       -18.9160
  21   1.0000      -0.666808       -18.1448
  22   1.0000      -0.657712       -17.8973
  23   1.0000      -0.634144       -17.2559
  24   1.0000      -0.622941       -16.9511
  25   1.0000      -0.599664       -16.3177
  26   1.0000      -0.582212       -15.8428
  27   1.0000      -0.573821       -15.6145
  28   1.0000      -0.545497       -14.8437
  29   1.0000      -0.479061       -13.0359
  30   1.0000      -0.450218       -12.2511
  31   1.0000      -0.444305       -12.0901
  32   1.0000      -0.436846       -11.8872
  33   1.0000      -0.406006       -11.0480
  34   0.0000       0.021730         0.5913
  35   0.0000       0.027750         0.7551
  36   0.0000       0.034225         0.9313
  37   0.0000       0.038106         1.0369
  38   0.0000       0.046771         1.2727

MULLIKEN ATOMIC CHARGES AND SPIN POPULATIONS
--------------------------------------------
   0 N :   -0.536914   -0.002960
   1 H :    0.253371   -0.000297
   2 C :    0.148864    0.017025
   3 H :    0.348321   -0.000858
   4 C :    0.068025   -0.210192
   5 C :    0.906291   -0.004505
   6 H :    0.317249    0.102094
   7 H :    0.243500    0.059356
   8 O :   -0.883597    0.003790
   9 N :   -0.741832    0.003039
  10 H :    0.344692   -0.003701
  11 H :    0.223015    0.001265
  12 C :    0.210302   -0.003860
  13 H :    0.513866    0.000120
  14 O :   -0.806444    0.003702
  15 O :   -0.608708    1.035981
Sum of atomic charges         :    0.0000000

LOEWDIN ATOMIC CHARGES AND SPIN POPULATIONS
-------------------------------------------
   0 N :    0.789194   -0.000377
   1 H :   -0.593154   -0.000307
   2 C :   -0.122355    0.000842
   3 H :   -0.294186   -0.001205
   4 C :   -0.004539    0.172175
   5 C :   -0.813194    0.000597
   6 H :   -0.380962    0.035263
   7 H :   -0.302064    0.018338
   8 O :    0.748625    0.002146
   9 N :    1.249596    0.001822
  10 H :   -0.588658    0.005879
  11 H :   -0.477711    0.000229
  12 C :   -0.413153    0.000143
  13 H :   -0.346440   -0.000317
  14 O :    0.697474    0.005191
  15 O :    0.851527    0.759583

  Mayer bond orders larger than 0.100000
B(  0-N ,  1-H ) :   1.0187 B(  0-N ,  2-C ) :   0.6183 B(  0-N , 12-C ) :   1.1610
B(  0-N , 13-H ) :  -0.1013 B(  2-C ,  3-H ) :   0.8129 B(  2-C ,  4-C ) :   0.9299
B(  2-C ,  5-C ) :   1.0282 B(  2-C ,  8-O ) :   0.2291 B(  2-C ,  9-N ) :  -0.1064
B(  4-C ,  6-H ) :   0.8528 B(  4-C ,  7-H ) :   0.9479 B(  4-C , 15-O ) :   0.5726
B(  5-C ,  8-O ) :   1.0728 B(  5-C ,  9-N ) :   1.2589 B(  8-O ,  9-N ) :   0.1418
B(  9-N , 10-H ) :   0.8374 B(  9-N , 11-H ) :   1.0050 B( 12-C , 13-H ) :   0.7661
B( 12-C , 14-O ) :   1.5771

MP2 TOTAL ENERGY:     -491.090202946 Eh
FINAL SINGLE POINT ENERGY      -491.090202946252

DIPOLE MOMENT
-------------
                                X             Y             Z
Electronic contribution:      0.01590      -0.51440      -0.29807
Nuclear contribution   :      0.74429       0.44625       0.47931
                        -----------------------------------------
Total Dipole Moment    :      0.76019      -0.06815       0.18125
                        -----------------------------------------
Magnitude (a.u.)       :      0.78447
Magnitude (Debye)      :      1.99395

Rotational constants in cm-1:     0.079181     0.042420     0.029555
Rotational constants in MHz :  2373.784167  1271.721231   886.042466

                             ****ORCA TERMINATED NORMALLY****
TOTAL RUN TIME: 0 days 1 hours 3 minutes 42 seconds 563 msec
