                         Program Version 4.2.1 -  RELEASE  -
|  1> %pal
|  2>  nprocs 32
|  3> end
|  4> !RI-MP2 aug-cc-pVQZ aug-cc-pVQZ/C TightSCF
|  5> %maxcore 4500
|  6> *xyzfile 0 1  05_29R1.xyz
|  7>
|  8>
|  9>                          ****END OF INPUT****

CARTESIAN COORDINATES (ANGSTROEM)
---------------------------------
  C     -0.000005   -1.462694    0.000296
  C      1.265416   -0.637590   -0.059549
  C      2.287580   -0.825469    0.863574
  C      1.432478    0.327370   -1.051640
  C      3.454179   -0.072285    0.799472
  H      2.170549   -1.569924    1.643692
  C      2.594330    1.078945   -1.120985
  H      0.637024    0.495876   -1.769070
  C      3.611155    0.881720   -0.193735
  H      4.239047   -0.232026    1.529267
  H      2.707650    1.824386   -1.899225
  H      4.518413    1.471325   -0.245985
  C     -1.265418   -0.637553    0.059805
  C     -2.287622   -0.825862   -0.863187
  C     -1.432438    0.327871    1.051452
  C     -3.454217   -0.072648   -0.799387
  H     -2.170624   -1.570681   -1.642963
  C     -2.594287    1.079479    1.120494
  H     -0.636953    0.496713    1.768769
  C     -3.611151    0.881820    0.193380
  H     -4.239116   -0.232730   -1.529075
  H     -2.707573    1.825283    1.898390
  H     -4.518407    1.471450    0.245393
  H     -0.045865   -2.119325   -0.873014
  H      0.045848   -2.118969    0.873874

 Total Charge           Charge          ....    0
 Multiplicity           Mult            ....    1
 Number of Electrons    NEL             ....   90
 Basis Dimension        Dim             .... 1592

ORBITAL ENERGIES
----------------

  NO   OCC          E(Eh)            E(eV)
   0   2.0000     -11.238751      -305.8220
   1   2.0000     -11.238707      -305.8208
   2   2.0000     -11.234638      -305.7100
   3   2.0000     -11.231807      -305.6330
   4   2.0000     -11.231807      -305.6330
   5   2.0000     -11.231326      -305.6199
   6   2.0000     -11.231326      -305.6199
   7   2.0000     -11.228541      -305.5441
   8   2.0000     -11.228540      -305.5441
   9   2.0000     -11.228222      -305.5354
  10   2.0000     -11.228221      -305.5354
  11   2.0000     -11.226531      -305.4894
  12   2.0000     -11.226530      -305.4894
  13   2.0000      -1.165384       -31.7117
  14   2.0000      -1.149882       -31.2899
  15   2.0000      -1.068449       -29.0740
  16   2.0000      -1.015088       -27.6219
  17   2.0000      -1.013786       -27.5865
  18   2.0000      -1.009800       -27.4780
  19   2.0000      -0.927840       -25.2478
  20   2.0000      -0.830126       -22.5889
  21   2.0000      -0.826215       -22.4824
  22   2.0000      -0.815950       -22.2031
  23   2.0000      -0.784919       -21.3587
  24   2.0000      -0.701917       -19.1001
  25   2.0000      -0.690491       -18.7892
  26   2.0000      -0.644177       -17.5289
  27   2.0000      -0.637891       -17.3579
  28   2.0000      -0.633922       -17.2499
  29   2.0000      -0.618053       -16.8181
  30   2.0000      -0.585822       -15.9410
  31   2.0000      -0.585031       -15.9195
  32   2.0000      -0.575145       -15.6505
  33   2.0000      -0.570062       -15.5122
  34   2.0000      -0.548042       -14.9130
  35   2.0000      -0.510321       -13.8865
  36   2.0000      -0.498280       -13.5589
  37   2.0000      -0.496501       -13.5105
  38   2.0000      -0.483567       -13.1585
  39   2.0000      -0.483336       -13.1523
  40   2.0000      -0.475945       -12.9511
  41   2.0000      -0.341750        -9.2995
  42   2.0000      -0.336082        -9.1452
  43   2.0000      -0.335471        -9.1286
  44   2.0000      -0.317403        -8.6370
  45   0.0000       0.024270         0.6604
  46   0.0000       0.026082         0.7097
  47   0.0000       0.029381         0.7995
  48   0.0000       0.029588         0.8051
  49   0.0000       0.036028         0.9804

MULLIKEN ATOMIC CHARGES
-----------------------
   0 C :   -0.067822
   1 C :    0.817076
   2 C :   -0.667453
   3 C :   -0.681159
   4 C :   -0.297547
   5 H :    0.210455
   6 C :   -0.269030
   7 H :    0.295817
   8 C :   -0.378383
   9 H :    0.242929
  10 H :    0.230730
  11 H :    0.332859
  12 C :    0.817028
  13 C :   -0.667284
  14 C :   -0.681306
  15 C :   -0.297341
  16 H :    0.210286
  17 C :   -0.269041
  18 H :    0.295942
  19 C :   -0.378591
  20 H :    0.242974
  21 H :    0.230704
  22 H :    0.332878
  23 H :    0.197560
  24 H :    0.197716
Sum of atomic charges:    0.0000000

LOEWDIN ATOMIC CHARGES
----------------------
   0 C :    0.479601
   1 C :   -0.084046
   2 C :    0.349737
   3 C :    0.347314
   4 C :    0.342939
   5 H :   -0.316056
   6 C :    0.348780
   7 H :   -0.306930
   8 C :    0.334723
   9 H :   -0.320514
  10 H :   -0.318692
  11 H :   -0.323693
  12 C :   -0.084041
  13 C :    0.349737
  14 C :    0.347314
  15 C :    0.342937
  16 H :   -0.316056
  17 C :    0.348781
  18 H :   -0.306932
  19 C :    0.334722
  20 H :   -0.320513
  21 H :   -0.318693
  22 H :   -0.323692
  23 H :   -0.293366
  24 H :   -0.293365

  Mayer bond orders larger than 0.100000
B(  0-C ,  1-C ) :   0.6256 B(  0-C ,  2-C ) :  -0.2062 B(  0-C ,  3-C ) :  -0.1913
B(  0-C , 12-C ) :   0.6257 B(  0-C , 13-C ) :  -0.2063 B(  0-C , 14-C ) :  -0.1913
B(  0-C , 23-H ) :   1.0772 B(  0-C , 24-H ) :   1.0769 B(  1-C ,  2-C ) :   0.8251
B(  1-C ,  3-C ) :   0.8657 B(  1-C ,  4-C ) :  -0.4226 B(  1-C ,  6-C ) :  -0.3610
B(  1-C , 12-C ) :  -0.2729 B(  1-C , 24-H ) :  -0.1170 B(  2-C ,  4-C ) :   1.3935
B(  2-C ,  5-H ) :   1.0828 B(  2-C ,  6-C ) :   0.1297 B(  2-C ,  8-C ) :   0.1026
B(  2-C ,  9-H ) :  -0.1437 B(  3-C ,  4-C ) :   0.1342 B(  3-C ,  6-C ) :   1.3201
B(  3-C ,  7-H ) :   0.9727 B(  3-C ,  8-C ) :   0.1170 B(  3-C , 10-H ) :  -0.1457
B(  4-C ,  8-C ) :   1.1437 B(  4-C ,  9-H ) :   1.1443 B(  6-C ,  8-C ) :   1.1299
B(  6-C , 10-H ) :   1.1444 B(  8-C ,  9-H ) :  -0.1085 B(  8-C , 11-H ) :   1.0123
B( 12-C , 13-C ) :   0.8253 B( 12-C , 14-C ) :   0.8661 B( 12-C , 15-C ) :  -0.4228
B( 12-C , 17-C ) :  -0.3610 B( 12-C , 23-H ) :  -0.1171 B( 13-C , 15-C ) :   1.3937
B( 13-C , 16-H ) :   1.0830 B( 13-C , 17-C ) :   0.1296 B( 13-C , 19-C ) :   0.1028
B( 13-C , 20-H ) :  -0.1437 B( 14-C , 15-C ) :   0.1344 B( 14-C , 17-C ) :   1.3203
B( 14-C , 18-H ) :   0.9725 B( 14-C , 19-C ) :   0.1170 B( 14-C , 21-H ) :  -0.1456
B( 15-C , 19-C ) :   1.1432 B( 15-C , 20-H ) :   1.1444 B( 17-C , 19-C ) :   1.1297
B( 17-C , 21-H ) :   1.1444 B( 19-C , 20-H ) :  -0.1087 B( 19-C , 22-H ) :   1.0124

MP2 TOTAL ENERGY:     -501.680113001 Eh
FINAL SINGLE POINT ENERGY      -501.680113001457

DIPOLE MOMENT
-------------
                                X             Y             Z
Electronic contribution:      0.00001       0.21833      -0.00005
Nuclear contribution   :     -0.00001      -0.25983       0.00005
                        -----------------------------------------
Total Dipole Moment    :      0.00000      -0.04151       0.00001
                        -----------------------------------------
Magnitude (a.u.)       :      0.04151
Magnitude (Debye)      :      0.10550

Rotational constants in cm-1:     0.069301     0.014120     0.013996
Rotational constants in MHz :  2077.606335   423.307784   419.595672

                             ****ORCA TERMINATED NORMALLY****
TOTAL RUN TIME: 0 days 1 hours 45 minutes 37 seconds 212 msec
