                         Program Version 4.2.1 -  RELEASE  -
|  1> %pal
|  2>  nprocs 32
|  3> end
|  4> !RI-MP2 aug-cc-pVQZ aug-cc-pVQZ/C TightSCF
|  5> %maxcore 4500
|  6> *xyzfile 0 1  09_18P.xyz
|  7>
|  8>
|  9>                          ****END OF INPUT****

CARTESIAN COORDINATES (ANGSTROEM)
---------------------------------
  N     -0.319928    0.891959   -0.521109
  C     -1.644435    0.449823   -0.438084
  C     -1.799904   -0.844235   -0.141864
  S     -0.227264   -1.639022    0.094932
  C      0.669470   -0.037955   -0.065209
  C     -2.735545    1.426873   -0.726896
  H     -2.683541    2.293991   -0.064042
  H     -3.710069    0.962502   -0.597181
  H     -2.671505    1.791805   -1.755156
  C     -3.030344   -1.674092   -0.009261
  H     -3.927002   -1.072306   -0.154546
  H     -3.096321   -2.136112    0.980366
  H     -3.050926   -2.480646   -0.748383
  C      0.031780    2.293948   -0.633068
  H     -0.598561    2.771948   -1.380633
  H      1.058581    2.377930   -0.976805
  H     -0.063809    2.833722    0.316387
  C      1.805728   -0.247496   -1.092259
  O      1.783186    0.328878   -2.146637
  C      2.916956   -1.189213   -0.711818
  H      3.410378   -1.533934   -1.618425
  H      2.559608   -2.034604   -0.124345
  H      3.642758   -0.650009   -0.097697
  S      1.500228    0.473744    1.534167
  C      0.033174    0.610770    2.579036
  H     -0.496136   -0.340834    2.605609
  H     -0.631299    1.398086    2.226357
  H      0.383144    0.857642    3.580309

 Total Charge           Charge          ....    0
 Multiplicity           Mult            ....    1
 Number of Electrons    NEL             ....  116
 Basis Dimension        Dim             .... 1738

ORBITAL ENERGIES
----------------

  NO   OCC          E(Eh)            E(eV)
   0   2.0000     -91.960725     -2502.3785
   1   2.0000     -91.951497     -2502.1274
   2   2.0000     -20.548588      -559.1555
   3   2.0000     -15.576105      -423.8474
   4   2.0000     -11.341399      -308.6152
   5   2.0000     -11.337375      -308.5057
   6   2.0000     -11.278791      -306.9115
   7   2.0000     -11.253716      -306.2292
   8   2.0000     -11.253528      -306.2241
   9   2.0000     -11.243210      -305.9433
  10   2.0000     -11.238425      -305.8131
  11   2.0000     -11.232732      -305.6582
  12   2.0000     -11.231605      -305.6275
  13   2.0000      -8.963226      -243.9018
  14   2.0000      -8.953975      -243.6500
  15   2.0000      -6.644645      -180.8100
  16   2.0000      -6.643759      -180.7859
  17   2.0000      -6.642786      -180.7594
  18   2.0000      -6.635368      -180.5575
  19   2.0000      -6.634448      -180.5325
  20   2.0000      -6.633601      -180.5095
  21   2.0000      -1.400525       -38.1102
  22   2.0000      -1.283153       -34.9164
  23   2.0000      -1.097911       -29.8757
  24   2.0000      -1.088751       -29.6264
  25   2.0000      -1.023126       -27.8407
  26   2.0000      -1.012743       -27.5581
  27   2.0000      -0.982476       -26.7345
  28   2.0000      -0.938500       -25.5379
  29   2.0000      -0.919533       -25.0218
  30   2.0000      -0.854799       -23.2603
  31   2.0000      -0.817146       -22.2357
  32   2.0000      -0.756515       -20.5858
  33   2.0000      -0.704795       -19.1785
  34   2.0000      -0.679291       -18.4844
  35   2.0000      -0.652428       -17.7535
  36   2.0000      -0.634019       -17.2525
  37   2.0000      -0.623407       -16.9638
  38   2.0000      -0.609043       -16.5729
  39   2.0000      -0.602679       -16.3997
  40   2.0000      -0.596157       -16.2223
  41   2.0000      -0.584819       -15.9137
  42   2.0000      -0.577761       -15.7217
  43   2.0000      -0.575094       -15.6491
  44   2.0000      -0.569344       -15.4927
  45   2.0000      -0.549868       -14.9627
  46   2.0000      -0.547287       -14.8924
  47   2.0000      -0.541897       -14.7458
  48   2.0000      -0.530832       -14.4447
  49   2.0000      -0.508145       -13.8273
  50   2.0000      -0.493128       -13.4187
  51   2.0000      -0.478393       -13.0177
  52   2.0000      -0.456818       -12.4307
  53   2.0000      -0.435499       -11.8505
  54   2.0000      -0.411252       -11.1907
  55   2.0000      -0.393950       -10.7199
  56   2.0000      -0.348984        -9.4963
  57   2.0000      -0.270618        -7.3639
  58   0.0000       0.020259         0.5513
  59   0.0000       0.027702         0.7538
  60   0.0000       0.028222         0.7680
  61   0.0000       0.031371         0.8536
  62   0.0000       0.039781         1.0825

MULLIKEN ATOMIC CHARGES
-----------------------
   0 N :   -0.201561
   1 C :    0.707546
   2 C :   -0.229854
   3 S :   -0.163167
   4 C :    0.567816
   5 C :   -0.939362
   6 H :    0.178374
   7 H :    0.298607
   8 H :    0.247534
   9 C :   -0.849351
  10 H :    0.266634
  11 H :    0.221637
  12 H :    0.259560
  13 C :   -1.186269
  14 H :    0.280770
  15 H :    0.345246
  16 H :    0.333380
  17 C :    1.144077
  18 O :   -0.925740
  19 C :   -0.910906
  20 H :    0.362150
  21 H :    0.186027
  22 H :    0.272936
  23 S :   -0.231250
  24 C :   -1.046481
  25 H :    0.343541
  26 H :    0.287645
  27 H :    0.380461
Sum of atomic charges:   -0.0000000

LOEWDIN ATOMIC CHARGES
----------------------
   0 N :    0.288270
   1 C :   -0.326653
   2 C :   -0.437630
   3 S :    1.326243
   4 C :   -1.144109
   5 C :    0.921515
   6 H :   -0.275280
   7 H :   -0.316946
   8 H :   -0.267640
   9 C :    0.823356
  10 H :   -0.328684
  11 H :   -0.297801
  12 H :   -0.294412
  13 C :    0.726932
  14 H :   -0.300861
  15 H :   -0.331986
  16 H :   -0.278717
  17 C :   -0.836537
  18 O :    0.768993
  19 C :    0.828085
  20 H :   -0.305632
  21 H :   -0.334133
  22 H :   -0.310704
  23 S :    1.296649
  24 C :    0.549656
  25 H :   -0.395393
  26 H :   -0.371634
  27 H :   -0.374950

  Mayer bond orders larger than 0.100000
B(  0-N ,  1-C ) :   0.9049 B(  0-N ,  4-C ) :   0.7596 B(  0-N , 13-C ) :   0.6738
B(  0-N , 14-H ) :  -0.1345 B(  0-N , 18-O ) :   0.1399 B(  0-N , 23-S ) :  -0.1648
B(  1-C ,  2-C ) :   1.4085 B(  1-C ,  3-S ) :  -0.1376 B(  1-C ,  5-C ) :   0.3230
B(  1-C ,  6-H ) :  -0.1624 B(  1-C ,  8-H ) :  -0.2140 B(  1-C , 23-S ) :  -0.1159
B(  2-C ,  3-S ) :   0.9144 B(  2-C ,  4-C ) :  -0.1167 B(  2-C ,  9-C ) :   0.4556
B(  2-C , 10-H ) :  -0.1468 B(  2-C , 11-H ) :  -0.1243 B(  2-C , 12-H ) :  -0.1484
B(  3-S ,  4-C ) :   0.6599 B(  4-C , 13-C ) :  -0.1144 B(  4-C , 17-C ) :   0.8327
B(  4-C , 18-O ) :   0.4567 B(  4-C , 23-S ) :   0.9620 B(  4-C , 24-C ) :  -0.1399
B(  5-C ,  6-H ) :   1.0922 B(  5-C ,  7-H ) :   1.0164 B(  5-C ,  8-H ) :   1.0773
B(  9-C , 10-H ) :   1.0374 B(  9-C , 11-H ) :   1.0481 B(  9-C , 12-H ) :   1.0429
B( 13-C , 14-H ) :   1.0430 B( 13-C , 15-H ) :   0.9652 B( 13-C , 16-H ) :   0.9506
B( 17-C , 18-O ) :   0.5364 B( 17-C , 19-C ) :   0.9007 B( 17-C , 21-H ) :  -0.1041
B( 19-C , 20-H ) :   0.9226 B( 19-C , 21-H ) :   1.0521 B( 19-C , 22-H ) :   0.9153
B( 23-S , 24-C ) :   1.0879 B( 24-C , 25-H ) :   0.8634 B( 24-C , 26-H ) :   0.9201
B( 24-C , 27-H ) :   0.8849

MP2 TOTAL ENERGY:    -1276.606942178 Eh
FINAL SINGLE POINT ENERGY     -1276.606942177558

DIPOLE MOMENT
-------------
                                X             Y             Z
Electronic contribution:      8.94294      -4.77262      -1.30888
Nuclear contribution   :     -9.91101       5.09752       2.10960
                        -----------------------------------------
Total Dipole Moment    :     -0.96807       0.32490       0.80072
                        -----------------------------------------
Magnitude (a.u.)       :      1.29764
Magnitude (Debye)      :      3.29835

Rotational constants in cm-1:     0.027371     0.017861     0.017663
Rotational constants in MHz :   820.556839   535.462130   529.515280

                             ****ORCA TERMINATED NORMALLY****
TOTAL RUN TIME: 0 days 2 hours 54 minutes 26 seconds 985 msec
