                         Program Version 4.2.1 -  RELEASE  -
|  1> %pal
|  2>  nprocs 32
|  3> end
|  4> !RI-MP2 aug-cc-pVQZ aug-cc-pVQZ/C TightSCF
|  5> %maxcore 4500
|  6> *xyzfile 0 2  01_14R.xyz
|  7>
|  8>
|  9>                          ****END OF INPUT****

CARTESIAN COORDINATES (ANGSTROEM)
---------------------------------
  C     -2.375946    0.484352   -0.104049
  C     -1.181513   -0.355500    0.178798
  C      0.144582    0.388619    0.051987
  H     -1.179883   -1.228209   -0.489530
  H     -1.255778   -0.781661    1.194426
  C      1.355246   -0.492499    0.364239
  H      0.139293    1.251579    0.727136
  H      0.242483    0.790604   -0.960917
  C      2.650382    0.255104    0.286652
  H      1.381387   -1.343954   -0.322890
  H      1.238362   -0.906063    1.373413
  C      3.648125   -0.028599   -0.538086
  C     -3.725641   -0.125018   -0.225206
  H     -4.090058   -0.504770    0.741784
  H     -3.717179   -0.984796   -0.904995
  H     -4.465955    0.588155   -0.590811
  H     -2.283061    1.562887   -0.034027
  H      2.750537    1.102522    0.962756
  H      3.589125   -0.862240   -1.230662
  H      4.559319    0.557194   -0.551697

 Total Charge           Charge          ....    0
 Multiplicity           Mult            ....    2
 Number of Electrons    NEL             ....   55
 Basis Dimension        Dim             .... 1158

ORBITAL ENERGIES
----------------
                 SPIN UP ORBITALS
  NO   OCC          E(Eh)            E(eV)
   0   1.0000     -11.228570      -305.5449
   1   1.0000     -11.223590      -305.4094
   2   1.0000     -11.222066      -305.3679
   3   1.0000     -11.218750      -305.2777
   4   1.0000     -11.217857      -305.2534
   5   1.0000     -11.215278      -305.1832
   6   1.0000     -11.213562      -305.1365
   7   1.0000      -1.100083       -29.9348
   8   1.0000      -1.064118       -28.9561
   9   1.0000      -1.002089       -27.2682
  10   1.0000      -0.924451       -25.1556
  11   1.0000      -0.830775       -22.6065
  12   1.0000      -0.783628       -21.3236
  13   1.0000      -0.753359       -20.4999
  14   1.0000      -0.654687       -17.8149
  15   1.0000      -0.622465       -16.9381
  16   1.0000      -0.612192       -16.6586
  17   1.0000      -0.583845       -15.8872
  18   1.0000      -0.574344       -15.6287
  19   1.0000      -0.565331       -15.3834
  20   1.0000      -0.531027       -14.4500
  21   1.0000      -0.513587       -13.9754
  22   1.0000      -0.497276       -13.5316
  23   1.0000      -0.480516       -13.0755
  24   1.0000      -0.472864       -12.8673
  25   1.0000      -0.462379       -12.5820
  26   1.0000      -0.359811        -9.7910
  27   1.0000      -0.325013        -8.8440
  28   0.0000       0.026183         0.7125
  29   0.0000       0.028571         0.7774
  30   0.0000       0.031311         0.8520
  31   0.0000       0.033492         0.9114
  32   0.0000       0.041353         1.1253

                 SPIN DOWN ORBITALS
  NO   OCC          E(Eh)            E(eV)
   0   1.0000     -11.228621      -305.5463
   1   1.0000     -11.222130      -305.3697
   2   1.0000     -11.221235      -305.3453
   3   1.0000     -11.218211      -305.2630
   4   1.0000     -11.216809      -305.2249
   5   1.0000     -11.215236      -305.1821
   6   1.0000     -11.199490      -304.7536
   7   1.0000      -1.093510       -29.7559
   8   1.0000      -1.044491       -28.4220
   9   1.0000      -0.990283       -26.9470
  10   1.0000      -0.923961       -25.1423
  11   1.0000      -0.821215       -22.3464
  12   1.0000      -0.759744       -20.6737
  13   1.0000      -0.738529       -20.0964
  14   1.0000      -0.650694       -17.7063
  15   1.0000      -0.613115       -16.6837
  16   1.0000      -0.607699       -16.5363
  17   1.0000      -0.571431       -15.5494
  18   1.0000      -0.564403       -15.3582
  19   1.0000      -0.548666       -14.9300
  20   1.0000      -0.525444       -14.2981
  21   1.0000      -0.511604       -13.9215
  22   1.0000      -0.493202       -13.4207
  23   1.0000      -0.473664       -12.8890
  24   1.0000      -0.469442       -12.7742
  25   1.0000      -0.460692       -12.5361
  26   1.0000      -0.359212        -9.7747
  27   0.0000       0.026343         0.7168
  28   0.0000       0.028601         0.7783
  29   0.0000       0.031416         0.8549
  30   0.0000       0.033599         0.9143
  31   0.0000       0.041449         1.1279

MULLIKEN ATOMIC CHARGES AND SPIN POPULATIONS
--------------------------------------------
   0 C :   -0.719848    1.198903
   1 C :   -0.114945   -0.212657
   2 C :   -0.272176    0.027914
   3 H :    0.240964    0.033324
   4 H :    0.229787    0.083206
   5 C :   -0.267868   -0.005840
   6 H :    0.199088   -0.004508
   7 H :    0.266574   -0.000867
   8 C :   -0.631310   -0.002832
   9 H :    0.271433    0.001062
  10 H :    0.294119    0.000582
  11 C :   -0.893391    0.002452
  12 C :   -0.794111   -0.147890
  13 H :    0.258644    0.072540
  14 H :    0.227115    0.034966
  15 H :    0.243449    0.006917
  16 H :    0.393778   -0.087071
  17 H :    0.412591    0.000041
  18 H :    0.295564   -0.000125
  19 H :    0.360543   -0.000117
Sum of atomic charges         :    0.0000000

LOEWDIN ATOMIC CHARGES AND SPIN POPULATIONS
-------------------------------------------
   0 C :    0.449334    0.458246
   1 C :    0.470511    0.134563
   2 C :    0.488013    0.013066
   3 H :   -0.284897    0.018189
   4 H :   -0.273477    0.028147
   5 C :    0.469155    0.001428
   6 H :   -0.274122    0.000353
   7 H :   -0.264945    0.004706
   8 C :    0.356613   -0.000511
   9 H :   -0.298272    0.000269
  10 H :   -0.276190    0.000784
  11 C :    0.796410    0.000539
  12 C :    0.887514    0.136374
  13 H :   -0.292134    0.029255
  14 H :   -0.304375    0.018535
  15 H :   -0.309791    0.009540
  16 H :   -0.307169    0.146179
  17 H :   -0.320306   -0.000185
  18 H :   -0.353816    0.000270
  19 H :   -0.358056    0.000253

  Mayer bond orders larger than 0.100000
B(  0-C ,  1-C ) :   0.6760 B(  0-C ,  2-C ) :  -0.1806 B(  0-C , 12-C ) :   0.9381
B(  0-C , 16-H ) :   0.8537 B(  1-C ,  2-C ) :   0.9877 B(  1-C ,  3-H ) :   0.8901
B(  1-C ,  4-H ) :   0.8628 B(  2-C ,  5-C ) :   1.0132 B(  2-C ,  6-H ) :   0.8633
B(  2-C ,  7-H ) :   0.8496 B(  2-C ,  8-C ) :  -0.1806 B(  5-C ,  8-C ) :   1.0020
B(  5-C ,  9-H ) :   0.8780 B(  5-C , 10-H ) :   0.8174 B(  5-C , 11-C ) :  -0.1884
B(  8-C , 11-C ) :   1.9152 B(  8-C , 17-H ) :   0.8117 B( 11-C , 18-H ) :   0.9412
B( 11-C , 19-H ) :   0.9434 B( 12-C , 13-H ) :   0.9167 B( 12-C , 14-H ) :   0.9741
B( 12-C , 15-H ) :   1.0448

MP2 TOTAL ENERGY:     -273.943754533 Eh
FINAL SINGLE POINT ENERGY      -273.943754532843

DIPOLE MOMENT
-------------
                                X             Y             Z
Electronic contribution:      3.10683       0.77991       0.19062
Nuclear contribution   :     -3.28587      -0.80648      -0.09142
                        -----------------------------------------
Total Dipole Moment    :     -0.17904      -0.02658       0.09920
                        -----------------------------------------
Magnitude (a.u.)       :      0.20640
Magnitude (Debye)      :      0.52462

Rotational constants in cm-1:     0.419137     0.026393     0.026117
Rotational constants in MHz : 12565.413928   791.238068   782.956413

                             ****ORCA TERMINATED NORMALLY****
TOTAL RUN TIME: 0 days 0 hours 42 minutes 6 seconds 135 msec
