                         Program Version 4.2.1 -  RELEASE  -
|  1> %pal
|  2>  nprocs 32
|  3> end
|  4> !RI-MP2 aug-cc-pVQZ aug-cc-pVQZ/C TightSCF
|  5> %maxcore 4500
|  6> *xyzfile 0 1  03_38P2.xyz
|  7>
|  8>
|  9>                          ****END OF INPUT****

CARTESIAN COORDINATES (ANGSTROEM)
---------------------------------
  O      0.335356   -1.005984    1.316070
  C      0.502537   -0.325641    0.368838
  C     -0.477219    0.629309   -0.272524
  C     -1.915852    0.228835    0.054427
  H     -0.314518    0.579123   -1.351935
  C     -0.148749    2.049899    0.206600
  H     -2.038754    0.200506    1.139998
  C     -2.335831   -1.103231   -0.556162
  H     -2.567401    1.025641   -0.315217
  H     -2.228948   -1.089272   -1.644040
  H     -3.380574   -1.321454   -0.328886
  H     -1.736314   -1.927889   -0.166863
  H      0.877359    2.329272   -0.032113
  H     -0.290249    2.133765    1.286128
  H     -0.818401    2.759662   -0.280746
  Cl     2.121509   -0.324500   -0.449527

 Total Charge           Charge          ....    0
 Multiplicity           Mult            ....    1
 Number of Electrons    NEL             ....   64
 Basis Dimension        Dim             ....  978

ORBITAL ENERGIES
----------------

  NO   OCC          E(Eh)            E(eV)
   0   2.0000    -104.838873     -2852.8108
   1   2.0000     -20.588616      -560.2447
   2   2.0000     -11.401238      -310.2435
   3   2.0000     -11.267402      -306.6016
   4   2.0000     -11.240241      -305.8625
   5   2.0000     -11.237742      -305.7945
   6   2.0000     -11.221722      -305.3586
   7   2.0000     -10.564943      -287.4867
   8   2.0000      -8.031784      -218.5559
   9   2.0000      -8.030254      -218.5143
  10   2.0000      -8.030165      -218.5119
  11   2.0000      -1.450890       -39.4807
  12   2.0000      -1.138347       -30.9760
  13   2.0000      -1.098373       -29.8882
  14   2.0000      -1.009909       -27.4810
  15   2.0000      -0.906690       -24.6723
  16   2.0000      -0.851816       -23.1791
  17   2.0000      -0.752604       -20.4794
  18   2.0000      -0.698292       -19.0015
  19   2.0000      -0.662004       -18.0140
  20   2.0000      -0.628488       -17.1020
  21   2.0000      -0.611462       -16.6387
  22   2.0000      -0.595811       -16.2129
  23   2.0000      -0.579699       -15.7744
  24   2.0000      -0.555336       -15.1115
  25   2.0000      -0.534608       -14.5474
  26   2.0000      -0.507775       -13.8172
  27   2.0000      -0.496433       -13.5086
  28   2.0000      -0.487850       -13.2751
  29   2.0000      -0.461322       -12.5532
  30   2.0000      -0.457653       -12.4534
  31   2.0000      -0.438037       -11.9196
  32   0.0000       0.022884         0.6227
  33   0.0000       0.029731         0.8090
  34   0.0000       0.032658         0.8887
  35   0.0000       0.038725         1.0537
  36   0.0000       0.048574         1.3218

MULLIKEN ATOMIC CHARGES
-----------------------
   0 O :   -0.754952
   1 C :    0.802643
   2 C :    0.206691
   3 C :   -0.404607
   4 H :    0.272962
   5 C :   -0.908080
   6 H :    0.263214
   7 C :   -0.860438
   8 H :    0.247263
   9 H :    0.215201
  10 H :    0.260652
  11 H :    0.240166
  12 H :    0.287884
  13 H :    0.224437
  14 H :    0.263781
  15 Cl:   -0.356817
Sum of atomic charges:    0.0000000

LOEWDIN ATOMIC CHARGES
----------------------
   0 O :    0.651105
   1 C :   -1.360753
   2 C :   -0.074149
   3 C :    0.469987
   4 H :   -0.339863
   5 C :    0.894849
   6 H :   -0.280027
   7 C :    0.930627
   8 H :   -0.271896
   9 H :   -0.277019
  10 H :   -0.274978
  11 H :   -0.298868
  12 H :   -0.299551
  13 H :   -0.270882
  14 H :   -0.272365
  15 Cl:    1.073783

  Mayer bond orders larger than 0.100000
B(  0-O ,  1-C ) :   1.4304 B(  0-O ,  2-C ) :   0.1061 B(  1-C ,  2-C ) :   0.8186
B(  1-C , 15-Cl) :   0.8007 B(  2-C ,  3-C ) :   0.7020 B(  2-C ,  4-H ) :   0.8605
B(  2-C ,  5-C ) :   0.7469 B(  2-C , 15-Cl) :  -0.1549 B(  3-C ,  6-H ) :   0.8829
B(  3-C ,  7-C ) :   0.9285 B(  3-C ,  8-H ) :   0.9270 B(  5-C , 12-H ) :   0.9965
B(  5-C , 13-H ) :   0.9794 B(  5-C , 14-H ) :   0.9599 B(  7-C ,  9-H ) :   0.9488
B(  7-C , 10-H ) :   1.0104 B(  7-C , 11-H ) :   0.9491

MP2 TOTAL ENERGY:     -730.472592186 Eh
FINAL SINGLE POINT ENERGY      -730.472592185932

DIPOLE MOMENT
-------------
                                X             Y             Z
Electronic contribution:     14.65592      -4.29861       0.48894
Nuclear contribution   :    -15.47843       5.12145      -1.02654
                        -----------------------------------------
Total Dipole Moment    :     -0.82250       0.82284      -0.53760
                        -----------------------------------------
Magnitude (a.u.)       :      1.28164
Magnitude (Debye)      :      3.25766

Rotational constants in cm-1:     0.101230     0.047267     0.039694
Rotational constants in MHz :  3034.793577  1417.040924  1189.985336

                             ****ORCA TERMINATED NORMALLY****
TOTAL RUN TIME: 0 days 0 hours 22 minutes 29 seconds 327 msec
