                         Program Version 4.2.1 -  RELEASE  -
|  1> %pal
|  2>  nprocs 32
|  3> end
|  4> !RI-MP2 aug-cc-pVQZ aug-cc-pVQZ/C TightSCF
|  5> %maxcore 4500
|  6> *xyzfile 0 1  03_15R1.xyz
|  7>
|  8>
|  9>                          ****END OF INPUT****

CARTESIAN COORDINATES (ANGSTROEM)
---------------------------------
  C      1.898213    0.008896    0.001424
  C      2.466225   -0.610714   -1.263819
  C      0.382268    0.013958   -0.000143
  C      2.463479   -0.617115    1.264734
  H      2.089958   -0.081191   -2.139554
  H      2.174433   -1.658841   -1.343225
  H      3.555663   -0.550250   -1.251559
  C     -0.323327   -1.188229   -0.002833
  C     -0.335905    1.200895   -0.001829
  H      2.171320   -1.665559    1.338400
  H      2.085581   -0.091806    2.142300
  H      3.552951   -0.556861    1.254972
  C     -1.725798    1.184854   -0.005030
  C     -2.435492   -0.008934   -0.005523
  C     -1.707332   -1.197870   -0.006029
  H      0.208880   -2.132808   -0.004349
  H     -2.233321   -2.146678   -0.010164
  H      0.195661    2.142410   -0.002323
  H     -2.265627    2.125503   -0.008359
  C     -3.939722   -0.028650    0.007891
  H     -4.349742    0.965724   -0.172190
  H     -4.333938   -0.700150   -0.757913
  H     -4.318884   -0.375314    0.972967
  F      2.334601    1.353699    0.005327

 Total Charge           Charge          ....    0
 Multiplicity           Mult            ....    1
 Number of Electrons    NEL             ....   82
 Basis Dimension        Dim             .... 1478

ORBITAL ENERGIES
----------------

  NO   OCC          E(Eh)            E(eV)
   0   2.0000     -26.262742      -714.6455
   1   2.0000     -11.319698      -308.0246
   2   2.0000     -11.237824      -305.7968
   3   2.0000     -11.235661      -305.7379
   4   2.0000     -11.233676      -305.6839
   5   2.0000     -11.229148      -305.5606
   6   2.0000     -11.227479      -305.5152
   7   2.0000     -11.226216      -305.4809
   8   2.0000     -11.223001      -305.3934
   9   2.0000     -11.221149      -305.3430
  10   2.0000     -11.221131      -305.3425
  11   2.0000      -1.575390       -42.8685
  12   2.0000      -1.163667       -31.6650
  13   2.0000      -1.092013       -29.7152
  14   2.0000      -1.029983       -28.0273
  15   2.0000      -1.014160       -27.5967
  16   2.0000      -0.952558       -25.9204
  17   2.0000      -0.936630       -25.4870
  18   2.0000      -0.838598       -22.8194
  19   2.0000      -0.826803       -22.4985
  20   2.0000      -0.775140       -21.0926
  21   2.0000      -0.715777       -19.4773
  22   2.0000      -0.669709       -18.2237
  23   2.0000      -0.668549       -18.1921
  24   2.0000      -0.637175       -17.3384
  25   2.0000      -0.624934       -17.0053
  26   2.0000      -0.620168       -16.8756
  27   2.0000      -0.587548       -15.9880
  28   2.0000      -0.579523       -15.7696
  29   2.0000      -0.578369       -15.7382
  30   2.0000      -0.564494       -15.3607
  31   2.0000      -0.548858       -14.9352
  32   2.0000      -0.539320       -14.6756
  33   2.0000      -0.539073       -14.6689
  34   2.0000      -0.520282       -14.1576
  35   2.0000      -0.499989       -13.6054
  36   2.0000      -0.485478       -13.2105
  37   2.0000      -0.476728       -12.9724
  38   2.0000      -0.468180       -12.7398
  39   2.0000      -0.337786        -9.1916
  40   2.0000      -0.321677        -8.7533
  41   0.0000       0.023108         0.6288
  42   0.0000       0.026564         0.7228
  43   0.0000       0.031156         0.8478
  44   0.0000       0.033783         0.9193
  45   0.0000       0.038413         1.0453

MULLIKEN ATOMIC CHARGES
-----------------------
   0 C :    1.585507
   1 C :   -0.997121
   2 C :    0.331444
   3 C :   -0.990343
   4 H :    0.287219
   5 H :    0.222353
   6 H :    0.318619
   7 C :   -0.508760
   8 C :   -0.726947
   9 H :    0.223716
  10 H :    0.284111
  11 H :    0.316475
  12 C :   -0.216294
  13 C :    0.444268
  14 C :   -0.127477
  15 H :    0.180440
  16 H :    0.182422
  17 H :    0.131266
  18 H :    0.148208
  19 C :   -0.917241
  20 H :    0.227879
  21 H :    0.227898
  22 H :    0.244408
  23 F :   -0.872046
Sum of atomic charges:   -0.0000000

LOEWDIN ATOMIC CHARGES
----------------------
   0 C :   -0.854581
   1 C :    0.888526
   2 C :   -0.126793
   3 C :    0.888433
   4 H :   -0.273491
   5 H :   -0.287340
   6 H :   -0.280854
   7 C :    0.342462
   8 C :    0.351102
   9 H :   -0.287437
  10 H :   -0.273508
  11 H :   -0.280860
  12 C :    0.360989
  13 C :   -0.074130
  14 C :    0.361630
  15 H :   -0.317630
  16 H :   -0.310347
  17 H :   -0.350271
  18 H :   -0.317796
  19 C :    0.905092
  20 H :   -0.307148
  21 H :   -0.288060
  22 H :   -0.279737
  23 F :    0.811748

  Mayer bond orders larger than 0.100000
B(  0-C ,  1-C ) :   0.7003 B(  0-C ,  2-C ) :   0.7386 B(  0-C ,  3-C ) :   0.7062
B(  0-C ,  7-C ) :  -0.1182 B(  0-C ,  8-C ) :  -0.2605 B(  0-C , 23-F ) :  -0.3505
B(  1-C ,  2-C ) :  -0.1208 B(  1-C ,  3-C ) :   0.1034 B(  1-C ,  4-H ) :   0.9727
B(  1-C ,  5-H ) :   1.0027 B(  1-C ,  6-H ) :   0.9569 B(  1-C , 23-F ) :   0.1038
B(  2-C ,  3-C ) :  -0.1303 B(  2-C ,  7-C ) :   0.9550 B(  2-C ,  8-C ) :   0.9527
B(  2-C , 12-C ) :  -0.3755 B(  2-C , 13-C ) :  -0.1650 B(  2-C , 14-C ) :  -0.4042
B(  2-C , 23-F ) :   0.3150 B(  3-C ,  9-H ) :   1.0016 B(  3-C , 10-H ) :   0.9743
B(  3-C , 11-H ) :   0.9564 B(  3-C , 23-F ) :   0.1043 B(  7-C , 12-C ) :   0.1807
B(  7-C , 14-C ) :   1.2733 B(  7-C , 15-H ) :   1.0896 B(  7-C , 16-H ) :  -0.1218
B(  8-C , 12-C ) :   1.3363 B(  8-C , 14-C ) :   0.2050 B(  8-C , 17-H ) :   1.1357
B(  8-C , 18-H ) :  -0.1543 B( 12-C , 13-C ) :   0.9615 B( 12-C , 14-C ) :  -0.1387
B( 12-C , 17-H ) :  -0.1528 B( 12-C , 18-H ) :   1.1751 B( 13-C , 14-C ) :   0.8012
B( 13-C , 16-H ) :  -0.1222 B( 13-C , 18-H ) :  -0.1328 B( 13-C , 19-C ) :   0.7139
B( 13-C , 20-H ) :  -0.1014 B( 13-C , 21-H ) :  -0.1348 B( 13-C , 22-H ) :  -0.1102
B( 14-C , 15-H ) :  -0.1238 B( 14-C , 16-H ) :   1.1317 B( 17-H , 23-F ) :   0.1211
B( 19-C , 20-H ) :   1.0474 B( 19-C , 21-H ) :   1.0469 B( 19-C , 22-H ) :   1.0134

MP2 TOTAL ENERGY:     -487.938763281 Eh
FINAL SINGLE POINT ENERGY      -487.938763280911

DIPOLE MOMENT
-------------
                                X             Y             Z
Electronic contribution:      3.47930       5.40324      -0.00952
Nuclear contribution   :     -3.81706      -6.13402       0.01390
                        -----------------------------------------
Total Dipole Moment    :     -0.33776      -0.73078       0.00438
                        -----------------------------------------
Magnitude (a.u.)       :      0.80507
Magnitude (Debye)      :      2.04633

Rotational constants in cm-1:     0.086951     0.021266     0.019275
Rotational constants in MHz :  2606.712472   637.552111   577.856626

                             ****ORCA TERMINATED NORMALLY****
TOTAL RUN TIME: 0 days 1 hours 27 minutes 51 seconds 458 msec
