                         Program Version 4.2.1 -  RELEASE  -
|  1> %pal
|  2>  nprocs 32
|  3> end
|  4> !RI-MP2 aug-cc-pVQZ aug-cc-pVQZ/C TightSCF
|  5> %maxcore 4500
|  6> *xyzfile 0 1  02_46P.xyz
|  7>
|  8>
|  9>                          ****END OF INPUT****

CARTESIAN COORDINATES (ANGSTROEM)
---------------------------------
  C      1.262680    3.788556   -0.086695
  O      0.680117    2.490887   -0.065159
  H      0.466139    4.497817   -0.305394
  C     -0.146142   -0.830146   -0.525274
  C      1.049996   -0.123231    0.098783
  C     -1.499848   -0.201610   -0.288152
  C     -2.531029   -0.451062   -1.191476
  C     -1.775962    0.587389    0.823525
  C     -3.803736    0.061682   -0.988629
  C     -3.046817    1.104826    1.031728
  C      3.413869    0.175759    0.141059
  C     -4.067094    0.842248    0.128850
  C      2.345164   -0.730035   -0.458651
  C      2.397756   -2.208163   -0.242607
  C      1.275016   -2.905065   -0.095749
  C     -0.121702   -2.325884   -0.079045
  C     -0.756724   -2.569301    1.295297
  O      2.831304    1.491294    0.083963
  B      1.458283    1.396270    0.014424
  H     -2.330707   -1.054798   -2.070848
  H     -0.990717    0.814733    1.532343
  H     -4.589087   -0.143152   -1.706715
  H     -3.238866    1.720773    1.902410
  H      4.353255    0.190144   -0.411957
  H      3.620209   -0.077021    1.186319
  H     -5.058341    1.248378    0.290607
  H     -1.816101   -2.313217    1.295642
  H     -0.263787   -1.978060    2.070656
  H     -0.659493   -3.620647    1.575255
  H      2.037457    3.857086   -0.852248
  H      1.706260    4.026991    0.882085
  H      1.334965   -3.981142    0.045256
  H      3.357693   -2.716729   -0.254170
  H      0.014378   -0.831226   -1.609230
  H     -0.716055   -2.889832   -0.807474
  H      1.055482   -0.344362    1.179595
  H      2.361976   -0.540297   -1.542467

 Total Charge           Charge          ....    0
 Multiplicity           Mult            ....    1
 Number of Electrons    NEL             ....  130
 Basis Dimension        Dim             .... 2314

ORBITAL ENERGIES
----------------

  NO   OCC          E(Eh)            E(eV)
   0   2.0000     -20.553306      -559.2839
   1   2.0000     -20.552275      -559.2558
   2   2.0000     -11.279746      -306.9375
   3   2.0000     -11.270447      -306.6844
   4   2.0000     -11.232014      -305.6387
   5   2.0000     -11.231516      -305.6251
   6   2.0000     -11.231367      -305.6210
   7   2.0000     -11.228474      -305.5423
   8   2.0000     -11.226120      -305.4783
   9   2.0000     -11.225529      -305.4622
  10   2.0000     -11.224432      -305.4323
  11   2.0000     -11.224000      -305.4206
  12   2.0000     -11.221972      -305.3654
  13   2.0000     -11.221382      -305.3493
  14   2.0000     -11.219179      -305.2894
  15   2.0000     -11.207909      -304.9827
  16   2.0000     -11.201701      -304.8138
  17   2.0000      -7.619907      -207.3482
  18   2.0000      -1.384997       -37.6877
  19   2.0000      -1.351295       -36.7706
  20   2.0000      -1.159176       -31.5428
  21   2.0000      -1.131585       -30.7920
  22   2.0000      -1.057549       -28.7774
  23   2.0000      -1.036332       -28.2000
  24   2.0000      -1.007648       -27.4195
  25   2.0000      -0.985102       -26.8060
  26   2.0000      -0.954915       -25.9846
  27   2.0000      -0.933749       -25.4086
  28   2.0000      -0.892896       -24.2969
  29   2.0000      -0.841459       -22.8973
  30   2.0000      -0.826011       -22.4769
  31   2.0000      -0.803005       -21.8509
  32   2.0000      -0.783255       -21.3135
  33   2.0000      -0.718113       -19.5408
  34   2.0000      -0.714047       -19.4302
  35   2.0000      -0.693631       -18.8747
  36   2.0000      -0.674701       -18.3595
  37   2.0000      -0.660449       -17.9717
  38   2.0000      -0.642043       -17.4709
  39   2.0000      -0.631829       -17.1929
  40   2.0000      -0.627124       -17.0649
  41   2.0000      -0.619320       -16.8526
  42   2.0000      -0.613267       -16.6878
  43   2.0000      -0.602252       -16.3881
  44   2.0000      -0.590763       -16.0755
  45   2.0000      -0.579986       -15.7822
  46   2.0000      -0.576218       -15.6797
  47   2.0000      -0.565297       -15.3825
  48   2.0000      -0.549815       -14.9612
  49   2.0000      -0.534610       -14.5475
  50   2.0000      -0.515076       -14.0159
  51   2.0000      -0.508933       -13.8488
  52   2.0000      -0.500421       -13.6171
  53   2.0000      -0.491432       -13.3726
  54   2.0000      -0.490623       -13.3505
  55   2.0000      -0.486414       -13.2360
  56   2.0000      -0.477574       -12.9954
  57   2.0000      -0.470614       -12.8061
  58   2.0000      -0.454311       -12.3624
  59   2.0000      -0.448206       -12.1963
  60   2.0000      -0.441539       -12.0149
  61   2.0000      -0.411622       -11.2008
  62   2.0000      -0.350070        -9.5259
  63   2.0000      -0.329587        -8.9685
  64   2.0000      -0.319108        -8.6834
  65   0.0000       0.020691         0.5630
  66   0.0000       0.025612         0.6969
  67   0.0000       0.026744         0.7278
  68   0.0000       0.028622         0.7789
  69   0.0000       0.035069         0.9543

MULLIKEN ATOMIC CHARGES
-----------------------
   0 C :   -0.870167
   1 O :   -1.671279
   2 H :    0.421676
   3 C :    1.084116
   4 C :    1.362404
   5 C :    0.458002
   6 C :   -0.749935
   7 C :   -0.412348
   8 C :   -0.575040
   9 C :   -0.444002
  10 C :   -0.382470
  11 C :   -0.397717
  12 C :   -0.268252
  13 C :   -0.735697
  14 C :   -0.463987
  15 C :    0.125117
  16 C :   -1.008528
  17 O :   -1.615353
  18 B :    1.943346
  19 H :    0.189730
  20 H :    0.191298
  21 H :    0.187008
  22 H :    0.194573
  23 H :    0.338413
  24 H :    0.262793
  25 H :    0.347566
  26 H :    0.160769
  27 H :    0.200364
  28 H :    0.168519
  29 H :    0.374134
  30 H :    0.355089
  31 H :    0.117062
  32 H :    0.232778
  33 H :    0.325900
  34 H :    0.192289
  35 H :    0.096864
  36 H :    0.264965
Sum of atomic charges:   -0.0000000

LOEWDIN ATOMIC CHARGES
----------------------
   0 C :    0.602505
   1 O :    0.984803
   2 H :   -0.311086
   3 C :    0.132250
   4 C :    0.228564
   5 C :   -0.065965
   6 C :    0.359813
   7 C :    0.343470
   8 C :    0.351313
   9 C :    0.362451
  10 C :    0.251013
  11 C :    0.339532
  12 C :    0.071064
  13 C :    0.453841
  14 C :    0.420928
  15 C :    0.132412
  16 C :    0.938446
  17 O :    1.023951
  18 B :   -1.367874
  19 H :   -0.304265
  20 H :   -0.325050
  21 H :   -0.319378
  22 H :   -0.314834
  23 H :   -0.268891
  24 H :   -0.264952
  25 H :   -0.323369
  26 H :   -0.278904
  27 H :   -0.269373
  28 H :   -0.267592
  29 H :   -0.306409
  30 H :   -0.295695
  31 H :   -0.303401
  32 H :   -0.297698
  33 H :   -0.289872
  34 H :   -0.273599
  35 H :   -0.287411
  36 H :   -0.260738

  Mayer bond orders larger than 0.100000
B(  0-C ,  1-O ) :   1.1882 B(  0-C ,  2-H ) :   0.8574 B(  0-C , 18-B ) :  -0.2371
B(  0-C , 29-H ) :   0.8291 B(  0-C , 30-H ) :   0.8641 B(  1-O ,  4-C ) :  -0.8638
B(  1-O , 12-C ) :   0.1270 B(  3-C ,  4-C ) :   0.7255 B(  3-C ,  5-C ) :  -0.2973
B(  3-C ,  6-C ) :  -0.6228 B(  3-C ,  7-C ) :  -0.3442 B(  3-C , 14-C ) :  -0.1785
B(  3-C , 15-C ) :   0.6502 B(  3-C , 16-C ) :  -0.1508 B(  3-C , 33-H ) :   1.0116
B(  4-C , 10-C ) :  -0.3181 B(  4-C , 12-C ) :   0.3673 B(  4-C , 17-O ) :  -0.7390
B(  4-C , 18-B ) :   0.5746 B(  4-C , 35-H ) :   1.0051 B(  5-C ,  6-C ) :   1.3267
B(  5-C ,  7-C ) :   1.0215 B(  5-C ,  8-C ) :  -0.4184 B(  5-C ,  9-C ) :  -0.4371
B(  5-C , 15-C ) :   0.1018 B(  5-C , 33-H ) :  -0.3245 B(  6-C ,  7-C ) :  -0.2132
B(  6-C ,  8-C ) :   1.4401 B(  6-C ,  9-C ) :   0.1923 B(  6-C , 19-H ) :   1.0850
B(  6-C , 21-H ) :  -0.1397 B(  6-C , 25-H ) :  -0.1022 B(  6-C , 33-H ) :  -0.1082
B(  7-C ,  8-C ) :   0.1467 B(  7-C ,  9-C ) :   1.3422 B(  7-C , 20-H ) :   1.0927
B(  7-C , 22-H ) :  -0.1239 B(  8-C , 11-C ) :   1.1795 B(  8-C , 21-H ) :   1.2400
B(  9-C , 11-C ) :   1.1503 B(  9-C , 22-H ) :   1.1750 B(  9-C , 25-H ) :  -0.1299
B( 10-C , 12-C ) :   0.9136 B( 10-C , 17-O ) :   1.0152 B( 10-C , 23-H ) :   0.9420
B( 10-C , 24-H ) :   1.0290 B( 11-C , 21-H ) :  -0.1188 B( 11-C , 22-H ) :  -0.1057
B( 11-C , 25-H ) :   1.0173 B( 12-C , 13-C ) :   0.5001 B( 12-C , 14-C ) :  -0.1862
B( 12-C , 17-O ) :   0.1497 B( 12-C , 24-H ) :  -0.1573 B( 12-C , 32-H ) :  -0.1164
B( 12-C , 36-H ) :   1.0059 B( 13-C , 14-C ) :   1.5715 B( 13-C , 31-H ) :  -0.2151
B( 13-C , 32-H ) :   1.1627 B( 13-C , 36-H ) :  -0.1010 B( 14-C , 15-C ) :   0.7990
B( 14-C , 31-H ) :   1.2749 B( 14-C , 32-H ) :  -0.1700 B( 14-C , 34-H ) :  -0.1142
B( 15-C , 16-C ) :   0.6975 B( 15-C , 28-H ) :  -0.1275 B( 15-C , 34-H ) :   1.0336
B( 16-C , 26-H ) :   1.0547 B( 16-C , 27-H ) :   1.0384 B( 16-C , 28-H ) :   1.1344
B( 17-O , 18-B ) :   0.2699

MP2 TOTAL ENERGY:     -757.109255855 Eh
FINAL SINGLE POINT ENERGY      -757.109255855381

DIPOLE MOMENT
-------------
                                X             Y             Z
Electronic contribution:      0.81954       5.04797      -2.43656
Nuclear contribution   :     -0.47905      -5.24036       2.40831
                        -----------------------------------------
Total Dipole Moment    :      0.34050      -0.19239      -0.02825
                        -----------------------------------------
Magnitude (a.u.)       :      0.39211
Magnitude (Debye)      :      0.99666

Rotational constants in cm-1:     0.018685     0.012420     0.008270
Rotational constants in MHz :   560.166016   372.328667   247.939048

                             ****ORCA TERMINATED NORMALLY****
TOTAL RUN TIME: 0 days 6 hours 18 minutes 53 seconds 269 msec
