                         Program Version 4.2.1 -  RELEASE  -
|  1> %pal
|  2>  nprocs 32
|  3> end
|  4> !RI-MP2 aug-cc-pVQZ aug-cc-pVQZ/C TightSCF
|  5> %maxcore 4500
|  6> *xyzfile 0 1  06_32R1.xyz
|  7>
|  8>
|  9>                          ****END OF INPUT****

CARTESIAN COORDINATES (ANGSTROEM)
---------------------------------
  C     -1.344470    0.411064   -0.155146
  C     -0.055992    0.463506    0.132807
  F      0.578275    1.665550   -0.017181
  C     -2.223819   -0.796627   -0.072053
  H     -2.670475   -1.016565   -1.045412
  H     -1.685603   -1.686045    0.254147
  H     -3.048157   -0.629147    0.626441
  C      0.892977   -0.583639    0.601008
  C      1.985812   -0.889827   -0.425913
  H      0.337294   -1.489261    0.844505
  H      1.350370   -0.231902    1.531240
  H      2.684907   -1.630944   -0.034554
  H      1.553098   -1.282048   -1.348416
  H      2.549316    0.010532   -0.673310
  H     -1.802282    1.338564   -0.484225

 Total Charge           Charge          ....    0
 Multiplicity           Mult            ....    1
 Number of Electrons    NEL             ....   48
 Basis Dimension        Dim             ....  894

ORBITAL ENERGIES
----------------

  NO   OCC          E(Eh)            E(eV)
   0   2.0000     -26.284639      -715.2414
   1   2.0000     -11.309087      -307.7359
   2   2.0000     -11.236791      -305.7686
   3   2.0000     -11.228207      -305.5350
   4   2.0000     -11.225239      -305.4543
   5   2.0000     -11.219899      -305.3090
   6   2.0000      -1.600964       -43.5645
   7   2.0000      -1.097206       -29.8565
   8   2.0000      -1.032416       -28.0935
   9   2.0000      -0.937680       -25.5156
  10   2.0000      -0.868077       -23.6216
  11   2.0000      -0.765503       -20.8304
  12   2.0000      -0.687270       -18.7016
  13   2.0000      -0.682726       -18.5779
  14   2.0000      -0.671098       -18.2615
  15   2.0000      -0.603773       -16.4295
  16   2.0000      -0.588708       -16.0195
  17   2.0000      -0.572633       -15.5821
  18   2.0000      -0.549138       -14.9428
  19   2.0000      -0.539279       -14.6745
  20   2.0000      -0.525876       -14.3098
  21   2.0000      -0.499376       -13.5887
  22   2.0000      -0.492343       -13.3973
  23   2.0000      -0.350749        -9.5444
  24   0.0000       0.025421         0.6917
  25   0.0000       0.030062         0.8180
  26   0.0000       0.035137         0.9561
  27   0.0000       0.036594         0.9958
  28   0.0000       0.048833         1.3288

MULLIKEN ATOMIC CHARGES
-----------------------
   0 C :   -0.624098
   1 C :    0.839104
   2 F :   -0.776099
   3 C :   -0.743855
   4 H :    0.228245
   5 H :    0.244044
   6 H :    0.244350
   7 C :   -0.306659
   8 C :   -0.838395
   9 H :    0.267492
  10 H :    0.282160
  11 H :    0.291443
  12 H :    0.258252
  13 H :    0.240684
  14 H :    0.393332
Sum of atomic charges:    0.0000000

LOEWDIN ATOMIC CHARGES
----------------------
   0 C :    0.326318
   1 C :   -0.615127
   2 F :    0.768821
   3 C :    0.885240
   4 H :   -0.290232
   5 H :   -0.328309
   6 H :   -0.289449
   7 C :    0.440419
   8 C :    0.921502
   9 H :   -0.325852
  10 H :   -0.285865
  11 H :   -0.282207
  12 H :   -0.281071
  13 H :   -0.292325
  14 H :   -0.351863

  Mayer bond orders larger than 0.100000
B(  0-C ,  1-C ) :   1.8596 B(  0-C ,  2-F ) :   0.2436 B(  0-C ,  3-C ) :   0.8665
B(  0-C , 14-H ) :   0.8096 B(  1-C ,  7-C ) :   0.7983 B(  3-C ,  4-H ) :   0.9718
B(  3-C ,  5-H ) :   0.9500 B(  3-C ,  6-H ) :   0.9780 B(  7-C ,  8-C ) :   1.0122
B(  7-C ,  9-H ) :   0.9270 B(  7-C , 10-H ) :   0.8577 B(  8-C , 11-H ) :   0.9427
B(  8-C , 12-H ) :   0.9447 B(  8-C , 13-H ) :   0.9334

MP2 TOTAL ENERGY:     -295.312506458 Eh
FINAL SINGLE POINT ENERGY      -295.312506458327

DIPOLE MOMENT
-------------
                                X             Y             Z
Electronic contribution:      1.09345       7.70903       0.41892
Nuclear contribution   :     -1.33252      -8.45130      -0.31979
                        -----------------------------------------
Total Dipole Moment    :     -0.23907      -0.74227       0.09913
                        -----------------------------------------
Magnitude (a.u.)       :      0.78610
Magnitude (Debye)      :      1.99810

Rotational constants in cm-1:     0.161042     0.084430     0.061116
Rotational constants in MHz :  4827.927258  2531.154305  1832.219092

                             ****ORCA TERMINATED NORMALLY****
TOTAL RUN TIME: 0 days 0 hours 14 minutes 6 seconds 378 msec
