                         Program Version 4.2.1 -  RELEASE  -
|  1> %pal
|  2>  nprocs 32
|  3> end
|  4> !RI-MP2 aug-cc-pVQZ aug-cc-pVQZ/C TightSCF
|  5> %maxcore 4500
|  6> *xyzfile 1 1  10_26TS.xyz
|  7>
|  8>
|  9>                          ****END OF INPUT****

CARTESIAN COORDINATES (ANGSTROEM)
---------------------------------
  C     -1.416855   -2.887951   -0.685524
  C     -0.818048   -1.920952    0.350022
  C     -2.882714   -1.153226    0.118947
  C     -2.862878   -2.340045   -0.859377
  H     -0.841815   -2.889728   -1.609929
  H     -1.413789   -3.902250   -0.285949
  H     -3.080480   -2.026439   -1.881201
  H     -3.616257   -3.075754   -0.577731
  C     -2.009815   -1.653992    1.272087
  H     -1.820354   -0.907665    2.042112
  H     -2.396719   -2.564333    1.725694
  H      0.127831   -2.216387    0.784489
  H     -3.857012   -0.735590    0.358949
  N     -1.993449   -0.085525   -0.407493
  N     -0.713786   -0.614703   -0.342601
  C      0.300603    0.262623   -0.438086
  C      1.699176   -0.146099   -0.198958
  C      2.130106   -0.670702    1.020828
  C      2.624670    0.044113   -1.223683
  C      3.456340   -1.024538    1.198233
  H      1.437923   -0.777049    1.847454
  C      3.951766   -0.317508   -1.046700
  H      2.303696    0.468819   -2.167925
  C      4.367591   -0.854549    0.162368
  H      3.784810   -1.423674    2.149463
  H      4.661098   -0.173845   -1.851676
  H      5.404877   -1.130365    0.304627
  H      0.177128    0.964504   -1.255551
  H     -2.230384    0.237114   -1.343260
  C     -1.546924    1.827548    0.863138
  H     -2.197898    1.356082    1.584877
  C     -0.164977    1.761803    0.903652
  H      0.342843    1.322378    1.753067
  C      0.407926    2.983155    0.197655
  H      0.641160    3.752271    0.938684
  H      1.333796    2.778649   -0.344550
  C     -2.017206    2.974712    0.019115
  H     -2.383248    3.756346    0.695837
  C     -0.745462    3.434074   -0.716583
  H     -0.735455    4.505383   -0.909466
  H     -0.676952    2.942269   -1.691009
  H     -2.853953    2.730076   -0.639148

 Total Charge           Charge          ....    1
 Multiplicity           Mult            ....    1
 Number of Electrons    NEL             ....  138
 Basis Dimension        Dim             .... 2578

ORBITAL ENERGIES
----------------

  NO   OCC          E(Eh)            E(eV)
   0   2.0000     -15.766110      -429.0177
   1   2.0000     -15.755525      -428.7296
   2   2.0000     -11.462742      -311.9171
   3   2.0000     -11.408826      -310.4499
   4   2.0000     -11.408334      -310.4366
   5   2.0000     -11.404917      -310.3436
   6   2.0000     -11.372752      -309.4683
   7   2.0000     -11.361489      -309.1618
   8   2.0000     -11.361169      -309.1531
   9   2.0000     -11.360575      -309.1370
  10   2.0000     -11.355038      -308.9863
  11   2.0000     -11.351562      -308.8917
  12   2.0000     -11.351113      -308.8795
  13   2.0000     -11.350635      -308.8665
  14   2.0000     -11.349219      -308.8280
  15   2.0000     -11.348990      -308.8217
  16   2.0000     -11.347249      -308.7743
  17   2.0000     -11.342801      -308.6533
  18   2.0000     -11.341899      -308.6288
  19   2.0000      -1.516182       -41.2574
  20   2.0000      -1.310220       -35.6529
  21   2.0000      -1.273935       -34.6655
  22   2.0000      -1.267685       -34.4955
  23   2.0000      -1.247947       -33.9584
  24   2.0000      -1.165325       -31.7101
  25   2.0000      -1.140021       -31.0216
  26   2.0000      -1.112467       -30.2718
  27   2.0000      -1.103114       -30.0173
  28   2.0000      -1.094838       -29.7921
  29   2.0000      -1.080162       -29.3927
  30   2.0000      -1.005410       -27.3586
  31   2.0000      -0.966383       -26.2966
  32   2.0000      -0.953422       -25.9439
  33   2.0000      -0.923485       -25.1293
  34   2.0000      -0.916307       -24.9340
  35   2.0000      -0.904943       -24.6248
  36   2.0000      -0.881683       -23.9918
  37   2.0000      -0.858685       -23.3660
  38   2.0000      -0.836671       -22.7670
  39   2.0000      -0.817077       -22.2338
  40   2.0000      -0.805202       -21.9107
  41   2.0000      -0.797094       -21.6900
  42   2.0000      -0.783333       -21.3156
  43   2.0000      -0.763379       -20.7726
  44   2.0000      -0.755047       -20.5459
  45   2.0000      -0.739533       -20.1237
  46   2.0000      -0.721622       -19.6363
  47   2.0000      -0.710640       -19.3375
  48   2.0000      -0.700746       -19.0683
  49   2.0000      -0.692722       -18.8499
  50   2.0000      -0.681409       -18.5421
  51   2.0000      -0.669563       -18.2197
  52   2.0000      -0.663880       -18.0651
  53   2.0000      -0.655758       -17.8441
  54   2.0000      -0.641796       -17.4642
  55   2.0000      -0.635948       -17.3050
  56   2.0000      -0.632166       -17.2021
  57   2.0000      -0.623807       -16.9747
  58   2.0000      -0.622595       -16.9417
  59   2.0000      -0.616854       -16.7854
  60   2.0000      -0.613028       -16.6813
  61   2.0000      -0.608012       -16.5448
  62   2.0000      -0.602714       -16.4007
  63   2.0000      -0.599502       -16.3133
  64   2.0000      -0.591600       -16.0983
  65   2.0000      -0.519869       -14.1463
  66   2.0000      -0.462017       -12.5721
  67   2.0000      -0.457339       -12.4448
  68   2.0000      -0.450203       -12.2507
  69   0.0000      -0.071694        -1.9509
  70   0.0000      -0.063937        -1.7398
  71   0.0000      -0.057341        -1.5603
  72   0.0000      -0.051844        -1.4107
  73   0.0000      -0.048918        -1.3311

MULLIKEN ATOMIC CHARGES
-----------------------
   0 C :   -0.764601
   1 C :   -0.018013
   2 C :    0.001312
   3 C :   -0.729142
   4 H :    0.253538
   5 H :    0.220285
   6 H :    0.250235
   7 H :    0.224164
   8 C :   -0.761352
   9 H :    0.288518
  10 H :    0.140126
  11 H :    0.477740
  12 H :    0.403810
  13 N :   -0.444194
  14 N :   -0.039777
  15 C :    1.689958
  16 C :    0.815144
  17 C :   -0.767463
  18 C :   -0.641290
  19 C :   -0.359314
  20 H :    0.211185
  21 C :   -0.458512
  22 H :    0.246691
  23 C :   -0.418985
  24 H :    0.228362
  25 H :    0.227452
  26 H :    0.358432
  27 H :    0.151063
  28 H :    0.075265
  29 C :   -0.082134
  30 H :    0.376352
  31 C :    0.066202
  32 H :    0.390826
  33 C :   -0.858584
  34 H :    0.203383
  35 H :    0.353113
  36 C :   -0.746535
  37 H :    0.209640
  38 C :   -0.531463
  39 H :    0.349325
  40 H :    0.164458
  41 H :    0.244778
Sum of atomic charges:    1.0000000

LOEWDIN ATOMIC CHARGES
----------------------
   0 C :    0.595067
   1 C :    0.053607
   2 C :    0.053247
   3 C :    0.594156
   4 H :   -0.243321
   5 H :   -0.242030
   6 H :   -0.247307
   7 H :   -0.243239
   8 C :    0.567187
   9 H :   -0.246959
  10 H :   -0.229008
  11 H :   -0.278399
  12 H :   -0.220280
  13 N :    0.768469
  14 N :    0.403242
  15 C :    0.127449
  16 C :   -0.064633
  17 C :    0.346404
  18 C :    0.372243
  19 C :    0.389309
  20 H :   -0.313956
  21 C :    0.382405
  22 H :   -0.296722
  23 C :    0.375237
  24 H :   -0.304262
  25 H :   -0.306183
  26 H :   -0.303255
  27 H :   -0.359313
  28 H :   -0.428562
  29 C :    0.384920
  30 H :   -0.259810
  31 C :    0.304949
  32 H :   -0.287548
  33 C :    0.538722
  34 H :   -0.242761
  35 H :   -0.263769
  36 C :    0.570982
  37 H :   -0.246405
  38 C :    0.556217
  39 H :   -0.240607
  40 H :   -0.263202
  41 H :   -0.252283

  Mayer bond orders larger than 0.100000
B(  0-C ,  1-C ) :   0.3490 B(  0-C ,  2-C ) :  -0.2096 B(  0-C ,  3-C ) :   1.1622
B(  0-C ,  4-H ) :   1.0333 B(  0-C ,  5-H ) :   1.0692 B(  0-C ,  8-C ) :   0.1030
B(  1-C ,  3-C ) :  -0.2227 B(  1-C ,  8-C ) :   0.8403 B(  1-C , 11-H ) :   0.8675
B(  1-C , 14-N ) :   0.5896 B(  2-C ,  3-C ) :   0.6750 B(  2-C ,  8-C ) :   0.9227
B(  2-C , 12-H ) :   0.9005 B(  2-C , 13-N ) :   0.9937 B(  2-C , 14-N ) :  -0.1689
B(  3-C ,  6-H ) :   1.0037 B(  3-C ,  7-H ) :   1.0429 B(  3-C , 14-N ) :   0.1340
B(  8-C ,  9-H ) :   0.9544 B(  8-C , 10-H ) :   1.1138 B(  8-C , 14-N ) :  -0.1419
B( 13-N , 14-N ) :   1.0445 B( 13-N , 28-H ) :   1.1243 B( 13-N , 29-C ) :   0.1563
B( 13-N , 31-C ) :   0.1028 B( 14-N , 15-C ) :   0.9009 B( 14-N , 16-C ) :   0.1460
B( 14-N , 17-C ) :   0.1272 B( 14-N , 18-C ) :  -0.2145 B( 15-C , 16-C ) :  -0.2174
B( 15-C , 17-C ) :  -0.4954 B( 15-C , 18-C ) :  -0.1034 B( 15-C , 23-C ) :  -0.1183
B( 15-C , 27-H ) :   1.0484 B( 15-C , 31-C ) :   0.2705 B( 16-C , 17-C ) :   0.6525
B( 16-C , 18-C ) :   0.8144 B( 16-C , 19-C ) :  -0.4399 B( 16-C , 20-H ) :  -0.1096
B( 16-C , 21-C ) :  -0.3845 B( 16-C , 26-H ) :   0.1137 B( 16-C , 27-H ) :  -0.1178
B( 17-C , 19-C ) :   1.6327 B( 17-C , 20-H ) :   1.1483 B( 17-C , 21-C ) :   0.1826
B( 17-C , 24-H ) :  -0.1087 B( 17-C , 26-H ) :  -0.1052 B( 18-C , 19-C ) :   0.1997
B( 18-C , 21-C ) :   1.4417 B( 18-C , 22-H ) :   1.0627 B( 18-C , 23-C ) :   0.1295
B( 18-C , 25-H ) :  -0.1395 B( 18-C , 26-H ) :  -0.1200 B( 19-C , 23-C ) :   1.0934
B( 19-C , 24-H ) :   1.1401 B( 19-C , 26-H ) :  -0.1130 B( 21-C , 23-C ) :   1.1217
B( 21-C , 25-H ) :   1.1773 B( 23-C , 24-H ) :  -0.1130 B( 23-C , 26-H ) :   1.0269
B( 29-C , 30-H ) :   0.9877 B( 29-C , 31-C ) :   1.5961 B( 29-C , 33-C ) :   0.2184
B( 29-C , 36-C ) :   0.4679 B( 29-C , 37-H ) :  -0.1275 B( 29-C , 38-C ) :  -0.1241
B( 31-C , 32-H ) :   0.9615 B( 31-C , 33-C ) :   0.3056 B( 31-C , 38-C ) :  -0.1406
B( 33-C , 34-H ) :   1.0350 B( 33-C , 35-H ) :   0.9489 B( 33-C , 38-C ) :   1.0680
B( 36-C , 37-H ) :   1.0523 B( 36-C , 38-C ) :   1.0246 B( 36-C , 41-H ) :   1.0513
B( 38-C , 39-H ) :   0.8705 B( 38-C , 40-H ) :   1.0830

MP2 TOTAL ENERGY:     -769.470517729 Eh
FINAL SINGLE POINT ENERGY      -769.470517729274

DIPOLE MOMENT
-------------
                                X             Y             Z
Electronic contribution:      6.94317      -3.08658       0.35110
Nuclear contribution   :     -8.08046       3.05298      -0.38490
                        -----------------------------------------
Total Dipole Moment    :     -1.13729      -0.03360      -0.03380
                        -----------------------------------------
Magnitude (a.u.)       :      1.13829
Magnitude (Debye)      :      2.89330

Rotational constants in cm-1:     0.016329     0.011345     0.007771
Rotational constants in MHz :   489.523288   340.125148   232.978755

                             ****ORCA TERMINATED NORMALLY****
TOTAL RUN TIME: 0 days 11 hours 23 minutes 15 seconds 613 msec
