                         Program Version 4.2.1 -  RELEASE  -
|  1> %pal
|  2>  nprocs 32
|  3> end
|  4> !RI-MP2 aug-cc-pVQZ aug-cc-pVQZ/C TightSCF
|  5> %maxcore 4500
|  6> *xyzfile 0 1  03_30P2.xyz
|  7>
|  8>
|  9>                          ****END OF INPUT****

CARTESIAN COORDINATES (ANGSTROEM)
---------------------------------
  S      1.408561   -0.519481   -0.164514
  C     -0.300181   -0.594014    0.379620
  C     -1.266297    0.265291   -0.424372
  C     -2.693944    0.151790    0.099656
  H     -3.373899    0.775523   -0.483053
  H     -2.760173    0.473564    1.141984
  H     -3.057845   -0.877677    0.044881
  H     -0.934048    1.304778   -0.378255
  H     -1.221216   -0.033405   -1.474649
  H     -0.540850   -1.659893    0.283108
  H     -0.336140   -0.352400    1.444356
  F      1.694414    1.082534    0.191603

 Total Charge           Charge          ....    0
 Multiplicity           Mult            ....    1
 Number of Electrons    NEL             ....   50
 Basis Dimension        Dim             ....  726

ORBITAL ENERGIES
----------------

  NO   OCC          E(Eh)            E(eV)
   0   2.0000     -92.024264     -2504.1075
   1   2.0000     -26.291844      -715.4375
   2   2.0000     -11.271609      -306.7161
   3   2.0000     -11.235299      -305.7280
   4   2.0000     -11.224901      -305.4451
   5   2.0000      -9.018506      -245.4060
   6   2.0000      -6.700034      -182.3172
   7   2.0000      -6.698015      -182.2622
   8   2.0000      -6.696859      -182.2308
   9   2.0000      -1.580087       -42.9964
  10   2.0000      -1.098277       -29.8856
  11   2.0000      -1.001912       -27.2634
  12   2.0000      -0.883194       -24.0329
  13   2.0000      -0.815508       -22.1911
  14   2.0000      -0.679637       -18.4939
  15   2.0000      -0.671357       -18.2686
  16   2.0000      -0.662500       -18.0276
  17   2.0000      -0.631865       -17.1939
  18   2.0000      -0.589288       -16.0353
  19   2.0000      -0.559406       -15.2222
  20   2.0000      -0.554585       -15.0910
  21   2.0000      -0.505382       -13.7521
  22   2.0000      -0.491473       -13.3737
  23   2.0000      -0.462974       -12.5982
  24   2.0000      -0.365639        -9.9496
  25   0.0000       0.024827         0.6756
  26   0.0000       0.032448         0.8830
  27   0.0000       0.034654         0.9430
  28   0.0000       0.040958         1.1145
  29   0.0000       0.052943         1.4406

MULLIKEN ATOMIC CHARGES
-----------------------
   0 S :    0.419324
   1 C :   -0.459316
   2 C :   -0.335291
   3 C :   -0.854283
   4 H :    0.279107
   5 H :    0.235835
   6 H :    0.227813
   7 H :    0.291601
   8 H :    0.275450
   9 H :    0.324197
  10 H :    0.221679
  11 F :   -0.626116
Sum of atomic charges:   -0.0000000

LOEWDIN ATOMIC CHARGES
----------------------
   0 S :    0.760328
   1 C :    0.062415
   2 C :    0.405064
   3 C :    0.915058
   4 H :   -0.282302
   5 H :   -0.284955
   6 H :   -0.284542
   7 H :   -0.303377
   8 H :   -0.298798
   9 H :   -0.388439
  10 H :   -0.368377
  11 F :    0.067924

  Mayer bond orders larger than 0.100000
B(  0-S ,  1-C ) :   0.9438 B(  0-S , 11-F ) :   0.5949 B(  1-C ,  2-C ) :   0.9146
B(  1-C ,  9-H ) :   0.8562 B(  1-C , 10-H ) :   0.9141 B(  2-C ,  3-C ) :   0.9707
B(  2-C ,  7-H ) :   0.8692 B(  2-C ,  8-H ) :   0.8675 B(  3-C ,  4-H ) :   0.9570
B(  3-C ,  5-H ) :   0.9442 B(  3-C ,  6-H ) :   0.9562

MP2 TOTAL ENERGY:     -615.774539263 Eh
FINAL SINGLE POINT ENERGY      -615.774539262540

DIPOLE MOMENT
-------------
                                X             Y             Z
Electronic contribution:     12.98402       0.88003      -0.34028
Nuclear contribution   :    -13.90499      -1.41890       0.39320
                        -----------------------------------------
Total Dipole Moment    :     -0.92097      -0.53887       0.05293
                        -----------------------------------------
Magnitude (a.u.)       :      1.06835
Magnitude (Debye)      :      2.71553

Rotational constants in cm-1:     0.311668     0.063229     0.056655
Rotational constants in MHz :  9343.570701  1895.566387  1698.470766

                             ****ORCA TERMINATED NORMALLY****
TOTAL RUN TIME: 0 days 0 hours 8 minutes 4 seconds 448 msec
