                         Program Version 4.2.1 -  RELEASE  -
|  1> %pal
|  2>  nprocs 32
|  3> end
|  4> !RI-MP2 aug-cc-pVQZ aug-cc-pVQZ/C TightSCF
|  5> %maxcore 4500
|  6> *xyzfile 0 1  10_85R.xyz
|  7>
|  8>
|  9>                          ****END OF INPUT****

CARTESIAN COORDINATES (ANGSTROEM)
---------------------------------
  C      0.703494   -0.564040   -1.035512
  C      1.433980    0.216125   -0.246146
  C      2.612990   -0.310290    0.544942
  C      2.783171   -1.837200    0.385209
  C      2.545335   -2.200775   -1.087492
  C      1.018906   -2.039896   -1.141820
  C      1.072164    1.686268   -0.018592
  H      2.493261   -0.069658    1.606900
  H      3.525817    0.198596    0.217838
  H      3.761227   -2.138090    0.763156
  C      1.620765   -2.557522    1.045543
  H      3.068669   -1.548451   -1.788898
  H      2.830524   -3.236744   -1.276629
  C      0.616228   -2.676063    0.184868
  H      0.541769   -2.482826   -2.014253
  H     -0.379638   -3.046615    0.383321
  H      1.600838   -2.834311    2.092326
  C      2.253430    2.539244   -0.238336
  C      0.006788    2.120231   -0.935745
  N      3.190967    3.185874   -0.365118
  N     -0.857198    2.443344   -1.614972
  C      0.570080    1.935689    1.448902
  C     -0.607478    1.132519    1.722758
  C     -1.579029    0.442369    1.815477
  C     -2.794748   -0.358635    1.809074
  O     -3.608016   -0.015377    0.676442
  H     -2.554011   -1.421807    1.781638
  H     -3.413707   -0.146556    2.678955
  C     -3.208038   -0.512523   -0.513348
  C     -3.968549    0.101946   -1.644249
  O     -2.324435   -1.321538   -0.617539
  H     -3.936049   -0.557881   -2.507992
  H     -4.995354    0.320110   -1.356268
  H     -3.476088    1.044229   -1.899951
  H     -0.157746   -0.183271   -1.567224
  H      1.382475    1.690396    2.133278
  H      0.354300    2.998991    1.570011

 Total Charge           Charge          ....    0
 Multiplicity           Mult            ....    1
 Number of Electrons    NEL             ....  148
 Basis Dimension        Dim             .... 2416

ORBITAL ENERGIES
----------------

  NO   OCC          E(Eh)            E(eV)
   0   2.0000     -20.615244      -560.9693
   1   2.0000     -20.552576      -559.2640
   2   2.0000     -15.588478      -424.1841
   3   2.0000     -15.587596      -424.1600
   4   2.0000     -11.390582      -309.9535
   5   2.0000     -11.353050      -308.9322
   6   2.0000     -11.328219      -308.2565
   7   2.0000     -11.298729      -307.4541
   8   2.0000     -11.292961      -307.2971
   9   2.0000     -11.291179      -307.2486
  10   2.0000     -11.256653      -306.3091
  11   2.0000     -11.248642      -306.0911
  12   2.0000     -11.244095      -305.9674
  13   2.0000     -11.243200      -305.9430
  14   2.0000     -11.241781      -305.9044
  15   2.0000     -11.241695      -305.9021
  16   2.0000     -11.239483      -305.8419
  17   2.0000     -11.238470      -305.8143
  18   2.0000     -11.227013      -305.5025
  19   2.0000     -11.223984      -305.4201
  20   2.0000     -11.221927      -305.3642
  21   2.0000      -1.476823       -40.1864
  22   2.0000      -1.374714       -37.4079
  23   2.0000      -1.258907       -34.2566
  24   2.0000      -1.238866       -33.7113
  25   2.0000      -1.190615       -32.3983
  26   2.0000      -1.156170       -31.4610
  27   2.0000      -1.090218       -29.6664
  28   2.0000      -1.057786       -28.7838
  29   2.0000      -1.030200       -28.0332
  30   2.0000      -1.028228       -27.9795
  31   2.0000      -0.990789       -26.9608
  32   2.0000      -0.967846       -26.3364
  33   2.0000      -0.938919       -25.5493
  34   2.0000      -0.883757       -24.0483
  35   2.0000      -0.826802       -22.4984
  36   2.0000      -0.805548       -21.9201
  37   2.0000      -0.786301       -21.3963
  38   2.0000      -0.733305       -19.9542
  39   2.0000      -0.728026       -19.8106
  40   2.0000      -0.721824       -19.6418
  41   2.0000      -0.719322       -19.5737
  42   2.0000      -0.709789       -19.3143
  43   2.0000      -0.697336       -18.9755
  44   2.0000      -0.667919       -18.1750
  45   2.0000      -0.657297       -17.8860
  46   2.0000      -0.650276       -17.6949
  47   2.0000      -0.628763       -17.1095
  48   2.0000      -0.622440       -16.9375
  49   2.0000      -0.614782       -16.7291
  50   2.0000      -0.612376       -16.6636
  51   2.0000      -0.585351       -15.9282
  52   2.0000      -0.582577       -15.8527
  53   2.0000      -0.576656       -15.6916
  54   2.0000      -0.571269       -15.5450
  55   2.0000      -0.558904       -15.2085
  56   2.0000      -0.556763       -15.1503
  57   2.0000      -0.553767       -15.0688
  58   2.0000      -0.543300       -14.7840
  59   2.0000      -0.538889       -14.6639
  60   2.0000      -0.507823       -13.8186
  61   2.0000      -0.500251       -13.6125
  62   2.0000      -0.495477       -13.4826
  63   2.0000      -0.489580       -13.3221
  64   2.0000      -0.486552       -13.2398
  65   2.0000      -0.483171       -13.1477
  66   2.0000      -0.476695       -12.9715
  67   2.0000      -0.464304       -12.6344
  68   2.0000      -0.463578       -12.6146
  69   2.0000      -0.458417       -12.4742
  70   2.0000      -0.407638       -11.0924
  71   2.0000      -0.401070       -10.9137
  72   2.0000      -0.369855       -10.0643
  73   2.0000      -0.340108        -9.2548
  74   0.0000       0.018313         0.4983
  75   0.0000       0.023904         0.6505
  76   0.0000       0.025449         0.6925
  77   0.0000       0.029539         0.8038
  78   0.0000       0.034396         0.9360

MULLIKEN ATOMIC CHARGES
-----------------------
   0 C :   -0.845962
   1 C :    1.324538
   2 C :   -0.478920
   3 C :   -0.009969
   4 C :   -0.889180
   5 C :    0.156949
   6 C :   -0.083931
   7 H :    0.266796
   8 H :    0.228220
   9 H :    0.273365
  10 C :   -0.642136
  11 H :    0.280334
  12 H :    0.216394
  13 C :   -0.526890
  14 H :    0.342623
  15 H :    0.391644
  16 H :    0.186578
  17 C :    0.866418
  18 C :    0.900672
  19 N :   -1.040176
  20 N :   -1.117490
  21 C :   -0.385880
  22 C :   -0.131955
  23 C :   -0.207403
  24 C :   -0.102600
  25 O :   -0.961726
  26 H :    0.203000
  27 H :    0.453553
  28 C :    1.379169
  29 C :   -0.792029
  30 O :   -1.022090
  31 H :    0.295296
  32 H :    0.328909
  33 H :    0.325436
  34 H :    0.272955
  35 H :    0.272941
  36 H :    0.272549
Sum of atomic charges:   -0.0000000

LOEWDIN ATOMIC CHARGES
----------------------
   0 C :    0.383091
   1 C :   -0.047316
   2 C :    0.520355
   3 C :    0.122189
   4 C :    0.512526
   5 C :    0.115092
   6 C :   -0.447096
   7 H :   -0.276606
   8 H :   -0.266386
   9 H :   -0.245992
  10 C :    0.412766
  11 H :   -0.242062
  12 H :   -0.246559
  13 C :    0.401543
  14 H :   -0.253126
  15 H :   -0.293138
  16 H :   -0.280095
  17 C :   -0.305826
  18 C :   -0.341573
  19 N :    0.484965
  20 N :    0.520817
  21 C :    0.426143
  22 C :    0.177837
  23 C :    0.177419
  24 C :    0.104881
  25 O :    0.862056
  26 H :   -0.354788
  27 H :   -0.328636
  28 C :   -1.057550
  29 C :    0.879922
  30 O :    0.752907
  31 H :   -0.309122
  32 H :   -0.304949
  33 H :   -0.308766
  34 H :   -0.360728
  35 H :   -0.304959
  36 H :   -0.279235

  Mayer bond orders larger than 0.100000
B(  0-C ,  1-C ) :   0.9556 B(  0-C ,  2-C ) :  -0.1618 B(  0-C ,  5-C ) :   0.8519
B(  0-C ,  6-C ) :  -0.1873 B(  0-C , 13-C ) :   0.1083 B(  0-C , 14-H ) :  -0.1583
B(  0-C , 17-C ) :  -0.1054 B(  0-C , 18-C ) :   0.1166 B(  0-C , 20-N ) :   0.1012
B(  0-C , 30-O ) :  -0.1931 B(  0-C , 34-H ) :   0.9248 B(  1-C ,  2-C ) :   0.2063
B(  1-C ,  3-C ) :  -0.1343 B(  1-C ,  4-C ) :  -0.1421 B(  1-C ,  5-C ) :  -0.3148
B(  1-C ,  6-C ) :   0.2181 B(  1-C ,  8-H ) :  -0.1672 B(  1-C , 10-C ) :   0.1552
B(  1-C , 13-C ) :   0.1025 B(  1-C , 17-C ) :  -0.3868 B(  1-C , 18-C ) :  -0.1269
B(  1-C , 34-H ) :  -0.1936 B(  2-C ,  3-C ) :   0.8272 B(  2-C ,  7-H ) :   1.0365
B(  2-C ,  8-H ) :   1.0807 B(  3-C ,  4-C ) :   0.9324 B(  3-C ,  9-H ) :   1.0352
B(  3-C , 10-C ) :   0.9084 B(  3-C , 13-C ) :  -0.1533 B(  4-C ,  5-C ) :   0.8674
B(  4-C , 11-H ) :   0.9757 B(  4-C , 12-H ) :   1.0310 B(  4-C , 13-C ) :   0.1196
B(  5-C , 10-C ) :  -0.1392 B(  5-C , 13-C ) :   0.8041 B(  5-C , 14-H ) :   0.9947
B(  6-C , 17-C ) :   1.4153 B(  6-C , 18-C ) :   1.2240 B(  6-C , 19-N ) :   0.3296
B(  6-C , 20-N ) :   0.2170 B(  6-C , 21-C ) :   0.7007 B(  6-C , 35-H ) :  -0.1232
B( 10-C , 13-C ) :   1.4182 B( 10-C , 15-H ) :  -0.1356 B( 10-C , 16-H ) :   1.2109
B( 13-C , 15-H ) :   0.9107 B( 17-C , 19-N ) :   1.6232 B( 17-C , 21-C ) :   0.1040
B( 18-C , 20-N ) :   1.7848 B( 21-C , 22-C ) :   0.6304 B( 21-C , 35-H ) :   1.0175
B( 21-C , 36-H ) :   1.0479 B( 22-C , 23-C ) :   3.0411 B( 22-C , 25-O ) :   0.1041
B( 23-C , 24-C ) :   0.4759 B( 23-C , 27-H ) :  -0.2437 B( 24-C , 25-O ) :   0.6686
B( 24-C , 26-H ) :   1.0951 B( 24-C , 27-H ) :   0.9110 B( 25-O , 28-C ) :   0.6411
B( 28-C , 29-C ) :   0.6533 B( 28-C , 30-O ) :   1.2807 B( 28-C , 31-H ) :  -0.1016
B( 28-C , 32-H ) :  -0.1007 B( 29-C , 31-H ) :   0.9987 B( 29-C , 32-H ) :   0.9659
B( 29-C , 33-H ) :   0.8322

MP2 TOTAL ENERGY:     -915.766993749 Eh
FINAL SINGLE POINT ENERGY      -915.766993749147

DIPOLE MOMENT
-------------
                                X             Y             Z
Electronic contribution:     -1.38604      10.12883       0.29247
Nuclear contribution   :      0.56167     -11.30544       0.79870
                        -----------------------------------------
Total Dipole Moment    :     -0.82437      -1.17661       1.09117
                        -----------------------------------------
Magnitude (a.u.)       :      1.80406
Magnitude (Debye)      :      4.58556

Rotational constants in cm-1:     0.013927     0.009490     0.007365
Rotational constants in MHz :   417.506895   284.488533   220.806782

                             ****ORCA TERMINATED NORMALLY****
TOTAL RUN TIME: 0 days 7 hours 58 minutes 28 seconds 732 msec
