                         Program Version 4.2.1 -  RELEASE  -
|  1> %pal
|  2>  nprocs 32
|  3> end
|  4> !RI-MP2 aug-cc-pVQZ aug-cc-pVQZ/C TightSCF
|  5> %maxcore 4500
|  6> *xyzfile 0 1  09_26TS.xyz
|  7>
|  8>
|  9>                          ****END OF INPUT****

CARTESIAN COORDINATES (ANGSTROEM)
---------------------------------
  C     -0.688438    1.844416   -0.175500
  C     -0.456469    0.527385    0.512351
  C      0.731564    0.296984    1.213443
  C      2.003956    0.196335   -0.312895
  C      3.326535    0.164667    0.458224
  C      4.454727    0.006746   -0.538255
  N     -1.301221   -0.477514    0.345639
  C     -2.545546   -0.449975   -0.406126
  C     -3.748356   -0.059779    0.447790
  H     -2.697419   -1.443624   -0.832032
  H     -2.435607    0.237380   -1.246119
  C     -5.037428   -0.044615   -0.364194
  H     -3.568904    0.922576    0.896902
  H     -3.840063   -0.768489    1.276957
  C     -6.244654    0.351013    0.480879
  H     -5.215081   -1.026563   -0.804420
  H     -4.936524    0.663402   -1.195829
  C     -7.574319    0.380287   -0.279071
  H     -6.080572    1.352713    0.891817
  H     -6.336414   -0.329727    1.334394
  C     -8.093564   -1.031397   -0.606338
  N     -8.641901    1.128128    0.394064
  H     -7.414057    0.853886   -1.253423
  O     -7.379106   -1.945662   -0.910462
  O     -9.418222   -1.142558   -0.548897
  H     -9.743230   -0.271348   -0.235410
  O      0.294143    2.790099    0.114748
  H     -1.661333    2.243841    0.125117
  H     -0.725880    1.643287   -1.255168
  H      1.081552    2.497199   -0.395190
  O      0.732623   -0.918898    1.889801
  H      1.143566    1.152801    1.739682
  H      1.659151   -1.194904    1.981577
  O      1.894341    1.142954   -1.145086
  H      1.663075   -0.820480   -0.589565
  O      3.346976   -0.921028    1.382069
  H      3.452380    1.114054    0.988615
  H      4.240360   -0.993959    1.734564
  O      5.658497   -0.143354    0.252061
  H      4.530041    0.881726   -1.180245
  H      4.312749   -0.892594   -1.143208
  H     -8.625124    2.112150    0.160656
  H     -8.576165    1.045912    1.403185
  P      7.086568   -0.264556   -0.466383
  O      8.064387   -0.190301    0.799018
  H      8.267508    0.705244    1.089211
  O      7.233125   -1.795859   -0.888023
  H      7.195066   -2.428975   -0.163073
  O      7.311460    0.672128   -1.565148
  H     -1.059576   -1.314035    0.866339

 Total Charge           Charge          ....    0
 Multiplicity           Mult            ....    1
 Number of Electrons    NEL             ....  206
 Basis Dimension        Dim             .... 3154

ORBITAL ENERGIES
----------------

  NO   OCC          E(Eh)            E(eV)
   0   2.0000     -80.103804     -2179.7353
   1   2.0000     -20.610982      -560.8533
   2   2.0000     -20.608084      -560.7745
   3   2.0000     -20.601857      -560.6050
   4   2.0000     -20.598860      -560.5235
   5   2.0000     -20.580362      -560.0201
   6   2.0000     -20.558647      -559.4292
   7   2.0000     -20.541852      -558.9722
   8   2.0000     -20.539683      -558.9132
   9   2.0000     -20.511559      -558.1479
  10   2.0000     -20.473526      -557.1130
  11   2.0000     -15.621408      -425.0801
  12   2.0000     -15.591666      -424.2708
  13   2.0000     -11.382445      -309.7321
  14   2.0000     -11.329845      -308.3008
  15   2.0000     -11.313862      -307.8658
  16   2.0000     -11.303354      -307.5799
  17   2.0000     -11.298325      -307.4430
  18   2.0000     -11.296906      -307.4044
  19   2.0000     -11.292978      -307.2976
  20   2.0000     -11.292292      -307.2789
  21   2.0000     -11.267540      -306.6054
  22   2.0000     -11.254004      -306.2370
  23   2.0000     -11.247960      -306.0725
  24   2.0000     -11.240036      -305.8569
  25   2.0000      -7.620303      -207.3590
  26   2.0000      -5.519423      -150.1911
  27   2.0000      -5.518970      -150.1788
  28   2.0000      -5.517617      -150.1420
  29   2.0000      -1.464309       -39.8459
  30   2.0000      -1.463436       -39.8221
  31   2.0000      -1.405554       -38.2471
  32   2.0000      -1.391925       -37.8762
  33   2.0000      -1.385991       -37.7147
  34   2.0000      -1.372713       -37.3534
  35   2.0000      -1.367109       -37.2009
  36   2.0000      -1.361546       -37.0495
  37   2.0000      -1.314457       -35.7682
  38   2.0000      -1.301906       -35.4267
  39   2.0000      -1.295705       -35.2579
  40   2.0000      -1.235172       -33.6107
  41   2.0000      -1.113490       -30.2996
  42   2.0000      -1.064823       -28.9753
  43   2.0000      -1.039934       -28.2980
  44   2.0000      -1.017686       -27.6926
  45   2.0000      -0.961899       -26.1746
  46   2.0000      -0.941520       -25.6201
  47   2.0000      -0.911772       -24.8106
  48   2.0000      -0.883623       -24.0446
  49   2.0000      -0.844082       -22.9686
  50   2.0000      -0.831916       -22.6376
  51   2.0000      -0.816311       -22.2129
  52   2.0000      -0.800945       -21.7948
  53   2.0000      -0.794901       -21.6303
  54   2.0000      -0.772127       -21.0106
  55   2.0000      -0.757049       -20.6004
  56   2.0000      -0.743178       -20.2229
  57   2.0000      -0.735703       -20.0195
  58   2.0000      -0.719918       -19.5900
  59   2.0000      -0.712862       -19.3980
  60   2.0000      -0.700561       -19.0632
  61   2.0000      -0.696237       -18.9456
  62   2.0000      -0.690684       -18.7945
  63   2.0000      -0.679594       -18.4927
  64   2.0000      -0.670206       -18.2372
  65   2.0000      -0.668586       -18.1931
  66   2.0000      -0.649990       -17.6871
  67   2.0000      -0.640193       -17.4205
  68   2.0000      -0.638996       -17.3880
  69   2.0000      -0.634418       -17.2634
  70   2.0000      -0.629285       -17.1237
  71   2.0000      -0.612997       -16.6805
  72   2.0000      -0.611620       -16.6430
  73   2.0000      -0.607449       -16.5295
  74   2.0000      -0.602137       -16.3850
  75   2.0000      -0.599948       -16.3254
  76   2.0000      -0.590511       -16.0686
  77   2.0000      -0.583463       -15.8768
  78   2.0000      -0.579020       -15.7559
  79   2.0000      -0.567172       -15.4335
  80   2.0000      -0.561678       -15.2840
  81   2.0000      -0.557505       -15.1705
  82   2.0000      -0.554741       -15.0953
  83   2.0000      -0.552243       -15.0273
  84   2.0000      -0.544441       -14.8150
  85   2.0000      -0.534436       -14.5427
  86   2.0000      -0.529480       -14.4079
  87   2.0000      -0.519164       -14.1272
  88   2.0000      -0.516261       -14.0482
  89   2.0000      -0.507155       -13.8004
  90   2.0000      -0.502043       -13.6613
  91   2.0000      -0.499775       -13.5996
  92   2.0000      -0.479902       -13.0588
  93   2.0000      -0.477124       -12.9832
  94   2.0000      -0.475008       -12.9256
  95   2.0000      -0.471765       -12.8374
  96   2.0000      -0.469455       -12.7745
  97   2.0000      -0.461545       -12.5593
  98   2.0000      -0.451845       -12.2953
  99   2.0000      -0.447405       -12.1745
 100   2.0000      -0.426145       -11.5960
 101   2.0000      -0.379413       -10.3243
 102   2.0000      -0.305802        -8.3213
 103   0.0000       0.009113         0.2480
 104   0.0000       0.018830         0.5124
 105   0.0000       0.020384         0.5547
 106   0.0000       0.025510         0.6942
 107   0.0000       0.027270         0.7420

MULLIKEN ATOMIC CHARGES
-----------------------
   0 C :    0.359019
   1 C :    0.002892
   2 C :    0.964678
   3 C :    0.823362
   4 C :    0.642616
   5 C :    0.076141
   6 N :   -0.596926
   7 C :   -0.461219
   8 C :   -0.548660
   9 H :    0.383694
  10 H :    0.313795
  11 C :   -0.134914
  12 H :    0.260110
  13 H :    0.340344
  14 C :   -0.718539
  15 H :    0.394907
  16 H :    0.227721
  17 C :    0.088540
  18 H :    0.253243
  19 H :    0.212937
  20 C :    1.343084
  21 N :   -0.826195
  22 H :    0.306391
  23 O :   -0.933615
  24 O :   -0.928209
  25 H :    0.385319
  26 O :   -1.149540
  27 H :    0.322349
  28 H :    0.076988
  29 H :    0.399036
  30 O :   -1.239628
  31 H :    0.249000
  32 H :    0.341195
  33 O :   -1.289640
  34 H :    0.152043
  35 O :   -0.862186
  36 H :    0.187865
  37 H :    0.260978
  38 O :   -0.997758
  39 H :    0.374110
  40 H :    0.161488
  41 H :    0.203226
  42 H :    0.269422
  43 P :    2.639669
  44 O :   -1.003550
  45 H :    0.399942
  46 O :   -0.941893
  47 H :    0.395932
  48 O :   -1.218587
  49 H :    0.039021
Sum of atomic charges:    0.0000000

LOEWDIN ATOMIC CHARGES
----------------------
   0 C :    0.174478
   1 C :   -0.176014
   2 C :   -0.115523
   3 C :   -0.378674
   4 C :   -0.250456
   5 C :    0.125587
   6 N :    0.926334
   7 C :    0.438406
   8 C :    0.549174
   9 H :   -0.252949
  10 H :   -0.300205
  11 C :    0.527640
  12 H :   -0.269795
  13 H :   -0.253120
  14 C :    0.514909
  15 H :   -0.324911
  16 H :   -0.252217
  17 C :   -0.036884
  18 H :   -0.270001
  19 H :   -0.259624
  20 C :   -1.001830
  21 N :    1.299585
  22 H :   -0.287716
  23 O :    0.712053
  24 O :    1.261689
  25 H :   -0.951654
  26 O :    1.299883
  27 H :   -0.299942
  28 H :   -0.295870
  29 H :   -1.087340
  30 O :    1.299285
  31 H :   -0.339690
  32 H :   -0.987318
  33 O :    0.819016
  34 H :   -0.327571
  35 O :    1.352498
  36 H :   -0.296726
  37 H :   -0.783278
  38 O :    0.696271
  39 H :   -0.307124
  40 H :   -0.284415
  41 H :   -0.453918
  42 H :   -0.460124
  43 P :   -0.942136
  44 O :    1.092005
  45 H :   -0.852807
  46 O :    1.093421
  47 H :   -0.853878
  48 O :    0.298195
  49 H :   -0.526718

  Mayer bond orders larger than 0.100000
B(  0-C ,  1-C ) :   0.4910 B(  0-C , 26-O ) :   0.3384 B(  0-C , 27-H ) :   0.9741
B(  0-C , 28-H ) :   1.0943 B(  1-C ,  2-C ) :   0.9131 B(  1-C ,  6-N ) :   0.5746
B(  1-C , 26-O ) :  -0.1542 B(  1-C , 28-H ) :  -0.2348 B(  1-C , 30-O ) :   0.4103
B(  1-C , 49-H ) :  -0.1298 B(  2-C ,  3-C ) :   0.6492 B(  2-C ,  6-N ) :  -0.1288
B(  2-C , 26-O ) :   0.1205 B(  2-C , 31-H ) :   0.9800 B(  2-C , 33-O ) :   0.1274
B(  3-C ,  4-C ) :   0.7111 B(  3-C , 33-O ) :   0.4061 B(  3-C , 34-H ) :   1.0688
B(  3-C , 35-O ) :   0.1387 B(  4-C ,  5-C ) :   1.0404 B(  4-C , 36-H ) :   1.0618
B(  5-C , 35-O ) :   0.1751 B(  5-C , 38-O ) :   0.6018 B(  5-C , 39-H ) :   0.8253
B(  5-C , 40-H ) :   0.8856 B(  5-C , 46-O ) :  -0.1055 B(  6-N ,  7-C ) :   0.8852
B(  6-N , 49-H ) :   1.1967 B(  7-C ,  8-C ) :   1.2791 B(  7-C ,  9-H ) :   0.8305
B(  7-C , 10-H ) :   0.8833 B(  7-C , 12-H ) :   0.1053 B(  8-C , 11-C ) :   0.9877
B(  8-C , 12-H ) :   0.8338 B(  8-C , 13-H ) :   0.7986 B( 11-C , 14-C ) :   0.9707
B( 11-C , 15-H ) :   0.7659 B( 11-C , 16-H ) :   0.8871 B( 11-C , 17-C ) :  -0.1720
B( 14-C , 17-C ) :   1.2343 B( 14-C , 18-H ) :   0.8889 B( 14-C , 19-H ) :   0.8380
B( 15-H , 23-O ) :  -0.1649 B( 17-C , 20-C ) :   1.0434 B( 17-C , 21-N ) :   0.5157
B( 17-C , 22-H ) :   0.8250 B( 17-C , 23-O ) :   0.2230 B( 17-C , 24-O ) :   0.1674
B( 20-C , 23-O ) :   1.2632 B( 20-C , 24-O ) :   0.4933 B( 21-N , 25-H ) :   0.1266
B( 21-N , 41-H ) :   1.0180 B( 21-N , 42-H ) :   0.8919 B( 23-O , 24-O ) :   0.1080
B( 24-O , 25-H ) :   0.7381 B( 26-O , 29-H ) :   0.7103 B( 29-H , 33-O ) :   0.1314
B( 30-O , 32-H ) :   0.9053 B( 32-H , 35-O ) :   0.1131 B( 35-O , 37-H ) :   1.0112
B( 38-O , 43-P ) :   0.8298 B( 40-H , 46-O ) :   0.1413 B( 43-P , 44-O ) :   0.4957
B( 43-P , 46-O ) :   0.5921 B( 43-P , 48-O ) :   1.3148 B( 44-O , 45-H ) :   0.8809
B( 46-O , 47-H ) :   0.8572

MP2 TOTAL ENERGY:    -1673.306152854 Eh
FINAL SINGLE POINT ENERGY     -1673.306152853603

DIPOLE MOMENT
-------------
                                X             Y             Z
Electronic contribution:     39.79490      -5.78133      -2.25278
Nuclear contribution   :    -41.74432       6.13595       4.61704
                        -----------------------------------------
Total Dipole Moment    :     -1.94942       0.35463       2.36427
                        -----------------------------------------
Magnitude (a.u.)       :      3.08476
Magnitude (Debye)      :      7.84084

Rotational constants in cm-1:     0.023474     0.001373     0.001354
Rotational constants in MHz :   703.728973    41.152090    40.589251

                             ****ORCA TERMINATED NORMALLY****
TOTAL RUN TIME: 0 days 10 hours 22 minutes 44 seconds 735 msec
