                         Program Version 4.2.1 -  RELEASE  -
|  1> %pal
|  2>  nprocs 32
|  3> end
|  4> !RI-MP2 aug-cc-pVQZ aug-cc-pVQZ/C TightSCF
|  5> %maxcore 4500
|  6> *xyzfile 0 1  10_60P.xyz
|  7>
|  8>
|  9>                          ****END OF INPUT****

CARTESIAN COORDINATES (ANGSTROEM)
---------------------------------
  C      0.594825   -1.407380    0.496480
  C     -0.752360   -1.401904   -0.227166
  C     -1.531967   -0.158235    0.127836
  C     -2.825366   -0.078717   -0.088549
  C      2.680327   -0.242868   -0.041794
  C      1.377830   -0.155308    0.167821
  C     -0.764893    0.993099    0.729724
  F     -3.590495    0.971747    0.179215
  F      3.374795   -1.370401    0.013837
  C      0.611006    1.108806    0.111947
  C      1.022321    2.253699   -0.430034
  F      3.496328    0.755374   -0.326364
  F     -3.565875   -1.047827   -0.611775
  H      0.370482    3.118608   -0.427494
  H      1.994285    2.372137   -0.885565
  H     -0.575865   -1.432619   -1.307247
  H     -1.320713   -2.298656    0.024768
  H      0.426911   -1.461102    1.577544
  H      1.164025   -2.294495    0.223988
  H     -0.653053    0.820485    1.807562
  H     -1.309195    1.928464    0.614641

 Total Charge           Charge          ....    0
 Multiplicity           Mult            ....    1
 Number of Electrons    NEL             ....   98
 Basis Dimension        Dim             .... 1408

ORBITAL ENERGIES
----------------

  NO   OCC          E(Eh)            E(eV)
   0   2.0000     -26.345682      -716.9025
   1   2.0000     -26.343516      -716.8435
   2   2.0000     -26.336339      -716.6482
   3   2.0000     -26.335916      -716.6367
   4   2.0000     -11.419585      -310.7427
   5   2.0000     -11.406058      -310.3746
   6   2.0000     -11.261207      -306.4330
   7   2.0000     -11.258725      -306.3655
   8   2.0000     -11.253247      -306.2164
   9   2.0000     -11.251727      -306.1750
  10   2.0000     -11.250793      -306.1497
  11   2.0000     -11.248693      -306.0925
  12   2.0000     -11.229828      -305.5791
  13   2.0000      -1.703479       -46.3540
  14   2.0000      -1.692127       -46.0451
  15   2.0000      -1.638482       -44.5854
  16   2.0000      -1.629118       -44.3306
  17   2.0000      -1.174309       -31.9546
  18   2.0000      -1.103843       -30.0371
  19   2.0000      -1.064827       -28.9754
  20   2.0000      -1.006834       -27.3973
  21   2.0000      -0.952182       -25.9102
  22   2.0000      -0.908494       -24.7214
  23   2.0000      -0.864596       -23.5269
  24   2.0000      -0.839231       -22.8366
  25   2.0000      -0.803179       -21.8556
  26   2.0000      -0.794636       -21.6232
  27   2.0000      -0.781622       -21.2690
  28   2.0000      -0.765292       -20.8247
  29   2.0000      -0.756949       -20.5976
  30   2.0000      -0.731321       -19.9003
  31   2.0000      -0.695993       -18.9389
  32   2.0000      -0.691840       -18.8259
  33   2.0000      -0.684346       -18.6220
  34   2.0000      -0.680562       -18.5190
  35   2.0000      -0.665383       -18.1060
  36   2.0000      -0.662294       -18.0219
  37   2.0000      -0.648314       -17.6415
  38   2.0000      -0.627543       -17.0763
  39   2.0000      -0.613620       -16.6974
  40   2.0000      -0.573130       -15.5957
  41   2.0000      -0.566902       -15.4262
  42   2.0000      -0.551640       -15.0109
  43   2.0000      -0.525876       -14.3098
  44   2.0000      -0.510232       -13.8841
  45   2.0000      -0.494571       -13.4580
  46   2.0000      -0.434367       -11.8197
  47   2.0000      -0.365222        -9.9382
  48   2.0000      -0.332759        -9.0548
  49   0.0000       0.024377         0.6633
  50   0.0000       0.028189         0.7671
  51   0.0000       0.030986         0.8432
  52   0.0000       0.036970         1.0060
  53   0.0000       0.044993         1.2243

MULLIKEN ATOMIC CHARGES
-----------------------
   0 C :   -0.182930
   1 C :   -0.271603
   2 C :   -1.008413
   3 C :    1.890588
   4 C :    1.843859
   5 C :   -0.674551
   6 C :   -0.121691
   7 F :   -0.709258
   8 F :   -0.715808
   9 C :    0.217419
  10 C :   -0.993403
  11 F :   -0.694442
  12 F :   -0.711362
  13 H :    0.285931
  14 H :    0.365524
  15 H :    0.217861
  16 H :    0.288360
  17 H :    0.208524
  18 H :    0.248719
  19 H :    0.264753
  20 H :    0.251924
Sum of atomic charges:    0.0000000

LOEWDIN ATOMIC CHARGES
----------------------
   0 C :    0.469106
   1 C :    0.491219
   2 C :   -0.142391
   3 C :   -1.251023
   4 C :   -1.253440
   5 C :   -0.167089
   6 C :    0.441601
   7 F :    0.758314
   8 F :    0.773067
   9 C :   -0.078382
  10 C :    0.817058
  11 F :    0.791595
  12 F :    0.756791
  13 H :   -0.338335
  14 H :   -0.389334
  15 H :   -0.258225
  16 H :   -0.275089
  17 H :   -0.258757
  18 H :   -0.301138
  19 H :   -0.259866
  20 H :   -0.325679

  Mayer bond orders larger than 0.100000
B(  0-C ,  1-C ) :   1.1351 B(  0-C ,  4-C ) :  -0.2011 B(  0-C ,  5-C ) :   0.5719
B(  0-C , 17-H ) :   0.9057 B(  0-C , 18-H ) :   1.0078 B(  1-C ,  2-C ) :   0.5737
B(  1-C ,  3-C ) :  -0.2144 B(  1-C , 15-H ) :   0.9082 B(  1-C , 16-H ) :   0.9517
B(  2-C ,  3-C ) :   2.0692 B(  2-C ,  6-C ) :   0.7756 B(  2-C ,  7-F ) :   0.3440
B(  2-C ,  9-C ) :  -0.2232 B(  2-C , 12-F ) :   0.3384 B(  3-C ,  6-C ) :  -0.1760
B(  3-C ,  7-F ) :   0.1192 B(  3-C , 12-F ) :   0.1586 B(  4-C ,  5-C ) :   2.0123
B(  4-C ,  8-F ) :   0.1737 B(  4-C ,  9-C ) :  -0.2431 B(  4-C , 11-F ) :   0.1711
B(  5-C ,  8-F ) :   0.2591 B(  5-C ,  9-C ) :   0.5439 B(  5-C , 10-C ) :  -0.1225
B(  5-C , 11-F ) :   0.2908 B(  5-C , 18-H ) :  -0.1192 B(  6-C ,  9-C ) :   0.7881
B(  6-C , 19-H ) :   0.8524 B(  6-C , 20-H ) :   1.0491 B(  9-C , 10-C ) :   1.4880
B(  9-C , 13-H ) :  -0.1015 B(  9-C , 14-H ) :  -0.1401 B(  9-C , 20-H ) :  -0.1173
B( 10-C , 13-H ) :   1.0454 B( 10-C , 14-H ) :   0.9772

MP2 TOTAL ENERGY:     -746.118170992 Eh
FINAL SINGLE POINT ENERGY      -746.118170992268

DIPOLE MOMENT
-------------
                                X             Y             Z
Electronic contribution:     -0.24843      -1.49976      -1.99960
Nuclear contribution   :      0.36262       1.37482       2.26434
                        -----------------------------------------
Total Dipole Moment    :      0.11419      -0.12494       0.26474
                        -----------------------------------------
Magnitude (a.u.)       :      0.31422
Magnitude (Debye)      :      0.79869

Rotational constants in cm-1:     0.058520     0.013541     0.011469
Rotational constants in MHz :  1754.391184   405.938843   343.843993

                             ****ORCA TERMINATED NORMALLY****
TOTAL RUN TIME: 0 days 1 hours 15 minutes 49 seconds 779 msec
