                         Program Version 4.2.1 -  RELEASE  -
|  1> %pal
|  2>  nprocs 32
|  3> end
|  4> !RI-MP2 aug-cc-pVQZ aug-cc-pVQZ/C TightSCF
|  5> %maxcore 4500
|  6> *xyzfile 0 1  10_2P2.xyz
|  7>
|  8>
|  9>                          ****END OF INPUT****

CARTESIAN COORDINATES (ANGSTROEM)
---------------------------------
  O      0.000000    0.000000    0.116267
  H      0.000000    0.764465   -0.465070
  H      0.000000   -0.764465   -0.465070

 Total Charge           Charge          ....    0
 Multiplicity           Mult            ....    1
 Number of Electrons    NEL             ....   10
 Basis Dimension        Dim             ....  172

ORBITAL ENERGIES
----------------

  NO   OCC          E(Eh)            E(eV)
   0   2.0000     -20.564864      -559.5984
   1   2.0000      -1.350547       -36.7503
   2   2.0000      -0.717972       -19.5370
   3   2.0000      -0.582470       -15.8498
   4   2.0000      -0.509940       -13.8762
   5   0.0000       0.026968         0.7338
   6   0.0000       0.043020         1.1706
   7   0.0000       0.114316         3.1107
   8   0.0000       0.133234         3.6255
   9   0.0000       0.150850         4.1048

MULLIKEN ATOMIC CHARGES
-----------------------
   0 O :   -0.585392
   1 H :    0.292696
   2 H :    0.292696
Sum of atomic charges:   -0.0000000

LOEWDIN ATOMIC CHARGES
----------------------
   0 O :    1.595737
   1 H :   -0.797869
   2 H :   -0.797869

  Mayer bond orders larger than 0.100000
B(  0-O ,  1-H ) :   0.9691 B(  0-O ,  2-H ) :   0.9691

MP2 TOTAL ENERGY:      -76.351861283 Eh
FINAL SINGLE POINT ENERGY       -76.351861282639

DIPOLE MOMENT
-------------
                                X             Y             Z
Electronic contribution:      0.00000       0.00000       0.19400
Nuclear contribution   :      0.00000       0.00000      -0.96776
                        -----------------------------------------
Total Dipole Moment    :      0.00000       0.00000      -0.77376
                        -----------------------------------------
Magnitude (a.u.)       :      0.77376
Magnitude (Debye)      :      1.96675

Rotational constants in cm-1:    27.860690    14.308403     9.453416
Rotational constants in MHz : 835242.479611 428955.126934 283406.282378

                             ****ORCA TERMINATED NORMALLY****
TOTAL RUN TIME: 0 days 0 hours 0 minutes 11 seconds 556 msec
