                         Program Version 4.2.1 -  RELEASE  -
|  1> %pal
|  2>  nprocs 32
|  3> end
|  4> !RI-MP2 aug-cc-pVQZ aug-cc-pVQZ/C TightSCF
|  5> %maxcore 4500
|  6> *xyzfile 0 2  01_14P.xyz
|  7>
|  8>
|  9>                          ****END OF INPUT****

CARTESIAN COORDINATES (ANGSTROEM)
---------------------------------
  C     -0.500200   -0.586849   -0.341007
  C      0.778707   -1.349361    0.016692
  C      1.909537   -0.298940    0.001788
  H      0.965704   -2.184947   -0.660926
  H      0.667097   -1.772868    1.020157
  C      1.203851    1.075610    0.002508
  H      2.542624   -0.408146   -0.880509
  H      2.561703   -0.414021    0.869149
  C     -0.272282    0.790161    0.333828
  H      1.257821    1.532131   -0.990254
  H      1.649484    1.784920    0.701383
  C     -1.209486    1.855282   -0.090344
  C     -1.784230   -1.285733    0.070966
  H     -1.805555   -1.445425    1.153434
  H     -1.875578   -2.262321   -0.410870
  H     -2.662709   -0.695722   -0.199377
  H     -2.055500    2.151005    0.515646
  H     -1.111746    2.300127   -1.074647
  H     -0.370418    0.629902    1.415292
  H     -0.518309   -0.415655   -1.425067

 Total Charge           Charge          ....    0
 Multiplicity           Mult            ....    2
 Number of Electrons    NEL             ....   55
 Basis Dimension        Dim             .... 1158

ORBITAL ENERGIES
----------------
                 SPIN UP ORBITALS
  NO   OCC          E(Eh)            E(eV)
   0   1.0000     -11.223095      -305.3959
   1   1.0000     -11.218549      -305.2722
   2   1.0000     -11.217617      -305.2469
   3   1.0000     -11.211724      -305.0865
   4   1.0000     -11.210963      -305.0658
   5   1.0000     -11.209421      -305.0239
   6   1.0000     -11.206626      -304.9478
   7   1.0000      -1.133537       -30.8451
   8   1.0000      -1.010255       -27.4904
   9   1.0000      -1.005235       -27.3538
  10   1.0000      -0.906137       -24.6572
  11   1.0000      -0.866467       -23.5778
  12   1.0000      -0.768864       -20.9219
  13   1.0000      -0.754499       -20.5310
  14   1.0000      -0.641412       -17.4537
  15   1.0000      -0.626558       -17.0495
  16   1.0000      -0.599478       -16.3126
  17   1.0000      -0.589087       -16.0299
  18   1.0000      -0.570220       -15.5165
  19   1.0000      -0.538410       -14.6509
  20   1.0000      -0.514889       -14.0109
  21   1.0000      -0.481493       -13.1021
  22   1.0000      -0.479113       -13.0373
  23   1.0000      -0.468271       -12.7423
  24   1.0000      -0.455383       -12.3916
  25   1.0000      -0.449586       -12.2339
  26   1.0000      -0.446745       -12.1566
  27   1.0000      -0.337690        -9.1890
  28   0.0000       0.027516         0.7488
  29   0.0000       0.031442         0.8556
  30   0.0000       0.031742         0.8637
  31   0.0000       0.032913         0.8956
  32   0.0000       0.047012         1.2793

                 SPIN DOWN ORBITALS
  NO   OCC          E(Eh)            E(eV)
   0   1.0000     -11.221085      -305.3412
   1   1.0000     -11.215879      -305.1996
   2   1.0000     -11.211163      -305.0713
   3   1.0000     -11.210230      -305.0459
   4   1.0000     -11.209403      -305.0234
   5   1.0000     -11.206716      -304.9502
   6   1.0000     -11.199733      -304.7602
   7   1.0000      -1.127516       -30.6813
   8   1.0000      -1.003005       -27.2932
   9   1.0000      -0.984133       -26.7796
  10   1.0000      -0.894469       -24.3397
  11   1.0000      -0.829449       -22.5705
  12   1.0000      -0.763024       -20.7629
  13   1.0000      -0.746410       -20.3108
  14   1.0000      -0.636974       -17.3329
  15   1.0000      -0.623874       -16.9765
  16   1.0000      -0.593673       -16.1547
  17   1.0000      -0.586176       -15.9507
  18   1.0000      -0.563786       -15.3414
  19   1.0000      -0.534361       -14.5407
  20   1.0000      -0.512365       -13.9422
  21   1.0000      -0.473624       -12.8880
  22   1.0000      -0.470066       -12.7912
  23   1.0000      -0.460102       -12.5200
  24   1.0000      -0.448198       -12.1961
  25   1.0000      -0.445964       -12.1353
  26   1.0000      -0.440679       -11.9915
  27   0.0000       0.027753         0.7552
  28   0.0000       0.031117         0.8467
  29   0.0000       0.031821         0.8659
  30   0.0000       0.033072         0.8999
  31   0.0000       0.046857         1.2751

MULLIKEN ATOMIC CHARGES AND SPIN POPULATIONS
--------------------------------------------
   0 C :    0.315626    0.087871
   1 C :   -0.640947   -0.001602
   2 C :   -0.458609   -0.003389
   3 H :    0.291761    0.003727
   4 H :    0.183288   -0.000386
   5 C :   -0.613568    0.041076
   6 H :    0.201209    0.000847
   7 H :    0.229730   -0.000012
   8 C :    0.148837   -0.266506
   9 H :    0.170614    0.003743
  10 H :    0.312124   -0.004573
  11 C :   -0.892500    1.309121
  12 C :   -0.930456   -0.006504
  13 H :    0.174351   -0.001643
  14 H :    0.231599   -0.000781
  15 H :    0.222074   -0.005281
  16 H :    0.317351   -0.077531
  17 H :    0.279289   -0.083991
  18 H :    0.231969    0.007955
  19 H :    0.226257   -0.002139
Sum of atomic charges         :   -0.0000000

LOEWDIN ATOMIC CHARGES AND SPIN POPULATIONS
-------------------------------------------
   0 C :    0.086172    0.034460
   1 C :    0.536126    0.006168
   2 C :    0.568167    0.003134
   3 H :   -0.248924    0.001611
   4 H :   -0.268327    0.000587
   5 C :    0.530188    0.020972
   6 H :   -0.264476    0.000661
   7 H :   -0.264042    0.000391
   8 C :    0.057816    0.131113
   9 H :   -0.276591    0.004173
  10 H :   -0.251388    0.005451
  11 C :    0.871010    0.455430
  12 C :    0.936025    0.009971
  13 H :   -0.277552    0.000438
  14 H :   -0.269677    0.000515
  15 H :   -0.277041    0.006912
  16 H :   -0.319662    0.151904
  17 H :   -0.321437    0.148594
  18 H :   -0.285422    0.007739
  19 H :   -0.260967    0.009776

  Mayer bond orders larger than 0.100000
B(  0-C ,  1-C ) :   0.6939 B(  0-C ,  8-C ) :   0.7269 B(  0-C , 12-C ) :   0.4550
B(  0-C , 14-H ) :  -0.1506 B(  0-C , 15-H ) :  -0.1256 B(  0-C , 19-H ) :   0.9776
B(  1-C ,  2-C ) :   0.9973 B(  1-C ,  3-H ) :   0.9214 B(  1-C ,  4-H ) :   1.0095
B(  1-C , 12-C ) :   0.1482 B(  2-C ,  5-C ) :   1.0078 B(  2-C ,  6-H ) :   0.9867
B(  2-C ,  7-H ) :   0.9627 B(  5-C ,  8-C ) :   0.7839 B(  5-C ,  9-H ) :   1.0267
B(  5-C , 10-H ) :   0.8853 B(  8-C , 11-C ) :   0.6400 B(  8-C , 16-H ) :  -0.1242
B(  8-C , 18-H ) :   0.9515 B( 11-C , 16-H ) :   1.0085 B( 11-C , 17-H ) :   0.9695
B( 12-C , 13-H ) :   1.0030 B( 12-C , 14-H ) :   1.1015 B( 12-C , 15-H ) :   1.0750

MP2 TOTAL ENERGY:     -273.974494719 Eh
FINAL SINGLE POINT ENERGY      -273.974494719339

DIPOLE MOMENT
-------------
                                X             Y             Z
Electronic contribution:      0.83632       1.19828      -0.04691
Nuclear contribution   :     -0.80290      -1.27657       0.03551
                        -----------------------------------------
Total Dipole Moment    :      0.03342      -0.07829      -0.01139
                        -----------------------------------------
Magnitude (a.u.)       :      0.08588
Magnitude (Debye)      :      0.21830

Rotational constants in cm-1:     0.107864     0.092909     0.054586
Rotational constants in MHz :  3233.684589  2785.328680  1636.459866

                             ****ORCA TERMINATED NORMALLY****
TOTAL RUN TIME: 0 days 0 hours 52 minutes 4 seconds 793 msec
