                         Program Version 4.2.1 -  RELEASE  -
|  1> %pal
|  2>  nprocs 32
|  3> end
|  4> !RI-MP2 aug-cc-pVQZ aug-cc-pVQZ/C TightSCF
|  5> %maxcore 4500
|  6> *xyzfile 0 2  04_29P1.xyz
|  7>
|  8>
|  9>                          ****END OF INPUT****

CARTESIAN COORDINATES (ANGSTROEM)
---------------------------------
  C     -1.771319   -1.290705   -0.819498
  S     -2.128092    0.306438   -0.038520
  C     -0.654647    0.472683    1.052066
  C      0.594036    0.646301    0.279658
  C      0.877229    1.938375   -0.407345
  C      1.490735   -0.502168    0.174440
  O      1.219479   -1.589562    0.671503
  H     -0.924725   -1.225677   -1.500828
  H     -1.571285   -2.050345   -0.066044
  H     -2.661983   -1.563760   -1.384288
  H      0.005768    2.591516   -0.377261
  H      1.141683    1.793833   -1.459342
  H      1.710618    2.471844    0.068643
  H     -0.872002    1.357330    1.654519
  H     -0.597682   -0.401354    1.696820
  N      2.649932   -0.322685   -0.537494
  H      2.983033    0.590745   -0.790630
  H      3.314490   -1.078777   -0.510762

 Total Charge           Charge          ....    0
 Multiplicity           Mult            ....    2
 Number of Electrons    NEL             ....   71
 Basis Dimension        Dim             .... 1104

ORBITAL ENERGIES
----------------
                 SPIN UP ORBITALS
  NO   OCC          E(Eh)            E(eV)
   0   1.0000     -91.942197     -2501.8744
   1   1.0000     -20.528192      -558.6005
   2   1.0000     -15.581373      -423.9907
   3   1.0000     -11.347298      -308.7757
   4   1.0000     -11.266900      -306.5879
   5   1.0000     -11.256522      -306.3055
   6   1.0000     -11.241346      -305.8926
   7   1.0000     -11.240257      -305.8629
   8   1.0000      -8.943867      -243.3750
   9   1.0000      -6.626754      -180.3232
  10   1.0000      -6.624419      -180.2596
  11   1.0000      -6.623321      -180.2297
  12   1.0000      -1.392687       -37.8969
  13   1.0000      -1.213824       -33.0298
  14   1.0000      -1.120411       -30.4879
  15   1.0000      -1.034363       -28.1464
  16   1.0000      -0.954872       -25.9834
  17   1.0000      -0.903966       -24.5982
  18   1.0000      -0.816952       -22.2304
  19   1.0000      -0.759288       -20.6613
  20   1.0000      -0.718082       -19.5400
  21   1.0000      -0.674438       -18.3524
  22   1.0000      -0.641912       -17.4673
  23   1.0000      -0.627443       -17.0736
  24   1.0000      -0.592027       -16.1099
  25   1.0000      -0.582229       -15.8433
  26   1.0000      -0.577066       -15.7028
  27   1.0000      -0.571482       -15.5508
  28   1.0000      -0.559388       -15.2217
  29   1.0000      -0.529203       -14.4003
  30   1.0000      -0.499674       -13.5968
  31   1.0000      -0.447763       -12.1843
  32   1.0000      -0.440965       -11.9993
  33   1.0000      -0.437447       -11.9035
  34   1.0000      -0.354272        -9.6402
  35   1.0000      -0.333804        -9.0833
  36   0.0000       0.018279         0.4974
  37   0.0000       0.029039         0.7902
  38   0.0000       0.033158         0.9023
  39   0.0000       0.035229         0.9586
  40   0.0000       0.044715         1.2168

                 SPIN DOWN ORBITALS
  NO   OCC          E(Eh)            E(eV)
   0   1.0000     -91.941105     -2501.8447
   1   1.0000     -20.517866      -558.3195
   2   1.0000     -15.581402      -423.9915
   3   1.0000     -11.352213      -308.9094
   4   1.0000     -11.260131      -306.4037
   5   1.0000     -11.245244      -305.9986
   6   1.0000     -11.242914      -305.9353
   7   1.0000     -11.241422      -305.8947
   8   1.0000      -8.942607      -243.3407
   9   1.0000      -6.624084      -180.2505
  10   1.0000      -6.622798      -180.2155
  11   1.0000      -6.621712      -180.1859
  12   1.0000      -1.374595       -37.4046
  13   1.0000      -1.207789       -32.8656
  14   1.0000      -1.090266       -29.6676
  15   1.0000      -1.022226       -27.8162
  16   1.0000      -0.954446       -25.9718
  17   1.0000      -0.886411       -24.1205
  18   1.0000      -0.811326       -22.0773
  19   1.0000      -0.754175       -20.5221
  20   1.0000      -0.705576       -19.1997
  21   1.0000      -0.664801       -18.0901
  22   1.0000      -0.621626       -16.9153
  23   1.0000      -0.601999       -16.3812
  24   1.0000      -0.584359       -15.9012
  25   1.0000      -0.576472       -15.6866
  26   1.0000      -0.574392       -15.6300
  27   1.0000      -0.556263       -15.1367
  28   1.0000      -0.550197       -14.9716
  29   1.0000      -0.524124       -14.2621
  30   1.0000      -0.489186       -13.3114
  31   1.0000      -0.432854       -11.7786
  32   1.0000      -0.430134       -11.7045
  33   1.0000      -0.396382       -10.7861
  34   1.0000      -0.336627        -9.1601
  35   0.0000       0.018370         0.4999
  36   0.0000       0.028986         0.7887
  37   0.0000       0.033186         0.9030
  38   0.0000       0.035067         0.9542
  39   0.0000       0.044627         1.2144

MULLIKEN ATOMIC CHARGES AND SPIN POPULATIONS
--------------------------------------------
   0 C :   -1.000696   -0.003136
   1 S :   -0.067605    0.108136
   2 C :   -0.495432   -0.185600
   3 C :    0.138468    1.067868
   4 C :   -0.758880   -0.141754
   5 C :    1.248274   -0.223963
   6 O :   -0.880222    0.236964
   7 H :    0.290348    0.001101
   8 H :    0.274853    0.000317
   9 H :    0.420478   -0.001021
  10 H :    0.273467   -0.000929
  11 H :    0.165710    0.041300
  12 H :    0.242239    0.057547
  13 H :    0.313993    0.037563
  14 H :    0.206037    0.007775
  15 N :   -0.848262    0.002163
  16 H :    0.288314   -0.000970
  17 H :    0.188917   -0.003359
Sum of atomic charges         :   -0.0000000

LOEWDIN ATOMIC CHARGES AND SPIN POPULATIONS
-------------------------------------------
   0 C :    0.547918    0.012107
   1 S :    1.320701    0.056874
   2 C :    0.121115    0.098774
   3 C :   -0.138505    0.394809
   4 C :    0.877063    0.114708
   5 C :   -0.863645    0.109421
   6 O :    0.716262    0.157992
   7 H :   -0.370189    0.001426
   8 H :   -0.371071   -0.000242
   9 H :   -0.389578    0.002542
  10 H :   -0.307642    0.004041
  11 H :   -0.287900    0.017224
  12 H :   -0.271096    0.024421
  13 H :   -0.377784    0.011665
  14 H :   -0.410038    0.001731
  15 N :    1.235677   -0.005531
  16 H :   -0.533053   -0.000313
  17 H :   -0.498234   -0.001647

  Mayer bond orders larger than 0.100000
B(  0-C ,  1-S ) :   1.0290 B(  0-C ,  2-C ) :  -0.1029 B(  0-C ,  7-H ) :   0.8985
B(  0-C ,  8-H ) :   0.9191 B(  0-C ,  9-H ) :   0.8340 B(  1-S ,  2-C ) :   0.9338
B(  2-C ,  3-C ) :   0.6547 B(  2-C , 13-H ) :   0.9129 B(  2-C , 14-H ) :   1.0127
B(  3-C ,  4-C ) :   0.6222 B(  3-C ,  5-C ) :   1.1676 B(  3-C ,  6-O ) :   0.2423
B(  3-C , 12-H ) :  -0.1213 B(  4-C , 10-H ) :   0.9796 B(  4-C , 11-H ) :   1.0377
B(  4-C , 12-H ) :   1.0132 B(  5-C ,  6-O ) :   1.0218 B(  5-C , 15-N ) :   0.9069
B(  6-O , 15-N ) :   0.1576 B( 15-N , 16-H ) :   0.9278 B( 15-N , 17-H ) :   1.0690

MP2 TOTAL ENERGY:     -723.705088966 Eh
FINAL SINGLE POINT ENERGY      -723.705088965858

DIPOLE MOMENT
-------------
                                X             Y             Z
Electronic contribution:     -1.61730      -1.52303       2.21071
Nuclear contribution   :      2.65107       2.47011      -2.68354
                        -----------------------------------------
Total Dipole Moment    :      1.03377       0.94707      -0.47283
                        -----------------------------------------
Magnitude (a.u.)       :      1.47959
Magnitude (Debye)      :      3.76083

Rotational constants in cm-1:     0.085577     0.038686     0.031513
Rotational constants in MHz :  2565.543813  1159.778155   944.725175

                             ****ORCA TERMINATED NORMALLY****
TOTAL RUN TIME: 0 days 1 hours 8 minutes 35 seconds 476 msec
