                         Program Version 4.2.1 -  RELEASE  -
|  1> %pal
|  2>  nprocs 32
|  3> end
|  4> !RI-MP2 aug-cc-pVQZ aug-cc-pVQZ/C TightSCF
|  5> %maxcore 4500
|  6> *xyzfile -1 1  08_7P2.xyz
|  7>
|  8>
|  9>                          ****END OF INPUT****

CARTESIAN COORDINATES (ANGSTROEM)
---------------------------------
  O      1.645858    2.495473    0.020640
  C      1.209817    1.344564    0.002871
  C     -0.200601    0.992540   -0.003636
  N      2.052888    0.241273   -0.004949
  C      1.568946   -0.986775   -0.021820
  C     -0.532805   -0.350992   -0.010551
  N      0.294269   -1.406051   -0.015782
  N     -1.350414    1.764904    0.001501
  C     -2.333311    0.913951   -0.002390
  N     -1.907937   -0.400463   -0.016866
  H     -3.386349    1.160242   -0.005895
  C     -2.703490   -1.598409    0.023870
  H     -2.176670   -2.385681   -0.515223
  H     -3.668955   -1.416466   -0.451942
  H     -2.871479   -1.940728    1.050092
  N      2.521870   -2.011872   -0.073078
  H      2.189953   -2.877602    0.323597
  H      3.420571   -1.707357    0.268407

 Total Charge           Charge          ....   -1
 Multiplicity           Mult            ....    1
 Number of Electrons    NEL             ....   86
 Basis Dimension        Dim             .... 1236

ORBITAL ENERGIES
----------------

  NO   OCC          E(Eh)            E(eV)
   0   2.0000     -20.319322      -552.9169
   1   2.0000     -15.476109      -421.1263
   2   2.0000     -15.422817      -419.6762
   3   2.0000     -15.411059      -419.3562
   4   2.0000     -15.377890      -418.4537
   5   2.0000     -15.355968      -417.8571
   6   2.0000     -11.182663      -304.2957
   7   2.0000     -11.162843      -303.7564
   8   2.0000     -11.157332      -303.6064
   9   2.0000     -11.156201      -303.5757
  10   2.0000     -11.146394      -303.3088
  11   2.0000     -11.069662      -301.2208
  12   2.0000      -1.215332       -33.0709
  13   2.0000      -1.176293       -32.0085
  14   2.0000      -1.136955       -30.9381
  15   2.0000      -1.054360       -28.6906
  16   2.0000      -1.029207       -28.0062
  17   2.0000      -0.984436       -26.7879
  18   2.0000      -0.862870       -23.4799
  19   2.0000      -0.836979       -22.7753
  20   2.0000      -0.714296       -19.4370
  21   2.0000      -0.686897       -18.6914
  22   2.0000      -0.635727       -17.2990
  23   2.0000      -0.596025       -16.2187
  24   2.0000      -0.557924       -15.1819
  25   2.0000      -0.529380       -14.4052
  26   2.0000      -0.520229       -14.1562
  27   2.0000      -0.489644       -13.3239
  28   2.0000      -0.484865       -13.1938
  29   2.0000      -0.465784       -12.6746
  30   2.0000      -0.451060       -12.2740
  31   2.0000      -0.435762       -11.8577
  32   2.0000      -0.416622       -11.3369
  33   2.0000      -0.400627       -10.9016
  34   2.0000      -0.352318        -9.5871
  35   2.0000      -0.340782        -9.2732
  36   2.0000      -0.291993        -7.9455
  37   2.0000      -0.286428        -7.7941
  38   2.0000      -0.254225        -6.9178
  39   2.0000      -0.243839        -6.6352
  40   2.0000      -0.220427        -5.9981
  41   2.0000      -0.198624        -5.4048
  42   2.0000      -0.127948        -3.4816
  43   0.0000       0.092013         2.5038
  44   0.0000       0.101099         2.7511
  45   0.0000       0.106747         2.9047
  46   0.0000       0.108807         2.9608
  47   0.0000       0.121929         3.3179

MULLIKEN ATOMIC CHARGES
-----------------------
   0 O :   -0.944379
   1 C :    1.341762
   2 C :   -0.355128
   3 N :   -0.820031
   4 C :    0.851376
   5 C :    0.927327
   6 N :   -0.841172
   7 N :   -0.828023
   8 C :   -0.117798
   9 N :   -0.389317
  10 H :    0.485215
  11 C :   -1.007066
  12 H :    0.330319
  13 H :    0.314065
  14 H :    0.311259
  15 N :   -0.819040
  16 H :    0.268346
  17 H :    0.292285
Sum of atomic charges:   -1.0000000

LOEWDIN ATOMIC CHARGES
----------------------
   0 O :    0.550148
   1 C :   -1.070345
   2 C :   -0.492231
   3 N :    0.492586
   4 C :   -0.860560
   5 C :   -0.667073
   6 N :    0.576848
   7 N :    0.561748
   8 C :   -0.096101
   9 N :    0.373489
  10 H :   -0.339422
  11 C :    0.779513
  12 H :   -0.311629
  13 H :   -0.300256
  14 H :   -0.278058
  15 N :    1.190141
  16 H :   -0.550968
  17 H :   -0.557829

  Mayer bond orders larger than 0.100000
B(  0-O ,  1-C ) :   0.6678 B(  0-O ,  2-C ) :   0.5695 B(  0-O ,  3-N ) :   0.1655
B(  1-C ,  2-C ) :   1.2860 B(  1-C ,  3-N ) :   1.1224 B(  1-C ,  5-C ) :  -0.2012
B(  2-C ,  5-C ) :   1.4171 B(  2-C ,  7-N ) :   0.5188 B(  2-C ,  8-C ) :   0.1289
B(  3-N ,  4-C ) :   1.1919 B(  3-N ,  5-C ) :   0.1164 B(  4-C ,  6-N ) :   1.4103
B(  4-C , 15-N ) :   1.0191 B(  5-C ,  6-N ) :   0.8573 B(  5-C ,  7-N ) :   0.1528
B(  5-C ,  9-N ) :   0.9737 B(  5-C , 11-C ) :  -0.1217 B(  7-N ,  8-C ) :   1.5947
B(  8-C ,  9-N ) :   1.3411 B(  8-C , 10-H ) :   0.7531 B(  9-N , 11-C ) :   0.7079
B( 11-C , 12-H ) :   0.9266 B( 11-C , 13-H ) :   0.9394 B( 11-C , 14-H ) :   0.9695
B( 15-N , 16-H ) :   0.9190 B( 15-N , 17-H ) :   0.9077

MP2 TOTAL ENERGY:     -580.461512359 Eh
FINAL SINGLE POINT ENERGY      -580.461512359052

DIPOLE MOMENT
-------------
                                X             Y             Z
Electronic contribution:      3.83950       6.00174      -0.25908
Nuclear contribution   :     -6.28004      -8.88770       0.65034
                        -----------------------------------------
Total Dipole Moment    :     -2.44053      -2.88596       0.39126
                        -----------------------------------------
Magnitude (a.u.)       :      3.79974
Magnitude (Debye)      :      9.65817

Rotational constants in cm-1:     0.049046     0.031815     0.019380
Rotational constants in MHz :  1470.374923   953.791337   580.985864

                             ****ORCA TERMINATED NORMALLY****
TOTAL RUN TIME: 0 days 0 hours 59 minutes 23 seconds 968 msec
