                         Program Version 4.2.1 -  RELEASE  -
|  1> %pal
|  2>  nprocs 32
|  3> end
|  4> !RI-MP2 aug-cc-pVQZ aug-cc-pVQZ/C TightSCF
|  5> %maxcore 4500
|  6> *xyzfile 1 1  05_16P1.xyz
|  7>
|  8>
|  9>                          ****END OF INPUT****

CARTESIAN COORDINATES (ANGSTROEM)
---------------------------------
  C      2.236018    0.497916   -0.000013
  C      0.851815    0.287837   -0.000006
  C      0.293198   -1.011124    0.000011
  C      0.007448    1.419272   -0.000016
  C     -1.067000   -1.166191    0.000018
  H      0.943099   -1.876544    0.000018
  C     -1.356392    1.262567   -0.000009
  H      0.434620    2.415441   -0.000030
  C     -1.887763   -0.029119    0.000010
  H     -1.517508   -2.149312    0.000030
  H     -2.018626    2.117236   -0.000017
  O      3.065289   -0.466491   -0.000010
  C      4.500300   -0.224825   -0.000010
  H      4.697247    0.846512   -0.000076
  H      4.894221   -0.700014    0.894287
  H      4.894235   -0.700125   -0.894242
  Cl    -3.585331   -0.232533    0.000014
  H      2.635271    1.513797   -0.000026

 Total Charge           Charge          ....    1
 Multiplicity           Mult            ....    1
 Number of Electrons    NEL             ....   80
 Basis Dimension        Dim             .... 1172

ORBITAL ENERGIES
----------------

  NO   OCC          E(Eh)            E(eV)
   0   2.0000    -104.984338     -2856.7691
   1   2.0000     -20.821550      -566.5832
   2   2.0000     -11.560010      -314.5639
   3   2.0000     -11.484152      -312.4997
   4   2.0000     -11.463958      -311.9502
   5   2.0000     -11.435304      -311.1705
   6   2.0000     -11.428573      -310.9873
   7   2.0000     -11.421025      -310.7819
   8   2.0000     -11.400562      -310.2251
   9   2.0000     -11.399735      -310.2026
  10   2.0000     -10.709619      -291.4235
  11   2.0000      -8.176707      -222.4995
  12   2.0000      -8.174768      -222.4467
  13   2.0000      -8.174633      -222.4431
  14   2.0000      -1.661936       -45.2236
  15   2.0000      -1.361731       -37.0546
  16   2.0000      -1.300904       -35.3994
  17   2.0000      -1.221292       -33.2330
  18   2.0000      -1.205445       -32.8018
  19   2.0000      -1.149901       -31.2904
  20   2.0000      -1.065638       -28.9975
  21   2.0000      -1.014803       -27.6142
  22   2.0000      -0.984044       -26.7772
  23   2.0000      -0.911928       -24.8148
  24   2.0000      -0.900813       -24.5124
  25   2.0000      -0.853660       -23.2293
  26   2.0000      -0.824868       -22.4458
  27   2.0000      -0.810904       -22.0658
  28   2.0000      -0.794309       -21.6143
  29   2.0000      -0.771607       -20.9965
  30   2.0000      -0.746692       -20.3185
  31   2.0000      -0.724107       -19.7039
  32   2.0000      -0.712610       -19.3911
  33   2.0000      -0.692476       -18.8432
  34   2.0000      -0.687430       -18.7059
  35   2.0000      -0.676057       -18.3964
  36   2.0000      -0.622551       -16.9405
  37   2.0000      -0.595317       -16.1994
  38   2.0000      -0.518860       -14.1189
  39   2.0000      -0.505566       -13.7571
  40   0.0000      -0.146792        -3.9944
  41   0.0000      -0.081342        -2.2134
  42   0.0000      -0.065077        -1.7708
  43   0.0000      -0.060339        -1.6419
  44   0.0000      -0.059375        -1.6157

MULLIKEN ATOMIC CHARGES
-----------------------
   0 C :    0.573824
   1 C :   -0.012208
   2 C :   -0.051377
   3 C :   -0.132848
   4 C :   -0.123825
   5 H :    0.303465
   6 C :   -0.090886
   7 H :    0.244055
   8 C :   -0.470147
   9 H :    0.457547
  10 H :    0.415678
  11 O :   -0.681234
  12 C :   -0.581645
  13 H :    0.322419
  14 H :    0.333304
  15 H :    0.333298
  16 Cl:   -0.245827
  17 H :    0.406408
Sum of atomic charges:    1.0000000

LOEWDIN ATOMIC CHARGES
----------------------
   0 C :    0.058006
   1 C :   -0.077852
   2 C :    0.364433
   3 C :    0.358060
   4 C :    0.261660
   5 H :   -0.296615
   6 C :    0.259136
   7 H :   -0.290687
   8 C :   -0.826202
   9 H :   -0.339961
  10 H :   -0.340398
  11 O :    0.944661
  12 C :    0.744330
  13 H :   -0.305458
  14 H :   -0.281421
  15 H :   -0.281422
  16 Cl:    1.335366
  17 H :   -0.285636

  Mayer bond orders larger than 0.100000
B(  0-C ,  1-C ) :   1.0281 B(  0-C ,  2-C ) :  -0.2639 B(  0-C ,  3-C ) :  -0.3821
B(  0-C , 11-O ) :   1.0168 B(  0-C , 12-C ) :  -0.1135 B(  0-C , 17-H ) :   0.9400
B(  1-C ,  2-C ) :   0.9424 B(  1-C ,  3-C ) :   0.8261 B(  1-C ,  4-C ) :  -0.2679
B(  1-C ,  6-C ) :  -0.3528 B(  1-C ,  7-H ) :  -0.1028 B(  1-C , 11-O ) :   0.1871
B(  1-C , 17-H ) :  -0.1949 B(  2-C ,  4-C ) :   1.2819 B(  2-C ,  5-H ) :   0.9393
B(  3-C ,  6-C ) :   1.2754 B(  3-C ,  7-H ) :   1.0481 B(  3-C , 10-H ) :  -0.1001
B(  4-C ,  8-C ) :   1.0458 B(  4-C ,  9-H ) :   0.8314 B(  4-C , 16-Cl) :  -0.2221
B(  6-C ,  7-H ) :  -0.1268 B(  6-C ,  8-C ) :   1.0715 B(  6-C , 10-H ) :   0.8979
B(  6-C , 16-Cl) :  -0.2041 B(  8-C , 16-Cl) :   1.2612 B( 11-O , 12-C ) :   0.7860
B( 12-C , 13-H ) :   0.8800 B( 12-C , 14-H ) :   0.8975 B( 12-C , 15-H ) :   0.8975

MP2 TOTAL ENERGY:     -843.688116066 Eh
FINAL SINGLE POINT ENERGY      -843.688116065616

DIPOLE MOMENT
-------------
                                X             Y             Z
Electronic contribution:    -16.26073      -1.06379       0.00006
Nuclear contribution   :     19.68982       1.75223      -0.00008
                        -----------------------------------------
Total Dipole Moment    :      3.42909       0.68844      -0.00002
                        -----------------------------------------
Magnitude (a.u.)       :      3.49751
Magnitude (Debye)      :      8.88997

Rotational constants in cm-1:     0.158796     0.015583     0.014229
Rotational constants in MHz :  4760.580526   467.174711   426.583847

                             ****ORCA TERMINATED NORMALLY****
TOTAL RUN TIME: 0 days 0 hours 43 minutes 26 seconds 38 msec
