                         Program Version 4.2.1 -  RELEASE  -
|  1> %pal
|  2>  nprocs 32
|  3> end
|  4> !RI-MP2 aug-cc-pVQZ aug-cc-pVQZ/C TightSCF
|  5> %maxcore 4500
|  6> *xyzfile 0 2  04_89TS.xyz
|  7>
|  8>
|  9>                          ****END OF INPUT****

CARTESIAN COORDINATES (ANGSTROEM)
---------------------------------
  C      4.294454   -1.248583   -0.692532
  C      3.513111   -0.094574   -0.080602
  C      3.636068    1.250655   -0.755440
  H      3.625241   -0.050505    1.001904
  H      2.254739   -0.451183   -0.221416
  C      2.910341    2.357387    0.003757
  H      3.234946    1.185596   -1.773283
  H      4.695380    1.522927   -0.864836
  C      2.963667    3.701215   -0.718437
  H      3.352756    2.463797    1.000965
  H      1.867778    2.068129    0.167527
  N      2.299113    4.811323   -0.045828
  H      2.517768    3.598011   -1.712703
  H      4.006929    3.987470   -0.884718
  C      5.773019   -1.035995   -0.388924
  N      4.019703   -1.392847   -2.108712
  H      3.993793   -2.167635   -0.182110
  H      4.445027   -0.633535   -2.629198
  H      1.314268    4.619009    0.095470
  H      2.708817    4.988423    0.863866
  O      6.590218   -0.630251   -1.170567
  O      6.073763   -1.322759    0.892032
  H      4.426774   -2.248681   -2.466622
  H      7.011731   -1.123982    1.023366
  N     -2.758569   -1.194420   -0.024426
  C     -3.773048   -0.283396    0.107150
  C     -4.460725   -0.324272   -1.095847
  N     -3.893520   -1.241464   -1.954272
  C     -2.893950   -1.739991   -1.281368
  C     -5.557183    0.543647   -1.212452
  N     -5.863878    1.334583   -0.177367
  C     -5.116930    1.273642    0.923668
  N     -4.059535    0.502623    1.154476
  N     -6.306607    0.605554   -2.326834
  H     -6.090472    0.018165   -3.113950
  H     -7.083394    1.243297   -2.360039
  H     -5.410450    1.938249    1.729197
  H     -2.204860   -2.492165   -1.629394
  C     -1.813000   -1.564830    1.027413
  C     -1.199048   -0.332462    1.703758
  C      0.216102   -0.810545    1.966400
  C      0.516383   -1.642981    0.718857
  O     -0.759015   -2.305488    0.472988
  H     -2.342633   -2.173713    1.765952
  C      0.974418   -0.863349   -0.474658
  H      1.216905   -2.450580    0.933303
  H      0.438012    0.061560   -0.673407
  H      1.114572   -1.468911   -1.365896
  O     -1.831553    0.067126    2.885227
  H     -1.162332    0.492275    0.982895
  H     -2.711101    0.397596    2.621456
  O      1.146563    0.229815    2.147329
  H      0.196883   -1.468615    2.843310
  H      0.864078    0.746604    2.908584

 Total Charge           Charge          ....    0
 Multiplicity           Mult            ....    2
 Number of Electrons    NEL             ....  211
 Basis Dimension        Dim             .... 3436

ORBITAL ENERGIES
----------------
                 SPIN UP ORBITALS
  NO   OCC          E(Eh)            E(eV)
   0   1.0000     -20.615908      -560.9874
   1   1.0000     -20.581833      -560.0601
   2   1.0000     -20.574138      -559.8507
   3   1.0000     -20.557981      -559.4111
   4   1.0000     -20.551821      -559.2435
   5   1.0000     -15.628137      -425.2632
   6   1.0000     -15.589860      -424.2216
   7   1.0000     -15.568344      -423.6362
   8   1.0000     -15.563903      -423.5153
   9   1.0000     -15.555495      -423.2865
  10   1.0000     -15.549866      -423.1334
  11   1.0000     -15.533587      -422.6904
  12   1.0000     -11.383657      -309.7651
  13   1.0000     -11.344221      -308.6919
  14   1.0000     -11.343281      -308.6664
  15   1.0000     -11.320438      -308.0448
  16   1.0000     -11.319293      -308.0136
  17   1.0000     -11.317420      -307.9626
  18   1.0000     -11.299946      -307.4872
  19   1.0000     -11.295043      -307.3537
  20   1.0000     -11.292315      -307.2795
  21   1.0000     -11.280363      -306.9543
  22   1.0000     -11.253963      -306.2359
  23   1.0000     -11.241945      -305.9089
  24   1.0000     -11.239842      -305.8516
  25   1.0000     -11.234213      -305.6985
  26   1.0000     -11.222013      -305.3665
  27   1.0000     -11.213691      -305.1401
  28   1.0000      -1.473378       -40.0926
  29   1.0000      -1.427252       -38.8375
  30   1.0000      -1.387429       -37.7539
  31   1.0000      -1.372781       -37.3553
  32   1.0000      -1.369173       -37.2571
  33   1.0000      -1.366362       -37.1806
  34   1.0000      -1.312161       -35.7057
  35   1.0000      -1.258974       -34.2584
  36   1.0000      -1.206491       -32.8303
  37   1.0000      -1.201485       -32.6941
  38   1.0000      -1.175234       -31.9797
  39   1.0000      -1.165596       -31.7175
  40   1.0000      -1.084204       -29.5027
  41   1.0000      -1.070561       -29.1314
  42   1.0000      -1.044225       -28.4148
  43   1.0000      -1.035893       -28.1881
  44   1.0000      -1.008279       -27.4367
  45   1.0000      -0.954985       -25.9865
  46   1.0000      -0.931305       -25.3421
  47   1.0000      -0.902594       -24.5608
  48   1.0000      -0.887092       -24.1390
  49   1.0000      -0.860371       -23.4119
  50   1.0000      -0.853897       -23.2357
  51   1.0000      -0.820894       -22.3377
  52   1.0000      -0.808370       -21.9969
  53   1.0000      -0.795557       -21.6482
  54   1.0000      -0.783617       -21.3233
  55   1.0000      -0.771529       -20.9944
  56   1.0000      -0.754214       -20.5232
  57   1.0000      -0.741031       -20.1645
  58   1.0000      -0.715958       -19.4822
  59   1.0000      -0.714200       -19.4344
  60   1.0000      -0.710543       -19.3349
  61   1.0000      -0.698474       -19.0064
  62   1.0000      -0.688627       -18.7385
  63   1.0000      -0.682006       -18.5583
  64   1.0000      -0.676655       -18.4127
  65   1.0000      -0.672765       -18.3069
  66   1.0000      -0.662852       -18.0371
  67   1.0000      -0.653407       -17.7801
  68   1.0000      -0.651488       -17.7279
  69   1.0000      -0.638359       -17.3706
  70   1.0000      -0.629666       -17.1341
  71   1.0000      -0.623470       -16.9655
  72   1.0000      -0.617563       -16.8048
  73   1.0000      -0.609150       -16.5758
  74   1.0000      -0.608050       -16.5459
  75   1.0000      -0.602658       -16.3991
  76   1.0000      -0.595012       -16.1911
  77   1.0000      -0.586316       -15.9545
  78   1.0000      -0.579105       -15.7582
  79   1.0000      -0.570395       -15.5212
  80   1.0000      -0.568166       -15.4606
  81   1.0000      -0.565137       -15.3782
  82   1.0000      -0.556618       -15.1464
  83   1.0000      -0.541049       -14.7227
  84   1.0000      -0.536808       -14.6073
  85   1.0000      -0.530373       -14.4322
  86   1.0000      -0.511823       -13.9274
  87   1.0000      -0.511115       -13.9081
  88   1.0000      -0.504836       -13.7373
  89   1.0000      -0.495539       -13.4843
  90   1.0000      -0.490267       -13.3408
  91   1.0000      -0.488922       -13.3042
  92   1.0000      -0.477592       -12.9959
  93   1.0000      -0.472018       -12.8443
  94   1.0000      -0.468604       -12.7514
  95   1.0000      -0.463579       -12.6146
  96   1.0000      -0.457252       -12.4425
  97   1.0000      -0.454858       -12.3773
  98   1.0000      -0.445814       -12.1312
  99   1.0000      -0.421099       -11.4587
 100   1.0000      -0.415763       -11.3135
 101   1.0000      -0.411868       -11.2075
 102   1.0000      -0.381124       -10.3709
 103   1.0000      -0.378049       -10.2872
 104   1.0000      -0.318156        -8.6575
 105   1.0000      -0.316724        -8.6185
 106   0.0000       0.018762         0.5105
 107   0.0000       0.022807         0.6206
 108   0.0000       0.024372         0.6632
 109   0.0000       0.027887         0.7588
 110   0.0000       0.029933         0.8145

MULLIKEN ATOMIC CHARGES AND SPIN POPULATIONS
--------------------------------------------
   0 C :   -0.117544   -0.021251
   1 C :   -0.015407    0.741037
   2 C :   -0.331776   -0.067989
   3 H :    0.175582   -0.047262
   4 H :    0.742068   -0.572027
   5 C :   -0.743089    0.024769
   6 H :    0.238210    0.015339
   7 H :    0.354555    0.043620
   8 C :   -0.333695   -0.002871
   9 H :    0.213134    0.000708
  10 H :    0.488810    0.000413
  11 N :   -0.887718   -0.000181
  12 H :    0.237171    0.000118
  13 H :    0.282078   -0.000561
  14 C :    1.434717    0.026459
  15 N :   -0.903946    0.006332
  16 H :    0.460853    0.021564
  17 H :    0.236647    0.000108
  18 H :    0.278591   -0.000001
  19 H :    0.247768    0.000059
  20 O :   -1.002396    0.004380
  21 O :   -0.883127    0.001273
  22 H :    0.071790   -0.002140
  23 H :    0.334485   -0.000035
  24 N :   -0.262648   -0.004323
  25 C :    0.912320    0.001646
  26 C :   -0.291416   -0.000811
  27 N :   -1.093693    0.001474
  28 C :    0.482573   -0.005224
  29 C :    1.148607    0.000499
  30 N :   -0.968615   -0.000132
  31 C :   -0.077302    0.000153
  32 N :   -0.740411    0.000234
  33 N :   -0.846980   -0.000063
  34 H :    0.315369    0.000024
  35 H :    0.269425    0.000051
  36 H :    0.570516    0.000045
  37 H :    0.510791    0.000234
  38 C :    0.249099    0.001824
  39 C :    1.115715   -0.004024
  40 C :    0.203959    0.011806
  41 C :    0.585727   -0.074512
  42 O :   -1.532966    0.053393
  43 H :    0.520281    0.002571
  44 C :   -1.058952    0.910293
  45 H :    0.559012    0.023884
  46 H :    0.226360   -0.065646
  47 H :    0.172628   -0.025151
  48 O :   -1.258988    0.000273
  49 H :   -0.002899   -0.001315
  50 H :    0.218436    0.000082
  51 O :   -1.158396    0.005199
  52 H :    0.333893   -0.004461
  53 H :    0.320799    0.000118
Sum of atomic charges         :   -0.0000000

LOEWDIN ATOMIC CHARGES AND SPIN POPULATIONS
-------------------------------------------
   0 C :   -0.090136    0.040580
   1 C :    0.431924    0.232090
   2 C :    0.524654    0.048131
   3 H :   -0.259688    0.055343
   4 H :   -0.575501    0.107123
   5 C :    0.521585    0.000667
   6 H :   -0.270393    0.002823
   7 H :   -0.263847    0.013126
   8 C :    0.365835    0.000408
   9 H :   -0.262279    0.000047
  10 H :   -0.294174   -0.000684
  11 N :    1.287067   -0.000141
  12 H :   -0.286384   -0.000055
  13 H :   -0.285694    0.000360
  14 C :   -1.028452    0.013885
  15 N :    1.292421   -0.000958
  16 H :   -0.305641    0.002828
  17 H :   -0.529311   -0.000143
  18 H :   -0.510976   -0.000018
  19 H :   -0.510494   -0.000016
  20 O :    0.730387    0.005257
  21 O :    1.271536    0.004534
  22 H :   -0.482606   -0.000150
  23 H :   -0.803273    0.000277
  24 N :    0.439500    0.000712
  25 C :   -0.573420    0.000139
  26 C :   -0.423768    0.000041
  27 N :    0.620951   -0.000060
  28 C :   -0.026515    0.001126
  29 C :   -0.492935    0.000000
  30 N :    0.599015    0.000017
  31 C :   -0.141903   -0.000027
  32 N :    0.651007    0.000023
  33 N :    1.267288   -0.000009
  34 H :   -0.480613   -0.000000
  35 H :   -0.483294   -0.000001
  36 H :   -0.372416   -0.000013
  37 H :   -0.314263    0.000467
  38 C :   -0.350773    0.004248
  39 C :   -0.273432    0.000952
  40 C :   -0.241368   -0.000351
  41 C :   -0.163724    0.051455
  42 O :    0.934450    0.030646
  43 H :   -0.282985    0.000801
  44 C :    0.858522    0.257351
  45 H :   -0.287545    0.001009
  46 H :   -0.258512    0.065299
  47 H :   -0.250822    0.061591
  48 O :    1.322755    0.000186
  49 H :   -0.305085    0.000456
  50 H :   -0.936709    0.000055
  51 O :    1.326041   -0.000870
  52 H :   -0.274906   -0.000392
  53 H :   -0.751099   -0.000161

  Mayer bond orders larger than 0.100000
B(  0-C ,  1-C ) :   0.8214 B(  0-C , 14-C ) :   1.3098 B(  0-C , 15-N ) :   0.4232
B(  0-C , 16-H ) :   0.8354 B(  0-C , 20-O ) :   0.2208 B(  0-C , 21-O ) :   0.1597
B(  1-C ,  2-C ) :   0.8906 B(  1-C ,  3-H ) :   0.9191 B(  1-C , 14-C ) :  -0.1641
B(  1-C , 15-N ) :   0.1082 B(  1-C , 21-O ) :  -0.1966 B(  1-C , 44-C ) :   0.1603
B(  2-C ,  5-C ) :   0.9874 B(  2-C ,  6-H ) :   0.8524 B(  2-C ,  7-H ) :   0.8854
B(  2-C ,  8-C ) :  -0.1017 B(  2-C , 10-H ) :   0.1378 B(  3-H , 21-O ) :   0.1605
B(  4-H , 42-O ) :  -0.1095 B(  4-H , 46-H ) :  -0.1112 B(  4-H , 51-O ) :  -0.2353
B(  5-C ,  8-C ) :   0.9431 B(  5-C ,  9-H ) :   0.9238 B(  5-C , 10-H ) :   0.5276
B(  8-C , 10-H ) :  -0.1087 B(  8-C , 11-N ) :   0.9325 B(  8-C , 12-H ) :   0.9606
B(  8-C , 13-H ) :   0.9324 B( 10-H , 11-N ) :  -0.1226 B( 11-N , 18-H ) :   0.8665
B( 11-N , 19-H ) :   0.9046 B( 14-C , 15-N ) :   0.1046 B( 14-C , 20-O ) :   0.8994
B( 14-C , 21-O ) :   0.6184 B( 15-N , 17-H ) :   0.9249 B( 15-N , 22-H ) :   1.1380
B( 20-O , 21-O ) :   0.1723 B( 21-O , 23-H ) :   0.9136 B( 24-N , 25-C ) :   0.9193
B( 24-N , 26-C ) :  -0.1168 B( 24-N , 28-C ) :   1.2783 B( 24-N , 32-N ) :   0.1044
B( 24-N , 38-C ) :   0.7614 B( 24-N , 39-C ) :   0.1163 B( 24-N , 43-H ) :  -0.1026
B( 25-C , 26-C ) :   1.2301 B( 25-C , 27-N ) :   0.3831 B( 25-C , 28-C ) :   0.2855
B( 25-C , 29-C ) :  -0.3686 B( 25-C , 31-C ) :  -0.1660 B( 25-C , 32-N ) :   0.8294
B( 26-C , 27-N ) :   0.3635 B( 26-C , 28-C ) :   0.2128 B( 26-C , 29-C ) :   1.4839
B( 26-C , 30-N ) :   0.2481 B( 26-C , 31-C ) :   0.2067 B( 27-N , 28-C ) :   1.0238
B( 28-C , 37-H ) :   0.6409 B( 28-C , 38-C ) :   0.1199 B( 29-C , 30-N ) :   0.6201
B( 29-C , 33-N ) :   0.8429 B( 30-N , 31-C ) :   1.2806 B( 30-N , 33-N ) :   0.1561
B( 31-C , 32-N ) :   1.6258 B( 31-C , 36-H ) :   0.7175 B( 32-N , 50-H ) :   0.2176
B( 33-N , 34-H ) :   0.9042 B( 33-N , 35-H ) :   0.9947 B( 38-C , 39-C ) :   1.1933
B( 38-C , 41-C ) :   0.2614 B( 38-C , 42-O ) :   0.5408 B( 38-C , 43-H ) :   0.6027
B( 38-C , 48-O ) :   0.3490 B( 39-C , 40-C ) :   0.6617 B( 39-C , 42-O ) :   0.1537
B( 39-C , 48-O ) :  -0.7993 B( 39-C , 49-H ) :   1.1280 B( 39-C , 50-H ) :  -0.1004
B( 39-C , 51-O ) :   0.1274 B( 40-C , 41-C ) :   1.1076 B( 40-C , 42-O ) :   0.2573
B( 40-C , 45-H ) :  -0.1080 B( 40-C , 48-O ) :   0.2195 B( 40-C , 51-O ) :   0.2691
B( 40-C , 52-H ) :   0.9646 B( 41-C , 44-C ) :   0.8605 B( 41-C , 45-H ) :   0.7882
B( 41-C , 51-O ) :   0.1252 B( 41-C , 52-H ) :  -0.1036 B( 42-O , 44-C ) :   0.2045
B( 42-O , 45-H ) :  -0.1591 B( 44-C , 46-H ) :   1.0688 B( 44-C , 47-H ) :   1.0334
B( 44-C , 51-O ) :   0.1205 B( 48-O , 49-H ) :   0.2469 B( 48-O , 50-H ) :   0.9288
B( 51-O , 53-H ) :   0.9829

MP2 TOTAL ENERGY:    -1382.636535449 Eh
FINAL SINGLE POINT ENERGY     -1382.636535448741

DIPOLE MOMENT
-------------
                                X             Y             Z
Electronic contribution:    -26.42438     -13.25589       2.35238
Nuclear contribution   :     26.35053      12.55436      -1.88883
                        -----------------------------------------
Total Dipole Moment    :     -0.07385      -0.70154       0.46355
                        -----------------------------------------
Magnitude (a.u.)       :      0.84409
Magnitude (Debye)      :      2.14550

Rotational constants in cm-1:     0.009275     0.002508     0.002373
Rotational constants in MHz :   278.043939    75.181902    71.152385

                             ****ORCA TERMINATED NORMALLY****
TOTAL RUN TIME: 0 days 23 hours 56 minutes 16 seconds 747 msec
