                         Program Version 4.2.1 -  RELEASE  -
|  1> %pal
|  2>  nprocs 32
|  3> end
|  4> !RI-MP2 aug-cc-pVQZ aug-cc-pVQZ/C TightSCF
|  5> %maxcore 4500
|  6> *xyzfile 0 2  04_38R2.xyz
|  7>
|  8>
|  9>                          ****END OF INPUT****

CARTESIAN COORDINATES (ANGSTROEM)
---------------------------------
  C     -1.183296   -0.194692    0.000000
  C      0.178077    0.478178    0.000001
  H     -1.297485   -0.823896   -0.884191
  H     -1.983410    0.549625    0.000022
  H     -1.297466   -0.823927    0.884172
  H      0.303353    1.154930    0.865620
  H      0.303361    1.154908   -0.865635
  O      1.250370   -0.364069    0.000001

 Total Charge           Charge          ....    0
 Multiplicity           Mult            ....    2
 Number of Electrons    NEL             ....   25
 Basis Dimension        Dim             ....  470

ORBITAL ENERGIES
----------------
                 SPIN UP ORBITALS
  NO   OCC          E(Eh)            E(eV)
   0   1.0000     -20.614155      -560.9397
   1   1.0000     -11.282527      -307.0132
   2   1.0000     -11.221407      -305.3500
   3   1.0000      -1.408281       -38.3213
   4   1.0000      -1.013718       -27.5847
   5   1.0000      -0.845383       -23.0040
   6   1.0000      -0.712945       -19.4002
   7   1.0000      -0.654055       -17.7977
   8   1.0000      -0.609605       -16.5882
   9   1.0000      -0.575707       -15.6658
  10   1.0000      -0.541471       -14.7342
  11   1.0000      -0.484470       -13.1831
  12   1.0000      -0.467703       -12.7268
  13   0.0000       0.026388         0.7180
  14   0.0000       0.036261         0.9867
  15   0.0000       0.036719         0.9992
  16   0.0000       0.043939         1.1956
  17   0.0000       0.059520         1.6196

                 SPIN DOWN ORBITALS
  NO   OCC          E(Eh)            E(eV)
   0   1.0000     -20.574639      -559.8644
   1   1.0000     -11.285460      -307.0930
   2   1.0000     -11.221461      -305.3515
   3   1.0000      -1.280382       -34.8410
   4   1.0000      -0.998399       -27.1678
   5   1.0000      -0.825085       -22.4517
   6   1.0000      -0.631048       -17.1717
   7   1.0000      -0.624762       -17.0006
   8   1.0000      -0.587474       -15.9860
   9   1.0000      -0.533413       -14.5149
  10   1.0000      -0.509901       -13.8751
  11   1.0000      -0.438169       -11.9232
  12   0.0000       0.026468         0.7202
  13   0.0000       0.036298         0.9877
  14   0.0000       0.036728         0.9994
  15   0.0000       0.044032         1.1982
  16   0.0000       0.058287         1.5861

MULLIKEN ATOMIC CHARGES AND SPIN POPULATIONS
--------------------------------------------
   0 C :   -0.851016    0.013937
   1 C :    0.109504   -0.187312
   2 H :    0.246331   -0.003356
   3 H :    0.267844   -0.004186
   4 H :    0.246331   -0.003356
   5 H :    0.253666    0.075465
   6 H :    0.253662    0.075471
   7 O :   -0.526322    1.033338
Sum of atomic charges         :   -0.0000000

LOEWDIN ATOMIC CHARGES AND SPIN POPULATIONS
-------------------------------------------
   0 C :    0.876306   -0.000122
   1 C :   -0.043230    0.173018
   2 H :   -0.305583   -0.000858
   3 H :   -0.298846   -0.000300
   4 H :   -0.305583   -0.000857
   5 H :   -0.344113    0.027633
   6 H :   -0.344117    0.027635
   7 O :    0.765165    0.773851

  Mayer bond orders larger than 0.100000
B(  0-C ,  1-C ) :   1.0595 B(  0-C ,  2-H ) :   0.9212 B(  0-C ,  3-H ) :   0.9336
B(  0-C ,  4-H ) :   0.9212 B(  1-C ,  5-H ) :   0.8656 B(  1-C ,  6-H ) :   0.8656
B(  1-C ,  7-O ) :   0.6752

MP2 TOTAL ENERGY:     -154.115385407 Eh
FINAL SINGLE POINT ENERGY      -154.115385406651

DIPOLE MOMENT
-------------
                                X             Y             Z
Electronic contribution:      3.51368      -0.79854       0.00001
Nuclear contribution   :     -4.11776       1.25650      -0.00001
                        -----------------------------------------
Total Dipole Moment    :     -0.60408       0.45796      -0.00000
                        -----------------------------------------
Magnitude (a.u.)       :      0.75805
Magnitude (Debye)      :      1.92682

Rotational constants in cm-1:     1.330234     0.320687     0.285401
Rotational constants in MHz : 39879.409320  9613.956793  8556.093106

                             ****ORCA TERMINATED NORMALLY****
TOTAL RUN TIME: 0 days 0 hours 2 minutes 22 seconds 456 msec
