                         Program Version 4.2.1 -  RELEASE  -
|  1> %pal
|  2>  nprocs 32
|  3> end
|  4> !RI-MP2 aug-cc-pVQZ aug-cc-pVQZ/C TightSCF
|  5> %maxcore 4500
|  6> *xyzfile 0 1  02_30R1.xyz
|  7>
|  8>
|  9>                          ****END OF INPUT****

CARTESIAN COORDINATES (ANGSTROEM)
---------------------------------
  C     -0.482504   -0.609961    1.359621
  C      0.482504    0.609961    1.359621
  C     -0.144262   -0.581405   -1.464876
  C      0.060182    1.868140    0.572863
  C      0.144262    0.581405   -1.464876
  C      0.482504    1.886381   -0.913061
  C     -0.060182   -1.868140    0.572863
  C     -0.482504   -1.886381   -0.913061
  H      1.474521    0.291906    1.022803
  H     -1.027264    1.974374    0.628298
  H      0.611859    0.919991    2.399596
  H      0.483319    2.753546    1.056360
  H     -0.009950    2.707661   -1.438816
  H      1.560257    2.057430   -0.995521
  H     -0.483319   -2.753546    1.056360
  H      1.027264   -1.974374    0.628298
  H      0.009950   -2.707661   -1.438816
  H     -1.560257   -2.057430   -0.995521
  H     -0.611859   -0.919991    2.399596
  H     -1.474521   -0.291906    1.022803

 Total Charge           Charge          ....    0
 Multiplicity           Mult            ....    1
 Number of Electrons    NEL             ....   60
 Basis Dimension        Dim             .... 1192

ORBITAL ENERGIES
----------------

  NO   OCC          E(Eh)            E(eV)
   0   2.0000     -11.242086      -305.9127
   1   2.0000     -11.242085      -305.9127
   2   2.0000     -11.224817      -305.4428
   3   2.0000     -11.224816      -305.4428
   4   2.0000     -11.218334      -305.2664
   5   2.0000     -11.217790      -305.2516
   6   2.0000     -11.207375      -304.9682
   7   2.0000     -11.203401      -304.8601
   8   2.0000      -1.111466       -30.2445
   9   2.0000      -1.060391       -28.8547
  10   2.0000      -1.030145       -28.0317
  11   2.0000      -0.935898       -25.4671
  12   2.0000      -0.915146       -24.9024
  13   2.0000      -0.814155       -22.1543
  14   2.0000      -0.782894       -21.3036
  15   2.0000      -0.664616       -18.0851
  16   2.0000      -0.646395       -17.5893
  17   2.0000      -0.625580       -17.0229
  18   2.0000      -0.606311       -16.4986
  19   2.0000      -0.583090       -15.8667
  20   2.0000      -0.577204       -15.7065
  21   2.0000      -0.539171       -14.6716
  22   2.0000      -0.531108       -14.4522
  23   2.0000      -0.518102       -14.0983
  24   2.0000      -0.492127       -13.3915
  25   2.0000      -0.462420       -12.5831
  26   2.0000      -0.453726       -12.3465
  27   2.0000      -0.449596       -12.2341
  28   2.0000      -0.360251        -9.8029
  29   2.0000      -0.355701        -9.6791
  30   0.0000       0.025860         0.7037
  31   0.0000       0.027591         0.7508
  32   0.0000       0.033084         0.9003
  33   0.0000       0.033506         0.9117
  34   0.0000       0.042447         1.1551

MULLIKEN ATOMIC CHARGES
-----------------------
   0 C :   -0.452173
   1 C :   -0.452186
   2 C :   -0.107459
   3 C :   -0.510106
   4 C :   -0.107550
   5 C :   -0.544604
   6 C :   -0.510194
   7 C :   -0.544581
   8 H :    0.258168
   9 H :    0.214210
  10 H :    0.326185
  11 H :    0.274289
  12 H :    0.306979
  13 H :    0.234555
  14 H :    0.274303
  15 H :    0.214238
  16 H :    0.307032
  17 H :    0.234540
  18 H :    0.326212
  19 H :    0.258142
Sum of atomic charges:   -0.0000000

LOEWDIN ATOMIC CHARGES
----------------------
   0 C :    0.549061
   1 C :    0.549061
   2 C :    0.169577
   3 C :    0.521211
   4 C :    0.169577
   5 C :    0.451888
   6 C :    0.521211
   7 C :    0.451888
   8 H :   -0.283115
   9 H :   -0.276261
  10 H :   -0.278558
  11 H :   -0.268054
  12 H :   -0.292051
  13 H :   -0.293696
  14 H :   -0.268054
  15 H :   -0.276261
  16 H :   -0.292051
  17 H :   -0.293696
  18 H :   -0.278558
  19 H :   -0.283115

  Mayer bond orders larger than 0.100000
B(  0-C ,  1-C ) :   0.9264 B(  0-C ,  6-C ) :   0.8278 B(  0-C , 18-H ) :   0.8995
B(  0-C , 19-H ) :   0.9399 B(  1-C ,  3-C ) :   0.8278 B(  1-C ,  8-H ) :   0.9399
B(  1-C , 10-H ) :   0.8995 B(  2-C ,  4-C ) :   2.9347 B(  2-C ,  7-C ) :   0.7587
B(  2-C , 16-H ) :  -0.1074 B(  3-C ,  5-C ) :   0.9911 B(  3-C ,  9-H ) :   0.9271
B(  3-C , 11-H ) :   0.9423 B(  4-C ,  5-C ) :   0.7588 B(  4-C , 12-H ) :  -0.1073
B(  5-C , 12-H ) :   0.9478 B(  5-C , 13-H ) :   0.9629 B(  6-C ,  7-C ) :   0.9911
B(  6-C , 14-H ) :   0.9423 B(  6-C , 15-H ) :   0.9271 B(  7-C , 16-H ) :   0.9478
B(  7-C , 17-H ) :   0.9629

MP2 TOTAL ENERGY:     -311.404630478 Eh
FINAL SINGLE POINT ENERGY      -311.404630477636

DIPOLE MOMENT
-------------
                                X             Y             Z
Electronic contribution:      0.00000      -0.00000      -4.99563
Nuclear contribution   :     -0.00000      -0.00000       5.56781
                        -----------------------------------------
Total Dipole Moment    :      0.00000      -0.00000       0.57218
                        -----------------------------------------
Magnitude (a.u.)       :      0.57218
Magnitude (Debye)      :      1.45436

Rotational constants in cm-1:     0.103190     0.065056     0.043354
Rotational constants in MHz :  3093.565904  1950.321856  1299.721866

                             ****ORCA TERMINATED NORMALLY****
TOTAL RUN TIME: 0 days 0 hours 44 minutes 56 seconds 481 msec
