                         Program Version 4.2.1 -  RELEASE  -
|  1> %pal
|  2>  nprocs 32
|  3> end
|  4> !RI-MP2 aug-cc-pVQZ aug-cc-pVQZ/C TightSCF
|  5> %maxcore 4500
|  6> *xyzfile 0 1  02_34R.xyz
|  7>
|  8>
|  9>                          ****END OF INPUT****

CARTESIAN COORDINATES (ANGSTROEM)
---------------------------------
  C      0.009672   -0.131161   -0.686832
  C     -2.373926   -0.595372   -0.170093
  C      1.212802   -0.640533   -1.000010
  C     -2.921248    0.731856    0.091767
  C     -4.393791    0.503301    0.409589
  C     -1.128507   -0.985416   -0.503201
  C     -3.467203   -1.572653   -0.009926
  C      2.475343    0.118708   -1.161182
  C      2.289133    1.615200   -1.422540
  H      1.835463    2.124201   -0.569563
  H      1.639901    1.785172   -2.285033
  H      3.034250   -0.330310   -1.992323
  H      3.246591    2.098480   -1.623594
  N     -2.286649    1.827052    0.057583
  C     -2.979272    3.064546    0.343125
  H     -4.043895    2.961520    0.580961
  H     -2.486001    3.560613    1.182562
  H     -2.882439    3.730717   -0.517648
  O     -3.444259   -2.762424   -0.131091
  O     -4.609175   -0.905158    0.322435
  H     -5.050992    0.999775   -0.306782
  H     -4.653140    0.831868    1.417674
  Si     3.584957   -0.197503    0.373499
  C      3.758827   -2.047586    0.632696
  C      5.271355    0.558080    0.045900
  C      2.792187    0.595831    1.874229
  H      4.461322   -2.257846    1.443193
  H      2.805224   -2.509550    0.897933
  H      4.135377   -2.545932   -0.264501
  H      5.728436    0.138889   -0.854081
  H      5.213217    1.641267   -0.081035
  H      5.948411    0.361688    0.881335
  H      2.744930    1.682971    1.779323
  H      1.774064    0.229139    2.022992
  H      3.364094    0.369240    2.777674
  H     -0.144825    0.931956   -0.559833
  H      1.289159   -1.720912   -1.111150
  H     -0.986756   -2.055421   -0.642056

 Total Charge           Charge          ....    0
 Multiplicity           Mult            ....    1
 Number of Electrons    NEL             ....  136
 Basis Dimension        Dim             .... 2330

ORBITAL ENERGIES
----------------

  NO   OCC          E(Eh)            E(eV)
   0   2.0000     -68.758030     -1871.0011
   1   2.0000     -20.596032      -560.4465
   2   2.0000     -20.526395      -558.5516
   3   2.0000     -15.556398      -423.3111
   4   2.0000     -11.368680      -309.3575
   5   2.0000     -11.304064      -307.5992
   6   2.0000     -11.295295      -307.3606
   7   2.0000     -11.275902      -306.8329
   8   2.0000     -11.264191      -306.5142
   9   2.0000     -11.254046      -306.2382
  10   2.0000     -11.236862      -305.7706
  11   2.0000     -11.229316      -305.5652
  12   2.0000     -11.227179      -305.5071
  13   2.0000     -11.225864      -305.4713
  14   2.0000     -11.204887      -304.9005
  15   2.0000     -11.204838      -304.8991
  16   2.0000     -11.200863      -304.7910
  17   2.0000      -6.107249      -166.1867
  18   2.0000      -4.213706      -114.6608
  19   2.0000      -4.213544      -114.6564
  20   2.0000      -4.213454      -114.6539
  21   2.0000      -1.455472       -39.6054
  22   2.0000      -1.359961       -37.0064
  23   2.0000      -1.242890       -33.8208
  24   2.0000      -1.129997       -30.7488
  25   2.0000      -1.086031       -29.5524
  26   2.0000      -1.023076       -27.8393
  27   2.0000      -0.991976       -26.9930
  28   2.0000      -0.971022       -26.4229
  29   2.0000      -0.945733       -25.7347
  30   2.0000      -0.933660       -25.4062
  31   2.0000      -0.930912       -25.3314
  32   2.0000      -0.917689       -24.9716
  33   2.0000      -0.860625       -23.4188
  34   2.0000      -0.773959       -21.0605
  35   2.0000      -0.757638       -20.6164
  36   2.0000      -0.738526       -20.0963
  37   2.0000      -0.698455       -19.0059
  38   2.0000      -0.687812       -18.7163
  39   2.0000      -0.656741       -17.8708
  40   2.0000      -0.652634       -17.7591
  41   2.0000      -0.645738       -17.5714
  42   2.0000      -0.615428       -16.7466
  43   2.0000      -0.609080       -16.5739
  44   2.0000      -0.598285       -16.2802
  45   2.0000      -0.595669       -16.2090
  46   2.0000      -0.592752       -16.1296
  47   2.0000      -0.572843       -15.5879
  48   2.0000      -0.570476       -15.5234
  49   2.0000      -0.567047       -15.4301
  50   2.0000      -0.565132       -15.3780
  51   2.0000      -0.561573       -15.2812
  52   2.0000      -0.551056       -14.9950
  53   2.0000      -0.545787       -14.8516
  54   2.0000      -0.544055       -14.8045
  55   2.0000      -0.539139       -14.6707
  56   2.0000      -0.525464       -14.2986
  57   2.0000      -0.512054       -13.9337
  58   2.0000      -0.499955       -13.6045
  59   2.0000      -0.492787       -13.4094
  60   2.0000      -0.455060       -12.3828
  61   2.0000      -0.444214       -12.0877
  62   2.0000      -0.439670       -11.9640
  63   2.0000      -0.437454       -11.9037
  64   2.0000      -0.436612       -11.8808
  65   2.0000      -0.398425       -10.8417
  66   2.0000      -0.396805       -10.7976
  67   2.0000      -0.312795        -8.5116
  68   0.0000       0.016762         0.4561
  69   0.0000       0.022240         0.6052
  70   0.0000       0.026082         0.7097
  71   0.0000       0.028454         0.7743
  72   0.0000       0.034324         0.9340

MULLIKEN ATOMIC CHARGES
-----------------------
   0 C :   -0.513574
   1 C :   -0.771558
   2 C :   -0.252690
   3 C :    0.234902
   4 C :   -0.001158
   5 C :    0.389578
   6 C :    1.505216
   7 C :    0.104658
   8 C :   -1.220338
   9 H :    0.211077
  10 H :    0.271770
  11 H :    0.263060
  12 H :    0.292393
  13 N :   -0.643402
  14 C :   -0.898682
  15 H :    0.334473
  16 H :    0.333174
  17 H :    0.328716
  18 O :   -0.898275
  19 O :   -0.907502
  20 H :    0.279863
  21 H :    0.281588
  22 Si:    1.662946
  23 C :   -1.253809
  24 C :   -1.229596
  25 C :   -1.296578
  26 H :    0.335112
  27 H :    0.259699
  28 H :    0.282064
  29 H :    0.274504
  30 H :    0.244695
  31 H :    0.325699
  32 H :    0.242643
  33 H :    0.304925
  34 H :    0.301301
  35 H :    0.383094
  36 H :    0.205360
  37 H :    0.234651
Sum of atomic charges:    0.0000000

LOEWDIN ATOMIC CHARGES
----------------------
   0 C :    0.388121
   1 C :   -0.131625
   2 C :    0.349483
   3 C :   -0.344711
   4 C :    0.170207
   5 C :    0.364143
   6 C :   -1.104644
   7 C :    0.185061
   8 C :    0.874568
   9 H :   -0.294353
  10 H :   -0.261996
  11 H :   -0.322955
  12 H :   -0.281340
  13 N :    0.628127
  14 C :    0.682889
  15 H :   -0.345492
  16 H :   -0.309858
  17 H :   -0.309479
  18 O :    0.666655
  19 O :    0.856358
  20 H :   -0.290165
  21 H :   -0.290961
  22 Si:    0.158759
  23 C :    0.999765
  24 C :    1.001036
  25 C :    1.004214
  26 H :   -0.332154
  27 H :   -0.337460
  28 H :   -0.328779
  29 H :   -0.329945
  30 H :   -0.339369
  31 H :   -0.332989
  32 H :   -0.333378
  33 H :   -0.332649
  34 H :   -0.329161
  35 H :   -0.401091
  36 H :   -0.310609
  37 H :   -0.334225

  Mayer bond orders larger than 0.100000
B(  0-C ,  1-C ) :  -0.7328 B(  0-C ,  2-C ) :   1.0485 B(  0-C ,  5-C ) :   0.7422
B(  0-C ,  7-C ) :  -0.5052 B(  0-C , 35-H ) :   0.7840 B(  0-C , 37-H ) :  -0.1030
B(  1-C ,  3-C ) :   0.6346 B(  1-C ,  4-C ) :  -0.2258 B(  1-C ,  5-C ) :   0.9052
B(  1-C ,  6-C ) :   1.7329 B(  1-C , 18-O ) :   0.6292 B(  2-C ,  5-C ) :  -0.6887
B(  2-C ,  7-C ) :   1.0971 B(  2-C ,  8-C ) :   0.1595 B(  2-C , 11-H ) :  -0.1824
B(  2-C , 36-H ) :   1.0955 B(  3-C ,  4-C ) :   1.0064 B(  3-C ,  6-C ) :  -0.3054
B(  3-C , 13-N ) :   1.4943 B(  3-C , 14-C ) :  -0.1738 B(  4-C , 19-O ) :   0.4041
B(  4-C , 20-H ) :   0.9404 B(  4-C , 21-H ) :   0.9301 B(  5-C ,  6-C ) :  -0.3552
B(  5-C , 37-H ) :   0.9073 B(  6-C , 18-O ) :   0.8528 B(  6-C , 19-O ) :   0.7492
B(  7-C ,  8-C ) :   0.5721 B(  7-C ,  9-H ) :  -0.1155 B(  7-C , 11-H ) :   1.0754
B(  7-C , 22-Si) :   0.3006 B(  8-C ,  9-H ) :   1.0462 B(  8-C , 10-H ) :   1.0364
B(  8-C , 12-H ) :   1.0135 B( 13-N , 14-C ) :   1.0009 B( 14-C , 15-H ) :   0.8706
B( 14-C , 16-H ) :   0.9178 B( 14-C , 17-H ) :   0.9231 B( 18-O , 19-O ) :   0.1341
B( 22-Si, 23-C ) :   0.7508 B( 22-Si, 24-C ) :   0.8321 B( 22-Si, 25-C ) :   0.6926
B( 23-C , 26-H ) :   0.9539 B( 23-C , 27-H ) :   0.9948 B( 23-C , 28-H ) :   0.9436
B( 24-C , 29-H ) :   0.9721 B( 24-C , 30-H ) :   0.9859 B( 24-C , 31-H ) :   0.9426
B( 25-C , 32-H ) :   0.9590 B( 25-C , 33-H ) :   0.9043 B( 25-C , 34-H ) :   0.9992

MP2 TOTAL ENERGY:    -1001.100946260 Eh
FINAL SINGLE POINT ENERGY     -1001.100946260419

DIPOLE MOMENT
-------------
                                X             Y             Z
Electronic contribution:    -25.53715     -10.56692      -2.17394
Nuclear contribution   :     27.03952      12.18399       2.19118
                        -----------------------------------------
Total Dipole Moment    :      1.50237       1.61708       0.01724
                        -----------------------------------------
Magnitude (a.u.)       :      2.20734
Magnitude (Debye)      :      5.61062

Rotational constants in cm-1:     0.024701     0.006003     0.005303
Rotational constants in MHz :   740.529372   179.964413   158.987844

                             ****ORCA TERMINATED NORMALLY****
TOTAL RUN TIME: 0 days 5 hours 48 minutes 3 seconds 440 msec
