                         Program Version 4.2.1 -  RELEASE  -
|  1> %pal
|  2>  nprocs 32
|  3> end
|  4> !RI-MP2 aug-cc-pVQZ aug-cc-pVQZ/C TightSCF
|  5> %maxcore 4500
|  6> *xyzfile 1 1  05_26P1.xyz
|  7>
|  8>
|  9>                          ****END OF INPUT****

CARTESIAN COORDINATES (ANGSTROEM)
---------------------------------
  C      2.608719   -0.256896    0.000005
  O      3.647262    0.493039    0.000075
  C      4.976858   -0.082711    0.000047
  H      4.916778   -1.170782   -0.000065
  H      5.478135    0.280966    0.893258
  C      1.336225    0.282131    0.000034
  H      1.233206    1.359014    0.000117
  C      0.259753   -0.574847   -0.000043
  H      0.478899   -1.640644   -0.000123
  H      5.478173    0.281146   -0.893070
  C     -1.121252   -0.236948   -0.000030
  C     -1.579169    1.096440    0.000068
  C     -2.061258   -1.285662   -0.000120
  C     -2.929517    1.361292    0.000075
  H     -0.875682    1.918704    0.000138
  C     -3.413652   -1.013148   -0.000112
  H     -1.714197   -2.312457   -0.000196
  C     -3.845532    0.308519   -0.000014
  H     -3.282466    2.384210    0.000151
  H     -4.133126   -1.821239   -0.000181
  H     -4.906914    0.525072   -0.000008
  H      2.762049   -1.337336   -0.000076

 Total Charge           Charge          ....    1
 Multiplicity           Mult            ....    1
 Number of Electrons    NEL             ....   78
 Basis Dimension        Dim             .... 1386

ORBITAL ENERGIES
----------------

  NO   OCC          E(Eh)            E(eV)
   0   2.0000     -20.792635      -565.7964
   1   2.0000     -11.530938      -313.7728
   2   2.0000     -11.462792      -311.9184
   3   2.0000     -11.443925      -311.4050
   4   2.0000     -11.398220      -310.1613
   5   2.0000     -11.393301      -310.0275
   6   2.0000     -11.391508      -309.9787
   7   2.0000     -11.390413      -309.9489
   8   2.0000     -11.386842      -309.8517
   9   2.0000     -11.367665      -309.3299
  10   2.0000     -11.366454      -309.2969
  11   2.0000      -1.631977       -44.4084
  12   2.0000      -1.320206       -35.9246
  13   2.0000      -1.272864       -34.6364
  14   2.0000      -1.196630       -32.5619
  15   2.0000      -1.165683       -31.7198
  16   2.0000      -1.136409       -30.9233
  17   2.0000      -1.054969       -28.7072
  18   2.0000      -0.999605       -27.2006
  19   2.0000      -0.972105       -26.4523
  20   2.0000      -0.942581       -25.6489
  21   2.0000      -0.885799       -24.1038
  22   2.0000      -0.860199       -23.4072
  23   2.0000      -0.842463       -22.9246
  24   2.0000      -0.830336       -22.5946
  25   2.0000      -0.791931       -21.5495
  26   2.0000      -0.781175       -21.2569
  27   2.0000      -0.745088       -20.2749
  28   2.0000      -0.735948       -20.0262
  29   2.0000      -0.732681       -19.9373
  30   2.0000      -0.707601       -19.2548
  31   2.0000      -0.695819       -18.9342
  32   2.0000      -0.687690       -18.7130
  33   2.0000      -0.662402       -18.0249
  34   2.0000      -0.650597       -17.7036
  35   2.0000      -0.634064       -17.2538
  36   2.0000      -0.576462       -15.6863
  37   2.0000      -0.481432       -13.1004
  38   2.0000      -0.470019       -12.7899
  39   0.0000      -0.137309        -3.7364
  40   0.0000      -0.075367        -2.0508
  41   0.0000      -0.060616        -1.6494
  42   0.0000      -0.056011        -1.5241
  43   0.0000      -0.050833        -1.3832

MULLIKEN ATOMIC CHARGES
-----------------------
   0 C :    0.663577
   1 O :   -0.682154
   2 C :   -0.580001
   3 H :    0.302561
   4 H :    0.346674
   5 C :   -0.785046
   6 H :    0.437938
   7 C :   -0.033440
   8 H :    0.277764
   9 H :    0.346671
  10 C :    0.473187
  11 C :   -0.237010
  12 C :   -0.388748
  13 C :   -0.275582
  14 H :    0.213683
  15 C :   -0.276723
  16 H :    0.245925
  17 C :   -0.369458
  18 H :    0.283639
  19 H :    0.312699
  20 H :    0.319389
  21 H :    0.404457
Sum of atomic charges:    1.0000000

LOEWDIN ATOMIC CHARGES
----------------------
   0 C :    0.044703
   1 O :    0.930544
   2 C :    0.717385
   3 H :   -0.311515
   4 H :   -0.286794
   5 C :    0.414317
   6 H :   -0.339738
   7 C :    0.399114
   8 H :   -0.316618
   9 H :   -0.286794
  10 C :   -0.059007
  11 C :    0.367842
  12 C :    0.366412
  13 C :    0.396988
  14 H :   -0.318601
  15 C :    0.395190
  16 H :   -0.300648
  17 C :    0.391514
  18 H :   -0.304748
  19 H :   -0.305749
  20 H :   -0.291127
  21 H :   -0.302667

  Mayer bond orders larger than 0.100000
B(  0-C ,  1-O ) :   0.9701 B(  0-C ,  2-C ) :  -0.1119 B(  0-C ,  5-C ) :   1.4504
B(  0-C ,  7-C ) :  -0.6164 B(  0-C , 21-H ) :   0.8743 B(  1-O ,  2-C ) :   0.7789
B(  2-C ,  3-H ) :   0.8892 B(  2-C ,  4-H ) :   0.8867 B(  2-C ,  9-H ) :   0.8867
B(  5-C ,  6-H ) :   0.8272 B(  5-C ,  7-C ) :   1.0283 B(  5-C , 10-C ) :  -0.4555
B(  5-C , 11-C ) :  -0.1889 B(  5-C , 21-H ) :  -0.1049 B(  7-C ,  8-H ) :   0.9720
B(  7-C , 10-C ) :   0.7607 B(  7-C , 11-C ) :  -0.3923 B(  7-C , 12-C ) :  -0.5016
B(  8-H , 10-C ) :  -0.2329 B( 10-C , 11-C ) :   1.1426 B( 10-C , 12-C ) :   0.9655
B( 10-C , 13-C ) :  -0.3420 B( 10-C , 15-C ) :  -0.4005 B( 10-C , 16-H ) :  -0.1191
B( 11-C , 12-C ) :   0.1230 B( 11-C , 13-C ) :   1.1870 B( 11-C , 14-H ) :   1.0241
B( 11-C , 15-C ) :   0.1034 B( 11-C , 18-H ) :  -0.1065 B( 12-C , 15-C ) :   1.2132
B( 12-C , 16-H ) :   1.0391 B( 12-C , 19-H ) :  -0.1350 B( 13-C , 17-C ) :   1.1559
B( 13-C , 18-H ) :   1.0756 B( 15-C , 17-C ) :   1.1456 B( 15-C , 19-H ) :   1.0809
B( 17-C , 20-H ) :   1.0277

MP2 TOTAL ENERGY:     -461.814880726 Eh
FINAL SINGLE POINT ENERGY      -461.814880725683

DIPOLE MOMENT
-------------
                                X             Y             Z
Electronic contribution:     -3.62931       0.74911       0.00001
Nuclear contribution   :      5.53603      -1.53771      -0.00005
                        -----------------------------------------
Total Dipole Moment    :      1.90672      -0.78860      -0.00004
                        -----------------------------------------
Magnitude (a.u.)       :      2.06337
Magnitude (Debye)      :      5.24466

Rotational constants in cm-1:     0.155630     0.013140     0.012145
Rotational constants in MHz :  4665.681701   393.929382   364.100759

                             ****ORCA TERMINATED NORMALLY****
TOTAL RUN TIME: 0 days 1 hours 11 minutes 51 seconds 419 msec
