                         Program Version 4.2.1 -  RELEASE  -
|  1> %pal
|  2>  nprocs 32
|  3> end
|  4> !RI-MP2 aug-cc-pVQZ aug-cc-pVQZ/C TightSCF
|  5> %maxcore 4500
|  6> *xyzfile 0 1  06_21R1.xyz
|  7>
|  8>
|  9>                          ****END OF INPUT****

CARTESIAN COORDINATES (ANGSTROEM)
---------------------------------
  Si     0.001297    0.000582   -0.783101
  Si    -1.120691   -1.922635   -0.042876
  Si    -1.106162    1.931872   -0.042894
  Si     2.227731   -0.008500   -0.043123
  C      2.988285   -1.722501   -0.233086
  H      4.037096   -1.715948    0.077277
  H      2.466647   -2.461664    0.379202
  H      2.949894   -2.063461   -1.270349
  C      3.247193    1.225015   -1.035366
  H      2.848387    2.237625   -0.944073
  H      4.284179    1.240450   -0.687641
  H      3.254262    0.966233   -2.096720
  C      2.280163    0.474817    1.778492
  H      1.673135   -0.196165    2.390445
  H      3.304963    0.435605    2.158353
  H      1.909585    1.490829    1.932746
  C     -0.006051    3.450464   -0.232662
  H     -0.539881    4.353860    0.076098
  H      0.894349    3.372188    0.380913
  H      0.309340    3.588118   -1.269585
  C     -2.685589    2.196414   -1.033354
  H     -3.360734    1.342578   -0.944209
  H     -3.219714    3.084087   -0.682248
  H     -2.466373    2.335973   -2.094440
  C     -1.548915    1.734016    1.779144
  H     -0.663464    1.544504    2.390055
  H     -2.027787    2.640556    2.159902
  H     -2.242689    0.904485    1.933882
  C     -2.985503   -1.724222   -0.230266
  H     -3.502549   -2.637240    0.078732
  H     -3.365547   -0.904625    0.383854
  H     -3.262806   -1.519054   -1.266923
  C     -0.566839   -3.423898   -1.035602
  H      0.509711   -3.585819   -0.949334
  H     -1.070954   -4.328664   -0.683761
  H     -0.799712   -3.302454   -2.096039
  C     -0.725561   -2.211673    1.777930
  H     -1.276220   -3.076566    2.158513
  H      0.338773   -2.405724    1.929337
  H     -0.996300   -1.349295    2.391207
  H      0.000875    0.000538   -2.278651

 Total Charge           Charge          ....    0
 Multiplicity           Mult            ....    1
 Number of Electrons    NEL             ....  138
 Basis Dimension        Dim             .... 2344

ORBITAL ENERGIES
----------------

  NO   OCC          E(Eh)            E(eV)
   0   2.0000     -68.744594     -1870.6355
   1   2.0000     -68.744556     -1870.6345
   2   2.0000     -68.744555     -1870.6345
   3   2.0000     -68.722825     -1870.0431
   4   2.0000     -11.196339      -304.6679
   5   2.0000     -11.196302      -304.6669
   6   2.0000     -11.196300      -304.6668
   7   2.0000     -11.195900      -304.6559
   8   2.0000     -11.195873      -304.6552
   9   2.0000     -11.195864      -304.6550
  10   2.0000     -11.194060      -304.6059
  11   2.0000     -11.194027      -304.6050
  12   2.0000     -11.194001      -304.6042
  13   2.0000      -6.093870      -165.8226
  14   2.0000      -6.093831      -165.8216
  15   2.0000      -6.093829      -165.8215
  16   2.0000      -6.076736      -165.3564
  17   2.0000      -4.200349      -114.2973
  18   2.0000      -4.200311      -114.2963
  19   2.0000      -4.200303      -114.2961
  20   2.0000      -4.200027      -114.2885
  21   2.0000      -4.199988      -114.2875
  22   2.0000      -4.199986      -114.2874
  23   2.0000      -4.199983      -114.2873
  24   2.0000      -4.199944      -114.2863
  25   2.0000      -4.199942      -114.2862
  26   2.0000      -4.182606      -113.8145
  27   2.0000      -4.182430      -113.8097
  28   2.0000      -4.182429      -113.8097
  29   2.0000      -0.968756       -26.3612
  30   2.0000      -0.962075       -26.1794
  31   2.0000      -0.962039       -26.1784
  32   2.0000      -0.924448       -25.1555
  33   2.0000      -0.922292       -25.0968
  34   2.0000      -0.922276       -25.0964
  35   2.0000      -0.920091       -25.0370
  36   2.0000      -0.920057       -25.0360
  37   2.0000      -0.918411       -24.9912
  38   2.0000      -0.714482       -19.4420
  39   2.0000      -0.623428       -16.9643
  40   2.0000      -0.623369       -16.9627
  41   2.0000      -0.591765       -16.1027
  42   2.0000      -0.574207       -15.6250
  43   2.0000      -0.574131       -15.6229
  44   2.0000      -0.566601       -15.4180
  45   2.0000      -0.563095       -15.3226
  46   2.0000      -0.563060       -15.3216
  47   2.0000      -0.558595       -15.2001
  48   2.0000      -0.554473       -15.0880
  49   2.0000      -0.554429       -15.0868
  50   2.0000      -0.548382       -14.9222
  51   2.0000      -0.540509       -14.7080
  52   2.0000      -0.539732       -14.6868
  53   2.0000      -0.539701       -14.6860
  54   2.0000      -0.535897       -14.5825
  55   2.0000      -0.535861       -14.5815
  56   2.0000      -0.533016       -14.5041
  57   2.0000      -0.528195       -14.3729
  58   2.0000      -0.527983       -14.3672
  59   2.0000      -0.527967       -14.3667
  60   2.0000      -0.440978       -11.9996
  61   2.0000      -0.432452       -11.7676
  62   2.0000      -0.432435       -11.7672
  63   2.0000      -0.427101       -11.6220
  64   2.0000      -0.427058       -11.6208
  65   2.0000      -0.424248       -11.5444
  66   2.0000      -0.406066       -11.0496
  67   2.0000      -0.340583        -9.2677
  68   2.0000      -0.340532        -9.2663
  69   0.0000       0.019740         0.5372
  70   0.0000       0.025957         0.7063
  71   0.0000       0.025957         0.7063
  72   0.0000       0.029994         0.8162
  73   0.0000       0.037358         1.0166

MULLIKEN ATOMIC CHARGES
-----------------------
   0 Si:    0.367821
   1 Si:    1.343962
   2 Si:    1.348063
   3 Si:    1.349331
   4 C :   -1.207609
   5 H :    0.244347
   6 H :    0.319243
   7 H :    0.277117
   8 C :   -1.306324
   9 H :    0.346011
  10 H :    0.335557
  11 H :    0.276929
  12 C :   -1.235084
  13 H :    0.302027
  14 H :    0.253751
  15 H :    0.299573
  16 C :   -1.206234
  17 H :    0.244460
  18 H :    0.319156
  19 H :    0.277877
  20 C :   -1.306326
  21 H :    0.346525
  22 H :    0.334356
  23 H :    0.276708
  24 C :   -1.234905
  25 H :    0.302333
  26 H :    0.253978
  27 H :    0.298645
  28 C :   -1.205335
  29 H :    0.243242
  30 H :    0.318647
  31 H :    0.277292
  32 C :   -1.304979
  33 H :    0.346782
  34 H :    0.334861
  35 H :    0.277219
  36 C :   -1.234627
  37 H :    0.253088
  38 H :    0.299766
  39 H :    0.302196
  40 H :   -1.129439
Sum of atomic charges:   -0.0000000

LOEWDIN ATOMIC CHARGES
----------------------
   0 Si:    0.633260
   1 Si:    0.106738
   2 Si:    0.106687
   3 Si:    0.106923
   4 C :    0.951748
   5 H :   -0.331904
   6 H :   -0.356725
   7 H :   -0.337277
   8 C :    0.952210
   9 H :   -0.357544
  10 H :   -0.334717
  11 H :   -0.340108
  12 C :    0.952636
  13 H :   -0.350038
  14 H :   -0.327658
  15 H :   -0.352423
  16 C :    0.951737
  17 H :   -0.332039
  18 H :   -0.356372
  19 H :   -0.337338
  20 C :    0.952316
  21 H :   -0.357995
  22 H :   -0.334659
  23 H :   -0.339968
  24 C :    0.952630
  25 H :   -0.350174
  26 H :   -0.327589
  27 H :   -0.352478
  28 C :    0.951686
  29 H :   -0.331934
  30 H :   -0.356551
  31 H :   -0.337255
  32 C :    0.952293
  33 H :   -0.357515
  34 H :   -0.334784
  35 H :   -0.340019
  36 C :    0.952648
  37 H :   -0.327701
  38 H :   -0.352312
  39 H :   -0.350143
  40 H :   -0.258291

  Mayer bond orders larger than 0.100000
B(  0-Si,  1-Si) :   0.7215 B(  0-Si,  2-Si) :   0.7202 B(  0-Si,  3-Si) :   0.7217
B(  0-Si, 40-H ) :  -0.8371 B(  1-Si,  2-Si) :  -0.1687 B(  1-Si,  3-Si) :  -0.1673
B(  1-Si, 28-C ) :   0.9667 B(  1-Si, 32-C ) :   0.9611 B(  1-Si, 36-C ) :   0.7072
B(  2-Si,  3-Si) :  -0.1668 B(  2-Si, 16-C ) :   0.9673 B(  2-Si, 20-C ) :   0.9611
B(  2-Si, 24-C ) :   0.7069 B(  3-Si,  4-C ) :   0.9645 B(  3-Si,  8-C ) :   0.9636
B(  3-Si, 12-C ) :   0.7102 B(  4-C ,  5-H ) :   1.0170 B(  4-C ,  6-H ) :   0.8634
B(  4-C ,  7-H ) :   0.9403 B(  8-C ,  9-H ) :   0.8771 B(  8-C , 10-H ) :   0.8991
B(  8-C , 11-H ) :   0.9862 B( 12-C , 13-H ) :   0.8851 B( 12-C , 14-H ) :   1.0440
B( 12-C , 15-H ) :   0.8931 B( 16-C , 17-H ) :   1.0157 B( 16-C , 18-H ) :   0.8647
B( 16-C , 19-H ) :   0.9398 B( 20-C , 21-H ) :   0.8761 B( 20-C , 22-H ) :   0.9002
B( 20-C , 23-H ) :   0.9868 B( 24-C , 25-H ) :   0.8850 B( 24-C , 26-H ) :   1.0442
B( 24-C , 27-H ) :   0.8939 B( 28-C , 29-H ) :   1.0168 B( 28-C , 30-H ) :   0.8640
B( 28-C , 31-H ) :   0.9395 B( 32-C , 33-H ) :   0.8764 B( 32-C , 34-H ) :   0.8993
B( 32-C , 35-H ) :   0.9868 B( 36-C , 37-H ) :   1.0451 B( 36-C , 38-H ) :   0.8932
B( 36-C , 39-H ) :   0.8852

MP2 TOTAL ENERGY:    -1515.446765222 Eh
FINAL SINGLE POINT ENERGY     -1515.446765221561

DIPOLE MOMENT
-------------
                                X             Y             Z
Electronic contribution:      0.01562       0.01020      -3.58083
Nuclear contribution   :     -0.01425      -0.00952       3.76452
                        -----------------------------------------
Total Dipole Moment    :      0.00137       0.00068       0.18369
                        -----------------------------------------
Magnitude (a.u.)       :      0.18370
Magnitude (Debye)      :      0.46692

Rotational constants in cm-1:     0.014735     0.014725     0.009344
Rotational constants in MHz :   441.729239   441.430945   280.136408

                             ****ORCA TERMINATED NORMALLY****
TOTAL RUN TIME: 0 days 6 hours 0 minutes 43 seconds 553 msec
