                         Program Version 4.2.1 -  RELEASE  -
|  1> %pal
|  2>  nprocs 32
|  3> end
|  4> !RI-MP2 aug-cc-pVQZ aug-cc-pVQZ/C TightSCF
|  5> %maxcore 4500
|  6> *xyzfile 0 2  01_5R.xyz
|  7>
|  8>
|  9>                          ****END OF INPUT****

CARTESIAN COORDINATES (ANGSTROEM)
---------------------------------
  C     -1.952005   -0.484139    0.082717
  C     -0.486618   -0.583316    0.390266
  C      0.317552    0.661039    0.048009
  H     -0.104313   -1.465022   -0.139847
  H     -0.396250   -0.837186    1.454796
  C      1.809692    0.497740    0.344163
  H     -0.081334    1.511822    0.604865
  H      0.176340    0.902462   -1.009066
  C      2.483986   -0.518224   -0.505689
  H      1.957660    0.258396    1.403652
  H      2.296755    1.475236    0.200887
  O     -2.487198    0.471546   -0.413098
  H     -2.549921   -1.381606    0.346202
  H      2.171404   -0.665578   -1.533290
  H      3.391601   -1.009488   -0.180203

 Total Charge           Charge          ....    0
 Multiplicity           Mult            ....    2
 Number of Electrons    NEL             ....   47
 Basis Dimension        Dim             ....  894

ORBITAL ENERGIES
----------------
                 SPIN UP ORBITALS
  NO   OCC          E(Eh)            E(eV)
   0   1.0000     -20.553875      -559.2994
   1   1.0000     -11.328832      -308.2732
   2   1.0000     -11.239771      -305.8497
   3   1.0000     -11.233656      -305.6833
   4   1.0000     -11.228833      -305.5521
   5   1.0000     -11.226798      -305.4967
   6   1.0000      -1.396027       -37.9878
   7   1.0000      -1.097861       -29.8743
   8   1.0000      -1.020137       -27.7593
   9   1.0000      -0.915292       -24.9064
  10   1.0000      -0.816314       -22.2130
  11   1.0000      -0.765381       -20.8271
  12   1.0000      -0.678544       -18.4641
  13   1.0000      -0.651847       -17.7377
  14   1.0000      -0.640246       -17.4220
  15   1.0000      -0.605653       -16.4807
  16   1.0000      -0.578476       -15.7411
  17   1.0000      -0.557522       -15.1710
  18   1.0000      -0.515990       -14.0408
  19   1.0000      -0.508005       -13.8235
  20   1.0000      -0.488453       -13.2915
  21   1.0000      -0.482104       -13.1187
  22   1.0000      -0.419704       -11.4207
  23   1.0000      -0.356009        -9.6875
  24   0.0000       0.023554         0.6409
  25   0.0000       0.029252         0.7960
  26   0.0000       0.032038         0.8718
  27   0.0000       0.035974         0.9789
  28   0.0000       0.046820         1.2740

                 SPIN DOWN ORBITALS
  NO   OCC          E(Eh)            E(eV)
   0   1.0000     -20.553758      -559.2962
   1   1.0000     -11.328903      -308.2751
   2   1.0000     -11.239681      -305.8473
   3   1.0000     -11.231940      -305.6366
   4   1.0000     -11.226113      -305.4781
   5   1.0000     -11.210082      -305.0418
   6   1.0000      -1.395770       -37.9808
   7   1.0000      -1.089764       -29.6540
   8   1.0000      -1.000427       -27.2230
   9   1.0000      -0.883942       -24.0533
  10   1.0000      -0.790950       -21.5228
  11   1.0000      -0.759567       -20.6689
  12   1.0000      -0.676716       -18.4144
  13   1.0000      -0.648018       -17.6335
  14   1.0000      -0.636078       -17.3086
  15   1.0000      -0.596439       -16.2299
  16   1.0000      -0.566139       -15.4054
  17   1.0000      -0.548388       -14.9224
  18   1.0000      -0.507843       -13.8191
  19   1.0000      -0.501818       -13.6552
  20   1.0000      -0.483124       -13.1465
  21   1.0000      -0.479785       -13.0556
  22   1.0000      -0.418593       -11.3905
  23   0.0000       0.023764         0.6466
  24   0.0000       0.029213         0.7949
  25   0.0000       0.032262         0.8779
  26   0.0000       0.036058         0.9812
  27   0.0000       0.046665         1.2698

MULLIKEN ATOMIC CHARGES AND SPIN POPULATIONS
--------------------------------------------
   0 C :    0.280549   -0.001931
   1 C :   -0.454792    0.000759
   2 C :   -0.230517    0.031374
   3 H :    0.221941   -0.005377
   4 H :    0.228590   -0.001887
   5 C :   -0.365928   -0.211714
   6 H :    0.271288   -0.005372
   7 H :    0.200058   -0.002826
   8 C :   -0.890143    1.236859
   9 H :    0.211255    0.018925
  10 H :    0.261793    0.090424
  11 O :   -0.764239    0.002513
  12 H :    0.347322    0.000212
  13 H :    0.328899   -0.070869
  14 H :    0.353925   -0.081091
Sum of atomic charges         :    0.0000000

LOEWDIN ATOMIC CHARGES AND SPIN POPULATIONS
-------------------------------------------
   0 C :   -0.231473    0.000331
   1 C :    0.456495    0.011264
   2 C :    0.457119    0.014757
   3 H :   -0.295565    0.011528
   4 H :   -0.282225    0.000929
   5 C :    0.457383    0.144786
   6 H :   -0.272504    0.001716
   7 H :   -0.281728    0.000114
   8 C :    0.852446    0.462837
   9 H :   -0.295300    0.013141
  10 H :   -0.283568    0.034532
  11 O :    0.723633    0.001712
  12 H :   -0.340563   -0.000156
  13 H :   -0.332367    0.151143
  14 H :   -0.331783    0.151366

  Mayer bond orders larger than 0.100000
B(  0-C ,  1-C ) :   0.9562 B(  0-C ,  2-C ) :  -0.1673 B(  0-C , 11-O ) :   1.4608
B(  0-C , 12-H ) :   0.9287 B(  1-C ,  2-C ) :   0.8235 B(  1-C ,  3-H ) :   0.9161
B(  1-C ,  4-H ) :   0.9202 B(  1-C , 11-O ) :   0.1827 B(  1-C , 12-H ) :  -0.1180
B(  2-C ,  5-C ) :   0.9220 B(  2-C ,  6-H ) :   0.8730 B(  2-C ,  7-H ) :   0.9072
B(  5-C ,  8-C ) :   0.9413 B(  5-C ,  9-H ) :   0.9332 B(  5-C , 10-H ) :   0.9002
B(  8-C , 13-H ) :   0.9050 B(  8-C , 14-H ) :   0.9144

MP2 TOTAL ENERGY:     -270.633456834 Eh
FINAL SINGLE POINT ENERGY      -270.633456834184

DIPOLE MOMENT
-------------
                                X             Y             Z
Electronic contribution:     -6.30483       0.51963      -0.68532
Nuclear contribution   :      7.07468      -1.24797       1.18363
                        -----------------------------------------
Total Dipole Moment    :      0.76985      -0.72834       0.49831
                        -----------------------------------------
Magnitude (a.u.)       :      1.17109
Magnitude (Debye)      :      2.97668

Rotational constants in cm-1:     0.332229     0.054159     0.051464
Rotational constants in MHz :  9959.987586  1623.646700  1542.859103

                             ****ORCA TERMINATED NORMALLY****
TOTAL RUN TIME: 0 days 0 hours 19 minutes 48 seconds 0 msec
