                         Program Version 4.2.1 -  RELEASE  -
|  1> %pal
|  2>  nprocs 32
|  3> end
|  4> !RI-MP2 aug-cc-pVQZ aug-cc-pVQZ/C TightSCF
|  5> %maxcore 4500
|  6> *xyzfile -1 1  08_9R2.xyz
|  7>
|  8>
|  9>                          ****END OF INPUT****

CARTESIAN COORDINATES (ANGSTROEM)
---------------------------------
  O      0.862725   -1.012782   -0.851613
  P      0.000000   -0.000001   -0.174272
  O     -0.862729    1.012772   -0.851622
  O      0.982838    0.827898    0.884438
  O     -0.982833   -0.827886    0.884454
  H      1.751640    0.274344    1.044416
  H     -1.751644   -0.274337    1.044410

 Total Charge           Charge          ....   -1
 Multiplicity           Mult            ....    1
 Number of Electrons    NEL             ....   50
 Basis Dimension        Dim             ....  496

ORBITAL ENERGIES
----------------

  NO   OCC          E(Eh)            E(eV)
   0   2.0000     -79.868636     -2173.3361
   1   2.0000     -20.394931      -554.9743
   2   2.0000     -20.394917      -554.9739
   3   2.0000     -20.303221      -552.4787
   4   2.0000     -20.303206      -552.4783
   5   2.0000      -7.384814      -200.9510
   6   2.0000      -5.284119      -143.7882
   7   2.0000      -5.283450      -143.7700
   8   2.0000      -5.281759      -143.7240
   9   2.0000      -1.221843       -33.2480
  10   2.0000      -1.169972       -31.8366
  11   2.0000      -1.097961       -29.8770
  12   2.0000      -1.067496       -29.0480
  13   2.0000      -0.604005       -16.4358
  14   2.0000      -0.537475       -14.6254
  15   2.0000      -0.458777       -12.4840
  16   2.0000      -0.442515       -12.0415
  17   2.0000      -0.420921       -11.4539
  18   2.0000      -0.363968        -9.9041
  19   2.0000      -0.355443        -9.6721
  20   2.0000      -0.330634        -8.9970
  21   2.0000      -0.289583        -7.8800
  22   2.0000      -0.266825        -7.2607
  23   2.0000      -0.258057        -7.0221
  24   2.0000      -0.242865        -6.6087
  25   0.0000       0.125304         3.4097
  26   0.0000       0.133591         3.6352
  27   0.0000       0.172139         4.6842
  28   0.0000       0.174620         4.7517
  29   0.0000       0.186400         5.0722

MULLIKEN ATOMIC CHARGES
-----------------------
   0 O :   -1.155133
   1 P :    2.340788
   2 O :   -1.155134
   3 O :   -0.833624
   4 O :   -0.833625
   5 H :    0.318365
   6 H :    0.318364
Sum of atomic charges:   -1.0000000

LOEWDIN ATOMIC CHARGES
----------------------
   0 O :    0.162871
   1 P :   -1.360922
   2 O :    0.162871
   3 O :    0.998404
   4 O :    0.998403
   5 H :   -0.980813
   6 H :   -0.980813

  Mayer bond orders larger than 0.100000
B(  0-O ,  1-P ) :   1.3378 B(  1-P ,  2-O ) :   1.3378 B(  1-P ,  3-O ) :   0.6092
B(  1-P ,  4-O ) :   0.6092 B(  3-O ,  5-H ) :   0.9517 B(  4-O ,  6-H ) :   0.9517

MP2 TOTAL ENERGY:     -642.935910276 Eh
FINAL SINGLE POINT ENERGY      -642.935910276141

DIPOLE MOMENT
-------------
                                X             Y             Z
Electronic contribution:      0.00000      -0.00000      -0.81553
Nuclear contribution   :     -0.00000       0.00001       2.14046
                        -----------------------------------------
Total Dipole Moment    :     -0.00000       0.00000       1.32493
                        -----------------------------------------
Magnitude (a.u.)       :      1.32493
Magnitude (Debye)      :      3.36769

Rotational constants in cm-1:     0.158912     0.150002     0.145557
Rotational constants in MHz :  4764.073515  4496.935181  4363.685470

                             ****ORCA TERMINATED NORMALLY****
TOTAL RUN TIME: 0 days 0 hours 2 minutes 26 seconds 416 msec
