                         Program Version 4.2.1 -  RELEASE  -
|  1> %pal
|  2>  nprocs 32
|  3> end
|  4> !RI-MP2 aug-cc-pVQZ aug-cc-pVQZ/C TightSCF
|  5> %maxcore 4500
|  6> *xyzfile 1 1  09_25P.xyz
|  7>
|  8>
|  9>                          ****END OF INPUT****

CARTESIAN COORDINATES (ANGSTROEM)
---------------------------------
  C     -0.356823    0.301847    0.498504
  C      0.090260    0.539291   -0.977165
  C     -0.552552   -0.646314   -1.751699
  N     -1.198326   -1.519448   -0.738256
  H      0.158065   -1.238847   -2.319270
  H     -1.330578   -0.282474   -2.417051
  C     -1.585802   -0.616930    0.447893
  C     -2.888753    0.079919    0.003765
  N     -3.796667   -0.898058   -0.597476
  H     -2.639469    0.845094   -0.730695
  H     -3.308079    0.579932    0.878556
  N     -1.811854   -1.337831    1.643905
  C     -0.761825   -2.128558    2.274401
  N     -0.527208    1.774086   -1.479684
  C     -0.268772    2.108895   -2.880464
  H     -0.664324    1.340662   -3.547534
  H      0.789919    2.255261   -3.121923
  H      0.005789   -1.483587    2.703927
  H     -4.333079   -0.493268   -1.354211
  H     -4.464492   -1.277241    0.062781
  C     -0.610629    1.533404    1.371584
  H      0.421684   -0.283630    0.983453
  C      0.651729    2.329117    1.562868
  H     -0.979806    1.196190    2.340420
  H     -1.351289    2.189058    0.918179
  O      1.377565    1.894740    2.603051
  O      1.011054    3.223692    0.843445
  C      1.635710    0.585700   -1.154370
  C      2.569425   -0.265350   -0.282722
  H      1.940906    1.619290   -0.981676
  H      1.862886    0.383462   -2.203601
  C      2.439234   -1.759412   -0.381115
  H      2.450458   -0.021304    0.778341
  H      3.599418   -0.004855   -0.525449
  O      3.612924   -2.374767   -0.358865
  O      1.393952   -2.375612   -0.438210
  H      3.470759   -3.333886   -0.380419
  H      2.165028    2.454911    2.682501
  H     -0.202107    2.551455   -0.912531
  H     -0.274029   -2.849842    1.608183
  H     -1.207481   -2.683967    3.097555
  H     -0.795496    3.033900   -3.111801
  H     -2.715399   -1.785815    1.677174
  H     -0.511808   -2.218329   -0.439105
  H     -2.080264   -1.937483   -1.069476

 Total Charge           Charge          ....    1
 Multiplicity           Mult            ....    1
 Number of Electrons    NEL             ....  156
 Basis Dimension        Dim             .... 2750

ORBITAL ENERGIES
----------------

  NO   OCC          E(Eh)            E(eV)
   0   2.0000     -20.736069      -564.2571
   1   2.0000     -20.724596      -563.9449
   2   2.0000     -20.679874      -562.7280
   3   2.0000     -20.661551      -562.2294
   4   2.0000     -15.784603      -429.5209
   5   2.0000     -15.686929      -426.8630
   6   2.0000     -15.685915      -426.8354
   7   2.0000     -15.659117      -426.1062
   8   2.0000     -11.520510      -313.4890
   9   2.0000     -11.500503      -312.9446
  10   2.0000     -11.454924      -311.7043
  11   2.0000     -11.410233      -310.4882
  12   2.0000     -11.408196      -310.4328
  13   2.0000     -11.389201      -309.9159
  14   2.0000     -11.379618      -309.6551
  15   2.0000     -11.372800      -309.4696
  16   2.0000     -11.371011      -309.4209
  17   2.0000     -11.365252      -309.2642
  18   2.0000     -11.357115      -309.0428
  19   2.0000     -11.351332      -308.8855
  20   2.0000      -1.601711       -43.5848
  21   2.0000      -1.584166       -43.1074
  22   2.0000      -1.495747       -40.7014
  23   2.0000      -1.480019       -40.2734
  24   2.0000      -1.458331       -39.6832
  25   2.0000      -1.351753       -36.7831
  26   2.0000      -1.336644       -36.3719
  27   2.0000      -1.317523       -35.8516
  28   2.0000      -1.223853       -33.3027
  29   2.0000      -1.196729       -32.5647
  30   2.0000      -1.137223       -30.9454
  31   2.0000      -1.127001       -30.6673
  32   2.0000      -1.062379       -28.9088
  33   2.0000      -1.051856       -28.6224
  34   2.0000      -1.029800       -28.0223
  35   2.0000      -1.022333       -27.8191
  36   2.0000      -0.953009       -25.9327
  37   2.0000      -0.942068       -25.6350
  38   2.0000      -0.921642       -25.0791
  39   2.0000      -0.909830       -24.7577
  40   2.0000      -0.884829       -24.0774
  41   2.0000      -0.854196       -23.2439
  42   2.0000      -0.844490       -22.9797
  43   2.0000      -0.825698       -22.4684
  44   2.0000      -0.822891       -22.3920
  45   2.0000      -0.817186       -22.2368
  46   2.0000      -0.815941       -22.2029
  47   2.0000      -0.783458       -21.3190
  48   2.0000      -0.780500       -21.2385
  49   2.0000      -0.774063       -21.0633
  50   2.0000      -0.768296       -20.9064
  51   2.0000      -0.754823       -20.5398
  52   2.0000      -0.747107       -20.3298
  53   2.0000      -0.736236       -20.0340
  54   2.0000      -0.735017       -20.0008
  55   2.0000      -0.723747       -19.6942
  56   2.0000      -0.718107       -19.5407
  57   2.0000      -0.711085       -19.3496
  58   2.0000      -0.701073       -19.0772
  59   2.0000      -0.693384       -18.8679
  60   2.0000      -0.679595       -18.4927
  61   2.0000      -0.673729       -18.3331
  62   2.0000      -0.669923       -18.2295
  63   2.0000      -0.655772       -17.8445
  64   2.0000      -0.652523       -17.7560
  65   2.0000      -0.649150       -17.6643
  66   2.0000      -0.643168       -17.5015
  67   2.0000      -0.636931       -17.3318
  68   2.0000      -0.622534       -16.9400
  69   2.0000      -0.616829       -16.7848
  70   2.0000      -0.612884       -16.6774
  71   2.0000      -0.596516       -16.2320
  72   2.0000      -0.591916       -16.1069
  73   2.0000      -0.579328       -15.7643
  74   2.0000      -0.563660       -15.3380
  75   2.0000      -0.544171       -14.8076
  76   2.0000      -0.516215       -14.0469
  77   2.0000      -0.490471       -13.3464
  78   0.0000      -0.066154        -1.8001
  79   0.0000      -0.056180        -1.5287
  80   0.0000      -0.054005        -1.4695
  81   0.0000      -0.050468        -1.3733
  82   0.0000      -0.040594        -1.1046

MULLIKEN ATOMIC CHARGES
-----------------------
   0 C :    1.279785
   1 C :    2.964175
   2 C :   -0.789299
   3 N :    0.279437
   4 H :    0.256374
   5 H :    0.053386
   6 C :    1.949058
   7 C :   -0.501811
   8 N :   -0.915163
   9 H :    0.433030
  10 H :    0.314238
  11 N :   -1.025829
  12 C :   -1.130576
  13 N :   -0.671061
  14 C :   -1.217158
  15 H :    0.184240
  16 H :    0.258979
  17 H :    0.267948
  18 H :    0.114850
  19 H :    0.145702
  20 C :   -1.342987
  21 H :   -0.342880
  22 C :    1.544770
  23 H :    0.240327
  24 H :    0.232288
  25 O :   -0.945918
  26 O :   -1.117770
  27 C :   -0.892432
  28 C :   -0.603648
  29 H :    0.200240
  30 H :    0.027294
  31 C :    1.641951
  32 H :    0.203742
  33 H :    0.204006
  34 O :   -0.970488
  35 O :   -1.206607
  36 H :    0.401986
  37 H :    0.318006
  38 H :   -0.053529
  39 H :    0.237289
  40 H :    0.337561
  41 H :    0.324633
  42 H :   -0.047252
  43 H :    0.304513
  44 H :    0.054598
Sum of atomic charges:    1.0000000

LOEWDIN ATOMIC CHARGES
----------------------
   0 C :    0.135221
   1 C :   -0.289411
   2 C :    0.525781
   3 N :    1.194785
   4 H :   -0.248807
   5 H :   -0.279853
   6 C :   -0.409112
   7 C :    0.423550
   8 N :    1.343249
   9 H :   -0.314393
  10 H :   -0.245442
  11 N :    0.947683
  12 C :    0.837548
  13 N :    0.929968
  14 C :    0.826824
  15 H :   -0.295787
  16 H :   -0.271929
  17 H :   -0.281664
  18 H :   -0.451334
  19 H :   -0.454384
  20 C :    0.515449
  21 H :   -0.399579
  22 C :   -0.968000
  23 H :   -0.269472
  24 H :   -0.305711
  25 O :    1.295308
  26 O :    0.799734
  27 C :    0.568800
  28 C :    0.534558
  29 H :   -0.304430
  30 H :   -0.269167
  31 C :   -0.900324
  32 H :   -0.293404
  33 H :   -0.287077
  34 O :    1.300512
  35 O :    0.869600
  36 H :   -0.770207
  37 H :   -0.776105
  38 H :   -0.624767
  39 H :   -0.283574
  40 H :   -0.269887
  41 H :   -0.267389
  42 H :   -0.489396
  43 H :   -0.597592
  44 H :   -0.430373

  Mayer bond orders larger than 0.100000
B(  0-C ,  1-C ) :   0.6477 B(  0-C ,  3-N ) :  -0.3482 B(  0-C ,  6-C ) :   1.1083
B(  0-C ,  8-N ) :   0.1051 B(  0-C , 10-H ) :   0.1111 B(  0-C , 11-N ) :   0.5103
B(  0-C , 12-C ) :  -0.3815 B(  0-C , 13-N ) :   0.1198 B(  0-C , 17-H ) :  -0.1064
B(  0-C , 20-C ) :  -0.9311 B(  0-C , 21-H ) :   1.1304 B(  0-C , 22-C ) :  -0.4388
B(  0-C , 23-H ) :  -0.1273 B(  0-C , 24-H ) :  -0.2433 B(  0-C , 25-O ) :  -0.1804
B(  0-C , 28-C ) :  -0.1109 B(  0-C , 31-C ) :  -0.1156 B(  1-C ,  2-C ) :  -0.2149
B(  1-C ,  4-H ) :  -0.3540 B(  1-C ,  5-H ) :  -0.4949 B(  1-C ,  6-C ) :   0.3109
B(  1-C , 14-C ) :  -0.6595 B(  1-C , 15-H ) :  -0.2231 B(  1-C , 21-H ) :   0.1852
B(  1-C , 25-O ) :  -0.1623 B(  1-C , 27-C ) :  -0.3659 B(  1-C , 29-H ) :  -0.2054
B(  1-C , 30-H ) :  -0.3773 B(  1-C , 38-H ) :  -0.4321 B(  2-C ,  3-N ) :   0.7712
B(  2-C ,  4-H ) :   1.1827 B(  2-C ,  5-H ) :   1.3833 B(  2-C , 13-N ) :   0.1437
B(  3-N ,  6-C ) :   1.1738 B(  3-N , 21-H ) :   0.2104 B(  3-N , 43-H ) :   0.9909
B(  3-N , 44-H ) :   1.2722 B(  5-H ,  6-C ) :  -0.1017 B(  6-C ,  8-N ) :  -0.4375
B(  6-C ,  9-H ) :  -0.1927 B(  6-C , 10-H ) :  -0.2726 B(  6-C , 11-N ) :  -0.9544
B(  6-C , 12-C ) :  -0.3176 B(  6-C , 17-H ) :  -0.1628 B(  6-C , 20-C ) :   0.1887
B(  6-C , 21-H ) :  -0.1972 B(  6-C , 25-O ) :  -0.1613 B(  6-C , 42-H ) :  -0.3123
B(  7-C ,  8-N ) :   0.7226 B(  7-C ,  9-H ) :   0.8167 B(  7-C , 10-H ) :   1.1644
B(  8-N , 18-H ) :   1.1223 B(  8-N , 19-H ) :   1.1756 B( 11-N , 12-C ) :   1.0279
B( 11-N , 42-H ) :   1.4014 B( 12-C , 17-H ) :   1.0133 B( 12-C , 21-H ) :   0.2626
B( 12-C , 39-H ) :   1.0491 B( 12-C , 40-H ) :   0.9737 B( 13-N , 14-C ) :   0.7897
B( 13-N , 27-C ) :   0.1253 B( 13-N , 38-H ) :   1.4925 B( 13-N , 41-H ) :  -0.1510
B( 14-C , 15-H ) :   1.1158 B( 14-C , 16-H ) :   1.0801 B( 14-C , 41-H ) :   1.0666
B( 17-H , 21-H ) :   0.1771 B( 20-C , 22-C ) :   1.7304 B( 20-C , 23-H ) :   1.1397
B( 20-C , 24-H ) :   1.1262 B( 20-C , 25-O ) :   0.3652 B( 20-C , 26-O ) :   0.1382
B( 21-H , 25-O ) :   0.1243 B( 21-H , 26-O ) :  -0.1221 B( 22-C , 25-O ) :   0.5936
B( 22-C , 26-O ) :   0.7817 B( 25-O , 26-O ) :   0.1928 B( 25-O , 37-H ) :   0.9313
B( 27-C , 28-C ) :   0.7884 B( 27-C , 29-H ) :   1.1599 B( 27-C , 30-H ) :   1.4792
B( 27-C , 34-O ) :   0.1006 B( 28-C , 31-C ) :   1.1423 B( 28-C , 32-H ) :   0.8338
B( 28-C , 33-H ) :   1.0470 B( 28-C , 34-O ) :   0.2635 B( 31-C , 35-O ) :   1.4280
B( 34-O , 35-O ) :   0.2828 B( 34-O , 36-H ) :   0.9038

MP2 TOTAL ENERGY:     -990.583878795 Eh
FINAL SINGLE POINT ENERGY      -990.583878794919

DIPOLE MOMENT
-------------
                                X             Y             Z
Electronic contribution:      8.95322      -0.19570       5.11095
Nuclear contribution   :    -10.10785      -1.47873      -5.45048
                        -----------------------------------------
Total Dipole Moment    :     -1.15462      -1.67444      -0.33952
                        -----------------------------------------
Magnitude (a.u.)       :      2.06208
Magnitude (Debye)      :      5.24138

Rotational constants in cm-1:     0.011686     0.010550     0.008989
Rotational constants in MHz :   350.333876   316.289722   269.496720

                             ****ORCA TERMINATED NORMALLY****
TOTAL RUN TIME: 0 days 12 hours 32 minutes 9 seconds 966 msec
