                         Program Version 4.2.1 -  RELEASE  -
|  1> %pal
|  2>  nprocs 32
|  3> end
|  4> !RI-MP2 aug-cc-pVQZ aug-cc-pVQZ/C TightSCF
|  5> %maxcore 4500
|  6> *xyzfile 0 2  01_27R.xyz
|  7>
|  8>
|  9>                          ****END OF INPUT****

CARTESIAN COORDINATES (ANGSTROEM)
---------------------------------
  C      0.938215    0.708224    0.342979
  C     -0.331527    1.078070    1.048094
  C     -1.465209    1.538394    0.116175
  H     -0.112320    1.898465    1.744206
  H     -0.677429    0.240158    1.658306
  C     -1.991746    0.438792   -0.812499
  H     -1.117402    2.381266   -0.487887
  H     -2.289120    1.920626    0.728240
  C     -2.721773   -0.643690   -0.076032
  H     -1.167375    0.004453   -1.384800
  H     -2.674992    0.895227   -1.537067
  C     -2.387238   -1.925816   -0.065016
  S      1.284716   -0.994678    0.226302
  C      1.601925    1.705939   -0.546002
  H      1.221568    1.663208   -1.577658
  H      2.683806    1.571299   -0.600382
  H      1.416488    2.717577   -0.176232
  C      3.035518   -1.044138   -0.238714
  H      3.202696   -0.642691   -1.236732
  H      3.319359   -2.095710   -0.233019
  H      3.644292   -0.508866    0.489345
  H     -2.962035   -2.656399    0.491701
  H     -1.521414   -2.287765   -0.608758
  H     -3.590573   -0.320649    0.495999

 Total Charge           Charge          ....    0
 Multiplicity           Mult            ....    2
 Number of Electrons    NEL             ....   79
 Basis Dimension        Dim             .... 1414

ORBITAL ENERGIES
----------------
                 SPIN UP ORBITALS
  NO   OCC          E(Eh)            E(eV)
   0   1.0000     -91.945648     -2501.9683
   1   1.0000     -11.249936      -306.1263
   2   1.0000     -11.249435      -306.1127
   3   1.0000     -11.222958      -305.3922
   4   1.0000     -11.222676      -305.3846
   5   1.0000     -11.221340      -305.3482
   6   1.0000     -11.220056      -305.3132
   7   1.0000     -11.218065      -305.2591
   8   1.0000     -11.209256      -305.0194
   9   1.0000      -8.947411      -243.4714
  10   1.0000      -6.629568      -180.3997
  11   1.0000      -6.628202      -180.3626
  12   1.0000      -6.627048      -180.3312
  13   1.0000      -1.121032       -30.5048
  14   1.0000      -1.076052       -29.2809
  15   1.0000      -1.024020       -27.8650
  16   1.0000      -0.988282       -26.8925
  17   1.0000      -0.933570       -25.4037
  18   1.0000      -0.888309       -24.1721
  19   1.0000      -0.819150       -22.2902
  20   1.0000      -0.751816       -20.4579
  21   1.0000      -0.720557       -19.6074
  22   1.0000      -0.641367       -17.4525
  23   1.0000      -0.636747       -17.3268
  24   1.0000      -0.620893       -16.8954
  25   1.0000      -0.598793       -16.2940
  26   1.0000      -0.594449       -16.1758
  27   1.0000      -0.572300       -15.5731
  28   1.0000      -0.571089       -15.5401
  29   1.0000      -0.560189       -15.2435
  30   1.0000      -0.534230       -14.5371
  31   1.0000      -0.509732       -13.8705
  32   1.0000      -0.499907       -13.6032
  33   1.0000      -0.491412       -13.3720
  34   1.0000      -0.466655       -12.6983
  35   1.0000      -0.460748       -12.5376
  36   1.0000      -0.441650       -12.0179
  37   1.0000      -0.398114       -10.8332
  38   1.0000      -0.354163        -9.6373
  39   1.0000      -0.278535        -7.5793
  40   0.0000       0.024132         0.6567
  41   0.0000       0.028010         0.7622
  42   0.0000       0.030966         0.8426
  43   0.0000       0.031960         0.8697
  44   0.0000       0.040540         1.1031

                 SPIN DOWN ORBITALS
  NO   OCC          E(Eh)            E(eV)
   0   1.0000     -91.945443     -2501.9627
   1   1.0000     -11.249650      -306.1185
   2   1.0000     -11.225884      -305.4718
   3   1.0000     -11.224650      -305.4383
   4   1.0000     -11.223086      -305.3957
   5   1.0000     -11.222676      -305.3846
   6   1.0000     -11.219458      -305.2970
   7   1.0000     -11.218142      -305.2612
   8   1.0000     -11.209243      -305.0190
   9   1.0000      -8.947166      -243.4648
  10   1.0000      -6.629752      -180.4047
  11   1.0000      -6.628468      -180.3698
  12   1.0000      -6.625269      -180.2827
  13   1.0000      -1.100064       -29.9343
  14   1.0000      -1.065869       -29.0038
  15   1.0000      -1.021389       -27.7934
  16   1.0000      -0.979731       -26.6598
  17   1.0000      -0.932202       -25.3665
  18   1.0000      -0.881507       -23.9870
  19   1.0000      -0.815256       -22.1842
  20   1.0000      -0.749510       -20.3952
  21   1.0000      -0.689462       -18.7612
  22   1.0000      -0.633374       -17.2350
  23   1.0000      -0.630807       -17.1651
  24   1.0000      -0.607615       -16.5340
  25   1.0000      -0.596625       -16.2350
  26   1.0000      -0.588898       -16.0247
  27   1.0000      -0.564735       -15.3672
  28   1.0000      -0.558378       -15.1942
  29   1.0000      -0.554573       -15.0907
  30   1.0000      -0.532420       -14.4879
  31   1.0000      -0.507613       -13.8129
  32   1.0000      -0.489480       -13.3194
  33   1.0000      -0.486546       -13.2396
  34   1.0000      -0.464001       -12.6261
  35   1.0000      -0.454509       -12.3678
  36   1.0000      -0.428127       -11.6499
  37   1.0000      -0.355045        -9.6613
  38   1.0000      -0.349959        -9.5229
  39   0.0000       0.024220         0.6591
  40   0.0000       0.027732         0.7546
  41   0.0000       0.030976         0.8429
  42   0.0000       0.031937         0.8690
  43   0.0000       0.040562         1.1038

MULLIKEN ATOMIC CHARGES AND SPIN POPULATIONS
--------------------------------------------
   0 C :    0.044335    1.113134
   1 C :   -0.415714   -0.201690
   2 C :   -0.352045    0.053431
   3 H :    0.277984    0.064653
   4 H :    0.320755   -0.001003
   5 C :   -0.388684   -0.003585
   6 H :    0.224235   -0.010293
   7 H :    0.213012    0.002106
   8 C :   -0.467233   -0.000254
   9 H :    0.232757    0.004488
  10 H :    0.321770    0.000877
  11 C :   -0.876751    0.000428
  12 S :    0.027601    0.023855
  13 C :   -0.938024   -0.173382
  14 H :    0.213456    0.085750
  15 H :    0.277139    0.019833
  16 H :    0.285994    0.006872
  17 C :   -1.053791    0.005752
  18 H :    0.293959    0.000318
  19 H :    0.396383   -0.002321
  20 H :    0.315848    0.011651
  21 H :    0.328843   -0.000137
  22 H :    0.376828   -0.000526
  23 H :    0.341342    0.000042
Sum of atomic charges         :    0.0000000

LOEWDIN ATOMIC CHARGES AND SPIN POPULATIONS
-------------------------------------------
   0 C :   -0.410113    0.456120
   1 C :    0.389935    0.108741
   2 C :    0.502609    0.020228
   3 H :   -0.281108    0.022482
   4 H :   -0.335702    0.003902
   5 C :    0.467536    0.004106
   6 H :   -0.283324    0.003944
   7 H :   -0.267186    0.005019
   8 C :    0.346242    0.000024
   9 H :   -0.323857    0.000849
  10 H :   -0.271446    0.000246
  11 C :    0.785865    0.000520
  12 S :    1.366843    0.167142
  13 C :    0.815103    0.120088
  14 H :   -0.276640    0.026818
  15 H :   -0.335749    0.013757
  16 H :   -0.297010    0.008924
  17 C :    0.565438    0.022858
  18 H :   -0.370421    0.003065
  19 H :   -0.388846    0.003848
  20 H :   -0.359303    0.005609
  21 H :   -0.350627    0.000071
  22 H :   -0.371318    0.001649
  23 H :   -0.316920   -0.000010

  Mayer bond orders larger than 0.100000
B(  0-C ,  1-C ) :   0.7204 B(  0-C , 12-S ) :   0.8082 B(  0-C , 13-C ) :   0.8150
B(  0-C , 15-H ) :  -0.1062 B(  1-C ,  2-C ) :   0.8410 B(  1-C ,  3-H ) :   0.9567
B(  1-C ,  4-H ) :   0.8922 B(  2-C ,  5-C ) :   0.8169 B(  2-C ,  6-H ) :   0.9271
B(  2-C ,  7-H ) :   0.9520 B(  2-C ,  8-C ) :  -0.1104 B(  5-C ,  8-C ) :   0.8650
B(  5-C ,  9-H ) :   0.9472 B(  5-C , 10-H ) :   0.9189 B(  5-C , 11-C ) :  -0.1517
B(  8-C , 11-C ) :   1.8221 B(  8-C , 23-H ) :   0.9234 B( 11-C , 21-H ) :   0.9992
B( 11-C , 22-H ) :   0.8402 B( 12-S , 17-C ) :   1.1324 B( 13-C , 14-H ) :   0.9207
B( 13-C , 15-H ) :   1.0152 B( 13-C , 16-H ) :   0.9425 B( 17-C , 18-H ) :   0.9082
B( 17-C , 19-H ) :   0.8533 B( 17-C , 20-H ) :   0.8836

MP2 TOTAL ENERGY:     -710.930259878 Eh
FINAL SINGLE POINT ENERGY      -710.930259877953

DIPOLE MOMENT
-------------
                                X             Y             Z
Electronic contribution:      1.12855      -4.44807       2.14412
Nuclear contribution   :     -0.68773       4.98214      -2.32152
                        -----------------------------------------
Total Dipole Moment    :      0.44082       0.53407      -0.17740
                        -----------------------------------------
Magnitude (a.u.)       :      0.71486
Magnitude (Debye)      :      1.81703

Rotational constants in cm-1:     0.062610     0.029690     0.022575
Rotational constants in MHz :  1876.987168   890.078990   676.786914

                             ****ORCA TERMINATED NORMALLY****
TOTAL RUN TIME: 0 days 1 hours 49 minutes 45 seconds 944 msec
