                         Program Version 4.2.1 -  RELEASE  -
|  1> %pal
|  2>  nprocs 32
|  3> end
|  4> !RI-MP2 aug-cc-pVQZ aug-cc-pVQZ/C TightSCF
|  5> %maxcore 4500
|  6> *xyzfile 0 1  10_41R.xyz
|  7>
|  8>
|  9>                          ****END OF INPUT****

CARTESIAN COORDINATES (ANGSTROEM)
---------------------------------
  C      0.477891    2.108012    0.321320
  H      0.154522    2.801560    1.116717
  C      1.507726    1.154611    0.885937
  C      0.063758   -0.813583    0.367812
  H     -0.160562   -1.299802   -0.583182
  H     -0.003290   -1.577500    1.148649
  C     -1.011524    0.258647    0.598133
  H     -0.994471    0.563735    1.660740
  N     -0.653249    1.393012   -0.247111
  C      2.529696   -0.887206   -0.131288
  C      2.331703    1.532106    1.859216
  C      3.844702   -0.252434   -0.264274
  C      4.981451   -0.871431   -0.584802
  C      1.459249   -0.219353    0.341077
  C      6.297282   -0.179091   -0.749282
  H      7.044124   -0.578872   -0.056443
  H      6.696113   -0.322336   -1.758284
  H      6.207521    0.893865   -0.569957
  C     -1.749435    2.279818   -0.574163
  H     -2.211437    2.708650    0.334330
  H     -1.348911    3.113822   -1.155585
  C     -2.393592   -0.288162    0.311811
  C     -3.232276    0.290565   -0.639177
  C     -2.789944    1.524757   -1.378682
  H     -2.355743    1.247539   -2.344127
  H     -3.652188    2.165261   -1.580163
  H      0.934832    2.709031   -0.472098
  C     -4.487666   -0.268570   -0.872350
  H     -5.137652    0.189712   -1.610316
  C     -2.841643   -1.399307    1.026138
  H     -2.203692   -1.838184    1.784937
  C     -4.917041   -1.383611   -0.174518
  H     -5.896618   -1.803527   -0.368645
  C     -4.088895   -1.949130    0.787509
  H     -4.417507   -2.812726    1.352992
  C      2.426829   -2.317104   -0.588806
  H      2.752974   -2.417499   -1.627318
  H      1.417761   -2.712392   -0.508849
  H      3.077665   -2.957290    0.013937
  H      3.063254    0.851203    2.274337
  H      2.291776    2.534490    2.272021
  H      3.876872    0.819582   -0.104647
  H      4.987778   -1.946619   -0.738928

 Total Charge           Charge          ....    0
 Multiplicity           Mult            ....    1
 Number of Electrons    NEL             ....  144
 Basis Dimension        Dim             .... 2658

ORBITAL ENERGIES
----------------

  NO   OCC          E(Eh)            E(eV)
   0   2.0000     -15.544207      -422.9794
   1   2.0000     -11.259386      -306.3835
   2   2.0000     -11.252510      -306.1964
   3   2.0000     -11.248791      -306.0952
   4   2.0000     -11.236965      -305.7734
   5   2.0000     -11.234260      -305.6998
   6   2.0000     -11.233035      -305.6664
   7   2.0000     -11.229700      -305.5757
   8   2.0000     -11.228351      -305.5390
   9   2.0000     -11.228091      -305.5319
  10   2.0000     -11.227624      -305.5192
  11   2.0000     -11.226662      -305.4930
  12   2.0000     -11.225898      -305.4722
  13   2.0000     -11.223344      -305.4027
  14   2.0000     -11.221629      -305.3561
  15   2.0000     -11.220473      -305.3246
  16   2.0000     -11.215360      -305.1854
  17   2.0000     -11.214551      -305.1635
  18   2.0000     -11.214103      -305.1513
  19   2.0000     -11.211812      -305.0889
  20   2.0000      -1.253703       -34.1150
  21   2.0000      -1.156811       -31.4784
  22   2.0000      -1.128720       -30.7140
  23   2.0000      -1.079274       -29.3685
  24   2.0000      -1.061838       -28.8941
  25   2.0000      -1.052249       -28.6331
  26   2.0000      -1.025597       -27.9079
  27   2.0000      -0.999321       -27.1929
  28   2.0000      -0.971583       -26.4381
  29   2.0000      -0.929766       -25.3002
  30   2.0000      -0.923538       -25.1308
  31   2.0000      -0.894681       -24.3455
  32   2.0000      -0.857297       -23.3282
  33   2.0000      -0.833491       -22.6804
  34   2.0000      -0.810837       -22.0640
  35   2.0000      -0.791459       -21.5367
  36   2.0000      -0.753757       -20.5108
  37   2.0000      -0.736329       -20.0365
  38   2.0000      -0.693320       -18.8662
  39   2.0000      -0.684788       -18.6340
  40   2.0000      -0.669006       -18.2046
  41   2.0000      -0.657136       -17.8816
  42   2.0000      -0.645473       -17.5642
  43   2.0000      -0.628919       -17.1137
  44   2.0000      -0.619110       -16.8468
  45   2.0000      -0.606627       -16.5072
  46   2.0000      -0.596038       -16.2190
  47   2.0000      -0.592146       -16.1131
  48   2.0000      -0.581593       -15.8260
  49   2.0000      -0.570871       -15.5342
  50   2.0000      -0.564928       -15.3725
  51   2.0000      -0.559029       -15.2119
  52   2.0000      -0.553149       -15.0520
  53   2.0000      -0.551198       -14.9989
  54   2.0000      -0.547724       -14.9043
  55   2.0000      -0.533242       -14.5103
  56   2.0000      -0.524278       -14.2663
  57   2.0000      -0.522617       -14.2211
  58   2.0000      -0.517262       -14.0754
  59   2.0000      -0.514878       -14.0105
  60   2.0000      -0.498920       -13.5763
  61   2.0000      -0.488101       -13.2819
  62   2.0000      -0.477107       -12.9827
  63   2.0000      -0.463549       -12.6138
  64   2.0000      -0.456326       -12.4173
  65   2.0000      -0.446632       -12.1535
  66   2.0000      -0.402948       -10.9648
  67   2.0000      -0.371008       -10.0956
  68   2.0000      -0.355405        -9.6711
  69   2.0000      -0.328181        -8.9303
  70   2.0000      -0.320472        -8.7205
  71   2.0000      -0.286021        -7.7830
  72   0.0000       0.021656         0.5893
  73   0.0000       0.024591         0.6691
  74   0.0000       0.025472         0.6931
  75   0.0000       0.028399         0.7728
  76   0.0000       0.032615         0.8875

MULLIKEN ATOMIC CHARGES
-----------------------
   0 C :   -0.306032
   1 H :    0.204634
   2 C :    0.149027
   3 C :    0.098957
   4 H :    0.298489
   5 H :    0.206709
   6 C :    1.493294
   7 H :    0.224466
   8 N :   -0.153682
   9 C :    0.461002
  10 C :   -1.188209
  11 C :   -0.712374
  12 C :   -0.430884
  13 C :    0.229578
  14 C :   -0.786094
  15 H :    0.248181
  16 H :    0.244549
  17 H :    0.246502
  18 C :   -0.846614
  19 H :    0.267748
  20 H :    0.238748
  21 C :    0.554560
  22 C :    0.229952
  23 C :   -0.697687
  24 H :    0.225103
  25 H :    0.197286
  26 H :    0.354097
  27 C :   -0.689705
  28 H :    0.226579
  29 C :   -0.827569
  30 H :    0.080216
  31 C :   -0.426107
  32 H :    0.273886
  33 C :   -0.478305
  34 H :    0.224253
  35 C :   -1.043116
  36 H :    0.202154
  37 H :    0.321969
  38 H :    0.211751
  39 H :    0.207290
  40 H :    0.199188
  41 H :    0.204508
  42 H :    0.261701
Sum of atomic charges:    0.0000000

LOEWDIN ATOMIC CHARGES
----------------------
   0 C :    0.333316
   1 H :   -0.274039
   2 C :   -0.071768
   3 C :    0.504909
   4 H :   -0.280867
   5 H :   -0.259891
   6 C :   -0.049744
   7 H :   -0.257339
   8 N :    0.530515
   9 C :   -0.021235
  10 C :    0.816966
  11 C :    0.352758
  12 C :    0.392689
  13 C :   -0.013740
  14 C :    0.898773
  15 H :   -0.293424
  16 H :   -0.292859
  17 H :   -0.313884
  18 C :    0.354010
  19 H :   -0.239825
  20 H :   -0.272308
  21 C :   -0.033763
  22 C :   -0.037628
  23 C :    0.524823
  24 H :   -0.254912
  25 H :   -0.274885
  26 H :   -0.262795
  27 C :    0.358870
  28 H :   -0.313011
  29 C :    0.360078
  30 H :   -0.313719
  31 C :    0.349191
  32 H :   -0.320749
  33 C :    0.356441
  34 H :   -0.319667
  35 C :    0.894379
  36 H :   -0.270598
  37 H :   -0.328878
  38 H :   -0.278047
  39 H :   -0.331392
  40 H :   -0.322148
  41 H :   -0.380350
  42 H :   -0.344252

  Mayer bond orders larger than 0.100000
B(  0-C ,  1-H ) :   1.0818 B(  0-C ,  2-C ) :   0.7173 B(  0-C ,  8-N ) :   1.0986
B(  0-C , 10-C ) :  -0.3208 B(  0-C , 13-C ) :  -0.1913 B(  0-C , 26-H ) :   0.8440
B(  2-C ,  6-C ) :  -0.1356 B(  2-C ,  9-C ) :  -0.2486 B(  2-C , 10-C ) :   1.5803
B(  2-C , 11-C ) :  -0.1213 B(  2-C , 13-C ) :   0.5008 B(  2-C , 39-H ) :  -0.1582
B(  2-C , 40-H ) :  -0.1583 B(  3-C ,  4-H ) :   0.9172 B(  3-C ,  5-H ) :   0.8314
B(  3-C ,  6-C ) :   0.8938 B(  3-C ,  9-C ) :  -0.3513 B(  3-C , 13-C ) :   0.3644
B(  3-C , 29-C ) :   0.1441 B(  3-C , 35-C ) :  -0.1265 B(  5-H , 13-C ) :   0.1385
B(  6-C ,  7-H ) :   0.9195 B(  6-C ,  8-N ) :   0.5390 B(  6-C , 10-C ) :  -0.1007
B(  6-C , 18-C ) :  -0.1342 B(  6-C , 21-C ) :  -0.1236 B(  6-C , 22-C ) :  -0.4728
B(  6-C , 29-C ) :  -0.7821 B(  8-N , 18-C ) :   0.7899 B(  8-N , 19-H ) :  -0.1115
B(  8-N , 21-C ) :  -0.1256 B(  9-C , 10-C ) :   0.1726 B(  9-C , 11-C ) :   0.8363
B(  9-C , 12-C ) :  -0.4335 B(  9-C , 13-C ) :   1.1983 B(  9-C , 35-C ) :   0.3208
B(  9-C , 36-H ) :  -0.1898 B(  9-C , 37-H ) :  -0.2459 B(  9-C , 38-H ) :  -0.1874
B( 10-C , 13-C ) :  -0.3583 B( 10-C , 39-H ) :   1.1893 B( 10-C , 40-H ) :   1.1624
B( 11-C , 12-C ) :   1.5518 B( 11-C , 13-C ) :  -0.1514 B( 11-C , 14-C ) :  -0.2096
B( 11-C , 17-H ) :   0.1051 B( 11-C , 41-H ) :   0.9373 B( 12-C , 14-C ) :   0.8464
B( 12-C , 15-H ) :  -0.1278 B( 12-C , 42-H ) :   0.9198 B( 13-C , 21-C ) :  -0.1155
B( 13-C , 35-C ) :   0.1074 B( 13-C , 37-H ) :   0.2190 B( 14-C , 15-H ) :   1.0203
B( 14-C , 16-H ) :   0.9949 B( 14-C , 17-H ) :   0.9864 B( 18-C , 19-H ) :   0.9591
B( 18-C , 20-H ) :   0.9899 B( 18-C , 23-C ) :   1.2365 B( 21-C , 22-C ) :   1.0607
B( 21-C , 23-C ) :  -0.1063 B( 21-C , 27-C ) :  -0.5466 B( 21-C , 29-C ) :   1.0799
B( 21-C , 30-H ) :  -0.1170 B( 21-C , 33-C ) :  -0.2853 B( 22-C , 23-C ) :   0.4398
B( 22-C , 25-H ) :  -0.1478 B( 22-C , 27-C ) :   1.0971 B( 22-C , 28-H ) :  -0.1007
B( 22-C , 29-C ) :  -0.1131 B( 22-C , 31-C ) :  -0.2724 B( 23-C , 24-H ) :   1.0056
B( 23-C , 25-H ) :   1.1266 B( 27-C , 28-H ) :   1.0653 B( 27-C , 29-C ) :   0.1859
B( 27-C , 31-C ) :   1.3092 B( 27-C , 32-H ) :  -0.1874 B( 27-C , 33-C ) :   0.1376
B( 29-C , 30-H ) :   1.3150 B( 29-C , 33-C ) :   1.2586 B( 29-C , 34-H ) :  -0.1867
B( 31-C , 32-H ) :   1.1278 B( 31-C , 33-C ) :   1.1932 B( 32-H , 33-C ) :  -0.1228
B( 33-C , 34-H ) :   1.1873 B( 35-C , 36-H ) :   1.1186 B( 35-C , 37-H ) :   0.9917
B( 35-C , 38-H ) :   1.1116

MP2 TOTAL ENERGY:     -791.122114516 Eh
FINAL SINGLE POINT ENERGY      -791.122114516024

DIPOLE MOMENT
-------------
                                X             Y             Z
Electronic contribution:    -14.46226      -0.17854       1.59515
Nuclear contribution   :     14.38755       0.34634      -1.55024
                        -----------------------------------------
Total Dipole Moment    :     -0.07472       0.16780       0.04491
                        -----------------------------------------
Magnitude (a.u.)       :      0.18909
Magnitude (Debye)      :      0.48064

Rotational constants in cm-1:     0.024930     0.005824     0.005249
Rotational constants in MHz :   747.393639   174.607210   157.361222

                             ****ORCA TERMINATED NORMALLY****
TOTAL RUN TIME: 0 days 8 hours 59 minutes 59 seconds 524 msec
