                         Program Version 4.2.1 -  RELEASE  -
|  1> %pal
|  2>  nprocs 32
|  3> end
|  4> !RI-MP2 aug-cc-pVQZ aug-cc-pVQZ/C TightSCF
|  5> %maxcore 4500
|  6> *xyzfile 0 1  02_39TS.xyz
|  7>
|  8>
|  9>                          ****END OF INPUT****

CARTESIAN COORDINATES (ANGSTROEM)
---------------------------------
  C      4.763277   -1.983414   -0.892725
  C      3.571892   -2.442172   -1.437876
  C      2.360651   -1.937444   -0.994961
  C      2.318107   -0.963032    0.007829
  C      3.521887   -0.504707    0.552443
  C      4.729155   -1.014319    0.100178
  H      5.710614   -2.377711   -1.239817
  H      3.583842   -3.196818   -2.215156
  H      1.439061   -2.300932   -1.431821
  H      3.506049    0.243356    1.330450
  H      5.652988   -0.648799    0.532448
  C      1.011070   -0.438816    0.433589
  C      0.809451    0.462050    1.579438
  O      1.624940    0.913627    2.323563
  O     -0.556805    0.689031    1.825029
  N     -0.103009   -0.968689    0.021205
  N     -0.765823   -1.849079   -0.449195
  C     -1.259591    0.964115    0.689118
  C     -2.482263    0.397829    0.330696
  H     -3.100247    1.062997   -0.263636
  C     -0.825677    2.195313   -0.003388
  C     -1.061804    2.357390   -1.370578
  C     -0.168009    3.209895    0.697373
  C     -0.663062    3.513450   -2.019852
  H     -1.530903    1.557316   -1.929693
  C      0.226636    4.365790    0.043465
  H      0.023183    3.090693    1.755424
  C     -0.019233    4.521815   -1.313929
  H     -0.841478    3.622645   -3.082594
  H      0.728454    5.149070    0.598118
  H      0.296155    5.424492   -1.822923
  C     -2.883671   -0.920001    0.334432
  C     -4.143234   -1.376029   -0.363661
  C     -2.083059   -2.062425    0.651431
  C     -3.803439   -2.797096   -0.834056
  H     -4.448550   -0.704709   -1.168537
  C     -2.833712   -3.306303    0.238199
  H     -1.527869   -2.098246    1.581151
  H     -4.683452   -3.429366   -0.952038
  H     -3.289758   -2.751169   -1.796608
  H     -2.154854   -4.083147   -0.116904
  H     -3.375898   -3.704291    1.101912
  H     -4.962838   -1.403579    0.364423

 Total Charge           Charge          ....    0
 Multiplicity           Mult            ....    1
 Number of Electrons    NEL             ....  174
 Basis Dimension        Dim             .... 2828

ORBITAL ENERGIES
----------------

  NO   OCC          E(Eh)            E(eV)
   0   2.0000     -20.616132      -560.9935
   1   2.0000     -20.545841      -559.0807
   2   2.0000     -15.656709      -426.0407
   3   2.0000     -15.630190      -425.3191
   4   2.0000     -11.387148      -309.8600
   5   2.0000     -11.359426      -309.1057
   6   2.0000     -11.282441      -307.0108
   7   2.0000     -11.279663      -306.9352
   8   2.0000     -11.270361      -306.6821
   9   2.0000     -11.258216      -306.3516
  10   2.0000     -11.252125      -306.1859
  11   2.0000     -11.250364      -306.1380
  12   2.0000     -11.249128      -306.1043
  13   2.0000     -11.245885      -306.0161
  14   2.0000     -11.245611      -306.0086
  15   2.0000     -11.244086      -305.9671
  16   2.0000     -11.243137      -305.9413
  17   2.0000     -11.243129      -305.9411
  18   2.0000     -11.234755      -305.7132
  19   2.0000     -11.233967      -305.6918
  20   2.0000     -11.224838      -305.4434
  21   2.0000     -11.223132      -305.3969
  22   2.0000     -11.222557      -305.3813
  23   2.0000     -11.221786      -305.3603
  24   2.0000     -11.218150      -305.2614
  25   2.0000      -1.477259       -40.1983
  26   2.0000      -1.396184       -37.9921
  27   2.0000      -1.383941       -37.6590
  28   2.0000      -1.182994       -32.1909
  29   2.0000      -1.174472       -31.9590
  30   2.0000      -1.155329       -31.4381
  31   2.0000      -1.112721       -30.2787
  32   2.0000      -1.094646       -29.7868
  33   2.0000      -1.039780       -28.2939
  34   2.0000      -1.032117       -28.0853
  35   2.0000      -1.010253       -27.4904
  36   2.0000      -1.007364       -27.4118
  37   2.0000      -0.989497       -26.9256
  38   2.0000      -0.969092       -26.3703
  39   2.0000      -0.883607       -24.0442
  40   2.0000      -0.871769       -23.7220
  41   2.0000      -0.844698       -22.9854
  42   2.0000      -0.838753       -22.8236
  43   2.0000      -0.828099       -22.5337
  44   2.0000      -0.813051       -22.1242
  45   2.0000      -0.800545       -21.7839
  46   2.0000      -0.762559       -20.7503
  47   2.0000      -0.749192       -20.3866
  48   2.0000      -0.733954       -19.9719
  49   2.0000      -0.712460       -19.3870
  50   2.0000      -0.697059       -18.9679
  51   2.0000      -0.685224       -18.6459
  52   2.0000      -0.679069       -18.4784
  53   2.0000      -0.653789       -17.7905
  54   2.0000      -0.647544       -17.6206
  55   2.0000      -0.646603       -17.5950
  56   2.0000      -0.637220       -17.3396
  57   2.0000      -0.632324       -17.2064
  58   2.0000      -0.617248       -16.7962
  59   2.0000      -0.612671       -16.6716
  60   2.0000      -0.606528       -16.5045
  61   2.0000      -0.602646       -16.3988
  62   2.0000      -0.596387       -16.2285
  63   2.0000      -0.578005       -15.7283
  64   2.0000      -0.570101       -15.5132
  65   2.0000      -0.567265       -15.4361
  66   2.0000      -0.556235       -15.1359
  67   2.0000      -0.546552       -14.8724
  68   2.0000      -0.532548       -14.4914
  69   2.0000      -0.526438       -14.3251
  70   2.0000      -0.520793       -14.1715
  71   2.0000      -0.509981       -13.8773
  72   2.0000      -0.507627       -13.8132
  73   2.0000      -0.502672       -13.6784
  74   2.0000      -0.498825       -13.5737
  75   2.0000      -0.497803       -13.5459
  76   2.0000      -0.493510       -13.4291
  77   2.0000      -0.488617       -13.2959
  78   2.0000      -0.481463       -13.1013
  79   2.0000      -0.453839       -12.3496
  80   2.0000      -0.395155       -10.7527
  81   2.0000      -0.380015       -10.3407
  82   2.0000      -0.358227        -9.7479
  83   2.0000      -0.352350        -9.5879
  84   2.0000      -0.329675        -8.9709
  85   2.0000      -0.299905        -8.1608
  86   2.0000      -0.271340        -7.3835
  87   0.0000       0.017231         0.4689
  88   0.0000       0.021323         0.5802
  89   0.0000       0.023145         0.6298
  90   0.0000       0.027191         0.7399
  91   0.0000       0.027934         0.7601

MULLIKEN ATOMIC CHARGES
-----------------------
   0 C :   -0.410371
   1 C :   -0.398964
   2 C :   -0.603221
   3 C :    0.372246
   4 C :   -0.734435
   5 C :   -0.335702
   6 H :    0.349566
   7 H :    0.230070
   8 H :    0.345988
   9 H :    0.339065
  10 H :    0.225781
  11 C :    0.458069
  12 C :    2.262137
  13 O :   -1.150271
  14 O :   -1.468927
  15 N :    0.256930
  16 N :   -1.040490
  17 C :    1.678614
  18 C :   -0.501035
  19 H :    0.235606
  20 C :    0.437259
  21 C :   -0.491951
  22 C :   -0.612175
  23 C :   -0.424111
  24 H :    0.331803
  25 C :   -0.376565
  26 H :    0.369886
  27 C :   -0.437321
  28 H :    0.221579
  29 H :    0.227022
  30 H :    0.346136
  31 C :    0.359014
  32 C :   -0.646902
  33 C :    0.241231
  34 C :   -0.587180
  35 H :    0.199511
  36 C :   -0.851568
  37 H :    0.434220
  38 H :    0.299771
  39 H :    0.157723
  40 H :    0.291565
  41 H :    0.210225
  42 H :    0.190175
Sum of atomic charges:   -0.0000000

LOEWDIN ATOMIC CHARGES
----------------------
   0 C :    0.334675
   1 C :    0.345978
   2 C :    0.325050
   3 C :   -0.107028
   4 C :    0.334805
   5 C :    0.346585
   6 H :   -0.324101
   7 H :   -0.320734
   8 H :   -0.373350
   9 H :   -0.410015
  10 H :   -0.320542
  11 C :   -0.315520
  12 C :   -1.078356
  13 O :    0.745175
  14 O :    0.848658
  15 N :    0.158752
  16 N :    0.499753
  17 C :   -0.502615
  18 C :    0.367521
  19 H :   -0.362904
  20 C :   -0.118810
  21 C :    0.345739
  22 C :    0.343723
  23 C :    0.367285
  24 H :   -0.312834
  25 C :    0.369316
  26 H :   -0.337122
  27 C :    0.353230
  28 H :   -0.316153
  29 H :   -0.313863
  30 H :   -0.314767
  31 C :   -0.042384
  32 C :    0.538430
  33 C :    0.022153
  34 C :    0.539204
  35 H :   -0.260869
  36 C :    0.515576
  37 H :   -0.296388
  38 H :   -0.249624
  39 H :   -0.260554
  40 H :   -0.260054
  41 H :   -0.253874
  42 H :   -0.249147

  Mayer bond orders larger than 0.100000
B(  0-C ,  1-C ) :   1.2470 B(  0-C ,  5-C ) :   1.1529 B(  0-C ,  6-H ) :   0.9895
B(  1-C ,  2-C ) :   1.2446 B(  1-C ,  3-C ) :  -0.4595 B(  1-C ,  4-C ) :   0.1671
B(  1-C ,  6-H ) :  -0.1092 B(  1-C ,  7-H ) :   1.1391 B(  2-C ,  3-C ) :   1.1346
B(  2-C ,  4-C ) :   0.1137 B(  2-C ,  7-H ) :  -0.1412 B(  2-C ,  8-H ) :   0.7682
B(  2-C , 11-C ) :  -0.4606 B(  2-C , 15-N ) :   0.1853 B(  2-C , 16-N ) :  -0.1645
B(  3-C ,  4-C ) :   1.0375 B(  3-C ,  5-C ) :  -0.4645 B(  3-C , 11-C ) :   0.1819
B(  3-C , 12-C ) :  -0.2601 B(  3-C , 15-N ) :   0.2414 B(  4-C ,  5-C ) :   1.3053
B(  4-C ,  6-H ) :  -0.1278 B(  4-C ,  9-H ) :   0.8869 B(  4-C , 10-H ) :  -0.1695
B(  4-C , 11-C ) :  -0.2747 B(  5-C , 10-H ) :   1.1799 B(  8-H , 11-C ) :   0.1121
B(  9-H , 11-C ) :   0.1206 B( 11-C , 12-C ) :   1.3217 B( 11-C , 13-O ) :   0.4349
B( 11-C , 14-O ) :   0.2106 B( 11-C , 15-N ) :   0.3415 B( 11-C , 22-C ) :   0.1174
B( 12-C , 13-O ) :   0.2543 B( 12-C , 14-O ) :   0.3944 B( 12-C , 15-N ) :   0.1123
B( 13-O , 17-C ) :   0.1945 B( 14-O , 17-C ) :  -0.3532 B( 14-O , 18-C ) :   0.1728
B( 14-O , 20-C ) :   0.2363 B( 15-N , 16-N ) :   0.3042 B( 15-N , 17-C ) :   0.1108
B( 15-N , 31-C ) :   0.1701 B( 16-N , 17-C ) :   0.1609 B( 16-N , 18-C ) :   0.1300
B( 16-N , 33-C ) :   0.5592 B( 17-C , 18-C ) :   1.1294 B( 17-C , 20-C ) :   0.5695
B( 17-C , 22-C ) :  -0.2730 B( 17-C , 31-C ) :  -0.4357 B( 18-C , 19-H ) :   1.0700
B( 18-C , 20-C ) :  -0.2125 B( 18-C , 31-C ) :   0.9265 B( 18-C , 33-C ) :  -0.4174
B( 19-H , 31-C ) :  -0.1196 B( 20-C , 21-C ) :   0.8083 B( 20-C , 22-C ) :   0.8243
B( 20-C , 23-C ) :  -0.4591 B( 20-C , 25-C ) :  -0.3933 B( 21-C , 23-C ) :   1.3008
B( 21-C , 24-H ) :   0.9027 B( 21-C , 25-C ) :   0.1008 B( 21-C , 28-H ) :  -0.1172
B( 22-C , 23-C ) :   0.1392 B( 22-C , 25-C ) :   1.3668 B( 22-C , 26-H ) :   0.9409
B( 22-C , 27-C ) :   0.1088 B( 22-C , 29-H ) :  -0.1522 B( 22-C , 30-H ) :  -0.1044
B( 23-C , 27-C ) :   1.2375 B( 23-C , 28-H ) :   1.1566 B( 25-C , 27-C ) :   1.1401
B( 25-C , 29-H ) :   1.1684 B( 27-C , 30-H ) :   1.0127 B( 31-C , 32-C ) :   0.4750
B( 31-C , 33-C ) :   0.9299 B( 31-C , 35-H ) :  -0.1103 B( 31-C , 42-H ) :  -0.1710
B( 32-C , 34-C ) :   1.0453 B( 32-C , 35-H ) :   1.0456 B( 32-C , 42-H ) :   1.0946
B( 33-C , 34-C ) :  -0.1298 B( 33-C , 36-C ) :   0.5343 B( 33-C , 37-H ) :   0.8911
B( 33-C , 41-H ) :  -0.1365 B( 34-C , 36-C ) :   1.0836 B( 34-C , 38-H ) :   0.9208
B( 34-C , 39-H ) :   1.0405 B( 36-C , 40-H ) :   0.9658 B( 36-C , 41-H ) :   1.0511

MP2 TOTAL ENERGY:    -1069.133722917 Eh
FINAL SINGLE POINT ENERGY     -1069.133722916779

DIPOLE MOMENT
-------------
                                X             Y             Z
Electronic contribution:      7.27283       6.56423       7.54500
Nuclear contribution   :     -8.86603      -6.46817      -8.59813
                        -----------------------------------------
Total Dipole Moment    :     -1.59319       0.09606      -1.05313
                        -----------------------------------------
Magnitude (a.u.)       :      1.91222
Magnitude (Debye)      :      4.86047

Rotational constants in cm-1:     0.008354     0.007051     0.004638
Rotational constants in MHz :   250.456550   211.387065   139.053564

                             ****ORCA TERMINATED NORMALLY****
TOTAL RUN TIME: 0 days 15 hours 24 minutes 53 seconds 60 msec
