                         Program Version 4.2.1 -  RELEASE  -
|  1> %pal
|  2>  nprocs 32
|  3> end
|  4> !RI-MP2 aug-cc-pVQZ aug-cc-pVQZ/C TightSCF
|  5> %maxcore 4500
|  6> *xyzfile 0 1  08_14R1.xyz
|  7>
|  8>
|  9>                          ****END OF INPUT****

CARTESIAN COORDINATES (ANGSTROEM)
---------------------------------
  O      2.152303   -1.826438   -0.141550
  C      1.387976   -0.786114    0.386849
  C     -0.068232   -0.960360    0.136554
  C     -0.872530    0.108076    0.083036
  C     -0.321129    1.461140    0.128216
  C      0.998088    1.699630    0.103227
  C      1.933238    0.580193   -0.004544
  H     -0.449025   -1.971310    0.068927
  H     -1.034237    2.276559    0.129588
  H      1.403255    2.701470    0.043150
  C     -2.342882   -0.012670   -0.059010
  O     -3.093269    0.925978   -0.119913
  O     -2.769946   -1.286016   -0.112524
  H     -3.731534   -1.263080   -0.211793
  O      3.091088    0.677054   -0.349500
  H      3.007457   -1.440347   -0.382902
  H      1.475495   -0.767291    1.494955

 Total Charge           Charge          ....    0
 Multiplicity           Mult            ....    1
 Number of Electrons    NEL             ....   80
 Basis Dimension        Dim             .... 1156

ORBITAL ENERGIES
----------------

  NO   OCC          E(Eh)            E(eV)
   0   2.0000     -20.626838      -561.2848
   1   2.0000     -20.577783      -559.9499
   2   2.0000     -20.565566      -559.6175
   3   2.0000     -20.563583      -559.5635
   4   2.0000     -11.406000      -310.3730
   5   2.0000     -11.351849      -308.8995
   6   2.0000     -11.322533      -308.1018
   7   2.0000     -11.294280      -307.3330
   8   2.0000     -11.286666      -307.1258
   9   2.0000     -11.277163      -306.8672
  10   2.0000     -11.257298      -306.3266
  11   2.0000      -1.486741       -40.4563
  12   2.0000      -1.423912       -38.7466
  13   2.0000      -1.382196       -37.6115
  14   2.0000      -1.381663       -37.5970
  15   2.0000      -1.179405       -32.0932
  16   2.0000      -1.064506       -28.9667
  17   2.0000      -1.027908       -27.9708
  18   2.0000      -0.897329       -24.4176
  19   2.0000      -0.873144       -23.7595
  20   2.0000      -0.826288       -22.4844
  21   2.0000      -0.761449       -20.7201
  22   2.0000      -0.732156       -19.9230
  23   2.0000      -0.707436       -19.2503
  24   2.0000      -0.706084       -19.2135
  25   2.0000      -0.676995       -18.4220
  26   2.0000      -0.673207       -18.3189
  27   2.0000      -0.654334       -17.8053
  28   2.0000      -0.640059       -17.4169
  29   2.0000      -0.616601       -16.7786
  30   2.0000      -0.590068       -16.0566
  31   2.0000      -0.580136       -15.7863
  32   2.0000      -0.562791       -15.3143
  33   2.0000      -0.538784       -14.6611
  34   2.0000      -0.513430       -13.9711
  35   2.0000      -0.495213       -13.4754
  36   2.0000      -0.476113       -12.9557
  37   2.0000      -0.464296       -12.6341
  38   2.0000      -0.432885       -11.7794
  39   2.0000      -0.361304        -9.8316
  40   0.0000       0.020506         0.5580
  41   0.0000       0.027036         0.7357
  42   0.0000       0.029633         0.8064
  43   0.0000       0.034666         0.9433
  44   0.0000       0.039248         1.0680

MULLIKEN ATOMIC CHARGES
-----------------------
   0 O :   -0.917900
   1 C :    0.812044
   2 C :   -0.521192
   3 C :   -0.661529
   4 C :   -0.216349
   5 C :   -0.515420
   6 C :    0.777572
   7 H :    0.352750
   8 H :    0.256817
   9 H :    0.345438
  10 C :    1.586546
  11 O :   -0.786830
  12 O :   -0.683337
  13 H :    0.324668
  14 O :   -0.873761
  15 H :    0.373660
  16 H :    0.346823
Sum of atomic charges:   -0.0000000

LOEWDIN ATOMIC CHARGES
----------------------
   0 O :    1.290754
   1 C :   -0.301197
   2 C :    0.368872
   3 C :   -0.123912
   4 C :    0.337242
   5 C :    0.371363
   6 C :   -0.672449
   7 H :   -0.305904
   8 H :   -0.336924
   9 H :   -0.332832
  10 C :   -1.053769
  11 O :    0.718721
  12 O :    1.251786
  13 H :   -0.799814
  14 O :    0.771251
  15 H :   -0.893342
  16 H :   -0.289848

  Mayer bond orders larger than 0.100000
B(  0-O ,  1-C ) :   0.3116 B(  0-O ,  2-C ) :   0.1978 B(  0-O ,  6-C ) :   0.2066
B(  0-O , 15-H ) :   0.8615 B(  1-C ,  2-C ) :   0.9846 B(  1-C ,  3-C ) :  -0.2004
B(  1-C ,  6-C ) :   0.9754 B(  1-C , 14-O ) :   0.1413 B(  1-C , 16-H ) :   0.7699
B(  2-C ,  3-C ) :   1.3230 B(  2-C ,  7-H ) :   0.8916 B(  2-C , 10-C ) :  -0.2347
B(  3-C ,  4-C ) :   0.8762 B(  3-C ,  5-C ) :  -0.2148 B(  3-C , 10-C ) :   1.2618
B(  3-C , 11-O ) :   0.4444 B(  3-C , 12-O ) :   0.1960 B(  4-C ,  5-C ) :   1.5422
B(  4-C ,  6-C ) :  -0.1154 B(  4-C ,  8-H ) :   0.9809 B(  4-C ,  9-H ) :  -0.1036
B(  4-C , 10-C ) :  -0.3058 B(  4-C , 11-O ) :  -0.1413 B(  5-C ,  6-C ) :   1.1672
B(  5-C ,  9-H ) :   0.9183 B(  5-C , 14-O ) :   0.2528 B(  6-C , 14-O ) :   0.7464
B( 10-C , 11-O ) :   1.0686 B( 10-C , 12-O ) :   0.7054 B( 11-O , 12-O ) :   0.1014
B( 12-O , 13-H ) :   0.9317

MP2 TOTAL ENERGY:     -570.438340376 Eh
FINAL SINGLE POINT ENERGY      -570.438340375599

DIPOLE MOMENT
-------------
                                X             Y             Z
Electronic contribution:     -1.36424       0.19469      -0.63984
Nuclear contribution   :      0.64500      -0.47553       1.10209
                        -----------------------------------------
Total Dipole Moment    :     -0.71924      -0.28084       0.46225
                        -----------------------------------------
Magnitude (a.u.)       :      0.89992
Magnitude (Debye)      :      2.28741

Rotational constants in cm-1:     0.079395     0.024240     0.018888
Rotational constants in MHz :  2380.189451   726.707407   566.256144

                             ****ORCA TERMINATED NORMALLY****
TOTAL RUN TIME: 0 days 0 hours 45 minutes 43 seconds 469 msec
