                         Program Version 4.2.1 -  RELEASE  -
|  1> %pal
|  2>  nprocs 32
|  3> end
|  4> !RI-MP2 aug-cc-pVQZ aug-cc-pVQZ/C TightSCF
|  5> %maxcore 4500
|  6> *xyzfile 0 1  02_27P.xyz
|  7>
|  8>
|  9>                          ****END OF INPUT****

CARTESIAN COORDINATES (ANGSTROEM)
---------------------------------
  C      1.673942    0.555266   -0.383713
  C     -0.777859    0.491652   -0.725720
  C     -0.911932    1.896829   -0.081671
  C      0.398822    2.539011    0.287339
  C      1.579005    1.938220    0.179755
  C      2.803651   -0.387731    0.022385
  C      2.301260   -1.766858   -0.481156
  C      0.798309   -1.582496   -0.830139
  H      0.339893    3.550509    0.678042
  H      2.487074    2.460126    0.465611
  H      3.761422   -0.104291   -0.416864
  H      2.439353   -2.534719    0.281446
  H      0.668517   -1.470627   -1.910331
  H      2.933658   -0.389321    1.107284
  H      2.860775   -2.096802   -1.357485
  H      0.199412   -2.440025   -0.520855
  C      0.173508   -0.544506    1.383796
  H      0.569442    0.283292    1.973780
  H      0.753444   -1.424288    1.668598
  C     -2.196663   -1.185790    0.602867
  C      0.403253   -0.272874   -0.125380
  C     -2.091892   -0.247128   -0.579069
  O     -3.000790   -0.090839   -1.359753
  C     -1.304634   -0.764924    1.771455
  H     -3.246228   -1.255542    0.891497
  H     -1.908069   -2.177434    0.237180
  H     -1.711953    0.152754    2.201689
  H     -1.370832   -1.514072    2.562531
  H     -0.609171    0.623807   -1.797708
  H     -1.461620    2.541487   -0.772451
  H     -1.535605    1.850954    0.817822
  H      1.744180    0.658877   -1.476256

 Total Charge           Charge          ....    0
 Multiplicity           Mult            ....    1
 Number of Electrons    NEL             ....  104
 Basis Dimension        Dim             .... 1948

ORBITAL ENERGIES
----------------

  NO   OCC          E(Eh)            E(eV)
   0   2.0000     -20.534687      -558.7772
   1   2.0000     -11.317724      -307.9709
   2   2.0000     -11.236565      -305.7625
   3   2.0000     -11.235033      -305.7208
   4   2.0000     -11.232996      -305.6654
   5   2.0000     -11.231052      -305.6125
   6   2.0000     -11.230272      -305.5912
   7   2.0000     -11.229136      -305.5603
   8   2.0000     -11.227307      -305.5105
   9   2.0000     -11.225183      -305.4528
  10   2.0000     -11.223512      -305.4073
  11   2.0000     -11.222342      -305.3754
  12   2.0000     -11.222135      -305.3698
  13   2.0000     -11.221634      -305.3562
  14   2.0000      -1.381053       -37.5804
  15   2.0000      -1.175974       -31.9999
  16   2.0000      -1.092769       -29.7358
  17   2.0000      -1.083694       -29.4888
  18   2.0000      -1.025518       -27.9058
  19   2.0000      -0.988014       -26.8852
  20   2.0000      -0.965911       -26.2838
  21   2.0000      -0.942886       -25.6572
  22   2.0000      -0.863524       -23.4977
  23   2.0000      -0.843483       -22.9524
  24   2.0000      -0.789764       -21.4906
  25   2.0000      -0.776402       -21.1270
  26   2.0000      -0.725641       -19.7457
  27   2.0000      -0.702204       -19.1079
  28   2.0000      -0.673684       -18.3319
  29   2.0000      -0.660841       -17.9824
  30   2.0000      -0.645316       -17.5599
  31   2.0000      -0.629731       -17.1358
  32   2.0000      -0.615676       -16.7534
  33   2.0000      -0.606954       -16.5160
  34   2.0000      -0.593355       -16.1460
  35   2.0000      -0.580171       -15.7873
  36   2.0000      -0.565937       -15.3999
  37   2.0000      -0.564772       -15.3682
  38   2.0000      -0.547841       -14.9075
  39   2.0000      -0.541280       -14.7290
  40   2.0000      -0.515822       -14.0362
  41   2.0000      -0.496159       -13.5012
  42   2.0000      -0.490545       -13.3484
  43   2.0000      -0.483485       -13.1563
  44   2.0000      -0.481701       -13.1078
  45   2.0000      -0.472969       -12.8701
  46   2.0000      -0.461317       -12.5531
  47   2.0000      -0.454021       -12.3546
  48   2.0000      -0.441285       -12.0080
  49   2.0000      -0.431066       -11.7299
  50   2.0000      -0.384697       -10.4681
  51   2.0000      -0.349721        -9.5164
  52   0.0000       0.020794         0.5658
  53   0.0000       0.025353         0.6899
  54   0.0000       0.026163         0.7119
  55   0.0000       0.030822         0.8387
  56   0.0000       0.037791         1.0284

MULLIKEN ATOMIC CHARGES
-----------------------
   0 C :    0.167498
   1 C :   -0.464275
   2 C :   -0.465607
   3 C :   -0.647415
   4 C :   -0.687904
   5 C :   -0.740216
   6 C :   -0.538684
   7 C :   -1.105793
   8 H :    0.162063
   9 H :    0.176740
  10 H :    0.235726
  11 H :    0.186635
  12 H :    0.162759
  13 H :    0.134886
  14 H :    0.248025
  15 H :    0.129575
  16 C :   -0.523869
  17 H :    0.200503
  18 H :    0.144226
  19 C :   -0.836406
  20 C :    2.665134
  21 C :    1.734284
  22 O :   -1.121620
  23 C :   -0.748126
  24 H :    0.252680
  25 H :    0.177308
  26 H :    0.124223
  27 H :    0.205964
  28 H :    0.028560
  29 H :    0.255939
  30 H :    0.184383
  31 H :    0.302804
Sum of atomic charges:   -0.0000000

LOEWDIN ATOMIC CHARGES
----------------------
   0 C :    0.075426
   1 C :    0.105708
   2 C :    0.536545
   3 C :    0.440839
   4 C :    0.436813
   5 C :    0.568703
   6 C :    0.589925
   7 C :    0.561537
   8 H :   -0.302851
   9 H :   -0.294268
  10 H :   -0.243983
  11 H :   -0.256629
  12 H :   -0.245927
  13 H :   -0.264040
  14 H :   -0.253734
  15 H :   -0.260452
  16 C :    0.563232
  17 H :   -0.270658
  18 H :   -0.279291
  19 C :    0.525791
  20 C :   -0.266253
  21 C :   -0.611857
  22 O :    0.770290
  23 C :    0.576987
  24 H :   -0.280535
  25 H :   -0.280898
  26 H :   -0.277738
  27 H :   -0.252157
  28 H :   -0.289605
  29 H :   -0.256545
  30 H :   -0.291336
  31 H :   -0.273036

  Mayer bond orders larger than 0.100000
B(  0-C ,  2-C ) :   0.1192 B(  0-C ,  3-C ) :  -0.3279 B(  0-C ,  4-C ) :   0.3840
B(  0-C ,  5-C ) :   0.5662 B(  0-C ,  6-C ) :  -0.1023 B(  0-C ,  9-H ) :  -0.1233
B(  0-C , 13-H ) :  -0.1648 B(  0-C , 20-C ) :   0.5186 B(  0-C , 31-H ) :   1.0265
B(  1-C ,  2-C ) :   0.6402 B(  1-C ,  7-C ) :   0.1131 B(  1-C , 20-C ) :   0.3150
B(  1-C , 21-C ) :   1.1426 B(  1-C , 22-O ) :   0.6005 B(  1-C , 28-H ) :   1.1123
B(  1-C , 29-H ) :  -0.1470 B(  2-C ,  3-C ) :   0.8363 B(  2-C , 20-C ) :  -0.2678
B(  2-C , 21-C ) :   0.1262 B(  2-C , 29-H ) :   1.0504 B(  2-C , 30-H ) :   1.0483
B(  3-C ,  4-C ) :   1.7570 B(  3-C ,  8-H ) :   1.2281 B(  3-C ,  9-H ) :  -0.1303
B(  4-C ,  8-H ) :  -0.2008 B(  4-C ,  9-H ) :   1.2390 B(  4-C , 16-C ) :  -0.1306
B(  4-C , 31-H ) :  -0.1466 B(  5-C ,  6-C ) :   1.1153 B(  5-C , 10-H ) :   1.0419
B(  5-C , 13-H ) :   1.1515 B(  5-C , 20-C ) :  -0.2343 B(  6-C ,  7-C ) :   1.1298
B(  6-C , 11-H ) :   1.0571 B(  6-C , 14-H ) :   0.9832 B(  6-C , 20-C ) :  -0.4120
B(  7-C , 12-H ) :   1.1766 B(  7-C , 15-H ) :   1.2571 B(  7-C , 20-C ) :  -0.4444
B( 12-H , 20-C ) :  -0.2035 B( 15-H , 20-C ) :  -0.3262 B( 16-C , 17-H ) :   1.0349
B( 16-C , 18-H ) :   1.1530 B( 16-C , 20-C ) :   0.1061 B( 16-C , 23-C ) :   0.7207
B( 16-C , 27-H ) :  -0.1061 B( 17-H , 20-C ) :  -0.1992 B( 18-H , 20-C ) :  -0.1797
B( 19-C , 20-C ) :  -0.1693 B( 19-C , 21-C ) :   0.9016 B( 19-C , 22-O ) :   0.3539
B( 19-C , 23-C ) :   0.9613 B( 19-C , 24-H ) :   0.9827 B( 19-C , 25-H ) :   1.0345
B( 20-C , 21-C ) :  -0.1095 B( 20-C , 22-O ) :   0.1295 B( 20-C , 23-C ) :  -0.2556
B( 20-C , 25-H ) :  -0.1056 B( 21-C , 22-O ) :  -0.1968 B( 23-C , 26-H ) :   1.1589
B( 23-C , 27-H ) :   1.0777

MP2 TOTAL ENERGY:     -580.405603961 Eh
FINAL SINGLE POINT ENERGY      -580.405603960576

DIPOLE MOMENT
-------------
                                X             Y             Z
Electronic contribution:     -5.94433       3.18986      -3.87420
Nuclear contribution   :      7.04802      -3.37369       4.73410
                        -----------------------------------------
Total Dipole Moment    :      1.10369      -0.18383       0.85989
                        -----------------------------------------
Magnitude (a.u.)       :      1.41115
Magnitude (Debye)      :      3.58686

Rotational constants in cm-1:     0.034871     0.022452     0.018156
Rotational constants in MHz :  1045.395930   673.096879   544.313620

                             ****ORCA TERMINATED NORMALLY****
TOTAL RUN TIME: 0 days 4 hours 41 minutes 22 seconds 219 msec
