                         Program Version 4.2.1 -  RELEASE  -
|  1> %pal
|  2>  nprocs 32
|  3> end
|  4> !RI-MP2 aug-cc-pVQZ aug-cc-pVQZ/C TightSCF
|  5> %maxcore 4500
|  6> *xyzfile 0 1  05_17P1.xyz
|  7>
|  8>
|  9>                          ****END OF INPUT****

CARTESIAN COORDINATES (ANGSTROEM)
---------------------------------
  N     -1.840742    1.328615    0.000070
  C     -3.067605    0.699924    0.000026
  N     -3.084884   -0.708710   -0.000138
  C     -2.008421   -1.560324   -0.000108
  C     -0.697051   -0.834171   -0.000055
  C     -0.752590    0.627411    0.000025
  N      0.460487    1.265780    0.000049
  N      0.385516   -1.519515   -0.000084
  C      1.584813   -0.855949   -0.000033
  C      1.645771    0.550452    0.000038
  C      2.896844    1.178598    0.000098
  C      2.765888   -1.609165   -0.000052
  C      3.989351   -0.983628    0.000002
  C      4.044720    0.413487    0.000080
  H      5.006377    0.911787    0.000128
  H      2.972219    2.255559    0.000163
  H      2.667781   -2.687033   -0.000110
  H      4.902666   -1.563736   -0.000012
  O     -4.115906    1.294323    0.000103
  O     -2.114550   -2.759629   -0.000153
  H     -4.003748   -1.132874   -0.000148
  C      0.493447    2.727332    0.000103
  H     -0.531697    3.080697    0.000027
  H      1.008288    3.085553   -0.891711
  H      1.008126    3.085498    0.892035

 Total Charge           Charge          ....    0
 Multiplicity           Mult            ....    1
 Number of Electrons    NEL             ....  118
 Basis Dimension        Dim             .... 1728

ORBITAL ENERGIES
----------------

  NO   OCC          E(Eh)            E(eV)
   0   2.0000     -20.545203      -559.0634
   1   2.0000     -20.526136      -558.5446
   2   2.0000     -15.661827      -426.1800
   3   2.0000     -15.634497      -425.4363
   4   2.0000     -15.613213      -424.8571
   5   2.0000     -15.561946      -423.4621
   6   2.0000     -11.388374      -309.8934
   7   2.0000     -11.381138      -309.6965
   8   2.0000     -11.380666      -309.6837
   9   2.0000     -11.332859      -308.3828
  10   2.0000     -11.325100      -308.1716
  11   2.0000     -11.301874      -307.5396
  12   2.0000     -11.288850      -307.1852
  13   2.0000     -11.279800      -306.9390
  14   2.0000     -11.273812      -306.7760
  15   2.0000     -11.269350      -306.6546
  16   2.0000     -11.260974      -306.4267
  17   2.0000      -1.426437       -38.8153
  18   2.0000      -1.401553       -38.1382
  19   2.0000      -1.375071       -37.4176
  20   2.0000      -1.296575       -35.2816
  21   2.0000      -1.273100       -34.6428
  22   2.0000      -1.222765       -33.2731
  23   2.0000      -1.179285       -32.0900
  24   2.0000      -1.068936       -29.0872
  25   2.0000      -1.059430       -28.8286
  26   2.0000      -1.024632       -27.8816
  27   2.0000      -0.962231       -26.1836
  28   2.0000      -0.928867       -25.2758
  29   2.0000      -0.866455       -23.5774
  30   2.0000      -0.857861       -23.3436
  31   2.0000      -0.839248       -22.8371
  32   2.0000      -0.793577       -21.5943
  33   2.0000      -0.770264       -20.9599
  34   2.0000      -0.742096       -20.1935
  35   2.0000      -0.706041       -19.2123
  36   2.0000      -0.692369       -18.8403
  37   2.0000      -0.687951       -18.7201
  38   2.0000      -0.661954       -18.0127
  39   2.0000      -0.652058       -17.7434
  40   2.0000      -0.642501       -17.4833
  41   2.0000      -0.642202       -17.4752
  42   2.0000      -0.639246       -17.3948
  43   2.0000      -0.628460       -17.1013
  44   2.0000      -0.592324       -16.1180
  45   2.0000      -0.588045       -16.0015
  46   2.0000      -0.567337       -15.4380
  47   2.0000      -0.560109       -15.2413
  48   2.0000      -0.556789       -15.1510
  49   2.0000      -0.526992       -14.3402
  50   2.0000      -0.503949       -13.7132
  51   2.0000      -0.495940       -13.4952
  52   2.0000      -0.479050       -13.0356
  53   2.0000      -0.442073       -12.0294
  54   2.0000      -0.437090       -11.8938
  55   2.0000      -0.436963       -11.8904
  56   2.0000      -0.424877       -11.5615
  57   2.0000      -0.365838        -9.9549
  58   2.0000      -0.329133        -8.9562
  59   0.0000       0.005070         0.1380
  60   0.0000       0.011909         0.3241
  61   0.0000       0.020547         0.5591
  62   0.0000       0.027780         0.7559
  63   0.0000       0.031723         0.8632

MULLIKEN ATOMIC CHARGES
-----------------------
   0 N :   -0.839413
   1 C :    1.234943
   2 N :   -0.799531
   3 C :    1.533189
   4 C :   -0.230467
   5 C :    1.324734
   6 N :   -0.597450
   7 N :   -0.477511
   8 C :    0.634708
   9 C :    1.213910
  10 C :   -0.572053
  11 C :   -0.787246
  12 C :   -0.406019
  13 C :   -0.484616
  14 H :    0.240801
  15 H :    0.178053
  16 H :    0.290540
  17 H :    0.262133
  18 O :   -0.889196
  19 O :   -0.837064
  20 H :   -0.017604
  21 C :   -0.971064
  22 H :    0.404099
  23 H :    0.296030
  24 H :    0.296094
Sum of atomic charges:    0.0000000

LOEWDIN ATOMIC CHARGES
----------------------
   0 N :    0.560784
   1 C :   -1.101689
   2 N :    0.755272
   3 C :   -0.871906
   4 C :   -0.330217
   5 C :   -0.483355
   6 N :    0.461502
   7 N :    0.637088
   8 C :   -0.325400
   9 C :   -0.229876
  10 C :    0.372313
  11 C :    0.345495
  12 C :    0.365276
  13 C :    0.368069
  14 H :   -0.307628
  15 H :   -0.348244
  16 H :   -0.309982
  17 H :   -0.319656
  18 O :    0.662563
  19 O :    0.708709
  20 H :   -0.524083
  21 C :    0.804849
  22 H :   -0.365103
  23 H :   -0.262399
  24 H :   -0.262383

  Mayer bond orders larger than 0.100000
B(  0-N ,  1-C ) :   1.3598 B(  0-N ,  4-C ) :   0.1465 B(  0-N ,  5-C ) :   0.8356
B(  0-N ,  6-N ) :   0.3020 B(  0-N , 21-C ) :  -0.1196 B(  1-C ,  2-N ) :   0.9576
B(  1-C , 18-O ) :   1.1337 B(  1-C , 20-H ) :  -0.1200 B(  2-N ,  3-C ) :   0.9293
B(  2-N ,  5-C ) :  -0.1129 B(  2-N , 18-O ) :   0.1893 B(  2-N , 19-O ) :   0.2785
B(  2-N , 20-H ) :   1.3238 B(  3-C ,  4-C ) :   1.7870 B(  3-C ,  5-C ) :  -0.3663
B(  3-C ,  7-N ) :  -0.1224 B(  3-C , 19-O ) :   0.5587 B(  3-C , 20-H ) :  -0.1441
B(  4-C ,  5-C ) :   0.6431 B(  4-C ,  7-N ) :   0.9154 B(  4-C ,  8-C ) :  -0.1644
B(  4-C , 19-O ) :   0.6024 B(  5-C ,  6-N ) :   1.3530 B(  5-C ,  7-N ) :   0.1512
B(  5-C ,  9-C ) :   0.1417 B(  5-C , 10-C ) :  -0.1222 B(  6-N ,  9-C ) :   0.8838
B(  6-N , 21-C ) :   1.0323 B(  8-C ,  9-C ) :   1.2729 B(  8-C , 10-C ) :  -0.1666
B(  8-C , 11-C ) :   0.8777 B(  8-C , 12-C ) :  -0.3553 B(  9-C , 10-C ) :   0.7750
B(  9-C , 11-C ) :  -0.2186 B(  9-C , 13-C ) :  -0.4882 B(  9-C , 21-C ) :  -0.1934
B( 10-C , 13-C ) :   1.2272 B( 10-C , 14-H ) :  -0.1864 B( 10-C , 15-H ) :   1.0704
B( 11-C , 12-C ) :   1.3116 B( 11-C , 13-C ) :   0.2106 B( 11-C , 16-H ) :   0.8924
B( 11-C , 17-H ) :  -0.1940 B( 12-C , 13-C ) :   1.2175 B( 12-C , 17-H ) :   1.1584
B( 13-C , 14-H ) :   1.1880 B( 21-C , 22-H ) :   0.7802 B( 21-C , 23-H ) :   0.9728
B( 21-C , 24-H ) :   0.9728

MP2 TOTAL ENERGY:     -792.265779135 Eh
FINAL SINGLE POINT ENERGY      -792.265779135160

DIPOLE MOMENT
-------------
                                X             Y             Z
Electronic contribution:     -9.36882      -5.92498      -0.00034
Nuclear contribution   :     12.53464       6.81169       0.00036
                        -----------------------------------------
Total Dipole Moment    :      3.16582       0.88671       0.00002
                        -----------------------------------------
Magnitude (a.u.)       :      3.28766
Magnitude (Debye)      :      8.35656

Rotational constants in cm-1:     0.034142     0.011760     0.008762
Rotational constants in MHz :  1023.538796   352.565916   262.673645

                             ****ORCA TERMINATED NORMALLY****
TOTAL RUN TIME: 0 days 3 hours 18 minutes 46 seconds 119 msec
