                         Program Version 4.2.1 -  RELEASE  -
|  1> %pal
|  2>  nprocs 32
|  3> end
|  4> !RI-MP2 aug-cc-pVQZ aug-cc-pVQZ/C TightSCF
|  5> %maxcore 4500
|  6> *xyzfile 0 2  01_32P.xyz
|  7>
|  8>
|  9>                          ****END OF INPUT****

CARTESIAN COORDINATES (ANGSTROEM)
---------------------------------
  C      1.074515    2.332030    0.062177
  C      1.053686    0.855613   -0.146432
  O      0.085687    0.169406    0.543720
  C      2.315555    0.124827   -0.336754
  Si    -1.464649   -0.196978    0.014017
  C     -2.254307   -1.054331    1.466205
  H     -1.684603   -1.942023    1.749659
  H     -3.274309   -1.369857    1.231803
  H     -2.297266   -0.393048    2.334322
  C     -1.361990   -1.317456   -1.478519
  H     -0.750853   -0.864009   -2.262590
  H     -2.355389   -1.504861   -1.895046
  H     -0.919345   -2.283463   -1.225985
  C     -2.386472    1.366935   -0.436063
  H     -2.423160    2.065080    0.403291
  H     -3.416324    1.133171   -0.720104
  H     -1.920402    1.876990   -1.282325
  H      1.802271    2.806864   -0.598059
  H      0.096689    2.779667   -0.124695
  H      1.351698    2.577073    1.098852
  C      2.343647   -1.372481   -0.474570
  H      3.055247    0.671828   -0.909584
  C      2.868307   -0.750102    0.780957
  H      3.050022   -1.798775   -1.175309
  H      1.395840   -1.889057   -0.412254
  H      3.937105   -0.739523    0.951949
  H      2.254714   -0.833824    1.668064

 Total Charge           Charge          ....    0
 Multiplicity           Mult            ....    2
 Number of Electrons    NEL             ....   87
 Basis Dimension        Dim             .... 1586

ORBITAL ENERGIES
----------------
                 SPIN UP ORBITALS
  NO   OCC          E(Eh)            E(eV)
   0   1.0000     -68.768688     -1871.2911
   1   1.0000     -20.540617      -558.9386
   2   1.0000     -11.273446      -306.7660
   3   1.0000     -11.222160      -305.3705
   4   1.0000     -11.217722      -305.2497
   5   1.0000     -11.216932      -305.2282
   6   1.0000     -11.211575      -305.0825
   7   1.0000     -11.195958      -304.6575
   8   1.0000     -11.194059      -304.6058
   9   1.0000     -11.193539      -304.5917
  10   1.0000      -6.113614      -166.3599
  11   1.0000      -4.220920      -114.8571
  12   1.0000      -4.220163      -114.8365
  13   1.0000      -4.220005      -114.8322
  14   1.0000      -1.360494       -37.0209
  15   1.0000      -1.138159       -30.9709
  16   1.0000      -1.017319       -27.6827
  17   1.0000      -0.965244       -26.2656
  18   1.0000      -0.925261       -25.1776
  19   1.0000      -0.924653       -25.1611
  20   1.0000      -0.871952       -23.7270
  21   1.0000      -0.818025       -22.2596
  22   1.0000      -0.767469       -20.8839
  23   1.0000      -0.673312       -18.3217
  24   1.0000      -0.670222       -18.2377
  25   1.0000      -0.636589       -17.3225
  26   1.0000      -0.607879       -16.5412
  27   1.0000      -0.586399       -15.9567
  28   1.0000      -0.562270       -15.3002
  29   1.0000      -0.561060       -15.2672
  30   1.0000      -0.560741       -15.2585
  31   1.0000      -0.556053       -15.1310
  32   1.0000      -0.541684       -14.7400
  33   1.0000      -0.537919       -14.6375
  34   1.0000      -0.530769       -14.4430
  35   1.0000      -0.526462       -14.3258
  36   1.0000      -0.516870       -14.0648
  37   1.0000      -0.506025       -13.7697
  38   1.0000      -0.470933       -12.8147
  39   1.0000      -0.442911       -12.0522
  40   1.0000      -0.427250       -11.6261
  41   1.0000      -0.422670       -11.5014
  42   1.0000      -0.412634       -11.2283
  43   1.0000      -0.291582        -7.9343
  44   0.0000       0.020864         0.5677
  45   0.0000       0.028859         0.7853
  46   0.0000       0.030169         0.8210
  47   0.0000       0.031663         0.8616
  48   0.0000       0.040766         1.1093

                 SPIN DOWN ORBITALS
  NO   OCC          E(Eh)            E(eV)
   0   1.0000     -68.768546     -1871.2873
   1   1.0000     -20.537658      -558.8581
   2   1.0000     -11.248865      -306.0972
   3   1.0000     -11.225505      -305.4615
   4   1.0000     -11.216108      -305.2058
   5   1.0000     -11.214178      -305.1533
   6   1.0000     -11.213835      -305.1440
   7   1.0000     -11.195983      -304.6582
   8   1.0000     -11.194072      -304.6062
   9   1.0000     -11.193590      -304.5931
  10   1.0000      -6.113362      -166.3530
  11   1.0000      -4.220562      -114.8473
  12   1.0000      -4.220047      -114.8333
  13   1.0000      -4.219890      -114.8290
  14   1.0000      -1.344833       -36.5948
  15   1.0000      -1.131486       -30.7893
  16   1.0000      -0.993468       -27.0336
  17   1.0000      -0.964953       -26.2577
  18   1.0000      -0.925257       -25.1775
  19   1.0000      -0.924593       -25.1595
  20   1.0000      -0.857700       -23.3392
  21   1.0000      -0.810731       -22.0611
  22   1.0000      -0.758070       -20.6281
  23   1.0000      -0.668244       -18.1838
  24   1.0000      -0.647476       -17.6187
  25   1.0000      -0.616772       -16.7832
  26   1.0000      -0.585585       -15.9346
  27   1.0000      -0.580758       -15.8032
  28   1.0000      -0.561382       -15.2760
  29   1.0000      -0.559054       -15.2126
  30   1.0000      -0.554180       -15.0800
  31   1.0000      -0.548746       -14.9321
  32   1.0000      -0.540348       -14.7036
  33   1.0000      -0.536417       -14.5967
  34   1.0000      -0.530559       -14.4372
  35   1.0000      -0.514571       -14.0022
  36   1.0000      -0.511771       -13.9260
  37   1.0000      -0.500615       -13.6224
  38   1.0000      -0.468002       -12.7350
  39   1.0000      -0.429145       -11.6776
  40   1.0000      -0.419616       -11.4183
  41   1.0000      -0.411820       -11.2062
  42   1.0000      -0.407670       -11.0933
  43   0.0000       0.020807         0.5662
  44   0.0000       0.028873         0.7857
  45   0.0000       0.030203         0.8219
  46   0.0000       0.031726         0.8633
  47   0.0000       0.040675         1.1068

MULLIKEN ATOMIC CHARGES AND SPIN POPULATIONS
--------------------------------------------
   0 C :   -1.012988   -0.142832
   1 C :    0.615296    1.089258
   2 O :   -1.458620    0.054202
   3 C :   -0.144458   -0.233943
   4 Si:    1.827606   -0.016246
   5 C :   -1.218866   -0.002668
   6 H :    0.292587    0.000434
   7 H :    0.309185    0.000168
   8 H :    0.298247    0.000277
   9 C :   -1.154014    0.002737
  10 H :    0.298896   -0.002204
  11 H :    0.280559   -0.000287
  12 H :    0.263642    0.002375
  13 C :   -1.167284   -0.001465
  14 H :    0.278809    0.000123
  15 H :    0.271166   -0.000239
  16 H :    0.249615   -0.000467
  17 H :    0.335832    0.007325
  18 H :    0.296090    0.010003
  19 H :    0.231350    0.088247
  20 C :   -0.928271    0.028867
  21 H :    0.498499   -0.002312
  22 C :   -0.721464    0.136249
  23 H :    0.360957   -0.001669
  24 H :    0.464532   -0.004238
  25 H :    0.365631   -0.001808
  26 H :    0.267464   -0.009886
Sum of atomic charges         :    0.0000000

LOEWDIN ATOMIC CHARGES AND SPIN POPULATIONS
-------------------------------------------
   0 C :    0.881383    0.117755
   1 C :   -0.420483    0.456087
   2 O :    0.753698    0.153845
   3 C :    0.108231    0.098681
   4 Si:   -0.123291    0.018356
   5 C :    0.989869    0.000068
   6 H :   -0.340006    0.000018
   7 H :   -0.340072   -0.000240
   8 H :   -0.339307    0.000134
   9 C :    0.995831    0.002894
  10 H :   -0.334060    0.002232
  11 H :   -0.335259   -0.000037
  12 H :   -0.343570    0.000359
  13 C :    0.992887    0.001405
  14 H :   -0.335326    0.000214
  15 H :   -0.335446   -0.000104
  16 H :   -0.342263    0.000863
  17 H :   -0.301273    0.009609
  18 H :   -0.328820    0.014181
  19 H :   -0.273537    0.027362
  20 C :    0.579855    0.020701
  21 H :   -0.289289    0.002473
  22 C :    0.604173    0.043515
  23 H :   -0.263262    0.003608
  24 H :   -0.309719    0.003578
  25 H :   -0.267405    0.012876
  26 H :   -0.283540    0.009567

  Mayer bond orders larger than 0.100000
B(  0-C ,  1-C ) :   0.7049 B(  0-C , 17-H ) :   0.9562 B(  0-C , 18-H ) :   1.0123
B(  0-C , 19-H ) :   0.9596 B(  1-C ,  2-O ) :   0.4239 B(  1-C ,  3-C ) :   0.7113
B(  1-C , 18-H ) :  -0.1388 B(  2-O ,  4-Si) :   0.3690 B(  3-C , 20-C ) :   0.8616
B(  3-C , 21-H ) :   0.7221 B(  3-C , 22-C ) :   0.7971 B(  4-Si,  5-C ) :   0.6691
B(  4-Si,  9-C ) :   0.7460 B(  4-Si, 13-C ) :   0.6774 B(  5-C ,  6-H ) :   0.9683
B(  5-C ,  7-H ) :   0.9401 B(  5-C ,  8-H ) :   0.9588 B(  9-C , 10-H ) :   0.9340
B(  9-C , 11-H ) :   1.0047 B(  9-C , 12-H ) :   0.9510 B( 13-C , 14-H ) :   0.9249
B( 13-C , 15-H ) :   1.0148 B( 13-C , 16-H ) :   0.9813 B( 20-C , 22-C ) :   1.2290
B( 20-C , 23-H ) :   0.9275 B( 20-C , 24-H ) :   0.7395 B( 22-C , 25-H ) :   0.9070
B( 22-C , 26-H ) :   0.8934

MP2 TOTAL ENERGY:     -678.673312897 Eh
FINAL SINGLE POINT ENERGY      -678.673312897185

DIPOLE MOMENT
-------------
                                X             Y             Z
Electronic contribution:      1.92591      -0.21397       0.96624
Nuclear contribution   :     -2.08544       0.31873      -1.20516
                        -----------------------------------------
Total Dipole Moment    :     -0.15953       0.10476      -0.23892
                        -----------------------------------------
Magnitude (a.u.)       :      0.30579
Magnitude (Debye)      :      0.77724

Rotational constants in cm-1:     0.053114     0.025399     0.021650
Rotational constants in MHz :  1592.307940   761.427965   649.059918

                             ****ORCA TERMINATED NORMALLY****
TOTAL RUN TIME: 0 days 2 hours 16 minutes 3 seconds 159 msec
