                         Program Version 4.2.1 -  RELEASE  -
|  1> %pal
|  2>  nprocs 32
|  3> end
|  4> !RI-MP2 aug-cc-pVQZ aug-cc-pVQZ/C TightSCF
|  5> %maxcore 4500
|  6> *xyzfile 0 1  07_9TS.xyz
|  7>
|  8>
|  9>                          ****END OF INPUT****

CARTESIAN COORDINATES (ANGSTROEM)
---------------------------------
  C     -0.263747    0.671655   -0.001449
  C      0.997542    1.306885    0.009377
  C      2.130157    0.538183    0.010701
  C      2.046464   -0.865107    0.002736
  C      0.801051   -1.430688   -0.005809
  N     -0.313788   -0.682447   -0.005285
  H      3.102222    1.017359    0.016862
  H      1.026091    2.387335    0.013088
  H      2.931443   -1.484825    0.001163
  H      0.651010   -2.503205   -0.014505
  O     -1.377404    1.319459   -0.007291
  H     -2.222693    0.510212   -0.022766
  O     -2.716810   -0.644037   -0.078669
  H     -1.501438   -0.995185   -0.003252
  H     -3.305209   -0.883509    0.640757

 Total Charge           Charge          ....    0
 Multiplicity           Mult            ....    1
 Number of Electrons    NEL             ....   60
 Basis Dimension        Dim             ....  962

ORBITAL ENERGIES
----------------

  NO   OCC          E(Eh)            E(eV)
   0   2.0000     -20.545482      -559.0710
   1   2.0000     -20.519851      -558.3735
   2   2.0000     -15.597929      -424.4412
   3   2.0000     -11.358241      -309.0735
   4   2.0000     -11.305599      -307.6410
   5   2.0000     -11.277250      -306.8696
   6   2.0000     -11.242548      -305.9253
   7   2.0000     -11.242032      -305.9112
   8   2.0000      -1.409084       -38.3431
   9   2.0000      -1.295565       -35.2541
  10   2.0000      -1.273882       -34.6641
  11   2.0000      -1.110637       -30.2220
  12   2.0000      -1.039266       -28.2799
  13   2.0000      -0.896506       -24.3952
  14   2.0000      -0.863971       -23.5098
  15   2.0000      -0.757882       -20.6230
  16   2.0000      -0.745952       -20.2984
  17   2.0000      -0.691315       -18.8116
  18   2.0000      -0.662244       -18.0206
  19   2.0000      -0.642890       -17.4939
  20   2.0000      -0.619511       -16.8577
  21   2.0000      -0.609983       -16.5985
  22   2.0000      -0.578485       -15.7414
  23   2.0000      -0.555276       -15.1098
  24   2.0000      -0.521621       -14.1940
  25   2.0000      -0.506933       -13.7944
  26   2.0000      -0.458624       -12.4798
  27   2.0000      -0.437047       -11.8926
  28   2.0000      -0.417648       -11.3648
  29   2.0000      -0.331685        -9.0256
  30   0.0000       0.019712         0.5364
  31   0.0000       0.026405         0.7185
  32   0.0000       0.032055         0.8723
  33   0.0000       0.043977         1.1967
  34   0.0000       0.045338         1.2337

MULLIKEN ATOMIC CHARGES
-----------------------
   0 C :    1.232558
   1 C :   -0.464682
   2 C :   -0.204349
   3 C :   -0.259764
   4 C :   -0.349871
   5 N :   -0.617346
   6 H :    0.266466
   7 H :    0.270651
   8 H :    0.298881
   9 H :    0.396699
  10 O :   -0.866462
  11 H :    0.413158
  12 O :   -0.805199
  13 H :    0.413548
  14 H :    0.275713
Sum of atomic charges:    0.0000000

LOEWDIN ATOMIC CHARGES
----------------------
   0 C :   -0.629986
   1 C :    0.353405
   2 C :    0.331129
   3 C :    0.347437
   4 C :    0.217150
   5 N :    0.746318
   6 H :   -0.306826
   7 H :   -0.331563
   8 H :   -0.335189
   9 H :   -0.305467
  10 O :    1.140674
  11 H :   -1.226914
  12 O :    1.621264
  13 H :   -0.942520
  14 H :   -0.678913

  Mayer bond orders larger than 0.100000
B(  0-C ,  1-C ) :   1.0586 B(  0-C ,  2-C ) :  -0.2587 B(  0-C ,  5-N ) :   1.2723
B(  0-C , 10-O ) :   0.7627 B(  1-C ,  2-C ) :   1.3718 B(  1-C ,  4-C ) :   0.1498
B(  1-C ,  6-H ) :  -0.1152 B(  1-C ,  7-H ) :   0.9805 B(  1-C , 10-O ) :   0.2128
B(  2-C ,  3-C ) :   1.0489 B(  2-C ,  6-H ) :   1.1003 B(  3-C ,  4-C ) :   1.4144
B(  3-C ,  6-H ) :  -0.1098 B(  3-C ,  8-H ) :   1.0206 B(  4-C ,  5-N ) :   1.1386
B(  4-C ,  8-H ) :  -0.1065 B(  4-C ,  9-H ) :   0.9188 B(  5-N , 10-O ) :   0.1479
B(  5-N , 13-H ) :   0.6768 B( 10-O , 11-H ) :   0.5213 B( 11-H , 12-O ) :   0.3857
B( 12-O , 13-H ) :   0.2398 B( 12-O , 14-H ) :   0.9503

MP2 TOTAL ENERGY:     -399.359616152 Eh
FINAL SINGLE POINT ENERGY      -399.359616152444

DIPOLE MOMENT
-------------
                                X             Y             Z
Electronic contribution:      0.72976       1.26076      -0.12111
Nuclear contribution   :      0.61270      -1.93775       0.62756
                        -----------------------------------------
Total Dipole Moment    :      1.34246      -0.67699       0.50645
                        -----------------------------------------
Magnitude (a.u.)       :      1.58651
Magnitude (Debye)      :      4.03258

Rotational constants in cm-1:     0.138405     0.053723     0.038790
Rotational constants in MHz :  4149.272795  1610.575549  1162.894314

                             ****ORCA TERMINATED NORMALLY****
TOTAL RUN TIME: 0 days 0 hours 22 minutes 13 seconds 411 msec
