                         Program Version 4.2.1 -  RELEASE  -
|  1> %pal
|  2>  nprocs 32
|  3> end
|  4> !RI-MP2 aug-cc-pVQZ aug-cc-pVQZ/C TightSCF
|  5> %maxcore 4500
|  6> *xyzfile 0 2  04_79R2.xyz
|  7>
|  8>
|  9>                          ****END OF INPUT****

CARTESIAN COORDINATES (ANGSTROEM)
---------------------------------
  C      0.000000    0.537540   -0.038277
  C      1.290441   -0.198575    0.002360
  H      1.457417   -0.673762    0.981442
  H      2.142700    0.455261   -0.188762
  H      1.311707   -1.009521   -0.735137
  C     -1.290441   -0.198575    0.002360
  H      0.000000    1.613700    0.086256
  H     -1.311706   -1.009523   -0.735135
  H     -2.142699    0.455260   -0.188764
  H     -1.457418   -0.673760    0.981443

 Total Charge           Charge          ....    0
 Multiplicity           Mult            ....    2
 Number of Electrons    NEL             ....   25
 Basis Dimension        Dim             ....  562

ORBITAL ENERGIES
----------------
                 SPIN UP ORBITALS
  NO   OCC          E(Eh)            E(eV)
   0   1.0000     -11.224144      -305.4245
   1   1.0000     -11.212433      -305.1058
   2   1.0000     -11.212395      -305.1048
   3   1.0000      -1.063777       -28.9469
   4   1.0000      -0.935257       -25.4496
   5   1.0000      -0.789465       -21.4824
   6   1.0000      -0.618402       -16.8276
   7   1.0000      -0.600079       -16.3290
   8   1.0000      -0.564169       -15.3518
   9   1.0000      -0.535781       -14.5793
  10   1.0000      -0.497691       -13.5429
  11   1.0000      -0.492053       -13.3894
  12   1.0000      -0.324475        -8.8294
  13   0.0000       0.028034         0.7628
  14   0.0000       0.034911         0.9500
  15   0.0000       0.036123         0.9830
  16   0.0000       0.041080         1.1179
  17   0.0000       0.056559         1.5390

                 SPIN DOWN ORBITALS
  NO   OCC          E(Eh)            E(eV)
   0   1.0000     -11.215669      -305.1939
   1   1.0000     -11.215667      -305.1938
   2   1.0000     -11.199980      -304.7670
   3   1.0000      -1.025441       -27.9037
   4   1.0000      -0.934987       -25.4423
   5   1.0000      -0.741005       -20.1638
   6   1.0000      -0.611177       -16.6310
   7   1.0000      -0.559521       -15.2253
   8   1.0000      -0.554856       -15.0984
   9   1.0000      -0.524385       -14.2692
  10   1.0000      -0.493314       -13.4238
  11   1.0000      -0.484509       -13.1842
  12   0.0000       0.028300         0.7701
  13   0.0000       0.034981         0.9519
  14   0.0000       0.036332         0.9886
  15   0.0000       0.041237         1.1221
  16   0.0000       0.056605         1.5403

MULLIKEN ATOMIC CHARGES AND SPIN POPULATIONS
--------------------------------------------
   0 C :   -0.411142    1.147788
   1 C :   -0.748260   -0.150151
   2 H :    0.245773    0.068001
   3 H :    0.252154    0.006381
   4 H :    0.230853    0.031976
   5 C :   -0.748260   -0.150151
   6 H :    0.450101   -0.060202
   7 H :    0.230853    0.031976
   8 H :    0.252155    0.006380
   9 H :    0.245772    0.068001
Sum of atomic charges         :   -0.0000000

LOEWDIN ATOMIC CHARGES AND SPIN POPULATIONS
-------------------------------------------
   0 C :    0.421594    0.462633
   1 C :    0.866877    0.137603
   2 H :   -0.296215    0.029257
   3 H :   -0.313193    0.009322
   4 H :   -0.308372    0.018928
   5 C :    0.866878    0.137603
   6 H :   -0.319788    0.147145
   7 H :   -0.308372    0.018928
   8 H :   -0.313194    0.009322
   9 H :   -0.296214    0.029257

  Mayer bond orders larger than 0.100000
B(  0-C ,  1-C ) :   0.9065 B(  0-C ,  5-C ) :   0.9065 B(  0-C ,  6-H ) :   0.7678
B(  1-C ,  2-H ) :   0.9091 B(  1-C ,  3-H ) :   0.9890 B(  1-C ,  4-H ) :   0.9587
B(  5-C ,  7-H ) :   0.9587 B(  5-C ,  8-H ) :   0.9890 B(  5-C ,  9-H ) :   0.9091

MP2 TOTAL ENERGY:     -118.226560350 Eh
FINAL SINGLE POINT ENERGY      -118.226560350343

DIPOLE MOMENT
-------------
                                X             Y             Z
Electronic contribution:     -0.00000       0.89895      -0.17017
Nuclear contribution   :      0.00000      -0.91786       0.21939
                        -----------------------------------------
Total Dipole Moment    :     -0.00000      -0.01890       0.04922
                        -----------------------------------------
Magnitude (a.u.)       :      0.05273
Magnitude (Debye)      :      0.13402

Rotational constants in cm-1:     1.244888     0.280333     0.250021
Rotational constants in MHz : 37320.816446  8404.179953  7495.428033

                             ****ORCA TERMINATED NORMALLY****
TOTAL RUN TIME: 0 days 0 hours 3 minutes 42 seconds 317 msec
