                         Program Version 4.2.1 -  RELEASE  -
|  1> %pal
|  2>  nprocs 32
|  3> end
|  4> !RI-MP2 aug-cc-pVQZ aug-cc-pVQZ/C TightSCF
|  5> %maxcore 4500
|  6> *xyzfile 0 1  10_36R.xyz
|  7>
|  8>
|  9>                          ****END OF INPUT****

CARTESIAN COORDINATES (ANGSTROEM)
---------------------------------
  C     -0.593269    1.991182   -0.422484
  H     -0.571381    3.068542   -0.253378
  H     -0.814900    1.825157   -1.494833
  C     -1.690006    1.366152    0.402345
  C     -0.258606   -0.658139    0.655313
  H      0.073049   -0.447459    1.677071
  H     -0.267999   -1.738887    0.520319
  C      0.752395   -0.001362   -0.295692
  H      0.431477   -0.224270   -1.333011
  N      0.708999    1.441058   -0.076264
  C     -2.690677   -0.919042    0.225120
  C     -2.572771    2.102352    1.069038
  C     -4.055021   -0.534485   -0.098614
  C     -5.058251   -1.406842   -0.201284
  C     -1.643676   -0.109577    0.434228
  C     -6.466079   -1.053754   -0.555924
  H     -7.158816   -1.347429    0.238593
  H     -6.576891    0.018803   -0.724701
  H     -6.787264   -1.576177   -1.462206
  C      2.152458   -0.564579   -0.126906
  C      1.794988    2.139050   -0.737793
  H      1.620060    3.213028   -0.649264
  H      1.832131    1.900915   -1.816676
  C      3.104333    1.764069   -0.071431
  H      3.113807    2.177742    0.941477
  C      3.265525    0.268413   -0.012805
  H      3.945821    2.205388   -0.611840
  C      4.531633   -0.295878    0.131149
  H      5.391060    0.360541    0.219022
  C      2.343560   -1.946449   -0.129527
  H      1.493039   -2.606090   -0.250735
  C      4.708555   -1.667866    0.151683
  H      5.700809   -2.088083    0.263190
  C      3.604805   -2.499066    0.011139
  H      3.726811   -3.575466    0.007961
  H     -3.340510    1.648093    1.682454
  H     -2.539837    3.185478    1.034325
  H     -2.508405   -1.990643    0.272794
  H     -4.855180   -2.459673   -0.013434
  H     -4.249245    0.518009   -0.278623

 Total Charge           Charge          ....    0
 Multiplicity           Mult            ....    1
 Number of Electrons    NEL             ....  136
 Basis Dimension        Dim             .... 2486

ORBITAL ENERGIES
----------------

  NO   OCC          E(Eh)            E(eV)
   0   2.0000     -15.547010      -423.0556
   1   2.0000     -11.261734      -306.4474
   2   2.0000     -11.253617      -306.2265
   3   2.0000     -11.249093      -306.1034
   4   2.0000     -11.237054      -305.7758
   5   2.0000     -11.234239      -305.6992
   6   2.0000     -11.233032      -305.6663
   7   2.0000     -11.232983      -305.6650
   8   2.0000     -11.227948      -305.5280
   9   2.0000     -11.227768      -305.5231
  10   2.0000     -11.227195      -305.5075
  11   2.0000     -11.225915      -305.4727
  12   2.0000     -11.225659      -305.4657
  13   2.0000     -11.225100      -305.4505
  14   2.0000     -11.223058      -305.3949
  15   2.0000     -11.222295      -305.3742
  16   2.0000     -11.220367      -305.3217
  17   2.0000     -11.219580      -305.3003
  18   2.0000     -11.217395      -305.2408
  19   2.0000      -1.253904       -34.1205
  20   2.0000      -1.156094       -31.4589
  21   2.0000      -1.125017       -30.6133
  22   2.0000      -1.078788       -29.3553
  23   2.0000      -1.062947       -28.9242
  24   2.0000      -1.053287       -28.6614
  25   2.0000      -1.015528       -27.6339
  26   2.0000      -0.996144       -27.1065
  27   2.0000      -0.964942       -26.2574
  28   2.0000      -0.929836       -25.3021
  29   2.0000      -0.900817       -24.5125
  30   2.0000      -0.856866       -23.3165
  31   2.0000      -0.834729       -22.7141
  32   2.0000      -0.814402       -22.1610
  33   2.0000      -0.803713       -21.8701
  34   2.0000      -0.757049       -20.6004
  35   2.0000      -0.752393       -20.4736
  36   2.0000      -0.702770       -19.1233
  37   2.0000      -0.692361       -18.8401
  38   2.0000      -0.662053       -18.0154
  39   2.0000      -0.654326       -17.8051
  40   2.0000      -0.640331       -17.4243
  41   2.0000      -0.634682       -17.2706
  42   2.0000      -0.618720       -16.8362
  43   2.0000      -0.609848       -16.5948
  44   2.0000      -0.599877       -16.3235
  45   2.0000      -0.591222       -16.0880
  46   2.0000      -0.586134       -15.9495
  47   2.0000      -0.570446       -15.5226
  48   2.0000      -0.566567       -15.4171
  49   2.0000      -0.562011       -15.2931
  50   2.0000      -0.551142       -14.9973
  51   2.0000      -0.543799       -14.7975
  52   2.0000      -0.533598       -14.5199
  53   2.0000      -0.526101       -14.3159
  54   2.0000      -0.519726       -14.1425
  55   2.0000      -0.512126       -13.9356
  56   2.0000      -0.507272       -13.8036
  57   2.0000      -0.493968       -13.4416
  58   2.0000      -0.478822       -13.0294
  59   2.0000      -0.464493       -12.6395
  60   2.0000      -0.456766       -12.4292
  61   2.0000      -0.452517       -12.3136
  62   2.0000      -0.424415       -11.5489
  63   2.0000      -0.370273       -10.0756
  64   2.0000      -0.360849        -9.8192
  65   2.0000      -0.328011        -8.9256
  66   2.0000      -0.321149        -8.7389
  67   2.0000      -0.293237        -7.9794
  68   0.0000       0.021826         0.5939
  69   0.0000       0.024334         0.6622
  70   0.0000       0.025156         0.6845
  71   0.0000       0.031291         0.8515
  72   0.0000       0.032211         0.8765

MULLIKEN ATOMIC CHARGES
-----------------------
   0 C :   -0.221781
   1 H :    0.256402
   2 H :    0.276774
   3 C :    0.071998
   4 C :   -0.221785
   5 H :    0.383449
   6 H :    0.165067
   7 C :    1.589002
   8 H :    0.177466
   9 N :   -0.236679
  10 C :   -0.603193
  11 C :   -1.144227
  12 C :   -0.597834
  13 C :   -0.355725
  14 C :    0.399952
  15 C :   -0.760964
  16 H :    0.235721
  17 H :    0.244740
  18 H :    0.236476
  19 C :    0.429606
  20 C :   -0.701361
  21 H :    0.184355
  22 H :    0.248996
  23 C :   -0.700228
  24 H :    0.204724
  25 C :    0.434791
  26 H :    0.199477
  27 C :   -0.708876
  28 H :    0.236281
  29 C :   -0.817269
  30 H :    0.137240
  31 C :   -0.410404
  32 H :    0.258182
  33 C :   -0.449565
  34 H :    0.194237
  35 H :    0.308710
  36 H :    0.195033
  37 H :    0.181532
  38 H :    0.338693
  39 H :    0.340989
Sum of atomic charges:    0.0000000

LOEWDIN ATOMIC CHARGES
----------------------
   0 C :    0.333737
   1 H :   -0.310842
   2 H :   -0.242506
   3 C :   -0.053393
   4 C :    0.506006
   5 H :   -0.241640
   6 H :   -0.323095
   7 C :   -0.047988
   8 H :   -0.255301
   9 N :    0.534989
  10 C :    0.370616
  11 C :    0.818644
  12 C :    0.352600
  13 C :    0.383274
  14 C :   -0.026213
  15 C :    0.890123
  16 H :   -0.295059
  17 H :   -0.314164
  18 H :   -0.295047
  19 C :   -0.022261
  20 C :    0.354194
  21 H :   -0.279271
  22 H :   -0.237455
  23 C :    0.523729
  24 H :   -0.256128
  25 C :   -0.038790
  26 H :   -0.273519
  27 C :    0.356975
  28 H :   -0.312733
  29 C :    0.360314
  30 H :   -0.325246
  31 C :    0.349473
  32 H :   -0.320329
  33 C :    0.357238
  34 H :   -0.319558
  35 H :   -0.336968
  36 H :   -0.329205
  37 H :   -0.342057
  38 H :   -0.324314
  39 H :   -0.368832

  Mayer bond orders larger than 0.100000
B(  0-C ,  1-H ) :   1.0351 B(  0-C ,  2-H ) :   0.8887 B(  0-C ,  3-C ) :   0.5866
B(  0-C ,  9-N ) :   0.9797 B(  0-C , 11-C ) :  -0.2658 B(  1-H ,  3-C ) :  -0.1129
B(  2-H ,  3-C ) :   0.1316 B(  3-C , 10-C ) :  -0.3057 B(  3-C , 11-C ) :   1.6479
B(  3-C , 14-C ) :   0.5776 B(  3-C , 35-H ) :  -0.1846 B(  3-C , 36-H ) :  -0.1143
B(  4-C ,  5-H ) :   0.7771 B(  4-C ,  6-H ) :   1.0956 B(  4-C ,  7-C ) :   0.7228
B(  4-C , 10-C ) :  -0.5007 B(  4-C , 14-C ) :   0.6955 B(  4-C , 29-C ) :   0.1216
B(  7-C ,  8-H ) :   1.0115 B(  7-C ,  9-N ) :   0.4147 B(  7-C , 14-C ) :  -0.1287
B(  7-C , 19-C ) :  -0.1760 B(  7-C , 20-C ) :  -0.1598 B(  7-C , 25-C ) :  -0.4931
B(  7-C , 29-C ) :  -0.7144 B(  9-N , 19-C ) :  -0.1004 B(  9-N , 20-C ) :   0.7724
B(  9-N , 22-H ) :  -0.1055 B( 10-C , 11-C ) :   0.1435 B( 10-C , 12-C ) :   0.8292
B( 10-C , 13-C ) :  -0.5853 B( 10-C , 14-C ) :   1.4516 B( 10-C , 37-H ) :   1.0801
B( 11-C , 14-C ) :  -0.3989 B( 11-C , 35-H ) :   1.0277 B( 11-C , 36-H ) :   1.1813
B( 12-C , 13-C ) :   1.6526 B( 12-C , 14-C ) :  -0.3750 B( 12-C , 15-C ) :  -0.2533
B( 12-C , 39-H ) :   0.8089 B( 13-C , 15-C ) :   0.9637 B( 13-C , 38-H ) :   0.8643
B( 15-C , 16-H ) :   0.9979 B( 15-C , 17-H ) :   0.9693 B( 15-C , 18-H ) :   1.0005
B( 19-C , 20-C ) :   0.1011 B( 19-C , 25-C ) :   1.1594 B( 19-C , 27-C ) :  -0.5202
B( 19-C , 29-C ) :   1.0226 B( 19-C , 30-H ) :  -0.1155 B( 19-C , 33-C ) :  -0.4072
B( 20-C , 21-H ) :   1.0349 B( 20-C , 22-H ) :   0.9928 B( 20-C , 23-C ) :   1.1579
B( 23-C , 24-H ) :   1.0538 B( 23-C , 25-C ) :   0.3718 B( 23-C , 26-H ) :   1.1371
B( 25-C , 26-H ) :  -0.1700 B( 25-C , 27-C ) :   0.9878 B( 25-C , 31-C ) :  -0.2579
B( 27-C , 28-H ) :   1.0515 B( 27-C , 29-C ) :   0.1603 B( 27-C , 31-C ) :   1.2710
B( 27-C , 32-H ) :  -0.2065 B( 27-C , 33-C ) :   0.1479 B( 29-C , 30-H ) :   1.1990
B( 29-C , 33-C ) :   1.2629 B( 29-C , 34-H ) :  -0.1778 B( 31-C , 32-H ) :   1.1548
B( 31-C , 33-C ) :   1.2006 B( 32-H , 33-C ) :  -0.1234 B( 33-C , 34-H ) :   1.2083

MP2 TOTAL ENERGY:     -751.886839438 Eh
FINAL SINGLE POINT ENERGY      -751.886839438086

DIPOLE MOMENT
-------------
                                X             Y             Z
Electronic contribution:     12.45472      -1.98482       1.75118
Nuclear contribution   :    -12.53674       2.10938      -2.06464
                        -----------------------------------------
Total Dipole Moment    :     -0.08202       0.12456      -0.31346
                        -----------------------------------------
Magnitude (a.u.)       :      0.34713
Magnitude (Debye)      :      0.88233

Rotational constants in cm-1:     0.027639     0.006224     0.005264
Rotational constants in MHz :   828.588963   186.585501   157.806799

                             ****ORCA TERMINATED NORMALLY****
TOTAL RUN TIME: 0 days 7 hours 12 minutes 44 seconds 963 msec
