                         Program Version 4.2.1 -  RELEASE  -
|  1> %pal
|  2>  nprocs 32
|  3> end
|  4> !RI-MP2 aug-cc-pVQZ aug-cc-pVQZ/C TightSCF
|  5> %maxcore 4500
|  6> *xyzfile 0 2  04_69R.xyz
|  7>
|  8>
|  9>                          ****END OF INPUT****

CARTESIAN COORDINATES (ANGSTROEM)
---------------------------------
  C      0.358504   -0.700676    0.625255
  C      1.309711   -1.488528   -0.243046
  C      2.119115   -0.586746   -1.210004
  H      0.747513   -2.216922   -0.835656
  H      1.999976   -2.048985    0.393058
  C      2.970518    0.434320   -0.529224
  H      1.429585   -0.095545   -1.901905
  H      2.748069   -1.251356   -1.813988
  C      2.473345    1.825923   -0.335658
  C      4.142706   -0.018859    0.272730
  N      0.554734   -0.445877    1.852491
  C     -0.905773   -0.206571   -0.042818
  H     -0.685873   -0.047053   -1.106300
  C     -1.426742    1.105206    0.543295
  C     -1.989075   -1.297008    0.040330
  H      4.946024    0.724164    0.260345
  H      4.548476   -0.964396   -0.096363
  H      3.884679   -0.170024    1.332942
  H      3.298260    2.545098   -0.317062
  H      1.938174    1.936802    0.619369
  H      1.780678    2.123231   -1.126783
  H     -1.626760   -2.230084   -0.401063
  C     -3.279034   -0.855637   -0.648087
  H     -2.184583   -1.501444    1.098338
  H     -0.658933    1.878019    0.456108
  H     -1.598753    0.963893    1.613121
  C     -2.714613    1.549222   -0.147222
  H     -2.504562    1.780184   -1.199045
  H     -3.080285    2.474481    0.306025
  C     -3.789720    0.466099   -0.077726
  H     -4.688903    0.786301   -0.611171
  H     -4.080984    0.316289    0.968421
  H     -4.040150   -1.634036   -0.546090
  H     -3.093232   -0.738547   -1.722602
  H      1.424806   -0.869393    2.175912

 Total Charge           Charge          ....    0
 Multiplicity           Mult            ....    2
 Number of Electrons    NEL             ....  101
 Basis Dimension        Dim             .... 2052

ORBITAL ENERGIES
----------------
                 SPIN UP ORBITALS
  NO   OCC          E(Eh)            E(eV)
   0   1.0000     -15.530496      -422.6063
   1   1.0000     -11.272082      -306.7289
   2   1.0000     -11.233417      -305.6768
   3   1.0000     -11.228581      -305.5452
   4   1.0000     -11.226729      -305.4948
   5   1.0000     -11.223359      -305.4031
   6   1.0000     -11.217404      -305.2411
   7   1.0000     -11.215123      -305.1790
   8   1.0000     -11.214105      -305.1513
   9   1.0000     -11.210693      -305.0585
  10   1.0000     -11.210026      -305.0403
  11   1.0000     -11.209557      -305.0275
  12   1.0000     -11.204759      -304.8970
  13   1.0000      -1.212355       -32.9899
  14   1.0000      -1.113540       -30.3010
  15   1.0000      -1.106095       -30.0984
  16   1.0000      -1.025213       -27.8975
  17   1.0000      -1.002971       -27.2922
  18   1.0000      -1.000316       -27.2200
  19   1.0000      -0.938464       -25.5369
  20   1.0000      -0.894860       -24.3504
  21   1.0000      -0.846718       -23.0404
  22   1.0000      -0.828825       -22.5535
  23   1.0000      -0.763165       -20.7668
  24   1.0000      -0.746869       -20.3233
  25   1.0000      -0.727213       -19.7885
  26   1.0000      -0.659192       -17.9375
  27   1.0000      -0.643640       -17.5143
  28   1.0000      -0.630769       -17.1641
  29   1.0000      -0.613376       -16.6908
  30   1.0000      -0.603648       -16.4261
  31   1.0000      -0.596785       -16.2393
  32   1.0000      -0.592315       -16.1177
  33   1.0000      -0.583079       -15.8664
  34   1.0000      -0.567684       -15.4475
  35   1.0000      -0.552299       -15.0288
  36   1.0000      -0.536428       -14.5969
  37   1.0000      -0.526494       -14.3266
  38   1.0000      -0.523263       -14.2387
  39   1.0000      -0.515619       -14.0307
  40   1.0000      -0.504351       -13.7241
  41   1.0000      -0.485200       -13.2030
  42   1.0000      -0.484248       -13.1771
  43   1.0000      -0.479900       -13.0587
  44   1.0000      -0.473729       -12.8908
  45   1.0000      -0.450830       -12.2677
  46   1.0000      -0.440286       -11.9808
  47   1.0000      -0.434931       -11.8351
  48   1.0000      -0.403888       -10.9903
  49   1.0000      -0.394140       -10.7251
  50   1.0000      -0.311451        -8.4750
  51   0.0000       0.020766         0.5651
  52   0.0000       0.026449         0.7197
  53   0.0000       0.027606         0.7512
  54   0.0000       0.030666         0.8345
  55   0.0000       0.037037         1.0078

                 SPIN DOWN ORBITALS
  NO   OCC          E(Eh)            E(eV)
   0   1.0000     -15.530448      -422.6050
   1   1.0000     -11.272226      -306.7329
   2   1.0000     -11.231878      -305.6349
   3   1.0000     -11.230862      -305.6073
   4   1.0000     -11.223358      -305.4031
   5   1.0000     -11.218321      -305.2660
   6   1.0000     -11.217401      -305.2410
   7   1.0000     -11.214104      -305.1513
   8   1.0000     -11.213219      -305.1272
   9   1.0000     -11.210692      -305.0584
  10   1.0000     -11.209557      -305.0275
  11   1.0000     -11.204758      -304.8970
  12   1.0000     -11.202004      -304.8220
  13   1.0000      -1.211808       -32.9750
  14   1.0000      -1.113503       -30.3000
  15   1.0000      -1.075818       -29.2745
  16   1.0000      -1.018129       -27.7047
  17   1.0000      -1.001125       -27.2420
  18   1.0000      -0.996895       -27.1269
  19   1.0000      -0.938191       -25.5295
  20   1.0000      -0.892261       -24.2796
  21   1.0000      -0.844872       -22.9901
  22   1.0000      -0.828396       -22.5418
  23   1.0000      -0.761323       -20.7166
  24   1.0000      -0.733424       -19.9575
  25   1.0000      -0.705094       -19.1866
  26   1.0000      -0.658029       -17.9059
  27   1.0000      -0.637769       -17.3546
  28   1.0000      -0.621432       -16.9100
  29   1.0000      -0.602633       -16.3985
  30   1.0000      -0.597435       -16.2570
  31   1.0000      -0.591062       -16.0836
  32   1.0000      -0.579186       -15.7604
  33   1.0000      -0.577500       -15.7146
  34   1.0000      -0.562949       -15.3186
  35   1.0000      -0.544028       -14.8038
  36   1.0000      -0.527648       -14.3580
  37   1.0000      -0.524669       -14.2770
  38   1.0000      -0.522261       -14.2115
  39   1.0000      -0.512678       -13.9507
  40   1.0000      -0.502410       -13.6713
  41   1.0000      -0.483314       -13.1516
  42   1.0000      -0.479990       -13.0612
  43   1.0000      -0.478418       -13.0184
  44   1.0000      -0.468768       -12.7558
  45   1.0000      -0.450608       -12.2617
  46   1.0000      -0.439995       -11.9729
  47   1.0000      -0.434022       -11.8103
  48   1.0000      -0.401935       -10.9372
  49   1.0000      -0.392806       -10.6888
  50   0.0000       0.020840         0.5671
  51   0.0000       0.026512         0.7214
  52   0.0000       0.027637         0.7520
  53   0.0000       0.030656         0.8342
  54   0.0000       0.037054         1.0083

MULLIKEN ATOMIC CHARGES AND SPIN POPULATIONS
--------------------------------------------
   0 C :    0.643921   -0.001288
   1 C :   -0.541640    0.063386
   2 C :   -0.387580   -0.241936
   3 H :    0.154347    0.012172
   4 H :    0.296882   -0.015229
   5 C :    0.288737    1.205303
   6 H :    0.293357    0.010617
   7 H :    0.279341    0.049122
   8 C :   -0.923532   -0.175215
   9 C :   -0.963017   -0.169596
  10 N :   -1.170332    0.000403
  11 C :    1.126234    0.003617
  12 H :    0.074494   -0.000985
  13 C :   -0.587303    0.001413
  14 C :   -0.655579   -0.000048
  15 H :    0.275548    0.029269
  16 H :    0.223959    0.011477
  17 H :    0.217007    0.083676
  18 H :    0.317699    0.025254
  19 H :    0.195431    0.092669
  20 H :    0.207272    0.018081
  21 H :    0.222038    0.000191
  22 C :   -0.531967   -0.000208
  23 H :    0.199964   -0.000182
  24 H :    0.385872   -0.001239
  25 H :    0.182147    0.000241
  26 C :   -0.559516   -0.000195
  27 H :    0.113566   -0.000214
  28 H :    0.206046   -0.000074
  29 C :   -0.461499    0.000036
  30 H :    0.242840    0.000075
  31 H :    0.076561   -0.000001
  32 H :    0.220483   -0.000047
  33 H :    0.129410   -0.000027
  34 H :    0.208809   -0.000513
Sum of atomic charges         :    0.0000000

LOEWDIN ATOMIC CHARGES AND SPIN POPULATIONS
-------------------------------------------
   0 C :   -0.283655    0.007087
   1 C :    0.530947    0.027143
   2 C :    0.517698    0.115703
   3 H :   -0.270251    0.006944
   4 H :   -0.292375    0.005513
   5 C :    0.035575    0.454095
   6 H :   -0.300719    0.008012
   7 H :   -0.274539    0.018440
   8 C :    0.904038    0.125412
   9 C :    0.897792    0.123201
  10 N :    1.058653    0.001137
  11 C :    0.085851    0.000201
  12 H :   -0.296354    0.000225
  13 C :    0.513318    0.000270
  14 C :    0.538694    0.000309
  15 H :   -0.292125    0.015889
  16 H :   -0.294495    0.008619
  17 H :   -0.278602    0.027003
  18 H :   -0.289059    0.015601
  19 H :   -0.288638    0.027473
  20 H :   -0.294347    0.009755
  21 H :   -0.257763    0.000388
  22 C :    0.546351    0.000040
  23 H :   -0.255703    0.000018
  24 H :   -0.265152    0.000764
  25 H :   -0.278028   -0.000005
  26 C :    0.546510    0.000011
  27 H :   -0.259865    0.000004
  28 H :   -0.256387   -0.000002
  29 C :    0.537345    0.000011
  30 H :   -0.258422    0.000003
  31 H :   -0.261440    0.000003
  32 H :   -0.256307    0.000004
  33 H :   -0.259516    0.000006
  34 H :   -0.649030    0.000723

  Mayer bond orders larger than 0.100000
B(  0-C ,  1-C ) :   0.6843 B(  0-C , 10-N ) :   0.9225 B(  0-C , 11-C ) :   0.5357
B(  0-C , 14-C ) :   0.2046 B(  1-C ,  2-C ) :   0.7175 B(  1-C ,  3-H ) :   1.1630
B(  1-C ,  4-H ) :   0.9577 B(  1-C , 11-C ) :  -0.2159 B(  2-C ,  5-C ) :   0.5308
B(  2-C ,  6-H ) :   0.9545 B(  2-C ,  7-H ) :   1.0270 B(  5-C ,  7-H ) :  -0.1120
B(  5-C ,  8-C ) :   0.8222 B(  5-C ,  9-C ) :   0.6211 B(  5-C , 15-H ) :  -0.1596
B(  8-C , 18-H ) :   0.9752 B(  8-C , 19-H ) :   0.9233 B(  8-C , 20-H ) :   1.0623
B(  9-C , 15-H ) :   1.0304 B(  9-C , 16-H ) :   1.0692 B(  9-C , 17-H ) :   0.9498
B( 10-N , 13-C ) :   0.1058 B( 10-N , 34-H ) :   0.9798 B( 11-C , 12-H ) :   0.9943
B( 11-C , 13-C ) :   0.5287 B( 11-C , 14-C ) :   0.3603 B( 11-C , 21-H ) :  -0.1145
B( 11-C , 23-H ) :  -0.1676 B( 11-C , 26-C ) :  -0.1464 B( 13-C , 14-C ) :   0.1107
B( 13-C , 24-H ) :   0.8559 B( 13-C , 25-H ) :   1.0540 B( 13-C , 26-C ) :   0.8245
B( 13-C , 28-H ) :  -0.1214 B( 13-C , 29-C ) :  -0.1236 B( 14-C , 21-H ) :   1.0334
B( 14-C , 22-C ) :   0.8086 B( 14-C , 23-H ) :   1.0286 B( 14-C , 29-C ) :  -0.1207
B( 14-C , 32-H ) :  -0.1028 B( 22-C , 29-C ) :   0.8813 B( 22-C , 32-H ) :   1.0209
B( 22-C , 33-H ) :   1.0735 B( 26-C , 27-H ) :   1.0857 B( 26-C , 28-H ) :   1.0570
B( 26-C , 29-C ) :   0.8573 B( 29-C , 30-H ) :   0.9763 B( 29-C , 31-H ) :   1.1178

MP2 TOTAL ENERGY:     -524.241013910 Eh
FINAL SINGLE POINT ENERGY      -524.241013910013

DIPOLE MOMENT
-------------
                                X             Y             Z
Electronic contribution:     -0.28121      -2.21885       1.83656
Nuclear contribution   :      0.53280       1.84942      -2.57050
                        -----------------------------------------
Total Dipole Moment    :      0.25158      -0.36943      -0.73393
                        -----------------------------------------
Magnitude (a.u.)       :      0.85932
Magnitude (Debye)      :      2.18422

Rotational constants in cm-1:     0.052069     0.013614     0.012625
Rotational constants in MHz :  1560.975791   408.140240   378.489241

                             ****ORCA TERMINATED NORMALLY****
TOTAL RUN TIME: 0 days 5 hours 48 minutes 27 seconds 403 msec
