                         Program Version 4.2.1 -  RELEASE  -
|  1> %pal
|  2>  nprocs 32
|  3> end
|  4> !RI-MP2 aug-cc-pVQZ aug-cc-pVQZ/C TightSCF
|  5> %maxcore 4500
|  6> *xyzfile 0 2  06_23P.xyz
|  7>
|  8>
|  9>                          ****END OF INPUT****

CARTESIAN COORDINATES (ANGSTROEM)
---------------------------------
  Si    -3.281658    0.111974   -0.099859
  C     -2.082325    1.550439   -0.324742
  C     -2.078071    2.573480    0.815639
  C     -3.261552   -0.943366   -1.660705
  C     -4.179501   -2.169111   -1.616519
  C     -5.021161    0.771455    0.221366
  C     -5.574873    1.664622   -0.894079
  C     -2.753971   -0.956729    1.387059
  C     -1.423291   -1.575369    1.183518
  C     -0.154609   -0.906034    1.586162
  C      0.978570   -1.069054    0.571770
  C      3.402009   -0.546691   -0.012434
  C      2.273704   -0.390186    1.000550
  C      4.697480    0.135821    0.411912
  C      5.825789   -0.022117   -0.600855
  C      7.122198    0.661100   -0.178729
  C      8.242967    0.495837   -1.198737
  H     -1.076983    1.140152   -0.464719
  H     -2.326694    2.051272   -1.267996
  H     -1.821758    2.111030    1.772256
  H     -1.355247    3.373666    0.639171
  H     -3.058152    3.041675    0.936598
  H     -2.228427   -1.258376   -1.840755
  H     -3.529916   -0.307650   -2.511481
  H     -4.131795   -2.744741   -2.543983
  H     -3.905996   -2.844373   -0.801706
  H     -5.223830   -1.883858   -1.464957
  H     -5.014006    1.320577    1.169123
  H     -5.690714   -0.080131    0.383253
  H     -4.943991    2.542742   -1.055002
  H     -5.631826    1.128710   -1.845013
  H     -6.580413    2.025174   -0.664061
  H     -0.337894    0.160775    1.757121
  H      0.192102   -1.298665    2.556267
  H      1.161802   -2.137013    0.407450
  H      0.656519   -0.664988   -0.394490
  H      3.079277   -0.141431   -0.978758
  H      3.592703   -1.613361   -0.179633
  H      2.594171   -0.797278    1.966809
  H      2.083900    0.676669    1.168862
  H      4.506736    1.202735    0.577906
  H      5.019721   -0.268542    1.378789
  H      6.017511   -1.089035   -0.766572
  H      5.503701    0.381346   -1.568345
  H      6.929879    1.726892   -0.014056
  H      7.443110    0.257652    0.787841
  H      9.159123    0.993468   -0.873572
  H      8.476707   -0.560290   -1.358016
  H      7.959642    0.919570   -2.165997
  H     -1.360675   -2.543662    0.697277
  H     -2.764013   -0.318255    2.278814
  H     -3.531257   -1.714671    1.532539

 Total Charge           Charge          ....    0
 Multiplicity           Mult            ....    2
 Number of Electrons    NEL             ....  145
 Basis Dimension        Dim             .... 2974

ORBITAL ENERGIES
----------------
                 SPIN UP ORBITALS
  NO   OCC          E(Eh)            E(eV)
   0   1.0000     -68.734127     -1870.3507
   1   1.0000     -11.216302      -305.2111
   2   1.0000     -11.213623      -305.1382
   3   1.0000     -11.213183      -305.1262
   4   1.0000     -11.212966      -305.1203
   5   1.0000     -11.212697      -305.1130
   6   1.0000     -11.212551      -305.1090
   7   1.0000     -11.212299      -305.1022
   8   1.0000     -11.210932      -305.0650
   9   1.0000     -11.210585      -305.0555
  10   1.0000     -11.210229      -305.0458
  11   1.0000     -11.209834      -305.0351
  12   1.0000     -11.207421      -304.9694
  13   1.0000     -11.196343      -304.6680
  14   1.0000     -11.196012      -304.6590
  15   1.0000     -11.195780      -304.6527
  16   1.0000     -11.194795      -304.6259
  17   1.0000      -6.084538      -165.5687
  18   1.0000      -4.191419      -114.0543
  19   1.0000      -4.190374      -114.0259
  20   1.0000      -4.190332      -114.0247
  21   1.0000      -1.097043       -29.8521
  22   1.0000      -1.077795       -29.3283
  23   1.0000      -1.045088       -28.4383
  24   1.0000      -1.026633       -27.9361
  25   1.0000      -1.008263       -27.4362
  26   1.0000      -1.004136       -27.3239
  27   1.0000      -0.995954       -27.1013
  28   1.0000      -0.943242       -25.6669
  29   1.0000      -0.884981       -24.0815
  30   1.0000      -0.852529       -23.1985
  31   1.0000      -0.834748       -22.7146
  32   1.0000      -0.821753       -22.3610
  33   1.0000      -0.820470       -22.3261
  34   1.0000      -0.785717       -21.3804
  35   1.0000      -0.784477       -21.3467
  36   1.0000      -0.772446       -21.0193
  37   1.0000      -0.658916       -17.9300
  38   1.0000      -0.640013       -17.4157
  39   1.0000      -0.639081       -17.3903
  40   1.0000      -0.614688       -16.7265
  41   1.0000      -0.612112       -16.6564
  42   1.0000      -0.609633       -16.5890
  43   1.0000      -0.592408       -16.1203
  44   1.0000      -0.589198       -16.0329
  45   1.0000      -0.581939       -15.8354
  46   1.0000      -0.574143       -15.6232
  47   1.0000      -0.567985       -15.4557
  48   1.0000      -0.565131       -15.3780
  49   1.0000      -0.559277       -15.2187
  50   1.0000      -0.546019       -14.8579
  51   1.0000      -0.538038       -14.6408
  52   1.0000      -0.534514       -14.5449
  53   1.0000      -0.519651       -14.1404
  54   1.0000      -0.513929       -13.9847
  55   1.0000      -0.504494       -13.7280
  56   1.0000      -0.501617       -13.6497
  57   1.0000      -0.496801       -13.5187
  58   1.0000      -0.494272       -13.4498
  59   1.0000      -0.488806       -13.3011
  60   1.0000      -0.486274       -13.2322
  61   1.0000      -0.484492       -13.1837
  62   1.0000      -0.476612       -12.9693
  63   1.0000      -0.471615       -12.8333
  64   1.0000      -0.466742       -12.7007
  65   1.0000      -0.459441       -12.5020
  66   1.0000      -0.456852       -12.4316
  67   1.0000      -0.456578       -12.4241
  68   1.0000      -0.443213       -12.0604
  69   1.0000      -0.422844       -11.5062
  70   1.0000      -0.397336       -10.8121
  71   1.0000      -0.396821       -10.7981
  72   1.0000      -0.292161        -7.9501
  73   0.0000       0.020744         0.5645
  74   0.0000       0.024815         0.6753
  75   0.0000       0.026430         0.7192
  76   0.0000       0.027451         0.7470
  77   0.0000       0.030595         0.8325

                 SPIN DOWN ORBITALS
  NO   OCC          E(Eh)            E(eV)
   0   1.0000     -68.733420     -1870.3314
   1   1.0000     -11.216062      -305.2046
   2   1.0000     -11.213608      -305.1378
   3   1.0000     -11.213137      -305.1250
   4   1.0000     -11.212696      -305.1130
   5   1.0000     -11.212542      -305.1088
   6   1.0000     -11.211449      -305.0790
   7   1.0000     -11.210878      -305.0635
   8   1.0000     -11.210541      -305.0543
   9   1.0000     -11.210206      -305.0452
  10   1.0000     -11.209825      -305.0349
  11   1.0000     -11.207421      -304.9694
  12   1.0000     -11.199045      -304.7415
  13   1.0000     -11.196067      -304.6605
  14   1.0000     -11.195479      -304.6445
  15   1.0000     -11.194820      -304.6265
  16   1.0000     -11.192283      -304.5575
  17   1.0000      -6.083386      -165.5374
  18   1.0000      -4.189981      -114.0152

MULLIKEN ATOMIC CHARGES AND SPIN POPULATIONS
--------------------------------------------
   0 Si:    1.584374    0.073825
   1 C :   -0.577333   -0.007226
   2 C :   -1.091281    0.000248
   3 C :   -0.627057   -0.019073
   4 C :   -0.962885    0.000437
   5 C :   -0.612426    0.012110
   6 C :   -0.946981   -0.000896
   7 C :   -0.506715   -0.203051
   8 C :   -0.419789    1.338167
   9 C :   -0.517255   -0.251129
  10 C :   -0.554168    0.044169
  11 C :   -0.347645    0.003130
  12 C :   -0.379886   -0.011767
  13 C :   -0.349935    0.000463
  14 C :   -0.281825    0.000058
  15 C :   -0.544820    0.000029
  16 C :   -0.915608   -0.000014
  17 H :    0.333042    0.002237
  18 H :    0.104157   -0.001525
  19 H :    0.215589    0.001214
  20 H :    0.294280   -0.000158
  21 H :    0.279161   -0.000139
  22 H :    0.244320    0.001879
  23 H :    0.215538   -0.002769
  24 H :    0.332635    0.000203
  25 H :    0.192229    0.000272
  26 H :    0.211766   -0.000086
  27 H :    0.191758   -0.001609
  28 H :    0.216919   -0.001661
  29 H :    0.188933   -0.000754
  30 H :    0.196932   -0.000653
  31 H :    0.336811    0.001594
  32 H :    0.070371    0.022194
  33 H :    0.342205    0.103436
  34 H :    0.332478    0.000540
  35 H :    0.136839    0.014732
  36 H :    0.222981    0.000413
  37 H :    0.283355   -0.000074
  38 H :    0.246378   -0.001384
  39 H :    0.250708    0.000052
  40 H :    0.251269   -0.000034
  41 H :    0.265637   -0.000384
  42 H :    0.237588   -0.000065
  43 H :    0.228207   -0.000121
  44 H :    0.218676    0.000009
  45 H :    0.219311    0.000009
  46 H :    0.271321    0.000006
  47 H :    0.223079    0.000016
  48 H :    0.221540   -0.000000
  49 H :    0.103650   -0.185383
  50 H :    0.188593    0.039591
  51 H :    0.182980    0.028923
Sum of atomic charges         :    0.0000000

LOEWDIN ATOMIC CHARGES AND SPIN POPULATIONS
-------------------------------------------
   0 Si:    0.140098    0.033938
   1 C :    0.597375    0.003199
   2 C :    0.888034    0.000334
   3 C :    0.592800    0.005243
   4 C :    0.882978    0.000408
   5 C :    0.592795    0.008461
   6 C :    0.881806    0.001716
   7 C :    0.587955    0.135438
   8 C :    0.409091    0.441712
   9 C :    0.488448    0.125045
  10 C :    0.512375    0.017431
  11 C :    0.525460    0.000286
  12 C :    0.526643    0.003477
  13 C :    0.521148    0.000156
  14 C :    0.507196    0.000035
  15 C :    0.503784    0.000009
  16 C :    0.922871    0.000004
  17 H :   -0.338114    0.000657
  18 H :   -0.316094    0.000167
  19 H :   -0.295348    0.000340
  20 H :   -0.272014    0.000027
  21 H :   -0.292314    0.000069
  22 H :   -0.320649    0.003272
  23 H :   -0.320912    0.000116
  24 H :   -0.275936    0.000012
  25 H :   -0.293144   -0.000030
  26 H :   -0.290953    0.000046
  27 H :   -0.321860    0.000526
  28 H :   -0.322235    0.000532
  29 H :   -0.293402    0.000327
  30 H :   -0.291067    0.000348
  31 H :   -0.275677    0.000612
  32 H :   -0.315550    0.007481
  33 H :   -0.262143    0.030208
  34 H :   -0.262196    0.001080
  35 H :   -0.271632    0.007637
  36 H :   -0.261704    0.000033
  37 H :   -0.261417    0.000064
  38 H :   -0.260906    0.000705
  39 H :   -0.260647    0.000349
  40 H :   -0.262725    0.000011
  41 H :   -0.262593    0.000057
  42 H :   -0.265673    0.000001
  43 H :   -0.265670   -0.000001
  44 H :   -0.271358    0.000002
  45 H :   -0.271359    0.000001
  46 H :   -0.283459    0.000001
  47 H :   -0.284499    0.000000
  48 H :   -0.284483    0.000001
  49 H :   -0.292533    0.135700
  50 H :   -0.328546    0.016029
  51 H :   -0.332042    0.016728

  Mayer bond orders larger than 0.100000
B(  0-Si,  1-C ) :   0.4147 B(  0-Si,  2-C ) :  -0.1638 B(  0-Si,  3-C ) :   0.5603
B(  0-Si,  5-C ) :   0.8133 B(  0-Si,  7-C ) :   0.6927 B(  0-Si,  8-C ) :   0.1100
B(  1-C ,  2-C ) :   0.7116 B(  1-C ,  7-C ) :   0.1264 B(  1-C , 17-H ) :   0.8583
B(  1-C , 18-H ) :   1.1565 B(  2-C , 19-H ) :   1.0207 B(  2-C , 20-H ) :   1.0130
B(  2-C , 21-H ) :   0.9848 B(  3-C ,  4-C ) :   0.8071 B(  3-C , 22-H ) :   0.9701
B(  3-C , 23-H ) :   1.0099 B(  4-C , 24-H ) :   0.9600 B(  4-C , 25-H ) :   1.0116
B(  4-C , 26-H ) :   1.0175 B(  5-C ,  6-C ) :   0.7719 B(  5-C , 27-H ) :   0.9823
B(  5-C , 28-H ) :   1.0048 B(  6-C , 29-H ) :   1.0104 B(  6-C , 30-H ) :   1.0139
B(  6-C , 31-H ) :   0.9656 B(  7-C ,  8-C ) :   0.7349 B(  7-C ,  9-C ) :  -0.2053
B(  7-C , 50-H ) :   0.9817 B(  7-C , 51-H ) :   1.0713 B(  8-C ,  9-C ) :   0.7636
B(  8-C , 10-C ) :  -0.3295 B(  8-C , 32-H ) :   0.1260 B(  8-C , 49-H ) :   1.1682
B(  8-C , 51-H ) :  -0.1247 B(  9-C , 10-C ) :   1.1164 B(  9-C , 12-C ) :  -0.1912
B(  9-C , 32-H ) :   0.9643 B(  9-C , 33-H ) :   0.8398 B( 10-C , 11-C ) :  -0.1842
B( 10-C , 12-C ) :   1.2109 B( 10-C , 34-H ) :   0.8048 B( 10-C , 35-H ) :   0.8766
B( 10-C , 39-H ) :   0.1003 B( 11-C , 12-C ) :   1.2261 B( 11-C , 13-C ) :   1.2252
B( 11-C , 14-C ) :  -0.1976 B( 11-C , 36-H ) :   0.8251 B( 11-C , 37-H ) :   0.7883
B( 12-C , 13-C ) :  -0.1918 B( 12-C , 35-H ) :   0.1160 B( 12-C , 38-H ) :   0.8226
B( 12-C , 39-H ) :   0.8314 B( 13-C , 14-C ) :   1.1286 B( 13-C , 15-C ) :  -0.1525
B( 13-C , 40-H ) :   0.8342 B( 13-C , 41-H ) :   0.8174 B( 14-C , 15-C ) :   1.0279
B( 14-C , 16-C ) :  -0.1656 B( 14-C , 42-H ) :   0.8445 B( 14-C , 43-H ) :   0.8511
B( 15-C , 16-C ) :   1.0639 B( 15-C , 44-H ) :   0.8818 B( 15-C , 45-H ) :   0.8836
B( 15-C , 46-H ) :  -0.1006 B( 16-C , 46-H ) :   1.0269 B( 16-C , 47-H ) :   0.9568
B( 16-C , 48-H ) :   0.9603

MP2 TOTAL ENERGY:     -918.586359138 Eh
FINAL SINGLE POINT ENERGY      -918.586359138418

DIPOLE MOMENT
-------------
                                X             Y             Z
Electronic contribution:    -10.73334      -2.90700       2.90214
Nuclear contribution   :     10.72292       2.96358      -2.92307
                        -----------------------------------------
Total Dipole Moment    :     -0.01042       0.05658      -0.02093
                        -----------------------------------------
Magnitude (a.u.)       :      0.06122
Magnitude (Debye)      :      0.15561

Rotational constants in cm-1:     0.025841     0.003467     0.003380
Rotational constants in MHz :   774.705406   103.927978   101.324843

                             ****ORCA TERMINATED NORMALLY****
TOTAL RUN TIME: 0 days 13 hours 5 minutes 16 seconds 90 msec
