                         Program Version 4.2.1 -  RELEASE  -
|  1> %pal
|  2>  nprocs 32
|  3> end
|  4> !RI-MP2 aug-cc-pVQZ aug-cc-pVQZ/C TightSCF
|  5> %maxcore 4500
|  6> *xyzfile 0 1  10_32R2.xyz
|  7>
|  8>
|  9>                          ****END OF INPUT****

CARTESIAN COORDINATES (ANGSTROEM)
---------------------------------
  C      0.664719    0.663708   -0.000001
  C     -0.664720    0.663708    0.000000
  C     -1.580087   -0.521952    0.000000
  H     -2.232678   -0.504847    0.877747
  H     -2.232682   -0.504842   -0.877745
  H     -1.045277   -1.471022   -0.000003
  C      1.580087   -0.521952    0.000000
  H      2.232674   -0.504847    0.877751
  H      1.045279   -1.471023   -0.000006
  H      2.232686   -0.504840   -0.877742
  H      1.162623    1.630172    0.000000
  H     -1.162624    1.630172    0.000001

 Total Charge           Charge          ....    0
 Multiplicity           Mult            ....    1
 Number of Electrons    NEL             ....   32
 Basis Dimension        Dim             ....  688

ORBITAL ENERGIES
----------------

  NO   OCC          E(Eh)            E(eV)
   0   2.0000     -11.221487      -305.3522
   1   2.0000     -11.219749      -305.3049
   2   2.0000     -11.216358      -305.2126
   3   2.0000     -11.216348      -305.2124
   4   2.0000      -1.077344       -29.3160
   5   2.0000      -0.978032       -26.6136
   6   2.0000      -0.894030       -24.3278
   7   2.0000      -0.719275       -19.5725
   8   2.0000      -0.652680       -17.7603
   9   2.0000      -0.572466       -15.5776
  10   2.0000      -0.570821       -15.5328
  11   2.0000      -0.553021       -15.0485
  12   2.0000      -0.534332       -14.5399
  13   2.0000      -0.512777       -13.9534
  14   2.0000      -0.470982       -12.8161
  15   2.0000      -0.343399        -9.3444
  16   0.0000       0.027737         0.7548
  17   0.0000       0.032697         0.8897
  18   0.0000       0.035377         0.9627
  19   0.0000       0.040438         1.1004
  20   0.0000       0.047515         1.2930

MULLIKEN ATOMIC CHARGES
-----------------------
   0 C :   -0.403376
   1 C :   -0.403375
   2 C :   -0.655683
   3 H :    0.233154
   4 H :    0.233154
   5 H :    0.270258
   6 C :   -0.655682
   7 H :    0.233154
   8 H :    0.270258
   9 H :    0.233154
  10 H :    0.322493
  11 H :    0.322492
Sum of atomic charges:   -0.0000000

LOEWDIN ATOMIC CHARGES
----------------------
   0 C :    0.372195
   1 C :    0.372195
   2 C :    0.885962
   3 H :   -0.292130
   4 H :   -0.292130
   5 H :   -0.334381
   6 C :    0.885962
   7 H :   -0.292130
   8 H :   -0.334381
   9 H :   -0.292130
  10 H :   -0.339515
  11 H :   -0.339515

  Mayer bond orders larger than 0.100000
B(  0-C ,  1-C ) :   1.7238 B(  0-C ,  6-C ) :   0.7604 B(  0-C , 10-H ) :   0.9307
B(  1-C ,  2-C ) :   0.7604 B(  1-C , 11-H ) :   0.9307 B(  2-C ,  3-H ) :   0.9822
B(  2-C ,  4-H ) :   0.9822 B(  2-C ,  5-H ) :   0.9378 B(  6-C ,  7-H ) :   0.9822
B(  6-C ,  8-H ) :   0.9378 B(  6-C ,  9-H ) :   0.9822

MP2 TOTAL ENERGY:     -156.906758537 Eh
FINAL SINGLE POINT ENERGY      -156.906758536710

DIPOLE MOMENT
-------------
                                X             Y             Z
Electronic contribution:     -0.00000       1.72100      -0.00000
Nuclear contribution   :      0.00000      -1.82205       0.00000
                        -----------------------------------------
Total Dipole Moment    :     -0.00000      -0.10105       0.00000
                        -----------------------------------------
Magnitude (a.u.)       :      0.10105
Magnitude (Debye)      :      0.25686

Rotational constants in cm-1:     0.545039     0.170758     0.136567
Rotational constants in MHz : 16339.844809  5119.199462  4094.169726

                             ****ORCA TERMINATED NORMALLY****
TOTAL RUN TIME: 0 days 0 hours 5 minutes 23 seconds 176 msec
