                         Program Version 4.2.1 -  RELEASE  -
|  1> %pal
|  2>  nprocs 32
|  3> end
|  4> !RI-MP2 aug-cc-pVQZ aug-cc-pVQZ/C TightSCF
|  5> %maxcore 4500
|  6> *xyzfile 0 1  02_19P.xyz
|  7>
|  8>
|  9>                          ****END OF INPUT****

CARTESIAN COORDINATES (ANGSTROEM)
---------------------------------
  C      0.218699   -0.266894    0.270881
  C     -0.200341    1.224736    0.507802
  C      1.654649   -0.408597   -0.231587
  C     -0.810962   -0.901812   -0.636285
  C      0.955620    2.087657    0.970189
  C     -0.917647    1.856790   -0.680860
  C      2.200397    1.637600    1.074791
  C      2.635983    0.228711    0.777385
  C      4.031979    0.241830    0.130651
  C      2.694402   -0.517306    2.125922
  C      2.083153   -1.837218   -0.573162
  H      1.744768    0.174024   -1.153612
  H      1.723047   -0.521436    2.621336
  H      3.028953   -1.549542    2.025361
  H      3.394592   -0.007495    2.792793
  C      4.527532   -1.144047   -0.288624
  H      3.997730    0.887717   -0.755560
  H      4.749413    0.698853    0.821609
  C      3.489689   -1.839138   -1.172417
  H      2.048911   -2.467752    0.321447
  H      1.389333   -2.270227   -1.292110
  C      5.879561   -1.053477   -0.987704
  H      4.661320   -1.748800    0.615333
  H      3.810755   -2.864143   -1.381921
  H      3.454520   -1.322630   -2.140266
  C      0.588899    3.496804    1.339682
  H      2.970194    2.307017    1.454791
  H     -0.188258    3.504573    2.110262
  H      1.454638    4.041227    1.718190
  H      0.183945    4.041677    0.482809
  H      5.803690   -0.455554   -1.901049
  H      6.629706   -0.585888   -0.344779
  H      6.247790   -2.043641   -1.268178
  C     -0.094076    2.118399   -1.910535
  H     -0.587379    2.797159   -2.604082
  H      0.870004    2.553631   -1.637677
  H      0.110762    1.184970   -2.441223
  C     -2.218911    2.125006   -0.578032
  C     -3.131215    2.690410   -1.621015
  H     -2.614346    2.957438   -2.541319
  H     -3.909917    1.965538   -1.881581
  H     -3.644224    3.582045   -1.248861
  H     -2.699420    1.894478    0.370822
  C     -2.151596   -1.228065   -0.063605
  O     -0.613246   -1.128122   -1.810343
  C     -3.189941   -1.618542   -0.801411
  C     -2.586700   -1.158831    1.370455
  H     -3.176353   -1.745117   -1.875395
  C     -4.412945   -1.828588    0.037167
  N     -3.909485   -1.502404    1.355963
  H     -4.439393   -1.579558    2.208627
  O     -1.939596   -0.866565    2.354576
  C     -5.589939   -0.955597   -0.391092
  H     -6.439593   -1.100040    0.278685
  H     -5.909045   -1.214679   -1.402432
  H     -5.306226    0.097824   -0.370493
  H     -4.707790   -2.884884   -0.009132
  H      0.119649   -0.758996    1.240572
  H     -0.920376    1.207549    1.329850

 Total Charge           Charge          ....    0
 Multiplicity           Mult            ....    1
 Number of Electrons    NEL             ....  194
 Basis Dimension        Dim             .... 3598

ORBITAL ENERGIES
----------------

  NO   OCC          E(Eh)            E(eV)
   0   2.0000     -20.538163      -558.8718
   1   2.0000     -20.523766      -558.4801
   2   2.0000     -15.589519      -424.2124
   3   2.0000     -11.359313      -309.1026
   4   2.0000     -11.331335      -308.3413
   5   2.0000     -11.301327      -307.5247
   6   2.0000     -11.276297      -306.8436
   7   2.0000     -11.250340      -306.1373
   8   2.0000     -11.245337      -306.0012
   9   2.0000     -11.229203      -305.5621
  10   2.0000     -11.223982      -305.4201
  11   2.0000     -11.222956      -305.3922
  12   2.0000     -11.220859      -305.3351
  13   2.0000     -11.219097      -305.2871
  14   2.0000     -11.217282      -305.2378
  15   2.0000     -11.214873      -305.1722
  16   2.0000     -11.210371      -305.0497
  17   2.0000     -11.210182      -305.0446
  18   2.0000     -11.206739      -304.9509
  19   2.0000     -11.203828      -304.8717
  20   2.0000     -11.203616      -304.8659
  21   2.0000     -11.202259      -304.8290
  22   2.0000     -11.202165      -304.8264
  23   2.0000     -11.201148      -304.7987
  24   2.0000     -11.198530      -304.7275
  25   2.0000     -11.197647      -304.7035
  26   2.0000      -1.393961       -37.9316
  27   2.0000      -1.387125       -37.7456
  28   2.0000      -1.274717       -34.6868
  29   2.0000      -1.155011       -31.4295
  30   2.0000      -1.113539       -30.3009
  31   2.0000      -1.096021       -29.8242
  32   2.0000      -1.072206       -29.1762
  33   2.0000      -1.053373       -28.6637
  34   2.0000      -1.043235       -28.3879
  35   2.0000      -1.029987       -28.0274
  36   2.0000      -0.995072       -27.0773
  37   2.0000      -0.973408       -26.4878
  38   2.0000      -0.924616       -25.1601
  39   2.0000      -0.921610       -25.0783
  40   2.0000      -0.916224       -24.9317
  41   2.0000      -0.913467       -24.8567
  42   2.0000      -0.887922       -24.1616
  43   2.0000      -0.865763       -23.5586
  44   2.0000      -0.833826       -22.6896
  45   2.0000      -0.819475       -22.2991
  46   2.0000      -0.798947       -21.7405
  47   2.0000      -0.782264       -21.2865
  48   2.0000      -0.732834       -19.9414
  49   2.0000      -0.728991       -19.8369
  50   2.0000      -0.715105       -19.4590
  51   2.0000      -0.699786       -19.0421
  52   2.0000      -0.681879       -18.5549
  53   2.0000      -0.664507       -18.0822
  54   2.0000      -0.657448       -17.8901
  55   2.0000      -0.641969       -17.4689
  56   2.0000      -0.634149       -17.2561
  57   2.0000      -0.625836       -17.0299
  58   2.0000      -0.622238       -16.9319
  59   2.0000      -0.618139       -16.8204
  60   2.0000      -0.611846       -16.6492
  61   2.0000      -0.606299       -16.4982
  62   2.0000      -0.596231       -16.2243
  63   2.0000      -0.587967       -15.9994
  64   2.0000      -0.582057       -15.8386
  65   2.0000      -0.576987       -15.7006
  66   2.0000      -0.563570       -15.3355
  67   2.0000      -0.561437       -15.2775
  68   2.0000      -0.559841       -15.2340
  69   2.0000      -0.557656       -15.1746
  70   2.0000      -0.547360       -14.8944
  71   2.0000      -0.545336       -14.8394
  72   2.0000      -0.544936       -14.8285
  73   2.0000      -0.538169       -14.6443
  74   2.0000      -0.533885       -14.5278
  75   2.0000      -0.529610       -14.4114
  76   2.0000      -0.525620       -14.3029
  77   2.0000      -0.525019       -14.2865
  78   2.0000      -0.518039       -14.0965
  79   2.0000      -0.512357       -13.9420
  80   2.0000      -0.496987       -13.5237
  81   2.0000      -0.493268       -13.4225
  82   2.0000      -0.481636       -13.1060
  83   2.0000      -0.468134       -12.7386
  84   2.0000      -0.466635       -12.6978
  85   2.0000      -0.463397       -12.6097
  86   2.0000      -0.460297       -12.5253
  87   2.0000      -0.447650       -12.1812
  88   2.0000      -0.435066       -11.8387
  89   2.0000      -0.426106       -11.5949
  90   2.0000      -0.424652       -11.5554
  91   2.0000      -0.409039       -11.1305
  92   2.0000      -0.405675       -11.0390
  93   2.0000      -0.392607       -10.6834
  94   2.0000      -0.390146       -10.6164
  95   2.0000      -0.332236        -9.0406
  96   2.0000      -0.328975        -8.9519
  97   0.0000       0.014883         0.4050
  98   0.0000       0.024109         0.6560
  99   0.0000       0.025755         0.7008
 100   0.0000       0.026996         0.7346
 101   0.0000       0.030990         0.8433

MULLIKEN ATOMIC CHARGES
-----------------------
   0 C :   -0.803955
   1 C :    0.682136
   2 C :    1.260780
   3 C :    2.610692
   4 C :   -0.227341
   5 C :    1.245889
   6 C :   -0.556290
   7 C :    1.574879
   8 C :   -0.309383
   9 C :   -1.213345
  10 C :   -0.778450
  11 H :   -0.222976
  12 H :    0.283409
  13 H :    0.119632
  14 H :    0.083554
  15 C :    0.205992
  16 H :    0.111339
  17 H :    0.103410
  18 C :   -0.675798
  19 H :   -0.004207
  20 H :    0.203586
  21 C :   -1.174294
  22 H :    0.110348
  23 H :    0.127581
  24 H :    0.103634
  25 C :   -1.175101
  26 H :    0.079875
  27 H :    0.129136
  28 H :    0.203297
  29 H :    0.171869
  30 H :    0.134103
  31 H :    0.214822
  32 H :    0.205857
  33 C :   -0.867568
  34 H :    0.189521
  35 H :    0.103301
  36 H :    0.224380
  37 C :   -0.797527
  38 C :   -1.144804
  39 H :    0.268694
  40 H :    0.298750
  41 H :    0.289180
  42 H :    0.228486
  43 C :   -0.618217
  44 O :   -1.504698
  45 C :   -0.911705
  46 C :    2.147258
  47 H :    0.159134
  48 C :    0.237359
  49 N :   -0.844315
  50 H :   -0.039446
  51 O :   -1.258685
  52 C :   -1.105923
  53 H :    0.314584
  54 H :    0.251405
  55 H :    0.312127
  56 H :    0.383003
  57 H :    0.564293
  58 H :    0.296732
Sum of atomic charges:   -0.0000000

LOEWDIN ATOMIC CHARGES
----------------------
   0 C :    0.132681
   1 C :    0.118624
   2 C :    0.127816
   3 C :   -0.638077
   4 C :    0.021636
   5 C :   -0.025762
   6 C :    0.407080
   7 C :   -0.235869
   8 C :    0.521222
   9 C :    0.956037
  10 C :    0.572116
  11 H :   -0.304304
  12 H :   -0.265605
  13 H :   -0.289496
  14 H :   -0.250659
  15 C :    0.137244
  16 H :   -0.250531
  17 H :   -0.252834
  18 C :    0.561952
  19 H :   -0.260763
  20 H :   -0.309435
  21 C :    0.939581
  22 H :   -0.278797
  23 H :   -0.246744
  24 H :   -0.254498
  25 C :    0.927809
  26 H :   -0.292866
  27 H :   -0.265558
  28 H :   -0.295073
  29 H :   -0.285153
  30 H :   -0.273094
  31 H :   -0.269309
  32 H :   -0.270259
  33 C :    0.934844
  34 H :   -0.303991
  35 H :   -0.281031
  36 H :   -0.301898
  37 C :    0.405682
  38 C :    0.922744
  39 H :   -0.327861
  40 H :   -0.290227
  41 H :   -0.281686
  42 H :   -0.319362
  43 C :   -0.071775
  44 O :    0.826244
  45 C :    0.372978
  46 C :   -0.836937
  47 H :   -0.260411
  48 C :   -0.046692
  49 N :    0.839745
  50 H :   -0.448149
  51 O :    0.741799
  52 C :    0.945165
  53 H :   -0.271462
  54 H :   -0.273048
  55 H :   -0.283834
  56 H :   -0.261661
  57 H :   -0.375407
  58 H :   -0.362885

  Mayer bond orders larger than 0.100000
B(  0-C ,  1-C ) :   1.2279 B(  0-C ,  2-C ) :   1.0902 B(  0-C ,  3-C ) :   1.0791
B(  0-C ,  5-C ) :   0.2080 B(  0-C ,  6-C ) :   0.1955 B(  0-C ,  7-C ) :  -0.1500
B(  0-C , 10-C ) :   0.1790 B(  0-C , 11-H ) :  -0.1088 B(  0-C , 43-C ) :  -0.7152
B(  0-C , 44-O ) :   0.9629 B(  0-C , 45-C ) :  -0.2586 B(  0-C , 51-O ) :   0.3861
B(  0-C , 57-H ) :   0.6529 B(  0-C , 58-H ) :   0.1252 B(  1-C ,  4-C ) :  -0.5305
B(  1-C ,  5-C ) :   0.8924 B(  1-C ,  7-C ) :   0.4922 B(  1-C , 11-H ) :  -0.1420
B(  1-C , 25-C ) :  -0.6139 B(  1-C , 33-C ) :   0.2306 B(  1-C , 37-C ) :   0.3176
B(  1-C , 43-C ) :   0.2111 B(  1-C , 44-O ) :  -0.2311 B(  1-C , 49-N ) :   0.1058
B(  1-C , 51-O ) :   0.2558 B(  1-C , 57-H ) :   0.3318 B(  1-C , 58-H ) :   0.6416
B(  2-C ,  3-C ) :  -0.2402 B(  2-C ,  4-C ) :  -0.2343 B(  2-C ,  5-C ) :   0.1267
B(  2-C ,  6-C ) :   0.4132 B(  2-C ,  7-C ) :   1.0708 B(  2-C ,  8-C ) :  -0.4701
B(  2-C ,  9-C ) :  -0.1142 B(  2-C , 10-C ) :  -0.2520 B(  2-C , 11-H ) :   1.3747
B(  2-C , 15-C ) :   0.2246 B(  2-C , 16-H ) :  -0.1254 B(  2-C , 18-C ) :  -0.3312
B(  2-C , 19-H ) :  -0.4170 B(  2-C , 20-H ) :  -0.2547 B(  2-C , 24-H ) :  -0.1381
B(  2-C , 33-C ) :  -0.1229 B(  2-C , 43-C ) :   0.2132 B(  2-C , 58-H ) :   0.1370
B(  3-C ,  4-C ) :   0.2088 B(  3-C ,  5-C ) :  -0.1074 B(  3-C ,  6-C ) :  -0.1160
B(  3-C , 11-H ) :  -0.1139 B(  3-C , 33-C ) :  -0.1201 B(  3-C , 37-C ) :   0.1904
B(  3-C , 43-C ) :   0.5513 B(  3-C , 44-O ) :  -1.3041 B(  3-C , 45-C ) :  -0.3440
B(  3-C , 46-C ) :  -0.2240 B(  3-C , 57-H ) :  -0.1482 B(  3-C , 58-H ) :   0.1085
B(  4-C ,  5-C ) :   0.1981 B(  4-C ,  6-C ) :   0.4975 B(  4-C ,  7-C ) :   0.1066
B(  4-C , 10-C ) :  -0.1219 B(  4-C , 11-H ) :  -0.1555 B(  4-C , 25-C ) :   0.7861
B(  4-C , 26-H ) :  -0.2627 B(  4-C , 27-H ) :  -0.2235 B(  4-C , 29-H ) :  -0.3645
B(  4-C , 37-C ) :  -0.1864 B(  4-C , 43-C ) :  -0.1456 B(  5-C , 11-H ) :  -0.1567
B(  5-C , 33-C ) :   0.2234 B(  5-C , 34-H ) :  -0.1531 B(  5-C , 35-H ) :  -0.1706
B(  5-C , 36-H ) :  -0.1586 B(  5-C , 37-C ) :   0.7858 B(  5-C , 39-H ) :   0.1049
B(  5-C , 42-H ) :  -0.1721 B(  6-C ,  7-C ) :   0.2954 B(  6-C ,  8-C ) :  -0.2942
B(  6-C , 11-H ) :   0.1206 B(  6-C , 26-H ) :   1.2810 B(  6-C , 58-H ) :   0.1275
B(  7-C ,  8-C ) :   0.3654 B(  7-C , 12-H ) :  -0.1947 B(  7-C , 14-H ) :  -0.3473
B(  7-C , 15-C ) :  -0.3286 B(  7-C , 16-H ) :  -0.2179 B(  7-C , 17-H ) :  -0.2311
B(  7-C , 18-C ) :   0.2137 B(  7-C , 26-H ) :  -0.1114 B(  7-C , 44-O ) :   0.1228
B(  7-C , 58-H ) :  -0.1652 B(  8-C , 15-C ) :   0.4389 B(  8-C , 16-H ) :   1.3217
B(  8-C , 17-H ) :   1.2884 B(  8-C , 21-C ) :  -0.2008 B(  9-C , 12-H ) :   1.1076
B(  9-C , 13-H ) :   1.2187 B(  9-C , 14-H ) :   1.3331 B(  9-C , 57-H ) :  -0.1512
B( 10-C , 11-H ) :  -0.1140 B( 10-C , 15-C ) :  -0.1444 B( 10-C , 18-C ) :   0.7715
B( 10-C , 19-H ) :   1.5659 B( 10-C , 20-H ) :   1.0892 B( 10-C , 23-H ) :  -0.1248
B( 11-H , 57-H ) :   0.3143 B( 15-C , 18-C ) :   0.4855 B( 15-C , 21-C ) :   0.4867
B( 15-C , 22-H ) :   1.1400 B( 15-C , 23-H ) :  -0.1436 B( 15-C , 24-H ) :  -0.1118
B( 15-C , 30-H ) :  -0.2230 B( 15-C , 31-H ) :  -0.1047 B( 15-C , 32-H ) :  -0.1650
B( 18-C , 20-H ) :  -0.1094 B( 18-C , 21-C ) :   0.1349 B( 18-C , 23-H ) :   1.1738
B( 18-C , 24-H ) :   1.2312 B( 21-C , 30-H ) :   1.1580 B( 21-C , 31-H ) :   1.1090
B( 21-C , 32-H ) :   1.1538 B( 25-C , 27-H ) :   1.2978 B( 25-C , 28-H ) :   1.1129
B( 25-C , 29-H ) :   1.1858 B( 33-C , 34-H ) :   1.1031 B( 33-C , 35-H ) :   1.2018
B( 33-C , 36-H ) :   1.0420 B( 33-C , 37-C ) :  -0.1654 B( 35-H , 36-H ) :   0.1035
B( 37-C , 38-C ) :   0.5558 B( 37-C , 40-H ) :  -0.1746 B( 37-C , 41-H ) :  -0.2235
B( 37-C , 42-H ) :   1.1793 B( 37-C , 43-C ) :  -0.1138 B( 37-C , 58-H ) :  -0.1063
B( 38-C , 39-H ) :   1.0054 B( 38-C , 40-H ) :   1.0151 B( 38-C , 41-H ) :   1.0953
B( 43-C , 44-O ) :   0.6018 B( 43-C , 45-C ) :   1.1216 B( 43-C , 46-C ) :   0.9826
B( 43-C , 48-C ) :  -0.5970 B( 43-C , 51-O ) :   0.5396 B( 44-O , 57-H ) :   0.1320
B( 45-C , 47-H ) :   1.2474 B( 45-C , 48-C ) :   1.2251 B( 45-C , 52-C ) :  -0.1581
B( 46-C , 49-N ) :   0.4867 B( 46-C , 50-H ) :  -0.3458 B( 46-C , 51-O ) :   0.3062
B( 48-C , 49-N ) :   0.3414 B( 48-C , 52-C ) :   0.9166 B( 48-C , 56-H ) :   0.8664
B( 49-N , 50-H ) :   1.4282 B( 49-N , 51-O ) :   0.2337 B( 51-O , 57-H ) :  -0.4762
B( 51-O , 58-H ) :  -0.1002 B( 52-C , 53-H ) :   0.9850 B( 52-C , 54-H ) :   0.9885
B( 52-C , 55-H ) :   0.9156

MP2 TOTAL ENERGY:    -1099.619500439 Eh
FINAL SINGLE POINT ENERGY     -1099.619500438974

DIPOLE MOMENT
-------------
                                X             Y             Z
Electronic contribution:    -15.94770      -9.27727       5.72071
Nuclear contribution   :     14.13044       8.95188      -5.98561
                        -----------------------------------------
Total Dipole Moment    :     -1.81727      -0.32539      -0.26490
                        -----------------------------------------
Magnitude (a.u.)       :      1.86507
Magnitude (Debye)      :      4.74064

Rotational constants in cm-1:     0.011522     0.004619     0.004143
Rotational constants in MHz :   345.418161   138.481901   124.204514

                             ****ORCA TERMINATED NORMALLY****
TOTAL RUN TIME: 1 days 8 hours 25 minutes 26 seconds 580 msec
