                         Program Version 4.2.1 -  RELEASE  -
|  1> %pal
|  2>  nprocs 32
|  3> end
|  4> !RI-MP2 aug-cc-pVQZ aug-cc-pVQZ/C TightSCF
|  5> %maxcore 4500
|  6> *xyzfile 0 1  05_10R2.xyz
|  7>
|  8>
|  9>                          ****END OF INPUT****

CARTESIAN COORDINATES (ANGSTROEM)
---------------------------------
  C     -0.515418    0.416692   -0.000034
  C      0.515418   -0.416693    0.000019
  C      1.902065    0.107210   -0.000025
  C     -1.902065   -0.107210    0.000015
  O      2.800639   -0.892420    0.000068
  H      3.682606   -0.494138    0.000035
  O      2.211167    1.268097   -0.000130
  O     -2.211168   -1.268097    0.000035
  O     -2.800639    0.892420    0.000035
  H     -3.682606    0.494138    0.000069
  H     -0.370633    1.489895   -0.000109
  H      0.370633   -1.489895    0.000094

 Total Charge           Charge          ....    0
 Multiplicity           Mult            ....    1
 Number of Electrons    NEL             ....   60
 Basis Dimension        Dim             ....  824

ORBITAL ENERGIES
----------------

  NO   OCC          E(Eh)            E(eV)
   0   2.0000     -20.626877      -561.2859
   1   2.0000     -20.626877      -561.2859
   2   2.0000     -20.562091      -559.5230
   3   2.0000     -20.562091      -559.5230
   4   2.0000     -11.404950      -310.3445
   5   2.0000     -11.404947      -310.3444
   6   2.0000     -11.281601      -306.9880
   7   2.0000     -11.279788      -306.9386
   8   2.0000      -1.485183       -40.4139
   9   2.0000      -1.484310       -40.3901
  10   2.0000      -1.380456       -37.5641
  11   2.0000      -1.380072       -37.5537
  12   2.0000      -1.119734       -30.4695
  13   2.0000      -0.968306       -26.3489
  14   2.0000      -0.868041       -23.6206
  15   2.0000      -0.773795       -21.0560
  16   2.0000      -0.751835       -20.4585
  17   2.0000      -0.724711       -19.7204
  18   2.0000      -0.712169       -19.3791
  19   2.0000      -0.683944       -18.6111
  20   2.0000      -0.655602       -17.8398
  21   2.0000      -0.647441       -17.6178
  22   2.0000      -0.618365       -16.8266
  23   2.0000      -0.612787       -16.6748
  24   2.0000      -0.579082       -15.7576
  25   2.0000      -0.510046       -13.8791
  26   2.0000      -0.502819       -13.6824
  27   2.0000      -0.476637       -12.9700
  28   2.0000      -0.476436       -12.9645
  29   2.0000      -0.419440       -11.4135
  30   0.0000       0.023207         0.6315
  31   0.0000       0.027378         0.7450
  32   0.0000       0.036625         0.9966
  33   0.0000       0.040680         1.1070
  34   0.0000       0.043557         1.1853

MULLIKEN ATOMIC CHARGES
-----------------------
   0 C :   -0.669036
   1 C :   -0.669032
   2 C :    1.230615
   3 C :    1.230616
   4 O :   -0.681089
   5 H :    0.327130
   6 O :   -0.718309
   7 O :   -0.718307
   8 O :   -0.681088
   9 H :    0.327129
  10 H :    0.510683
  11 H :    0.510687
Sum of atomic charges:   -0.0000000

LOEWDIN ATOMIC CHARGES
----------------------
   0 C :    0.287037
   1 C :    0.287038
   2 C :   -1.067310
   3 C :   -1.067310
   4 O :    1.243103
   5 H :   -0.808412
   6 O :    0.702091
   7 O :    0.702091
   8 O :    1.243103
   9 H :   -0.808412
  10 H :   -0.356509
  11 H :   -0.356510

  Mayer bond orders larger than 0.100000
B(  0-C ,  1-C ) :   1.4033 B(  0-C ,  2-C ) :  -0.3405 B(  0-C ,  3-C ) :   1.2953
B(  0-C ,  7-O ) :   0.1270 B(  0-C ,  8-O ) :   0.1448 B(  0-C , 10-H ) :   0.6893
B(  1-C ,  2-C ) :   1.2953 B(  1-C ,  3-C ) :  -0.3406 B(  1-C ,  4-O ) :   0.1448
B(  1-C ,  6-O ) :   0.1270 B(  1-C , 11-H ) :   0.6893 B(  2-C ,  4-O ) :   0.7936
B(  2-C ,  6-O ) :   1.4015 B(  3-C ,  7-O ) :   1.4015 B(  3-C ,  8-O ) :   0.7936
B(  4-O ,  5-H ) :   0.9356 B(  8-O ,  9-H ) :   0.9356

MP2 TOTAL ENERGY:     -455.159923455 Eh
FINAL SINGLE POINT ENERGY      -455.159923455310

DIPOLE MOMENT
-------------
                                X             Y             Z
Electronic contribution:      0.00000      -0.00000      -0.00003
Nuclear contribution   :      0.00000       0.00000       0.00009
                        -----------------------------------------
Total Dipole Moment    :      0.00000       0.00000       0.00006
                        -----------------------------------------
Magnitude (a.u.)       :      0.00006
Magnitude (Debye)      :      0.00014

Rotational constants in cm-1:     0.195331     0.031904     0.027425
Rotational constants in MHz :  5855.871514   956.465732   822.176037

                             ****ORCA TERMINATED NORMALLY****
TOTAL RUN TIME: 0 days 0 hours 12 minutes 18 seconds 775 msec
