                         Program Version 4.2.1 -  RELEASE  -
|  1> %pal
|  2>  nprocs 32
|  3> end
|  4> !RI-MP2 aug-cc-pVQZ aug-cc-pVQZ/C TightSCF
|  5> %maxcore 4500
|  6> *xyzfile 0 1  05_12P2.xyz
|  7>
|  8>
|  9>                          ****END OF INPUT****

CARTESIAN COORDINATES (ANGSTROEM)
---------------------------------
  C      1.071126    1.297726   -0.145823
  C      1.440334   -1.234958    0.054180
  C     -0.011487   -1.441355   -0.393256
  C     -0.920279   -0.286383   -0.009985
  C     -0.366144    1.008983   -0.589869
  H     -0.024457   -1.553198   -1.483962
  H     -0.381198   -2.374913    0.038448
  H     -0.991168   -0.199454    1.074013
  H     -0.392314    0.937148   -1.682381
  H     -1.002909    1.845462   -0.295209
  N      1.872987    0.088370   -0.451454
  O      3.209124    0.314701   -0.000855
  C      1.627634    2.426193   -1.017568
  H      0.974917    3.299649   -0.959361
  H      2.621174    2.725077   -0.681846
  H      1.688385    2.104808   -2.059225
  C      1.120507    1.751349    1.321562
  H      2.149408    1.749429    1.680804
  H      0.734525    2.769865    1.396675
  H      0.519183    1.131544    1.982993
  C      2.310683   -2.282411   -0.645299
  H      3.341070   -2.229639   -0.293275
  H      1.933077   -3.285488   -0.435129
  H      2.298789   -2.123546   -1.725361
  C      1.585625   -1.423346    1.572459
  H      1.490569   -2.483661    1.816732
  H      2.569687   -1.087095    1.897834
  H      0.831910   -0.887048    2.144798
  H      3.723932    0.339656   -0.811879
  N     -2.275074   -0.543615   -0.472005
  C     -3.362574   -0.013036    0.146499
  C     -4.699595   -0.326585   -0.483969
  H     -5.178242    0.611018   -0.768673
  H     -4.628189   -0.973180   -1.359446
  H     -5.331980   -0.804779    0.264309
  O     -3.272331    0.667861    1.151799
  H     -2.400892   -1.042498   -1.337785

 Total Charge           Charge          ....    0
 Multiplicity           Mult            ....    1
 Number of Electrons    NEL             ....  118
 Basis Dimension        Dim             .... 2212

ORBITAL ENERGIES
----------------

  NO   OCC          E(Eh)            E(eV)
   0   2.0000     -20.577478      -559.9416
   1   2.0000     -20.507858      -558.0472
   2   2.0000     -15.594314      -424.3429
   3   2.0000     -15.580185      -423.9584
   4   2.0000     -11.344411      -308.6971
   5   2.0000     -11.265035      -306.5372
   6   2.0000     -11.261724      -306.4471
   7   2.0000     -11.260290      -306.4081
   8   2.0000     -11.234507      -305.7065
   9   2.0000     -11.226148      -305.4790
  10   2.0000     -11.215790      -305.1972
  11   2.0000     -11.209471      -305.0252
  12   2.0000     -11.205731      -304.9235
  13   2.0000     -11.204941      -304.9019
  14   2.0000     -11.200331      -304.7765
  15   2.0000      -1.402461       -38.1629
  16   2.0000      -1.377762       -37.4908
  17   2.0000      -1.236635       -33.6505
  18   2.0000      -1.173341       -31.9282
  19   2.0000      -1.091659       -29.7056
  20   2.0000      -1.049935       -28.5702
  21   2.0000      -0.993370       -27.0310
  22   2.0000      -0.977601       -26.6019
  23   2.0000      -0.938564       -25.5396
  24   2.0000      -0.929141       -25.2832
  25   2.0000      -0.924234       -25.1497
  26   2.0000      -0.839818       -22.8526
  27   2.0000      -0.796897       -21.6847
  28   2.0000      -0.784999       -21.3609
  29   2.0000      -0.719121       -19.5683
  30   2.0000      -0.692561       -18.8455
  31   2.0000      -0.682214       -18.5640
  32   2.0000      -0.661624       -18.0037
  33   2.0000      -0.656547       -17.8656
  34   2.0000      -0.642666       -17.4878
  35   2.0000      -0.619529       -16.8582
  36   2.0000      -0.606958       -16.5162
  37   2.0000      -0.602569       -16.3967
  38   2.0000      -0.582267       -15.8443
  39   2.0000      -0.577687       -15.7197
  40   2.0000      -0.575187       -15.6516
  41   2.0000      -0.564375       -15.3574
  42   2.0000      -0.553705       -15.0671
  43   2.0000      -0.549884       -14.9631
  44   2.0000      -0.532962       -14.5026
  45   2.0000      -0.531164       -14.4537
  46   2.0000      -0.526484       -14.3264
  47   2.0000      -0.518871       -14.1192
  48   2.0000      -0.515179       -14.0187
  49   2.0000      -0.506954       -13.7949
  50   2.0000      -0.492860       -13.4114
  51   2.0000      -0.475592       -12.9415
  52   2.0000      -0.473026       -12.8717
  53   2.0000      -0.465881       -12.6773
  54   2.0000      -0.454332       -12.3630
  55   2.0000      -0.439097       -11.9484
  56   2.0000      -0.417601       -11.3635
  57   2.0000      -0.384800       -10.4709
  58   2.0000      -0.366297        -9.9674
  59   0.0000       0.017536         0.4772
  60   0.0000       0.024358         0.6628
  61   0.0000       0.027066         0.7365
  62   0.0000       0.030980         0.8430
  63   0.0000       0.037342         1.0161

MULLIKEN ATOMIC CHARGES
-----------------------
   0 C :    1.739715
   1 C :    1.663817
   2 C :   -0.789071
   3 C :    1.743143
   4 C :   -0.918280
   5 H :    0.213564
   6 H :    0.133248
   7 H :    0.099634
   8 H :    0.218753
   9 H :    0.201522
  10 N :    0.090460
  11 O :   -1.208297
  12 C :   -1.211267
  13 H :    0.219440
  14 H :    0.202511
  15 H :    0.195306
  16 C :   -1.169183
  17 H :    0.191379
  18 H :    0.128733
  19 H :    0.243680
  20 C :   -1.230403
  21 H :    0.193231
  22 H :    0.224015
  23 H :    0.192721
  24 C :   -1.153017
  25 H :    0.104842
  26 H :    0.176382
  27 H :    0.262138
  28 H :    0.378657
  29 N :   -1.123657
  30 C :    0.932532
  31 C :   -0.891180
  32 H :    0.287611
  33 H :    0.206642
  34 H :    0.291618
  35 O :   -0.914343
  36 H :    0.073405
Sum of atomic charges:    0.0000000

LOEWDIN ATOMIC CHARGES
----------------------
   0 C :   -0.432658
   1 C :   -0.434937
   2 C :    0.510266
   3 C :   -0.010500
   4 C :    0.515390
   5 H :   -0.261518
   6 H :   -0.246156
   7 H :   -0.336311
   8 H :   -0.259673
   9 H :   -0.255080
  10 N :    0.262013
  11 O :    1.156167
  12 C :    0.898263
  13 H :   -0.269556
  14 H :   -0.282612
  15 H :   -0.270479
  16 C :    0.934126
  17 H :   -0.280256
  18 H :   -0.262838
  19 H :   -0.308910
  20 C :    0.897995
  21 H :   -0.282932
  22 H :   -0.269959
  23 H :   -0.270119
  24 C :    0.932662
  25 H :   -0.263851
  26 H :   -0.281020
  27 H :   -0.310729
  28 H :   -0.791247
  29 N :    0.868501
  30 C :   -0.821435
  31 C :    0.898491
  32 H :   -0.295051
  33 H :   -0.309833
  34 H :   -0.297217
  35 O :    0.722709
  36 H :   -0.491709

  Mayer bond orders larger than 0.100000
B(  0-C ,  1-C ) :   0.2988 B(  0-C ,  4-C ) :   0.2908 B(  0-C ,  8-H ) :  -0.1021
B(  0-C , 10-N ) :   0.3505 B(  0-C , 11-O ) :  -0.2076 B(  0-C , 12-C ) :  -0.2745
B(  0-C , 13-H ) :  -0.1713 B(  0-C , 14-H ) :  -0.2893 B(  0-C , 15-H ) :  -0.2963
B(  0-C , 16-C ) :   0.2440 B(  0-C , 17-H ) :  -0.2052 B(  0-C , 18-H ) :  -0.1114
B(  0-C , 19-H ) :  -0.1397 B(  1-C ,  2-C ) :   0.4629 B(  1-C , 10-N ) :   0.3708
B(  1-C , 11-O ) :  -0.2268 B(  1-C , 20-C ) :  -0.2243 B(  1-C , 21-H ) :  -0.2908
B(  1-C , 22-H ) :  -0.1771 B(  1-C , 23-H ) :  -0.2736 B(  1-C , 24-C ) :   0.2054
B(  1-C , 25-H ) :  -0.1425 B(  1-C , 26-H ) :  -0.2106 B(  1-C , 27-H ) :  -0.1471
B(  2-C ,  3-C ) :   0.5695 B(  2-C ,  5-H ) :   1.1197 B(  2-C ,  6-H ) :   1.0639
B(  2-C , 29-N ) :   0.2057 B(  3-C ,  4-C ) :   0.7434 B(  3-C ,  6-H ) :  -0.1075
B(  3-C ,  7-H ) :   0.9973 B(  3-C , 29-N ) :  -0.8571 B(  3-C , 35-O ) :  -0.1403
B(  3-C , 36-H ) :  -0.3367 B(  4-C ,  8-H ) :   1.0893 B(  4-C ,  9-H ) :   1.0103
B(  4-C , 10-N ) :   0.1066 B(  4-C , 29-N ) :   0.4146 B(  4-C , 35-O ) :   0.1405
B(  7-H , 35-O ) :   0.1583 B(  9-H , 35-O ) :  -0.1242 B( 11-O , 28-H ) :   0.8671
B( 12-C , 13-H ) :   1.1013 B( 12-C , 14-H ) :   1.1775 B( 12-C , 15-H ) :   1.1966
B( 12-C , 16-C ) :   0.1260 B( 16-C , 17-H ) :   1.1634 B( 16-C , 18-H ) :   1.1195
B( 16-C , 19-H ) :   1.0784 B( 20-C , 21-H ) :   1.1795 B( 20-C , 22-H ) :   1.0960
B( 20-C , 23-H ) :   1.2014 B( 20-C , 24-C ) :   0.1301 B( 24-C , 25-H ) :   1.1428
B( 24-C , 26-H ) :   1.1791 B( 24-C , 27-H ) :   1.0594 B( 29-N , 30-C ) :   1.1744
B( 29-N , 35-O ) :   0.2693 B( 29-N , 36-H ) :   1.3507 B( 30-C , 31-C ) :   0.8012
B( 30-C , 33-H ) :  -0.1437 B( 30-C , 35-O ) :   0.9951 B( 31-C , 32-H ) :   0.9437
B( 31-C , 33-H ) :   1.0437 B( 31-C , 34-H ) :   0.9747

MP2 TOTAL ENERGY:     -691.229761913 Eh
FINAL SINGLE POINT ENERGY      -691.229761912509

DIPOLE MOMENT
-------------
                                X             Y             Z
Electronic contribution:     -4.63193       0.73832       0.21591
Nuclear contribution   :      4.69671      -1.56976      -1.63819
                        -----------------------------------------
Total Dipole Moment    :      0.06478      -0.83144      -1.42228
                        -----------------------------------------
Magnitude (a.u.)       :      1.64875
Magnitude (Debye)      :      4.19080

Rotational constants in cm-1:     0.033058     0.012568     0.010800
Rotational constants in MHz :   991.039904   376.780740   323.784964

                             ****ORCA TERMINATED NORMALLY****
TOTAL RUN TIME: 0 days 5 hours 35 minutes 2 seconds 470 msec
