                         Program Version 4.2.1 -  RELEASE  -
|  1> %pal
|  2>  nprocs 32
|  3> end
|  4> !RI-MP2 aug-cc-pVQZ aug-cc-pVQZ/C TightSCF
|  5> %maxcore 4500
|  6> *xyzfile 1 2  04_6P1.xyz
|  7>
|  8>
|  9>                          ****END OF INPUT****

CARTESIAN COORDINATES (ANGSTROEM)
---------------------------------
  N      1.809943   -0.045707   -0.000001
  C      0.586243   -0.822323    0.000002
  H      2.392204   -0.198915   -0.831068
  H      2.392201   -0.198905    0.831070
  C     -0.573481    0.090010    0.000002
  H      0.635928   -1.901484   -0.000005
  O     -0.303964    1.288928    0.000000
  N     -1.799539   -0.431035   -0.000001
  H     -1.974233   -1.423828    0.000001
  H     -2.591208    0.197924   -0.000003
  H      1.427421    0.944857   -0.000007

 Total Charge           Charge          ....    1
 Multiplicity           Mult            ....    2
 Number of Electrons    NEL             ....   39
 Basis Dimension        Dim             ....  676

ORBITAL ENERGIES
----------------
                 SPIN UP ORBITALS
  NO   OCC          E(Eh)            E(eV)
   0   1.0000     -20.722337      -563.8834
   1   1.0000     -15.894983      -432.5245
   2   1.0000     -15.764809      -428.9823
   3   1.0000     -11.551674      -314.3370
   4   1.0000     -11.523888      -313.5809
   5   1.0000      -1.599836       -43.5338
   6   1.0000      -1.516790       -41.2740
   7   1.0000      -1.406395       -38.2699
   8   1.0000      -1.209107       -32.9015
   9   1.0000      -1.004919       -27.3452
  10   1.0000      -0.995180       -27.0802
  11   1.0000      -0.980660       -26.6851
  12   1.0000      -0.919435       -25.0191
  13   1.0000      -0.866713       -23.5845
  14   1.0000      -0.846411       -23.0320
  15   1.0000      -0.794074       -21.6079
  16   1.0000      -0.782306       -21.2876
  17   1.0000      -0.650573       -17.7030
  18   1.0000      -0.630507       -17.1570
  19   1.0000      -0.611623       -16.6431
  20   0.0000      -0.113475        -3.0878
  21   0.0000      -0.085532        -2.3274
  22   0.0000      -0.079777        -2.1708
  23   0.0000      -0.070108        -1.9077
  24   0.0000      -0.049764        -1.3541

                 SPIN DOWN ORBITALS
  NO   OCC          E(Eh)            E(eV)
   0   1.0000     -20.715064      -563.6855
   1   1.0000     -15.897762      -432.6001
   2   1.0000     -15.763847      -428.9561
   3   1.0000     -11.556310      -314.4632
   4   1.0000     -11.499007      -312.9039
   5   1.0000      -1.586279       -43.1649
   6   1.0000      -1.508686       -41.0534
   7   1.0000      -1.401043       -38.1243
   8   1.0000      -1.148806       -31.2606
   9   1.0000      -0.994971       -27.0745
  10   1.0000      -0.991782       -26.9878
  11   1.0000      -0.960172       -26.1276
  12   1.0000      -0.916240       -24.9321
  13   1.0000      -0.861158       -23.4333
  14   1.0000      -0.840741       -22.8777
  15   1.0000      -0.775530       -21.1032
  16   1.0000      -0.758541       -20.6409
  17   1.0000      -0.639751       -17.4085
  18   1.0000      -0.581980       -15.8365
  19   0.0000      -0.142818        -3.8863
  20   0.0000      -0.112306        -3.0560
  21   0.0000      -0.084039        -2.2868
  22   0.0000      -0.078243        -2.1291
  23   0.0000      -0.069742        -1.8978

MULLIKEN ATOMIC CHARGES AND SPIN POPULATIONS
--------------------------------------------
   0 N :   -0.303163   -0.093622
   1 C :   -0.397779    1.109898
   2 H :    0.275831    0.023070
   3 H :    0.275831    0.023071
   4 C :    0.873584   -0.178735
   5 H :    0.511824   -0.069648
   6 O :   -0.714232    0.159624
   7 N :   -0.628611    0.025837
   8 H :    0.343710   -0.001171
   9 H :    0.315989   -0.004479
  10 H :    0.447018    0.006155
Sum of atomic charges         :    1.0000000

LOEWDIN ATOMIC CHARGES AND SPIN POPULATIONS
-------------------------------------------
   0 N :    1.515797    0.113978
   1 C :    0.462010    0.456899
   2 H :   -0.284441    0.020798
   3 H :   -0.284441    0.020798
   4 C :   -0.732135    0.114956
   5 H :   -0.257040    0.142692
   6 O :    0.843606    0.107618
   7 N :    1.270318    0.008521
   8 H :   -0.461737    0.001348
   9 H :   -0.456401    0.001323
  10 H :   -0.615538    0.011068

  Mayer bond orders larger than 0.100000
B(  0-N ,  1-C ) :   1.0964 B(  0-N ,  2-H ) :   0.9097 B(  0-N ,  3-H ) :   0.9097
B(  0-N , 10-H ) :   0.7677 B(  1-C ,  4-C ) :   1.1176 B(  1-C ,  5-H ) :   0.6833
B(  1-C ,  6-O ) :   0.1512 B(  4-C ,  6-O ) :   1.2714 B(  4-C ,  7-N ) :   1.2733
B(  6-O ,  7-N ) :   0.1139 B(  7-N ,  8-H ) :   0.8548 B(  7-N ,  9-H ) :   0.9225

MP2 TOTAL ENERGY:     -263.874900643 Eh
FINAL SINGLE POINT ENERGY      -263.874900643092

DIPOLE MOMENT
-------------
                                X             Y             Z
Electronic contribution:     -0.49369       0.88673       0.00001
Nuclear contribution   :      2.30955      -2.59881      -0.00001
                        -----------------------------------------
Total Dipole Moment    :      1.81586      -1.71207      -0.00000
                        -----------------------------------------
Magnitude (a.u.)       :      2.49571
Magnitude (Debye)      :      6.34358

Rotational constants in cm-1:     0.371160     0.132901     0.099468
Rotational constants in MHz : 11127.109637  3984.272969  2981.984985

                             ****ORCA TERMINATED NORMALLY****
TOTAL RUN TIME: 0 days 0 hours 10 minutes 39 seconds 8 msec
