                         Program Version 4.2.1 -  RELEASE  -
|  1> %pal
|  2>  nprocs 32
|  3> end
|  4> !RI-MP2 aug-cc-pVQZ aug-cc-pVQZ/C TightSCF
|  5> %maxcore 4500
|  6> *xyzfile 0 1  10_62R.xyz
|  7>
|  8>
|  9>                          ****END OF INPUT****

CARTESIAN COORDINATES (ANGSTROEM)
---------------------------------
  C     -2.634275   -0.070861    1.168251
  C     -1.729856   -0.097062    0.197908
  C     -1.298819    1.132560   -0.551565
  C      0.198133    1.406673   -0.318331
  C      1.000535    0.114330   -0.312286
  C      2.175781    0.023475    0.237097
  C      3.352123   -0.064474    0.786782
  C      0.310808   -1.069298   -0.947183
  H      0.334712    1.921487    0.634002
  H     -1.891375    1.998133   -0.252401
  C     -1.010392   -1.365169   -0.216420
  H      0.575826    2.072462   -1.100129
  H     -1.476651    0.979677   -1.621821
  H      3.469178   -0.342560    1.829151
  H      4.256633    0.137205    0.222178
  H      0.959074   -1.944891   -0.939906
  H      0.105587   -0.832711   -1.996866
  H     -0.813791   -1.974079    0.668559
  H     -1.659781   -1.956219   -0.870624
  H     -2.900657   -0.965794    1.720108
  H     -3.142987    0.846248    1.442227

 Total Charge           Charge          ....    0
 Multiplicity           Mult            ....    1
 Number of Electrons    NEL             ....   66
 Basis Dimension        Dim             .... 1272

ORBITAL ENERGIES
----------------

  NO   OCC          E(Eh)            E(eV)
   0   2.0000     -11.238740      -305.8217
   1   2.0000     -11.236522      -305.7613
   2   2.0000     -11.234905      -305.7173
   3   2.0000     -11.231172      -305.6157
   4   2.0000     -11.230976      -305.6104
   5   2.0000     -11.227015      -305.5026
   6   2.0000     -11.226509      -305.4888
   7   2.0000     -11.225189      -305.4529
   8   2.0000     -11.208233      -304.9915
   9   2.0000      -1.142318       -31.0840
  10   2.0000      -1.074250       -29.2318
  11   2.0000      -1.016407       -27.6578
  12   2.0000      -1.008494       -27.4425
  13   2.0000      -0.929360       -25.2892
  14   2.0000      -0.857002       -23.3202
  15   2.0000      -0.830253       -22.5923
  16   2.0000      -0.729593       -19.8532
  17   2.0000      -0.672824       -18.3085
  18   2.0000      -0.655224       -17.8295
  19   2.0000      -0.637193       -17.3389
  20   2.0000      -0.624041       -16.9810
  21   2.0000      -0.596978       -16.2446
  22   2.0000      -0.583236       -15.8707
  23   2.0000      -0.565095       -15.3770
  24   2.0000      -0.541613       -14.7380
  25   2.0000      -0.529722       -14.4145
  26   2.0000      -0.511081       -13.9072
  27   2.0000      -0.502487       -13.6734
  28   2.0000      -0.492545       -13.4028
  29   2.0000      -0.453380       -12.3371
  30   2.0000      -0.364994        -9.9320
  31   2.0000      -0.347748        -9.4627
  32   2.0000      -0.343986        -9.3603
  33   0.0000       0.025396         0.6911
  34   0.0000       0.030057         0.8179
  35   0.0000       0.030353         0.8259
  36   0.0000       0.031302         0.8518
  37   0.0000       0.043438         1.1820

MULLIKEN ATOMIC CHARGES
-----------------------
   0 C :   -0.956410
   1 C :    0.035002
   2 C :   -0.310413
   3 C :   -0.389117
   4 C :   -0.127175
   5 C :   -0.134711
   6 C :   -0.615049
   7 C :   -0.342519
   8 H :    0.228477
   9 H :    0.296918
  10 C :   -0.253706
  11 H :    0.311671
  12 H :    0.153353
  13 H :    0.298598
  14 H :    0.267103
  15 H :    0.323022
  16 H :    0.186035
  17 H :    0.203407
  18 H :    0.325226
  19 H :    0.281570
  20 H :    0.218717
Sum of atomic charges:    0.0000000

LOEWDIN ATOMIC CHARGES
----------------------
   0 C :    0.818114
   1 C :   -0.041466
   2 C :    0.492462
   3 C :    0.506989
   4 C :   -0.084051
   5 C :    0.220437
   6 C :    0.739560
   7 C :    0.485525
   8 H :   -0.276643
   9 H :   -0.285704
  10 C :    0.510968
  11 H :   -0.262457
  12 H :   -0.268525
  13 H :   -0.387921
  14 H :   -0.389235
  15 H :   -0.279954
  16 H :   -0.270853
  17 H :   -0.279078
  18 H :   -0.260372
  19 H :   -0.341032
  20 H :   -0.346765

  Mayer bond orders larger than 0.100000
B(  0-C ,  1-C ) :   1.5866 B(  0-C , 10-C ) :  -0.2041 B(  0-C , 19-H ) :   1.0311
B(  0-C , 20-H ) :   1.1378 B(  1-C ,  2-C ) :   0.7568 B(  1-C , 10-C ) :   0.5889
B(  1-C , 19-H ) :  -0.1162 B(  1-C , 20-H ) :  -0.1250 B(  2-C ,  3-C ) :   0.9949
B(  2-C ,  9-H ) :   0.9694 B(  2-C , 12-H ) :   1.0182 B(  3-C ,  4-C ) :   0.5593
B(  3-C ,  8-H ) :   0.9924 B(  3-C , 11-H ) :   0.8956 B(  4-C ,  5-C ) :   1.9254
B(  4-C ,  6-C ) :  -0.2377 B(  4-C ,  7-C ) :   0.6846 B(  5-C ,  6-C ) :   1.8214
B(  5-C , 13-H ) :  -0.1056 B(  5-C , 14-H ) :  -0.1295 B(  6-C , 13-H ) :   0.9922
B(  6-C , 14-H ) :   1.0623 B(  7-C , 10-C ) :   1.0611 B(  7-C , 15-H ) :   0.9114
B(  7-C , 16-H ) :   0.9797 B( 10-C , 17-H ) :   0.9867 B( 10-C , 18-H ) :   0.8758

MP2 TOTAL ENERGY:     -349.431188343 Eh
FINAL SINGLE POINT ENERGY      -349.431188342857

DIPOLE MOMENT
-------------
                                X             Y             Z
Electronic contribution:      2.14739       0.06497       0.02935
Nuclear contribution   :     -2.25252      -0.06295      -0.27382
                        -----------------------------------------
Total Dipole Moment    :     -0.10513       0.00202      -0.24447
                        -----------------------------------------
Magnitude (a.u.)       :      0.26613
Magnitude (Debye)      :      0.67644

Rotational constants in cm-1:     0.102706     0.035264     0.032447
Rotational constants in MHz :  3079.043198  1057.181369   972.737246

                             ****ORCA TERMINATED NORMALLY****
TOTAL RUN TIME: 0 days 0 hours 51 minutes 54 seconds 8 msec
