                         Program Version 4.2.1 -  RELEASE  -
|  1> %pal
|  2>  nprocs 32
|  3> end
|  4> !RI-MP2 aug-cc-pVQZ aug-cc-pVQZ/C TightSCF
|  5> %maxcore 4500
|  6> *xyzfile 0 1  06_10TS.xyz
|  7>
|  8>
|  9>                          ****END OF INPUT****

CARTESIAN COORDINATES (ANGSTROEM)
---------------------------------
  C     -1.971191   -0.346818   -1.232411
  C     -0.756032    0.365443    0.971413
  C     -2.225515    1.143353   -1.552998
  H     -1.462002    1.458891   -2.270632
  H     -3.192321    1.250254   -2.059619
  H      0.151515    0.356398    1.582578
  H     -1.917903   -0.869154   -2.194055
  H      0.299287    0.116284   -1.175297
  C     -1.033066    1.847067    0.636262
  H     -0.111034    2.251862    0.209314
  H     -1.224041    2.412399    1.556396
  B     -0.552694   -0.335809   -0.450920
  C      0.876554   -1.648108   -0.258831
  C      2.147706   -1.406424   -0.067318
  H      2.788875   -2.268241    0.081883
  C     -0.291711   -2.273059   -0.341913
  H     -0.652604   -2.654366   -1.288324
  H     -0.812255   -2.576141    0.556651
  C      2.827164   -0.091441   -0.037220
  O      2.323773    0.996853   -0.047959
  O      4.156737   -0.292295    0.018535
  C      4.956766    0.892561    0.063327
  H      4.704737    1.487187    0.941190
  H      5.986185    0.548810    0.114537
  H      4.795703    1.493111   -0.831691
  C     -1.870802   -0.314617    1.784837
  H     -1.507570   -1.294801    2.120389
  H     -2.057597    0.246992    2.707720
  C     -3.095127   -0.991632   -0.404954
  H     -2.947784   -2.077854   -0.403238
  H     -4.058861   -0.832005   -0.902610
  C     -2.191158    2.093335   -0.344697
  H     -3.141700    2.038914    0.186776
  H     -2.126411    3.121841   -0.713159
  C     -3.208346   -0.502324    1.049526
  H     -3.826958   -1.209187    1.611701
  H     -3.759337    0.437374    1.069343

 Total Charge           Charge          ....    0
 Multiplicity           Mult            ....    1
 Number of Electrons    NEL             ....  120
 Basis Dimension        Dim             .... 2246

ORBITAL ENERGIES
----------------

  NO   OCC          E(Eh)            E(eV)
   0   2.0000     -20.610078      -560.8287
   1   2.0000     -20.548897      -559.1639
   2   2.0000     -11.393847      -310.0423
   3   2.0000     -11.330601      -308.3213
   4   2.0000     -11.289912      -307.2141
   5   2.0000     -11.281146      -306.9756
   6   2.0000     -11.275349      -306.8178
   7   2.0000     -11.201022      -304.7953
   8   2.0000     -11.198987      -304.7399
   9   2.0000     -11.198387      -304.7236
  10   2.0000     -11.194654      -304.6220
  11   2.0000     -11.190898      -304.5198
  12   2.0000     -11.187455      -304.4261
  13   2.0000     -11.185546      -304.3742
  14   2.0000     -11.169719      -303.9435
  15   2.0000      -7.541104      -205.2039
  16   2.0000      -1.473146       -40.0863
  17   2.0000      -1.370593       -37.2957
  18   2.0000      -1.145798       -31.1787
  19   2.0000      -1.092382       -29.7252
  20   2.0000      -1.042749       -28.3746
  21   2.0000      -1.020766       -27.7765
  22   2.0000      -1.007074       -27.4039
  23   2.0000      -0.972687       -26.4682
  24   2.0000      -0.908951       -24.7338
  25   2.0000      -0.894570       -24.3425
  26   2.0000      -0.828689       -22.5498
  27   2.0000      -0.776357       -21.1258
  28   2.0000      -0.763167       -20.7668
  29   2.0000      -0.753584       -20.5061
  30   2.0000      -0.741557       -20.1788
  31   2.0000      -0.711511       -19.3612
  32   2.0000      -0.698127       -18.9970
  33   2.0000      -0.682782       -18.5794
  34   2.0000      -0.665694       -18.1145
  35   2.0000      -0.657750       -17.8983
  36   2.0000      -0.640748       -17.4356
  37   2.0000      -0.621454       -16.9106
  38   2.0000      -0.605454       -16.4752
  39   2.0000      -0.577596       -15.7172
  40   2.0000      -0.567525       -15.4431
  41   2.0000      -0.563803       -15.3419
  42   2.0000      -0.559861       -15.2346
  43   2.0000      -0.556634       -15.1468
  44   2.0000      -0.542933       -14.7740
  45   2.0000      -0.539598       -14.6832
  46   2.0000      -0.518989       -14.1224
  47   2.0000      -0.488323       -13.2879
  48   2.0000      -0.481018       -13.0892
  49   2.0000      -0.472386       -12.8543
  50   2.0000      -0.462597       -12.5879
  51   2.0000      -0.454748       -12.3743
  52   2.0000      -0.450263       -12.2523
  53   2.0000      -0.446707       -12.1555
  54   2.0000      -0.438655       -11.9364
  55   2.0000      -0.426736       -11.6121
  56   2.0000      -0.405372       -11.0307
  57   2.0000      -0.380789       -10.3618
  58   2.0000      -0.377137       -10.2624
  59   2.0000      -0.358085        -9.7440
  60   0.0000       0.016969         0.4617
  61   0.0000       0.024107         0.6560
  62   0.0000       0.027651         0.7524
  63   0.0000       0.029277         0.7967
  64   0.0000       0.035622         0.9693

MULLIKEN ATOMIC CHARGES
-----------------------
   0 C :   -0.021904
   1 C :    0.353573
   2 C :   -0.722968
   3 H :    0.123651
   4 H :    0.118969
   5 H :    0.366049
   6 H :    0.297278
   7 H :   -0.451088
   8 C :   -0.828991
   9 H :    0.203519
  10 H :    0.137375
  11 B :    1.870291
  12 C :    0.105895
  13 C :   -0.718897
  14 H :    0.166832
  15 C :   -0.554322
  16 H :    0.268046
  17 H :    0.283907
  18 C :    1.631930
  19 O :   -0.989557
  20 O :   -0.860789
  21 C :   -0.848303
  22 H :    0.337499
  23 H :    0.489379
  24 H :    0.327528
  25 C :   -0.525811
  26 H :    0.039885
  27 H :    0.106366
  28 C :   -0.513149
  29 H :    0.028013
  30 H :    0.108994
  31 C :   -0.491461
  32 H :    0.161137
  33 H :    0.177457
  34 C :   -0.497144
  35 H :    0.178981
  36 H :    0.141833
Sum of atomic charges:   -0.0000000

LOEWDIN ATOMIC CHARGES
----------------------
   0 C :    0.288277
   1 C :    0.285930
   2 C :    0.569589
   3 H :   -0.260240
   4 H :   -0.249517
   5 H :   -0.282177
   6 H :   -0.263019
   7 H :   -0.161004
   8 C :    0.568576
   9 H :   -0.275762
  10 H :   -0.245490
  11 B :   -0.726825
  12 C :    0.221936
  13 C :    0.366088
  14 H :   -0.361460
  15 C :    0.797361
  16 H :   -0.257757
  17 H :   -0.281049
  18 C :   -1.078461
  19 O :    0.769898
  20 O :    0.839390
  21 C :    0.581102
  22 H :   -0.314628
  23 H :   -0.321998
  24 H :   -0.313230
  25 C :    0.565655
  26 H :   -0.276061
  27 H :   -0.249904
  28 C :    0.559733
  29 H :   -0.284303
  30 H :   -0.251413
  31 C :    0.581454
  32 H :   -0.305722
  33 H :   -0.252727
  34 C :    0.578599
  35 H :   -0.253289
  36 H :   -0.307553

  Mayer bond orders larger than 0.100000
B(  0-C ,  1-C ) :   0.1502 B(  0-C ,  2-C ) :   0.4736 B(  0-C ,  3-H ) :  -0.1188
B(  0-C ,  4-H ) :  -0.1169 B(  0-C ,  6-H ) :   0.9971 B(  0-C , 11-B ) :   0.6870
B(  0-C , 28-C ) :   0.5697 B(  0-C , 29-H ) :  -0.1552 B(  0-C , 30-H ) :  -0.1096
B(  0-C , 31-C ) :  -0.1237 B(  1-C ,  5-H ) :   0.7354 B(  1-C ,  8-C ) :   0.6472
B(  1-C ,  9-H ) :  -0.1310 B(  1-C , 11-B ) :   1.0884 B(  1-C , 19-O ) :  -0.2044
B(  1-C , 25-C ) :   0.3238 B(  1-C , 26-H ) :  -0.1987 B(  1-C , 27-H ) :  -0.1568
B(  1-C , 31-C ) :  -0.1661 B(  2-C ,  3-H ) :   1.1974 B(  2-C ,  4-H ) :   1.1695
B(  2-C , 11-B ) :  -0.1028 B(  2-C , 31-C ) :   0.8621 B(  5-H , 25-C ) :  -0.1696
B(  7-H , 11-B ) :   0.5612 B(  7-H , 12-C ) :   0.1393 B(  8-C ,  9-H ) :   1.1244
B(  8-C , 10-H ) :   1.1086 B(  8-C , 31-C ) :   0.8347 B( 11-B , 12-C ) :  -0.3776
B( 11-B , 13-C ) :  -0.2021 B( 11-B , 25-C ) :  -0.1325 B( 11-B , 32-H ) :  -0.1152
B( 12-C , 13-C ) :   1.5188 B( 12-C , 14-H ) :  -0.1283 B( 12-C , 15-C ) :   1.5094
B( 12-C , 16-H ) :  -0.1029 B( 12-C , 18-C ) :  -0.2283 B( 13-C , 14-H ) :   1.1032
B( 13-C , 15-C ) :  -0.4878 B( 13-C , 18-C ) :   1.2734 B( 13-C , 19-O ) :   0.1282
B( 13-C , 20-O ) :   0.1430 B( 15-C , 16-H ) :   1.1155 B( 15-C , 17-H ) :   1.0265
B( 18-C , 19-O ) :   1.1056 B( 18-C , 20-O ) :   0.4842 B( 18-C , 21-C ) :  -0.1661
B( 19-O , 20-O ) :   0.1677 B( 20-O , 21-C ) :   0.9359 B( 21-C , 22-H ) :   0.9071
B( 21-C , 23-H ) :   0.7759 B( 21-C , 24-H ) :   0.9187 B( 25-C , 26-H ) :   1.3457
B( 25-C , 27-H ) :   1.1903 B( 25-C , 34-C ) :   0.7782 B( 28-C , 29-H ) :   1.2804
B( 28-C , 30-H ) :   1.1458 B( 28-C , 34-C ) :   0.7417 B( 31-C , 32-H ) :   1.1209
B( 31-C , 33-H ) :   1.0498 B( 34-C , 35-H ) :   1.0859 B( 34-C , 36-H ) :   1.1946

MP2 TOTAL ENERGY:     -682.063416184 Eh
FINAL SINGLE POINT ENERGY      -682.063416184250

DIPOLE MOMENT
-------------
                                X             Y             Z
Electronic contribution:     14.86423      -5.05088      -1.27941
Nuclear contribution   :    -13.84711       3.80900       1.29286
                        -----------------------------------------
Total Dipole Moment    :      1.01712      -1.24188       0.01344
                        -----------------------------------------
Magnitude (a.u.)       :      1.60530
Magnitude (Debye)      :      4.08035

Rotational constants in cm-1:     0.033640     0.010313     0.009330
Rotational constants in MHz :  1008.500393   309.189045   279.701576

                             ****ORCA TERMINATED NORMALLY****
TOTAL RUN TIME: 0 days 6 hours 31 minutes 4 seconds 519 msec
