                         Program Version 4.2.1 -  RELEASE  -
|  1> %pal
|  2>  nprocs 32
|  3> end
|  4> !RI-MP2 aug-cc-pVQZ aug-cc-pVQZ/C TightSCF
|  5> %maxcore 4500
|  6> *xyzfile 0 2  01_25R.xyz
|  7>
|  8>
|  9>                          ****END OF INPUT****

CARTESIAN COORDINATES (ANGSTROEM)
---------------------------------
  C     -2.147630    0.057058    0.184095
  C     -0.828641   -0.102973    0.866443
  C      0.365305   -0.133188   -0.104651
  H     -0.821883   -1.030850    1.450457
  H     -0.675610    0.717999    1.576537
  C      1.705325   -0.291472    0.616237
  H      0.381897    0.787463   -0.695799
  H      0.234038   -0.956229   -0.815132
  C      2.863766   -0.368235   -0.329187
  H      1.671902   -1.205021    1.222201
  H      1.851894    0.541404    1.310905
  C      3.870965    0.492006   -0.374608
  C     -2.576107    1.414847   -0.258435
  H     -2.162804    1.674666   -1.246615
  H     -2.244443    2.190157    0.436905
  H     -3.663811    1.482223   -0.352937
  C     -2.781022   -1.130416   -0.457737
  H     -2.406597   -1.293380   -1.481531
  H     -3.865005   -1.010763   -0.542956
  H     -2.581294   -2.047536    0.102344
  H      4.676984    0.387396   -1.090863
  H      3.926172    1.333834    0.308327
  H      2.846799   -1.197128   -1.034784

 Total Charge           Charge          ....    0
 Multiplicity           Mult            ....    2
 Number of Electrons    NEL             ....   63
 Basis Dimension        Dim             .... 1330

ORBITAL ENERGIES
----------------
                 SPIN UP ORBITALS
  NO   OCC          E(Eh)            E(eV)
   0   1.0000     -11.228587      -305.5454
   1   1.0000     -11.222803      -305.3880
   2   1.0000     -11.222208      -305.3718
   3   1.0000     -11.220032      -305.3126
   4   1.0000     -11.215602      -305.1920
   5   1.0000     -11.214936      -305.1739
   6   1.0000     -11.211063      -305.0685
   7   1.0000     -11.210682      -305.0582
   8   1.0000      -1.109500       -30.1910
   9   1.0000      -1.075473       -29.2651
  10   1.0000      -1.008642       -27.4465
  11   1.0000      -0.935794       -25.4642
  12   1.0000      -0.922509       -25.1028
  13   1.0000      -0.827912       -22.5286
  14   1.0000      -0.757697       -20.6180
  15   1.0000      -0.734466       -19.9858
  16   1.0000      -0.653458       -17.7815
  17   1.0000      -0.625755       -17.0276
  18   1.0000      -0.613130       -16.6841
  19   1.0000      -0.606207       -16.4957
  20   1.0000      -0.583459       -15.8767
  21   1.0000      -0.568237       -15.4625
  22   1.0000      -0.538340       -14.6490
  23   1.0000      -0.531571       -14.4648
  24   1.0000      -0.516326       -14.0499
  25   1.0000      -0.508052       -13.8248
  26   1.0000      -0.490086       -13.3359
  27   1.0000      -0.477806       -13.0018
  28   1.0000      -0.466179       -12.6854
  29   1.0000      -0.463590       -12.6149
  30   1.0000      -0.361842        -9.8462
  31   1.0000      -0.307688        -8.3726
  32   0.0000       0.025322         0.6890
  33   0.0000       0.029470         0.8019
  34   0.0000       0.030279         0.8239
  35   0.0000       0.032835         0.8935
  36   0.0000       0.041059         1.1173

                 SPIN DOWN ORBITALS
  NO   OCC          E(Eh)            E(eV)
   0   1.0000     -11.228905      -305.5540
   1   1.0000     -11.222029      -305.3669
   2   1.0000     -11.218180      -305.2622
   3   1.0000     -11.217466      -305.2428
   4   1.0000     -11.215197      -305.1810
   5   1.0000     -11.214181      -305.1534
   6   1.0000     -11.213801      -305.1430
   7   1.0000     -11.198040      -304.7142
   8   1.0000      -1.094323       -29.7780
   9   1.0000      -1.056316       -28.7438
  10   1.0000      -1.000647       -27.2290
  11   1.0000      -0.935506       -25.4564
  12   1.0000      -0.921725       -25.0814
  13   1.0000      -0.819528       -22.3005
  14   1.0000      -0.756506       -20.5856
  15   1.0000      -0.699084       -19.0230
  16   1.0000      -0.651996       -17.7417
  17   1.0000      -0.621295       -16.9063
  18   1.0000      -0.601966       -16.3803
  19   1.0000      -0.585068       -15.9205
  20   1.0000      -0.570787       -15.5319
  21   1.0000      -0.557978       -15.1833
  22   1.0000      -0.531074       -14.4512
  23   1.0000      -0.524913       -14.2836
  24   1.0000      -0.514013       -13.9870
  25   1.0000      -0.504812       -13.7366
  26   1.0000      -0.485659       -13.2154
  27   1.0000      -0.472932       -12.8691
  28   1.0000      -0.462671       -12.5899
  29   1.0000      -0.456401       -12.4193
  30   1.0000      -0.359258        -9.7759
  31   0.0000       0.025449         0.6925
  32   0.0000       0.029525         0.8034
  33   0.0000       0.030328         0.8253
  34   0.0000       0.032736         0.8908
  35   0.0000       0.041084         1.1179

MULLIKEN ATOMIC CHARGES AND SPIN POPULATIONS
--------------------------------------------
   0 C :    0.100785    1.218016
   1 C :   -0.449414   -0.235725
   2 C :   -0.177091    0.074957
   3 H :    0.287952    0.023405
   4 H :    0.285256    0.019725
   5 C :   -0.273732    0.004586
   6 H :    0.267226   -0.007204
   7 H :    0.237747   -0.004821
   8 C :   -0.624776   -0.020059
   9 H :    0.308189   -0.001957
  10 H :    0.274167   -0.000058
  11 C :   -0.882345    0.022076
  12 C :   -0.939478   -0.161901
  13 H :    0.214387    0.079600
  14 H :    0.214298    0.013729
  15 H :    0.298185    0.021552
  16 C :   -0.927078   -0.162237
  17 H :    0.215267    0.080477
  18 H :    0.300346    0.022172
  19 H :    0.211060    0.014319
  20 H :    0.360914   -0.001006
  21 H :    0.299083   -0.001150
  22 H :    0.399053    0.001501
Sum of atomic charges         :   -0.0000000

LOEWDIN ATOMIC CHARGES AND SPIN POPULATIONS
-------------------------------------------
   0 C :    0.031853    0.457068
   1 C :    0.493056    0.114606
   2 C :    0.505802    0.026101
   3 H :   -0.287390    0.012149
   4 H :   -0.286647    0.011849
   5 C :    0.474441    0.004198
   6 H :   -0.264432    0.005603
   7 H :   -0.269095    0.005659
   8 C :    0.358080   -0.002656
   9 H :   -0.274470   -0.000171
  10 H :   -0.297337    0.000035
  11 C :    0.796865    0.005251
  12 C :    0.896935    0.125395
  13 H :   -0.275461    0.028220
  14 H :   -0.297893    0.010634
  15 H :   -0.297847    0.014414
  16 C :    0.896379    0.125344
  17 H :   -0.275690    0.028182
  18 H :   -0.297727    0.014543
  19 H :   -0.297896    0.010513
  20 H :   -0.358031    0.002406
  21 H :   -0.353685    0.002359
  22 H :   -0.319811   -0.001703

  Mayer bond orders larger than 0.100000
B(  0-C ,  1-C ) :   0.9013 B(  0-C , 12-C ) :   0.7770 B(  0-C , 15-H ) :  -0.1264
B(  0-C , 16-C ) :   0.7583 B(  0-C , 18-H ) :  -0.1285 B(  1-C ,  2-C ) :   0.8779
B(  1-C ,  3-H ) :   0.8806 B(  1-C ,  4-H ) :   0.8800 B(  2-C ,  5-C ) :   0.9472
B(  2-C ,  6-H ) :   0.8456 B(  2-C ,  7-H ) :   0.8439 B(  2-C ,  8-C ) :  -0.2075
B(  5-C ,  8-C ) :   0.9755 B(  5-C ,  9-H ) :   0.8185 B(  5-C , 10-H ) :   0.8812
B(  5-C , 11-C ) :  -0.1878 B(  8-C , 11-C ) :   1.9079 B(  8-C , 22-H ) :   0.8246
B( 11-C , 20-H ) :   0.9456 B( 11-C , 21-H ) :   0.9410 B( 12-C , 13-H ) :   0.9264
B( 12-C , 14-H ) :   1.0450 B( 12-C , 15-H ) :   0.9984 B( 16-C , 17-H ) :   0.9333
B( 16-C , 18-H ) :   0.9936 B( 16-C , 19-H ) :   1.0522

MP2 TOTAL ENERGY:     -313.185542701 Eh
FINAL SINGLE POINT ENERGY      -313.185542700718

DIPOLE MOMENT
-------------
                                X             Y             Z
Electronic contribution:      2.89450      -0.44569       0.88659
Nuclear contribution   :     -3.01282       0.39816      -0.90748
                        -----------------------------------------
Total Dipole Moment    :     -0.11832      -0.04752      -0.02088
                        -----------------------------------------
Magnitude (a.u.)       :      0.12921
Magnitude (Debye)      :      0.32843

Rotational constants in cm-1:     0.158099     0.024371     0.023221
Rotational constants in MHz :  4739.693051   730.637462   696.137993

                             ****ORCA TERMINATED NORMALLY****
TOTAL RUN TIME: 0 days 1 hours 31 minutes 20 seconds 640 msec
