                         Program Version 4.2.1 -  RELEASE  -
|  1> %pal
|  2>  nprocs 32
|  3> end
|  4> !RI-MP2 aug-cc-pVQZ aug-cc-pVQZ/C TightSCF
|  5> %maxcore 4500
|  6> *xyzfile -1 1  09_21TS.xyz
|  7>
|  8>
|  9>                          ****END OF INPUT****

CARTESIAN COORDINATES (ANGSTROEM)
---------------------------------
  C      1.231032   -0.100674   -0.224632
  N      1.339741    1.218960   -0.110442
  C      2.567948    1.740274    0.017831
  C      3.710456    0.984360    0.028018
  C      3.628725   -0.427841   -0.097980
  C      2.316247   -0.944603   -0.221793
  C     -0.412636    2.318201   -0.217407
  C     -1.483738    1.515231   -0.516049
  C     -2.240702    0.895713    0.536129
  O     -1.976973    1.009262    1.733309
  C      4.762204   -1.279324   -0.105185
  N      5.983479   -0.772193    0.001521
  O      6.952979   -1.578644   -0.015036
  C     -3.430013    0.040747    0.155470
  C     -3.887805   -0.889049    1.086442
  C     -4.973369   -1.702204    0.801894
  C     -5.630461   -1.585769   -0.417327
  C     -5.192220   -0.651897   -1.346064
  C     -4.096022    0.152247   -1.062742
  H      2.617443    2.822341    0.114061
  H      4.682180    1.446713    0.130092
  H      0.034579    2.937171   -0.983051
  H     -0.292626    2.648593    0.805719
  H     -1.714097    1.285649   -1.547434
  H     -3.769361    0.883955   -1.790111
  H     -5.705741   -0.547844   -2.295153
  H     -6.482116   -2.218173   -0.641022
  H     -5.311080   -2.428476    1.532546
  H     -3.369676   -0.948552    2.035242
  H      4.643849   -2.359393   -0.201724
  H      2.164880   -2.013361   -0.316335
  H      0.213298   -0.473406   -0.326195

 Total Charge           Charge          ....   -1
 Multiplicity           Mult            ....    1
 Number of Electrons    NEL             ....  134
 Basis Dimension        Dim             .... 2118

ORBITAL ENERGIES
----------------

  NO   OCC          E(Eh)            E(eV)
   0   2.0000     -20.409150      -555.3612
   1   2.0000     -20.368810      -554.2635
   2   2.0000     -15.489849      -421.5002
   3   2.0000     -15.451177      -420.4479
   4   2.0000     -11.216876      -305.2267
   5   2.0000     -11.182402      -304.2886
   6   2.0000     -11.167126      -303.8729
   7   2.0000     -11.165208      -303.8208
   8   2.0000     -11.163360      -303.7705
   9   2.0000     -11.162015      -303.7339
  10   2.0000     -11.161967      -303.7326
  11   2.0000     -11.160981      -303.7057
  12   2.0000     -11.156422      -303.5817
  13   2.0000     -11.154797      -303.5375
  14   2.0000     -11.145630      -303.2880
  15   2.0000     -11.108975      -302.2906
  16   2.0000     -11.107574      -302.2524
  17   2.0000     -11.092970      -301.8551
  18   2.0000     -11.075710      -301.3854
  19   2.0000      -1.255675       -34.1687
  20   2.0000      -1.254900       -34.1476
  21   2.0000      -1.153432       -31.3865
  22   2.0000      -1.082827       -29.4652
  23   2.0000      -0.996216       -27.1084
  24   2.0000      -0.966835       -26.3089
  25   2.0000      -0.945019       -25.7153
  26   2.0000      -0.940548       -25.5936
  27   2.0000      -0.921529       -25.0761
  28   2.0000      -0.901023       -24.5181
  29   2.0000      -0.805342       -21.9145
  30   2.0000      -0.759385       -20.6639
  31   2.0000      -0.754744       -20.5376
  32   2.0000      -0.738418       -20.0934
  33   2.0000      -0.729771       -19.8581
  34   2.0000      -0.650677       -17.7058
  35   2.0000      -0.643794       -17.5185
  36   2.0000      -0.617448       -16.8016
  37   2.0000      -0.577767       -15.7218
  38   2.0000      -0.576169       -15.6784
  39   2.0000      -0.557267       -15.1640
  40   2.0000      -0.548374       -14.9220
  41   2.0000      -0.543268       -14.7831
  42   2.0000      -0.528686       -14.3863
  43   2.0000      -0.515896       -14.0383
  44   2.0000      -0.511987       -13.9319
  45   2.0000      -0.492270       -13.3953
  46   2.0000      -0.486253       -13.2316
  47   2.0000      -0.478645       -13.0246
  48   2.0000      -0.467354       -12.7173
  49   2.0000      -0.452256       -12.3065
  50   2.0000      -0.447254       -12.1704
  51   2.0000      -0.433456       -11.7949
  52   2.0000      -0.431537       -11.7427
  53   2.0000      -0.413889       -11.2625
  54   2.0000      -0.411233       -11.1902
  55   2.0000      -0.399425       -10.8689
  56   2.0000      -0.391723       -10.6593
  57   2.0000      -0.370100       -10.0709
  58   2.0000      -0.347191        -9.4475
  59   2.0000      -0.307985        -8.3807
  60   2.0000      -0.288731        -7.8568
  61   2.0000      -0.267700        -7.2845
  62   2.0000      -0.261600        -7.1185
  63   2.0000      -0.242713        -6.6046
  64   2.0000      -0.211890        -5.7658
  65   2.0000      -0.204030        -5.5520
  66   2.0000      -0.135279        -3.6811
  67   0.0000       0.070784         1.9261
  68   0.0000       0.079491         2.1631
  69   0.0000       0.087701         2.3865
  70   0.0000       0.092127         2.5069
  71   0.0000       0.100618         2.7380

MULLIKEN ATOMIC CHARGES
-----------------------
   0 C :    0.029942
   1 N :   -0.747777
   2 C :   -0.278715
   3 C :   -0.025726
   4 C :    0.265415
   5 C :   -0.188393
   6 C :   -0.560239
   7 C :   -0.515985
   8 C :    1.307062
   9 O :   -1.047788
  10 C :   -0.378798
  11 N :   -0.070914
  12 O :   -0.764042
  13 C :    0.206589
  14 C :   -0.477460
  15 C :   -0.309773
  16 C :   -0.389861
  17 C :   -0.337264
  18 C :   -0.383672
  19 H :    0.314895
  20 H :    0.211050
  21 H :    0.315365
  22 H :    0.256196
  23 H :    0.233200
  24 H :    0.286005
  25 H :    0.234148
  26 H :    0.328221
  27 H :    0.242457
  28 H :    0.264818
  29 H :    0.282979
  30 H :    0.129700
  31 H :    0.568366
Sum of atomic charges:   -1.0000000

LOEWDIN ATOMIC CHARGES
----------------------
   0 C :    0.108509
   1 N :    0.508226
   2 C :    0.121143
   3 C :    0.307817
   4 C :   -0.197509
   5 C :    0.326362
   6 C :    0.603036
   7 C :    0.262485
   8 C :   -0.748153
   9 O :    0.704377
  10 C :   -0.054924
  11 N :   -0.161267
  12 O :    0.227983
  13 C :   -0.128241
  14 C :    0.310821
  15 C :    0.339753
  16 C :    0.323101
  17 C :    0.338314
  18 C :    0.323408
  19 H :   -0.332887
  20 H :   -0.362803
  21 H :   -0.314832
  22 H :   -0.336527
  23 H :   -0.385693
  24 H :   -0.347640
  25 H :   -0.326652
  26 H :   -0.327120
  27 H :   -0.326377
  28 H :   -0.349616
  29 H :   -0.410945
  30 H :   -0.340226
  31 H :   -0.353921

  Mayer bond orders larger than 0.100000
B(  0-C ,  1-N ) :   1.3944 B(  0-C ,  2-C ) :   0.1676 B(  0-C ,  3-C ) :  -0.1188
B(  0-C ,  4-C ) :  -0.5345 B(  0-C ,  5-C ) :   0.8289 B(  0-C , 30-H ) :  -0.1093
B(  0-C , 31-H ) :   0.7209 B(  1-N ,  2-C ) :   1.3789 B(  1-N ,  6-C ) :   0.2310
B(  2-C ,  3-C ) :   1.2205 B(  2-C ,  4-C ) :  -0.1217 B(  2-C , 19-H ) :   1.0148
B(  3-C ,  4-C ) :   1.0121 B(  3-C ,  5-C ) :   0.1285 B(  3-C , 10-C ) :  -0.2685
B(  3-C , 19-H ) :  -0.1743 B(  3-C , 20-H ) :   1.0482 B(  4-C ,  5-C ) :   1.1395
B(  4-C , 10-C ) :   1.1622 B(  4-C , 29-H ) :  -0.1382 B(  5-C , 10-C ) :  -0.4452
B(  5-C , 30-H ) :   1.1386 B(  5-C , 31-H ) :  -0.1823 B(  6-C ,  7-C ) :   1.3559
B(  6-C ,  8-C ) :  -0.1357 B(  6-C , 21-H ) :   1.0063 B(  6-C , 22-H ) :   0.9342
B(  7-C ,  8-C ) :   0.9451 B(  7-C ,  9-O ) :   0.1021 B(  7-C , 13-C ) :  -0.3735
B(  7-C , 18-C ) :  -0.1117 B(  7-C , 21-H ) :  -0.1920 B(  7-C , 23-H ) :   1.0435
B(  8-C ,  9-O ) :   0.3878 B(  8-C , 13-C ) :   0.9925 B(  8-C , 14-C ) :  -0.4007
B(  8-C , 18-C ) :  -0.2623 B(  9-O , 13-C ) :   0.3273 B(  9-O , 22-H ) :   0.1120
B(  9-O , 28-H ) :   0.1080 B( 10-C , 11-N ) :   1.3793 B( 10-C , 29-H ) :   0.9778
B( 11-N , 12-O ) :   1.1667 B( 13-C , 14-C ) :   1.0607 B( 13-C , 15-C ) :  -0.3522
B( 13-C , 17-C ) :  -0.3955 B( 13-C , 18-C ) :   1.0539 B( 14-C , 15-C ) :   1.3286
B( 14-C , 16-C ) :   0.1113 B( 14-C , 17-C ) :   0.1584 B( 14-C , 18-C ) :   0.1128
B( 14-C , 27-H ) :  -0.1531 B( 14-C , 28-H ) :   0.9330 B( 15-C , 16-C ) :   1.1642
B( 15-C , 18-C ) :   0.1417 B( 15-C , 27-H ) :   1.1287 B( 16-C , 17-C ) :   1.2079
B( 16-C , 26-H ) :   0.9994 B( 17-C , 18-C ) :   1.2117 B( 17-C , 25-H ) :   1.1326
B( 18-C , 24-H ) :   0.9562 B( 18-C , 25-H ) :  -0.1284

MP2 TOTAL ENERGY:     -837.949156344 Eh
FINAL SINGLE POINT ENERGY      -837.949156344032

DIPOLE MOMENT
-------------
                                X             Y             Z
Electronic contribution:      5.40991      -0.03648       2.31162
Nuclear contribution   :    -11.99904       1.01466      -3.40918
                        -----------------------------------------
Total Dipole Moment    :     -6.58913       0.97818      -1.09756
                        -----------------------------------------
Magnitude (a.u.)       :      6.75116
Magnitude (Debye)      :     17.16008

Rotational constants in cm-1:     0.031558     0.004153     0.003902
Rotational constants in MHz :   946.082438   124.510870   116.964871

                             ****ORCA TERMINATED NORMALLY****
TOTAL RUN TIME: 0 days 4 hours 31 minutes 36 seconds 728 msec
