                         Program Version 4.2.1 -  RELEASE  -
|  1> %pal
|  2>  nprocs 32
|  3> end
|  4> !RI-MP2 aug-cc-pVQZ aug-cc-pVQZ/C TightSCF
|  5> %maxcore 4500
|  6> *xyzfile 0 1  06_26P.xyz
|  7>
|  8>
|  9>                          ****END OF INPUT****

CARTESIAN COORDINATES (ANGSTROEM)
---------------------------------
  C     -0.995073   -2.773659   -0.480642
  C     -0.184826   -1.573462   -1.054403
  C     -2.409676    0.024917    0.401260
  H     -0.294902   -3.582805   -0.259241
  C     -0.879833   -0.906619   -2.263217
  H     -0.367776    0.029594   -2.512017
  H     -0.735834   -1.560443   -3.130220
  H     -3.023258    0.699244    1.005242
  H      0.750305   -1.986348   -1.441922
  C     -2.376507   -0.643664   -2.131389
  H     -2.743626   -0.271490   -3.093105
  H     -2.895310   -1.592828   -1.973321
  C     -2.802209    0.344880   -1.051443
  H     -2.437591    1.340327   -1.315884
  H     -3.894877    0.415920   -1.083597
  C     -2.844117   -1.404492    0.812064
  H     -3.239713   -1.361472    1.831553
  C     -1.782639   -2.508622    0.808949
  H     -1.066714   -2.302299    1.610146
  H     -2.274586   -3.441203    1.103092
  H     -3.689809   -1.704435    0.184212
  H     -1.662547   -3.164570   -1.254607
  C     -0.933527    0.341695    0.750742
  H     -0.809942    0.259525    1.843327
  Si    -0.502946    2.203326    0.543278
  C      0.032678    2.685351   -1.194397
  H     -0.754455    2.564308   -1.939523
  H      0.333526    3.737128   -1.200372
  H      0.896260    2.096848   -1.508857
  C      0.895116    2.682726    1.706822
  H      0.944468    3.772874    1.780500
  H      0.745993    2.294522    2.717575
  H      1.862953    2.336455    1.341454
  C     -2.013118    3.214866    1.027156
  H     -2.337811    2.982367    2.044762
  H     -1.766467    4.279701    0.995584
  H     -2.862275    3.053032    0.361010
  B      0.138879   -0.591179    0.132686
  C      1.730952   -1.964901    1.511786
  C      1.609599   -0.647104    0.801248
  C      1.574635   -2.121606    2.818657
  H      1.366633   -1.281189    3.473134
  H      1.653746   -3.097560    3.281188
  C      2.651158   -0.507073   -0.267886
  O      3.223136   -1.400600   -0.834348
  O      2.848494    0.791310   -0.577280
  C      3.786925    1.048333   -1.625820
  H      3.467848    0.565928   -2.549588
  H      3.805505    2.128694   -1.744524
  H      4.773836    0.675840   -1.352818
  H      1.725335    0.169475    1.512025
  H      1.947669   -2.820886    0.881561

 Total Charge           Charge          ....    0
 Multiplicity           Mult            ....    1
 Number of Electrons    NEL             ....  168
 Basis Dimension        Dim             .... 3110

ORBITAL ENERGIES
----------------

  NO   OCC          E(Eh)            E(eV)
   0   2.0000     -68.750368     -1870.7926
   1   2.0000     -20.600485      -560.5677
   2   2.0000     -20.537287      -558.8480
   3   2.0000     -11.374489      -309.5156
   4   2.0000     -11.284688      -307.0720
   5   2.0000     -11.238813      -305.8236
   6   2.0000     -11.222723      -305.3858
   7   2.0000     -11.221963      -305.3651
   8   2.0000     -11.220777      -305.3329
   9   2.0000     -11.214767      -305.1693
  10   2.0000     -11.213294      -305.1292
  11   2.0000     -11.211298      -305.0749
  12   2.0000     -11.211018      -305.0673
  13   2.0000     -11.210333      -305.0487
  14   2.0000     -11.209903      -305.0370
  15   2.0000     -11.193774      -304.5981
  16   2.0000     -11.193013      -304.5774
  17   2.0000     -11.192422      -304.5613
  18   2.0000     -11.190704      -304.5145
  19   2.0000     -11.185151      -304.3634
  20   2.0000      -7.588896      -206.5044
  21   2.0000      -6.098638      -165.9524
  22   2.0000      -4.205107      -114.4268
  23   2.0000      -4.205020      -114.4244
  24   2.0000      -4.204975      -114.4232
  25   2.0000      -1.462098       -39.7857
  26   2.0000      -1.359008       -36.9805
  27   2.0000      -1.115955       -30.3667
  28   2.0000      -1.088848       -29.6291
  29   2.0000      -1.046018       -28.4636
  30   2.0000      -1.041640       -28.3445
  31   2.0000      -1.004645       -27.3378
  32   2.0000      -0.979026       -26.6406
  33   2.0000      -0.953650       -25.9501
  34   2.0000      -0.933803       -25.4101
  35   2.0000      -0.922737       -25.1089
  36   2.0000      -0.921720       -25.0813
  37   2.0000      -0.914754       -24.8917
  38   2.0000      -0.878951       -23.9175
  39   2.0000      -0.797114       -21.6906
  40   2.0000      -0.793933       -21.6040
  41   2.0000      -0.788003       -21.4426
  42   2.0000      -0.752702       -20.4821
  43   2.0000      -0.718282       -19.5454
  44   2.0000      -0.701967       -19.1015
  45   2.0000      -0.680160       -18.5081
  46   2.0000      -0.676078       -18.3970
  47   2.0000      -0.663437       -18.0530
  48   2.0000      -0.643937       -17.5224
  49   2.0000      -0.629740       -17.1361
  50   2.0000      -0.621766       -16.9191
  51   2.0000      -0.609970       -16.5981
  52   2.0000      -0.599725       -16.3193
  53   2.0000      -0.594944       -16.1892
  54   2.0000      -0.582916       -15.8619
  55   2.0000      -0.575636       -15.6639
  56   2.0000      -0.571876       -15.5615
  57   2.0000      -0.568585       -15.4720
  58   2.0000      -0.564171       -15.3519
  59   2.0000      -0.561094       -15.2681
  60   2.0000      -0.558714       -15.2034
  61   2.0000      -0.550334       -14.9754
  62   2.0000      -0.545078       -14.8323
  63   2.0000      -0.536773       -14.6063
  64   2.0000      -0.531894       -14.4736
  65   2.0000      -0.529381       -14.4052
  66   2.0000      -0.523847       -14.2546
  67   2.0000      -0.511041       -13.9061
  68   2.0000      -0.499807       -13.6004
  69   2.0000      -0.489764       -13.3272
  70   2.0000      -0.484985       -13.1971
  71   2.0000      -0.475350       -12.9349
  72   2.0000      -0.465147       -12.6573
  73   2.0000      -0.463768       -12.6198
  74   2.0000      -0.456400       -12.4193
  75   2.0000      -0.445338       -12.1183
  76   2.0000      -0.444080       -12.0840
  77   2.0000      -0.430862       -11.7243
  78   2.0000      -0.430206       -11.7065
  79   2.0000      -0.418670       -11.3926
  80   2.0000      -0.414665       -11.2836
  81   2.0000      -0.406300       -11.0560
  82   2.0000      -0.384572       -10.4647
  83   2.0000      -0.353483        -9.6188
  84   0.0000       0.018602         0.5062
  85   0.0000       0.024032         0.6539
  86   0.0000       0.025261         0.6874
  87   0.0000       0.026723         0.7272
  88   0.0000       0.034157         0.9295

MULLIKEN ATOMIC CHARGES
-----------------------
   0 C :   -0.672616
   1 C :    0.281650
   2 C :    0.986922
   3 H :    0.088433
   4 C :   -0.900125
   5 H :    0.199811
   6 H :   -0.002638
   7 H :    0.446951
   8 H :    0.139949
   9 C :   -0.276775
  10 H :   -0.063288
  11 H :    0.079102
  12 C :   -0.764384
  13 H :    0.355339
  14 H :   -0.074646
  15 C :   -0.842064
  16 H :    0.002808
  17 C :   -0.751372
  18 H :    0.384407
  19 H :    0.107182
  20 H :    0.106615
  21 H :    0.035176
  22 C :   -1.224949
  23 H :   -0.050072
  24 Si:    1.827201
  25 C :   -1.245177
  26 H :    0.220834
  27 H :    0.033759
  28 H :    0.400590
  29 C :   -1.000289
  30 H :    0.142409
  31 H :    0.269501
  32 H :    0.369421
  33 C :   -0.909981
  34 H :    0.211912
  35 H :    0.190244
  36 H :    0.280771
  37 B :    2.567437
  38 C :   -0.347955
  39 C :   -1.055620
  40 C :   -1.087036
  41 H :    0.305355
  42 H :    0.214771
  43 C :    2.366735
  44 O :   -1.255618
  45 O :   -0.833279
  46 C :   -1.105442
  47 H :    0.386094
  48 H :    0.386152
  49 H :    0.360702
  50 H :    0.418225
  51 H :    0.296867
Sum of atomic charges:   -0.0000000

LOEWDIN ATOMIC CHARGES
----------------------
   0 C :    0.590881
   1 C :    0.349433
   2 C :    0.159763
   3 H :   -0.257415
   4 C :    0.578454
   5 H :   -0.266855
   6 H :   -0.249683
   7 H :   -0.316054
   8 H :   -0.318633
   9 C :    0.577497
  10 H :   -0.248345
  11 H :   -0.297465
  12 C :    0.559654
  13 H :   -0.323656
  14 H :   -0.245984
  15 C :    0.596597
  16 H :   -0.253222
  17 C :    0.578343
  18 H :   -0.304603
  19 H :   -0.246863
  20 H :   -0.271471
  21 H :   -0.270369
  22 C :    0.424479
  23 H :   -0.321394
  24 Si:    0.193539
  25 C :    1.027384
  26 H :   -0.336195
  27 H :   -0.316650
  28 H :   -0.365423
  29 C :    1.016171
  30 H :   -0.324684
  31 H :   -0.314901
  32 H :   -0.360201
  33 C :    1.016166
  34 H :   -0.318196
  35 H :   -0.326924
  36 H :   -0.337280
  37 B :   -0.749044
  38 C :    0.346737
  39 C :    0.196428
  40 C :    0.835881
  41 H :   -0.329761
  42 H :   -0.336085
  43 C :   -1.056347
  44 O :    0.780297
  45 O :    0.879203
  46 C :    0.591626
  47 H :   -0.308701
  48 H :   -0.315975
  49 H :   -0.307072
  50 H :   -0.386236
  51 H :   -0.316848

  Mayer bond orders larger than 0.100000
B(  0-C ,  1-C ) :   0.6248 B(  0-C ,  3-H ) :   1.2362 B(  0-C , 17-C ) :   0.8881
B(  0-C , 21-H ) :   1.3891 B(  0-C , 37-B ) :  -0.5312 B(  1-C ,  4-C ) :   0.2137
B(  1-C ,  5-H ) :  -0.1214 B(  1-C ,  8-H ) :   0.9133 B(  1-C ,  9-C ) :  -0.1895
B(  1-C , 21-H ) :  -0.2159 B(  1-C , 22-C ) :  -0.1291 B(  1-C , 24-Si) :   0.2857
B(  1-C , 37-B ) :   0.7427 B(  1-C , 44-O ) :  -0.1940 B(  2-C ,  7-H ) :   1.1267
B(  2-C ,  9-C ) :  -0.1135 B(  2-C , 12-C ) :   0.4640 B(  2-C , 15-C ) :   0.2383
B(  2-C , 16-H ) :  -0.2677 B(  2-C , 17-C ) :   0.2376 B(  2-C , 20-H ) :  -0.3080
B(  2-C , 22-C ) :   0.6846 B(  2-C , 23-H ) :  -0.1131 B(  2-C , 24-Si) :  -0.4050
B(  2-C , 33-C ) :  -0.1038 B(  2-C , 37-B ) :  -0.4437 B(  3-H , 37-B ) :  -0.1482
B(  4-C ,  5-H ) :   1.2535 B(  4-C ,  6-H ) :   1.3757 B(  4-C ,  9-C ) :   0.5564
B(  4-C , 10-H ) :  -0.1422 B(  4-C , 22-C ) :   0.1270 B(  4-C , 37-B ) :  -0.3990
B(  5-H , 37-B ) :  -0.1680 B(  7-H , 12-C ) :  -0.1312 B(  7-H , 15-C ) :  -0.1785
B(  7-H , 22-C ) :  -0.2858 B(  8-H , 37-B ) :  -0.1614 B(  8-H , 39-C ) :   0.2257
B(  8-H , 44-O ) :   0.3795 B(  9-C , 10-H ) :   1.3067 B(  9-C , 11-H ) :   1.3004
B(  9-C , 12-C ) :   0.5910 B(  9-C , 37-B ) :   0.1200 B( 10-H , 12-C ) :  -0.1239
B( 12-C , 13-H ) :   0.9618 B( 12-C , 14-H ) :   1.3636 B( 12-C , 37-B ) :   0.2986
B( 13-H , 22-C ) :  -0.1219 B( 15-C , 16-H ) :   1.3932 B( 15-C , 17-C ) :   0.6363
B( 15-C , 18-H ) :  -0.1033 B( 15-C , 20-H ) :   1.4178 B( 17-C , 18-H ) :   0.9602
B( 17-C , 19-H ) :   1.1766 B( 17-C , 37-B ) :  -0.1322 B( 22-C , 23-H ) :   1.1425
B( 22-C , 24-Si) :   0.5723 B( 22-C , 25-C ) :   0.1653 B( 22-C , 29-C ) :   0.4047
B( 22-C , 37-B ) :   1.2472 B( 22-C , 38-C ) :  -0.1047 B( 23-H , 24-Si) :  -0.1408
B( 23-H , 37-B ) :   0.1441 B( 24-Si, 27-H ) :  -0.1210 B( 24-Si, 29-C ) :   0.7875
B( 24-Si, 30-H ) :  -0.1325 B( 24-Si, 31-H ) :  -0.1307 B( 24-Si, 32-H ) :  -0.1231
B( 24-Si, 33-C ) :   0.8508 B( 24-Si, 34-H ) :  -0.2088 B( 24-Si, 35-H ) :  -0.1714
B( 24-Si, 36-H ) :  -0.2270 B( 24-Si, 37-B ) :   0.2116 B( 24-Si, 39-C ) :  -0.2149
B( 25-C , 26-H ) :   1.0537 B( 25-C , 27-H ) :   1.2551 B( 25-C , 28-H ) :   0.9253
B( 25-C , 29-C ) :   0.1057 B( 28-H , 37-B ) :  -0.1194 B( 29-C , 30-H ) :   1.1525
B( 29-C , 31-H ) :   1.0350 B( 29-C , 32-H ) :   0.8707 B( 29-C , 33-C ) :   0.1283
B( 29-C , 37-B ) :  -0.1688 B( 33-C , 34-H ) :   1.0713 B( 33-C , 35-H ) :   1.1027
B( 33-C , 36-H ) :   1.0037 B( 37-B , 38-C ) :  -0.2651 B( 37-B , 39-C ) :  -0.5227
B( 37-B , 40-C ) :   0.1396 B( 37-B , 41-H ) :  -0.1087 B( 37-B , 44-O ) :   0.2165
B( 37-B , 45-O ) :  -0.4065 B( 37-B , 50-H ) :  -0.1508 B( 37-B , 51-H ) :  -0.1005
B( 38-C , 39-C ) :   0.8940 B( 38-C , 40-C ) :   1.7353 B( 38-C , 42-H ) :  -0.1586
B( 38-C , 51-H ) :   1.0670 B( 39-C , 40-C ) :  -0.3921 B( 39-C , 43-C ) :   1.3715
B( 39-C , 44-O ) :   0.6028 B( 39-C , 45-O ) :   0.4798 B( 39-C , 50-H ) :   0.9745
B( 40-C , 41-H ) :   0.9900 B( 40-C , 42-H ) :   1.1937 B( 40-C , 51-H ) :  -0.1090
B( 43-C , 45-O ) :   0.6932 B( 43-C , 46-C ) :  -0.2223 B( 44-O , 45-O ) :   0.2713
B( 45-O , 46-C ) :   0.8118 B( 46-C , 47-H ) :   0.8853 B( 46-C , 48-H ) :   0.9052
B( 46-C , 49-H ) :   0.9738

MP2 TOTAL ENERGY:    -1129.392716494 Eh
FINAL SINGLE POINT ENERGY     -1129.392716494473

DIPOLE MOMENT
-------------
                                X             Y             Z
Electronic contribution:     12.51040      -5.05386       0.68790
Nuclear contribution   :    -12.94604       5.73423      -0.57204
                        -----------------------------------------
Total Dipole Moment    :     -0.43565       0.68037       0.11587
                        -----------------------------------------
Magnitude (a.u.)       :      0.81616
Magnitude (Debye)      :      2.07452

Rotational constants in cm-1:     0.010937     0.009287     0.007366
Rotational constants in MHz :   327.875934   278.421922   220.829222

                             ****ORCA TERMINATED NORMALLY****
TOTAL RUN TIME: 0 days 23 hours 33 minutes 35 seconds 326 msec
