                         Program Version 4.2.1 -  RELEASE  -
|  1> %pal
|  2>  nprocs 320
|  3> end
|  4> !RI-MP2 aug-cc-pVQZ aug-cc-pVQZ/C TightSCF MORead KDIIS NOSOSCF
|  5> %moinp "02_7TS.gbw"
|  6> %scf
|  7> DIISMaxEq 15
|  8> directresetfreq 10
|  9> end
| 10> %maxcore 4500
| 11> *xyzfile 0 1  02_7TS.xyz
| 12>
| 13>
| 14>                          ****END OF INPUT****

CARTESIAN COORDINATES (ANGSTROEM)
---------------------------------
  O      6.560789    0.957159    1.451347
  C      6.483117    0.052362    0.348972
  C      5.421212   -0.990599    0.720955
  C      4.141645   -0.823066   -0.098642
  C      4.500675    0.952356   -0.712260
  C      5.983812    0.764802   -0.902538
  C      2.899721   -0.920453    0.552518
  C      1.651323    1.451000   -0.401930
  C      2.286027    1.439920   -1.627956
  C      3.646937    1.218985   -1.791852
  C      1.753354   -1.512492   -0.017349
  C      0.587907   -1.763019    0.631991
  C      0.232697    1.446736   -0.275878
  C     -0.402170    1.239319    0.892294
  C     -1.864035    1.273027    1.076025
  O     -2.527928    1.524775   -0.059117
  C     -3.969647    1.729975   -0.029985
  C     -4.216717    3.191328   -0.371344
  C     -3.549258    4.168791    0.587649
  C     -0.550529   -2.320928   -0.086772
  C     -1.888509   -2.366884    0.625959
  C     -2.225517   -3.798930    1.046778
  O     -2.391381    1.099138    2.150144
  C     -4.612933    0.766994   -1.028433
  C     -5.178775   -0.529188   -0.438657
  C     -4.211552   -1.349363    0.414001
  C     -2.935340   -1.731922   -0.310558
  O     -3.265590   -2.581143   -1.397163
  O     -0.468395   -2.701158   -1.251916
  H      5.798971   -2.003552    0.569311
  H      5.208807   -0.884443    1.785211
  H      7.462335   -0.408032    0.187768
  H      6.498246    1.720092   -1.040939
  H      6.178015    0.155708   -1.791054
  H      4.269835    1.459852    0.219113
  H      2.227982    1.518845    0.510505
  H     -0.361215    1.556769   -1.177607
  H      0.149188    1.099129    1.813765
  H     -4.303279    1.526044    0.988183
  H     -3.877241    0.546594   -1.805855
  H     -5.429561    1.292585   -1.530912
  H     -6.052495   -0.284140    0.174717
  H     -5.539489   -1.149142   -1.262448
  H     -3.940707   -0.790623    1.314003
  H     -4.718872   -2.260123    0.743708
  H     -2.481271   -0.818359   -0.708787
  H     -1.823976   -1.738660    1.518508
  H      1.795061   -1.791724   -1.067241
  H      2.852320   -0.629533    1.599488
  H      4.174299   -1.336510   -1.056306
  H     -3.878831    3.372581   -1.397098
  H     -5.299965    3.345461   -0.366070
  H     -2.462391    4.072643    0.557881
  H     -3.871720    3.994303    1.616832
  H     -3.796775    5.199457    0.326892
  H     -1.449419   -4.203543    1.700350
  H     -2.314742   -4.444774    0.173942
  H     -3.170720   -3.828883    1.590539
  H     -2.423506   -2.822654   -1.809619
  H      7.263718    1.592672    1.290447
  H      0.469890   -1.531887    1.683834
  H      4.023191    1.064960   -2.798779
  H      1.663681    1.486224   -2.516578

 Total Charge           Charge          ....    0
 Multiplicity           Mult            ....    1
 Number of Electrons    NEL             ....  218
 Basis Dimension        Dim             .... 3884

ORBITAL ENERGIES
----------------

  NO   OCC          E(Eh)            E(eV)
   0   2.0000     -20.587197      -560.2061
   1   2.0000     -20.574323      -559.8558
   2   2.0000     -20.533389      -558.7419
   3   2.0000     -20.519221      -558.3564
   4   2.0000     -20.516059      -558.2704
   5   2.0000     -11.375779      -309.5507
   6   2.0000     -11.309268      -307.7408
   7   2.0000     -11.301126      -307.5193
   8   2.0000     -11.281007      -306.9718
   9   2.0000     -11.268895      -306.6422
  10   2.0000     -11.268373      -306.6280
  11   2.0000     -11.261253      -306.4343
  12   2.0000     -11.259153      -306.3771
  13   2.0000     -11.255989      -306.2910
  14   2.0000     -11.253987      -306.2366
  15   2.0000     -11.252087      -306.1848
  16   2.0000     -11.250853      -306.1513
  17   2.0000     -11.250113      -306.1311
  18   2.0000     -11.249183      -306.1058
  19   2.0000     -11.248088      -306.0760
  20   2.0000     -11.246439      -306.0312
  21   2.0000     -11.220763      -305.3325
  22   2.0000     -11.216900      -305.2274
  23   2.0000     -11.214474      -305.1614
  24   2.0000     -11.212406      -305.1051
  25   2.0000     -11.209382      -305.0228
  26   2.0000     -11.205486      -304.9168
  27   2.0000     -11.204422      -304.8878
  28   2.0000     -11.198216      -304.7189
  29   2.0000      -1.452574       -39.5266
  30   2.0000      -1.382096       -37.6087
  31   2.0000      -1.364703       -37.1355
  32   2.0000      -1.353014       -36.8174
  33   2.0000      -1.329586       -36.1799
  34   2.0000      -1.161013       -31.5928
  35   2.0000      -1.126098       -30.6427
  36   2.0000      -1.103012       -30.0145
  37   2.0000      -1.094772       -29.7903
  38   2.0000      -1.072529       -29.1850
  39   2.0000      -1.068408       -29.0729
  40   2.0000      -1.038877       -28.2693
  41   2.0000      -1.026946       -27.9446
  42   2.0000      -1.001537       -27.2532
  43   2.0000      -0.975304       -26.5394
  44   2.0000      -0.958928       -26.0937
  45   2.0000      -0.922467       -25.1016
  46   2.0000      -0.904339       -24.6083
  47   2.0000      -0.887063       -24.1382
  48   2.0000      -0.853237       -23.2177
  49   2.0000      -0.836129       -22.7522
  50   2.0000      -0.825480       -22.4625
  51   2.0000      -0.808678       -22.0053
  52   2.0000      -0.792617       -21.5682
  53   2.0000      -0.773717       -21.0539
  54   2.0000      -0.766586       -20.8599
  55   2.0000      -0.760926       -20.7059
  56   2.0000      -0.748699       -20.3731
  57   2.0000      -0.721693       -19.6383
  58   2.0000      -0.715211       -19.4619
  59   2.0000      -0.707485       -19.2516
  60   2.0000      -0.682084       -18.5604
  61   2.0000      -0.681434       -18.5427
  62   2.0000      -0.673277       -18.3208
  63   2.0000      -0.665488       -18.1088
  64   2.0000      -0.657415       -17.8892
  65   2.0000      -0.653542       -17.7838
  66   2.0000      -0.646125       -17.5820
  67   2.0000      -0.642627       -17.4868
  68   2.0000      -0.616698       -16.7812
  69   2.0000      -0.613825       -16.7030
  70   2.0000      -0.607274       -16.5248
  71   2.0000      -0.602843       -16.4042
  72   2.0000      -0.592845       -16.1321
  73   2.0000      -0.588743       -16.0205
  74   2.0000      -0.584334       -15.9005
  75   2.0000      -0.577795       -15.7226
  76   2.0000      -0.566756       -15.4222
  77   2.0000      -0.561219       -15.2715
  78   2.0000      -0.558909       -15.2087
  79   2.0000      -0.550678       -14.9847
  80   2.0000      -0.546238       -14.8639
  81   2.0000      -0.543582       -14.7916
  82   2.0000      -0.538240       -14.6463
  83   2.0000      -0.533229       -14.5099
  84   2.0000      -0.530756       -14.4426
  85   2.0000      -0.526045       -14.3144
  86   2.0000      -0.519296       -14.1308
  87   2.0000      -0.517432       -14.0800
  88   2.0000      -0.514700       -14.0057
  89   2.0000      -0.509236       -13.8570
  90   2.0000      -0.507975       -13.8227
  91   2.0000      -0.504299       -13.7227
  92   2.0000      -0.494551       -13.4574
  93   2.0000      -0.490760       -13.3543
  94   2.0000      -0.488580       -13.2949
  95   2.0000      -0.481988       -13.1156
  96   2.0000      -0.475714       -12.9448
  97   2.0000      -0.460223       -12.5233
  98   2.0000      -0.459048       -12.4913
  99   2.0000      -0.456119       -12.4116
 100   2.0000      -0.449679       -12.2364
 101   2.0000      -0.444510       -12.0957
 102   2.0000      -0.432628       -11.7724
 103   2.0000      -0.429610       -11.6903
 104   2.0000      -0.406186       -11.0529
 105   2.0000      -0.403853       -10.9894
 106   2.0000      -0.385332       -10.4854
 107   2.0000      -0.333912        -9.0862
 108   2.0000      -0.253310        -6.8929
 109   0.0000      -0.001664        -0.0453
 110   0.0000       0.012376         0.3368
 111   0.0000       0.021907         0.5961
 112   0.0000       0.022932         0.6240
 113   0.0000       0.025256         0.6872

MULLIKEN ATOMIC CHARGES
-----------------------
   0 O :   -1.030805
   1 C :    0.504131
   2 C :   -0.733937
   3 C :    0.016146
   4 C :    0.842296
   5 C :   -1.013814
   6 C :    0.041956
   7 C :   -0.240211
   8 C :   -0.098415
   9 C :   -0.697857
  10 C :   -0.034854
  11 C :   -0.463959
  12 C :    0.175890
  13 C :   -0.581615
  14 C :    2.294218
  15 O :   -1.001090
  16 C :    0.999011
  17 C :   -0.761689
  18 C :   -0.999224
  19 C :    1.470551
  20 C :    0.348669
  21 C :   -1.290725
  22 O :   -1.324719
  23 C :   -0.476639
  24 C :   -0.766126
  25 C :   -0.544138
  26 C :    1.352951
  27 O :   -1.430263
  28 O :   -1.205622
  29 H :    0.269058
  30 H :    0.155197
  31 H :    0.283236
  32 H :    0.337959
  33 H :    0.156715
  34 H :    0.278730
  35 H :    0.224054
  36 H :    0.097152
  37 H :    0.065966
  38 H :    0.332296
  39 H :    0.177112
  40 H :    0.212524
  41 H :    0.115307
  42 H :    0.211182
  43 H :    0.264078
  44 H :    0.083366
  45 H :   -0.131630
  46 H :    0.191897
  47 H :    0.028353
  48 H :    0.173811
  49 H :    0.253055
  50 H :    0.271357
  51 H :    0.234921
  52 H :    0.230228
  53 H :    0.144894
  54 H :    0.259782
  55 H :    0.277482
  56 H :    0.285084
  57 H :    0.253576
  58 H :    0.310059
  59 H :    0.300590
  60 H :    0.108318
  61 H :    0.084658
  62 H :    0.109515
Sum of atomic charges:   -0.0000000

LOEWDIN ATOMIC CHARGES
----------------------
   0 O :    1.307652
   1 C :   -0.174534
   2 C :    0.534957
   3 C :    0.245178
   4 C :    0.194812
   5 C :    0.515945
   6 C :    0.378018
   7 C :    0.334707
   8 C :    0.382098
   9 C :    0.403499
  10 C :    0.334959
  11 C :    0.337286
  12 C :    0.349852
  13 C :    0.306347
  14 C :   -1.093872
  15 O :    0.894586
  16 C :   -0.177684
  17 C :    0.510314
  18 C :    0.934439
  19 C :   -0.654431
  20 C :    0.071189
  21 C :    0.941869
  22 O :    0.758567
  23 C :    0.545278
  24 C :    0.569878
  25 C :    0.520548
  26 C :   -0.242104
  27 O :    1.331713
  28 O :    0.819901
  29 H :   -0.250012
  30 H :   -0.302905
  31 H :   -0.269074
  32 H :   -0.252230
  33 H :   -0.259957
  34 H :   -0.318397
  35 H :   -0.360211
  36 H :   -0.331834
  37 H :   -0.344972
  38 H :   -0.365154
  39 H :   -0.279460
  40 H :   -0.279836
  41 H :   -0.258228
  42 H :   -0.267122
  43 H :   -0.311277
  44 H :   -0.265615
  45 H :   -0.367208
  46 H :   -0.325630
  47 H :   -0.333804
  48 H :   -0.291448
  49 H :   -0.290727
  50 H :   -0.264162
  51 H :   -0.270141
  52 H :   -0.294911
  53 H :   -0.274317
  54 H :   -0.276360
  55 H :   -0.264242
  56 H :   -0.284638
  57 H :   -0.276063
  58 H :   -0.927532
  59 H :   -0.769460
  60 H :   -0.337617
  61 H :   -0.298571
  62 H :   -0.317856

  Mayer bond orders larger than 0.100000
B(  0-O ,  1-C ) :   0.1817 B(  0-O ,  2-C ) :   0.1237 B(  0-O ,  5-C ) :   0.1673
B(  0-O , 59-H ) :   0.9363 B(  1-C ,  2-C ) :   1.0301 B(  1-C ,  4-C ) :  -0.1900
B(  1-C ,  5-C ) :   1.1511 B(  1-C , 31-H ) :   0.9984 B(  2-C ,  3-C ) :   0.5080
B(  2-C , 29-H ) :   0.9891 B(  2-C , 30-H ) :   1.1153 B(  3-C ,  4-C ) :   0.4324
B(  3-C ,  6-C ) :   0.8887 B(  3-C , 10-C ) :  -0.2851 B(  3-C , 11-C ) :   0.1050
B(  3-C , 30-H ) :  -0.1175 B(  3-C , 49-H ) :   1.0540 B(  4-C ,  8-C ) :  -0.2844
B(  4-C ,  9-C ) :   0.7352 B(  4-C , 32-H ) :  -0.2433 B(  4-C , 33-H ) :  -0.2323
B(  4-C , 34-H ) :   1.0650 B(  5-C , 32-H ) :   1.0353 B(  5-C , 33-H ) :   1.1990
B(  6-C ,  9-C ) :   0.1182 B(  6-C , 10-C ) :   0.8251 B(  6-C , 11-C ) :  -0.7480
B(  6-C , 30-H ) :   0.1138 B(  6-C , 48-H ) :   1.0950 B(  7-C ,  8-C ) :   1.5074
B(  7-C ,  9-C ) :  -0.2841 B(  7-C , 11-C ) :   0.1750 B(  7-C , 13-C ) :  -0.8540
B(  7-C , 14-C ) :   0.1411 B(  7-C , 34-H ) :  -0.1189 B(  7-C , 35-H ) :   1.2309
B(  7-C , 36-H ) :  -0.1557 B(  8-C ,  9-C ) :   1.1407 B(  8-C , 12-C ) :  -1.0152
B(  8-C , 35-H ) :   0.1433 B(  8-C , 61-H ) :  -0.2300 B(  8-C , 62-H ) :   1.2039
B(  9-C , 61-H ) :   1.2563 B(  9-C , 62-H ) :  -0.2093 B( 10-C , 11-C ) :   0.7928
B( 10-C , 19-C ) :  -0.3941 B( 10-C , 28-O ) :  -0.2070 B( 10-C , 47-H ) :   1.1829
B( 11-C , 19-C ) :   0.6050 B( 11-C , 20-C ) :  -0.5348 B( 11-C , 28-O ) :   0.2435
B( 11-C , 47-H ) :  -0.1713 B( 11-C , 60-H ) :   1.2098 B( 12-C , 13-C ) :   0.9680
B( 12-C , 14-C ) :  -0.6623 B( 12-C , 15-O ) :   0.1698 B( 12-C , 35-H ) :  -0.2563
B( 12-C , 36-H ) :   1.3321 B( 13-C , 14-C ) :   1.6722 B( 13-C , 15-O ) :  -0.1342
B( 13-C , 22-O ) :   0.2940 B( 13-C , 35-H ) :  -0.1012 B( 13-C , 37-H ) :   1.2219
B( 14-C , 15-O ) :   0.6238 B( 14-C , 16-C ) :   0.1238 B( 14-C , 22-O ) :  -0.2123
B( 15-O , 16-C ) :   0.5365 B( 15-O , 22-O ) :   0.5492 B( 15-O , 26-C ) :  -0.1319
B( 15-O , 39-H ) :   0.1917 B( 15-O , 45-H ) :   0.2019 B( 16-C , 18-C ) :  -0.2217
B( 16-C , 23-C ) :   0.4485 B( 16-C , 24-C ) :  -0.1046 B( 16-C , 38-H ) :   1.0028
B( 16-C , 50-H ) :  -0.1781 B( 17-C , 18-C ) :   1.0773 B( 17-C , 23-C ) :   0.1139
B( 17-C , 50-H ) :   1.0020 B( 17-C , 51-H ) :   1.0331 B( 17-C , 54-H ) :  -0.1068
B( 18-C , 52-H ) :   0.8984 B( 18-C , 53-H ) :   1.0799 B( 18-C , 54-H ) :   1.0437
B( 19-C , 20-C ) :   0.9941 B( 19-C , 21-C ) :   0.2484 B( 20-C , 26-C ) :   0.9105
B( 20-C , 46-H ) :   1.0741 B( 20-C , 55-H ) :  -0.1843 B( 20-C , 56-H ) :  -0.3000
B( 20-C , 57-H ) :  -0.1771 B( 21-C , 26-C ) :   0.1283 B( 21-C , 46-H ) :  -0.1476
B( 21-C , 55-H ) :   1.1035 B( 21-C , 56-H ) :   1.0524 B( 21-C , 57-H ) :   1.1128
B( 23-C , 24-C ) :   0.8753 B( 23-C , 39-H ) :   1.0187 B( 23-C , 40-H ) :   1.0002
B( 23-C , 42-H ) :  -0.1103 B( 24-C , 25-C ) :   0.6863 B( 24-C , 26-C ) :  -0.1601
B( 24-C , 41-H ) :   1.1701 B( 24-C , 42-H ) :   1.0600 B( 25-C , 26-C ) :   0.5426
B( 25-C , 41-H ) :  -0.1699 B( 25-C , 43-H ) :   1.0052 B( 25-C , 44-H ) :   1.1449
B( 26-C , 27-O ) :  -1.0891 B( 26-C , 28-O ) :   0.2186 B( 26-C , 45-H ) :   1.2551
B( 26-C , 58-H ) :  -0.1776 B( 27-O , 45-H ) :   0.4981 B( 27-O , 58-H ) :   0.9879
B( 28-O , 45-H ) :  -0.1157 B( 28-O , 47-H ) :   0.1361

MP2 TOTAL ENERGY:    -1308.944874643 Eh
FINAL SINGLE POINT ENERGY     -1308.944874643103

DIPOLE MOMENT
-------------
                                X             Y             Z
Electronic contribution:     10.21912      -2.77301      -0.42531
Nuclear contribution   :     -7.31673       4.11984       0.05064
                        -----------------------------------------
Total Dipole Moment    :      2.90239       1.34683      -0.37467
                        -----------------------------------------
Magnitude (a.u.)       :      3.22152
Magnitude (Debye)      :      8.18846

Rotational constants in cm-1:     0.009033     0.002910     0.002456
Rotational constants in MHz :   270.793179    87.229962    73.640558

                             ****ORCA TERMINATED NORMALLY****
TOTAL RUN TIME: 0 days 11 hours 9 minutes 14 seconds 299 msec
