                         Program Version 4.2.1 -  RELEASE  -
|  1> %pal
|  2>  nprocs 32
|  3> end
|  4> !RI-MP2 aug-cc-pVQZ aug-cc-pVQZ/C TightSCF
|  5> %maxcore 4500
|  6> *xyzfile 1 1  05_38P1.xyz
|  7>
|  8>
|  9>                          ****END OF INPUT****

CARTESIAN COORDINATES (ANGSTROEM)
---------------------------------
  C      0.019010   -0.507931   -0.755808
  C      1.314225   -0.181239   -0.309660
  C      2.115269    0.617672   -1.148623
  C      1.805525   -0.631798    0.933318
  C      3.389907    0.959700   -0.750124
  H      1.728626    0.959213   -2.101999
  C      3.078380   -0.283574    1.317599
  H      1.179366   -1.245409    1.567899
  C      3.865411    0.509169    0.477874
  H      4.015757    1.572322   -1.385094
  H      3.472738   -0.620819    2.267016
  O     -0.767208   -1.229342   -0.075608
  C     -2.145824   -1.489681   -0.539301
  H     -2.291474   -2.547182   -0.333894
  H     -2.164528   -1.312140   -1.616653
  H      4.867433    0.778267    0.790164
  C     -3.104811   -0.604893    0.219060
  H     -3.012589   -0.808235    1.289537
  H     -4.109787   -0.929676   -0.069535
  C     -2.940629    0.885628   -0.064530
  H     -1.941465    1.217721    0.240385
  H     -3.018326    1.061184   -1.143552
  C     -3.981058    1.728796    0.664479
  H     -3.910956    1.592535    1.745796
  H     -3.844681    2.789591    0.452856
  H     -4.992646    1.455240    0.357748
  H     -0.332224   -0.138975   -1.721506

 Total Charge           Charge          ....    1
 Multiplicity           Mult            ....    1
 Number of Electrons    NEL             ....   88
 Basis Dimension        Dim             .... 1650

ORBITAL ENERGIES
----------------

  NO   OCC          E(Eh)            E(eV)
   0   2.0000     -20.808317      -566.2231
   1   2.0000     -11.550246      -314.2982
   2   2.0000     -11.454473      -311.6921
   3   2.0000     -11.419231      -310.7331
   4   2.0000     -11.412290      -310.5442
   5   2.0000     -11.410235      -310.4883
   6   2.0000     -11.409584      -310.4706
   7   2.0000     -11.384956      -309.8004
   8   2.0000     -11.384557      -309.7895
   9   2.0000     -11.362081      -309.1779
  10   2.0000     -11.349409      -308.8331
  11   2.0000     -11.319344      -308.0150
  12   2.0000      -1.650349       -44.9083
  13   2.0000      -1.332587       -36.2615
  14   2.0000      -1.246493       -33.9188
  15   2.0000      -1.209387       -32.9091
  16   2.0000      -1.186246       -32.2794
  17   2.0000      -1.142107       -31.0783
  18   2.0000      -1.078914       -29.3587
  19   2.0000      -1.022374       -27.8202
  20   2.0000      -0.996153       -27.1067
  21   2.0000      -0.974627       -26.5210
  22   2.0000      -0.937438       -25.5090
  23   2.0000      -0.896624       -24.3984
  24   2.0000      -0.879511       -23.9327
  25   2.0000      -0.837064       -22.7777
  26   2.0000      -0.826001       -22.4766
  27   2.0000      -0.784006       -21.3339
  28   2.0000      -0.780479       -21.2379
  29   2.0000      -0.762306       -20.7434
  30   2.0000      -0.755037       -20.5456
  31   2.0000      -0.740545       -20.1513
  32   2.0000      -0.709463       -19.3055
  33   2.0000      -0.703302       -19.1378
  34   2.0000      -0.675209       -18.3734
  35   2.0000      -0.667467       -18.1627
  36   2.0000      -0.659206       -17.9379
  37   2.0000      -0.655373       -17.8336
  38   2.0000      -0.650211       -17.6931
  39   2.0000      -0.610664       -16.6170
  40   2.0000      -0.597731       -16.2651
  41   2.0000      -0.597361       -16.2550
  42   2.0000      -0.513183       -13.9644
  43   2.0000      -0.500411       -13.6169
  44   0.0000      -0.133115        -3.6222
  45   0.0000      -0.072833        -1.9819
  46   0.0000      -0.061333        -1.6690
  47   0.0000      -0.058585        -1.5942
  48   0.0000      -0.051618        -1.4046

MULLIKEN ATOMIC CHARGES
-----------------------
   0 C :    0.669935
   1 C :    0.188900
   2 C :   -0.343143
   3 C :   -0.295600
   4 C :   -0.324585
   5 H :    0.272555
   6 C :   -0.342807
   7 H :    0.355086
   8 C :   -0.332734
   9 H :    0.285875
  10 H :    0.300442
  11 O :   -0.787132
  12 C :   -0.215970
  13 H :    0.372842
  14 H :    0.225105
  15 H :    0.339916
  16 C :   -0.436490
  17 H :    0.248584
  18 H :    0.329220
  19 C :   -0.394920
  20 H :    0.322513
  21 H :    0.210718
  22 C :   -0.825528
  23 H :    0.244875
  24 H :    0.260735
  25 H :    0.223449
  26 H :    0.448157
Sum of atomic charges:    1.0000000

LOEWDIN ATOMIC CHARGES
----------------------
   0 C :    0.040000
   1 C :   -0.074252
   2 C :    0.367285
   3 C :    0.372753
   4 C :    0.403378
   5 H :   -0.292700
   6 C :    0.404563
   7 H :   -0.298594
   8 C :    0.400960
   9 H :   -0.303620
  10 H :   -0.302887
  11 O :    0.973712
  12 C :    0.336874
  13 H :   -0.267459
  14 H :   -0.289216
  15 H :   -0.284836
  16 C :    0.528308
  17 H :   -0.259201
  18 H :   -0.260314
  19 C :    0.502273
  20 H :   -0.283861
  21 H :   -0.265729
  22 C :    0.949458
  23 H :   -0.273278
  24 H :   -0.272208
  25 H :   -0.273471
  26 H :   -0.277940

  Mayer bond orders larger than 0.100000
B(  0-C ,  1-C ) :   0.8165 B(  0-C ,  2-C ) :  -0.4598 B(  0-C ,  3-C ) :  -0.4059
B(  0-C , 11-O ) :   0.8873 B(  0-C , 26-H ) :   0.8451 B(  1-C ,  2-C ) :   0.8576
B(  1-C ,  3-C ) :   1.0466 B(  1-C ,  4-C ) :  -0.4629 B(  1-C ,  5-H ) :  -0.1102
B(  1-C ,  6-C ) :  -0.4398 B(  1-C , 11-O ) :   0.1157 B(  1-C , 26-H ) :  -0.1595
B(  2-C ,  3-C ) :   0.1520 B(  2-C ,  4-C ) :   1.3281 B(  2-C ,  5-H ) :   0.9946
B(  2-C ,  6-C ) :   0.1344 B(  2-C ,  8-C ) :   0.1621 B(  2-C ,  9-H ) :  -0.1371
B(  3-C ,  6-C ) :   1.2646 B(  3-C ,  7-H ) :   0.8513 B(  3-C , 10-H ) :  -0.1284
B(  4-C ,  8-C ) :   1.1771 B(  4-C ,  9-H ) :   1.1125 B(  6-C ,  8-C ) :   1.1433
B(  6-C , 10-H ) :   1.0845 B(  8-C , 15-H ) :   1.0056 B( 11-O , 12-C ) :   0.6598
B( 12-C , 13-H ) :   0.8647 B( 12-C , 14-H ) :   0.9519 B( 12-C , 16-C ) :   1.1136
B( 16-C , 17-H ) :   0.8551 B( 16-C , 18-H ) :   0.8710 B( 16-C , 19-C ) :   0.8598
B( 19-C , 20-H ) :   0.7978 B( 19-C , 21-H ) :   0.9305 B( 19-C , 22-C ) :   0.8732
B( 19-C , 24-H ) :  -0.1045 B( 22-C , 23-H ) :   0.9416 B( 22-C , 24-H ) :   1.0200
B( 22-C , 25-H ) :   1.0019

MP2 TOTAL ENERGY:     -502.267661774 Eh
FINAL SINGLE POINT ENERGY      -502.267661773857

DIPOLE MOMENT
-------------
                                X             Y             Z
Electronic contribution:     15.10455      -4.25417      -1.08631
Nuclear contribution   :    -14.71084       3.89534       0.34607
                        -----------------------------------------
Total Dipole Moment    :      0.39372      -0.35883      -0.74025
                        -----------------------------------------
Magnitude (a.u.)       :      0.91200
Magnitude (Debye)      :      2.31811

Rotational constants in cm-1:     0.064723     0.013160     0.012587
Rotational constants in MHz :  1940.361059   394.531700   377.337116

                             ****ORCA TERMINATED NORMALLY****
TOTAL RUN TIME: 0 days 1 hours 53 minutes 4 seconds 783 msec
