                         Program Version 4.2.1 -  RELEASE  -
|  1> %pal
|  2>  nprocs 32
|  3> end
|  4> !RI-MP2 aug-cc-pVQZ aug-cc-pVQZ/C TightSCF
|  5> %maxcore 4500
|  6> *xyzfile 0 1  10_50P.xyz
|  7>
|  8>
|  9>                          ****END OF INPUT****

CARTESIAN COORDINATES (ANGSTROEM)
---------------------------------
  C      1.722265    0.707465   -0.000027
  C      0.389276    0.615791   -0.000025
  C     -0.389276   -0.615791    0.000008
  C     -1.722265   -0.707465    0.000022
  C      2.716364   -0.410547    0.000000
  H      2.252408   -1.395635    0.000134
  H      3.366313   -0.345410   -0.877639
  H      3.366455   -0.345239    0.877520
  C     -2.716364    0.410547    0.000015
  H     -2.252409    1.395635   -0.000234
  H     -3.366543    0.345177   -0.877434
  H     -3.366225    0.345473    0.877725
  H      2.151886    1.705695   -0.000056
  H     -0.167975    1.546002   -0.000046
  H      0.167975   -1.546002    0.000021
  H     -2.151886   -1.705694    0.000053

 Total Charge           Charge          ....    0
 Multiplicity           Mult            ....    1
 Number of Electrons    NEL             ....   46
 Basis Dimension        Dim             ....  940

ORBITAL ENERGIES
----------------

  NO   OCC          E(Eh)            E(eV)
   0   2.0000     -11.228842      -305.5523
   1   2.0000     -11.228835      -305.5521
   2   2.0000     -11.222370      -305.3762
   3   2.0000     -11.221533      -305.3534
   4   2.0000     -11.219614      -305.3012
   5   2.0000     -11.219614      -305.3012
   6   2.0000      -1.099527       -29.9197
   7   2.0000      -1.045703       -28.4550
   8   2.0000      -0.960112       -26.1260
   9   2.0000      -0.911595       -24.8057
  10   2.0000      -0.787223       -21.4214
  11   2.0000      -0.703432       -19.1413
  12   2.0000      -0.666157       -18.1271
  13   2.0000      -0.605568       -16.4783
  14   2.0000      -0.584783       -15.9127
  15   2.0000      -0.569151       -15.4874
  16   2.0000      -0.564976       -15.3738
  17   2.0000      -0.523045       -14.2328
  18   2.0000      -0.521414       -14.1884
  19   2.0000      -0.520784       -14.1712
  20   2.0000      -0.462467       -12.5844
  21   2.0000      -0.422556       -11.4983
  22   2.0000      -0.303463        -8.2576
  23   0.0000       0.025773         0.7013
  24   0.0000       0.029030         0.7899
  25   0.0000       0.031953         0.8695
  26   0.0000       0.039998         1.0884
  27   0.0000       0.043171         1.1748

MULLIKEN ATOMIC CHARGES
-----------------------
   0 C :   -0.174617
   1 C :   -0.509896
   2 C :   -0.509896
   3 C :   -0.174613
   4 C :   -0.702909
   5 H :    0.273969
   6 H :    0.223572
   7 H :    0.223585
   8 C :   -0.702903
   9 H :    0.273971
  10 H :    0.223578
  11 H :    0.223571
  12 H :    0.324562
  13 H :    0.341739
  14 H :    0.341734
  15 H :    0.324556
Sum of atomic charges:   -0.0000000

LOEWDIN ATOMIC CHARGES
----------------------
   0 C :    0.384445
   1 C :    0.348666
   2 C :    0.348666
   3 C :    0.384446
   4 C :    0.890453
   5 H :   -0.336102
   6 H :   -0.289962
   7 H :   -0.289966
   8 C :    0.890453
   9 H :   -0.336102
  10 H :   -0.289968
  11 H :   -0.289959
  12 H :   -0.330636
  13 H :   -0.376898
  14 H :   -0.376898
  15 H :   -0.330637

  Mayer bond orders larger than 0.100000
B(  0-C ,  1-C ) :   1.5898 B(  0-C ,  2-C ) :  -0.2358 B(  0-C ,  4-C ) :   0.8214
B(  0-C , 12-H ) :   0.9372 B(  1-C ,  2-C ) :   0.8670 B(  1-C ,  3-C ) :  -0.2358
B(  1-C , 12-H ) :  -0.1393 B(  1-C , 13-H ) :   0.8996 B(  2-C ,  3-C ) :   1.5898
B(  2-C , 14-H ) :   0.8996 B(  2-C , 15-H ) :  -0.1393 B(  3-C ,  8-C ) :   0.8214
B(  3-C , 15-H ) :   0.9372 B(  4-C ,  5-H ) :   0.9425 B(  4-C ,  6-H ) :   0.9901
B(  4-C ,  7-H ) :   0.9901 B(  8-C ,  9-H ) :   0.9425 B(  8-C , 10-H ) :   0.9901
B(  8-C , 11-H ) :   0.9901

MP2 TOTAL ENERGY:     -234.161189282 Eh
FINAL SINGLE POINT ENERGY      -234.161189281565

DIPOLE MOMENT
-------------
                                X             Y             Z
Electronic contribution:      0.00000      -0.00000      -0.00004
Nuclear contribution   :     -0.00000       0.00000       0.00005
                        -----------------------------------------
Total Dipole Moment    :      0.00000       0.00000       0.00001
                        -----------------------------------------
Magnitude (a.u.)       :      0.00001
Magnitude (Debye)      :      0.00002

Rotational constants in cm-1:     0.389165     0.052578     0.047124
Rotational constants in MHz : 11666.881579  1576.246365  1412.743453

                             ****ORCA TERMINATED NORMALLY****
TOTAL RUN TIME: 0 days 0 hours 16 minutes 10 seconds 546 msec
