                         Program Version 4.2.1 -  RELEASE  -
|  1> %pal
|  2>  nprocs 32
|  3> end
|  4> !RI-MP2 aug-cc-pVQZ aug-cc-pVQZ/C TightSCF
|  5> %maxcore 4500
|  6> *xyzfile 0 1  01_46R2.xyz
|  7>
|  8>
|  9>                          ****END OF INPUT****

CARTESIAN COORDINATES (ANGSTROEM)
---------------------------------
  C      3.721433   -0.356417   -0.141190
  H      4.468336   -0.501599    0.634371
  H      3.442051    0.694290   -0.216972
  H      4.095557   -0.699005   -1.105408
  O      2.591216   -1.136035    0.262365
  C      1.537277   -1.089920   -0.557321
  O      1.525059   -0.459497   -1.584360
  C      0.378248   -1.892311   -0.070802
  C      0.482379   -2.720895    0.962328
  C     -0.901118   -1.672710   -0.812690
  H     -1.525899   -2.565175   -0.842514
  H     -0.729341   -1.303732   -1.821500
  S     -1.971055   -0.448826   -0.000401
  C     -0.919608    0.979802    0.172826
  C     -0.819143    1.873681   -0.882311
  C     -0.183007    1.133748    1.338168
  C      0.055694    2.942260   -0.770187
  H     -1.421204    1.729245   -1.769919
  C      0.690762    2.206603    1.437605
  H     -0.306757    0.426287    2.147290
  C      0.811229    3.104104    0.384480
  H      0.148299    3.649420   -1.584682
  H      1.271800    2.345152    2.340889
  H      1.494157    3.941170    0.466671
  O     -3.040577   -0.135220   -0.939614
  O     -2.272039   -0.951473    1.336120
  H     -0.373237   -3.288309    1.306616
  H      1.418963   -2.836400    1.490043

 Total Charge           Charge          ....    0
 Multiplicity           Mult            ....    1
 Number of Electrons    NEL             ....  126
 Basis Dimension        Dim             .... 1836

ORBITAL ENERGIES
----------------

  NO   OCC          E(Eh)            E(eV)
   0   2.0000     -92.169096     -2508.0486
   1   2.0000     -20.613478      -560.9212
   2   2.0000     -20.554058      -559.3044
   3   2.0000     -20.538554      -558.8825
   4   2.0000     -20.538070      -558.8693
   5   2.0000     -11.393110      -310.0223
   6   2.0000     -11.294824      -307.3478
   7   2.0000     -11.278012      -306.8903
   8   2.0000     -11.272573      -306.7423
   9   2.0000     -11.271772      -306.7205
  10   2.0000     -11.268288      -306.6257
  11   2.0000     -11.261665      -306.4455
  12   2.0000     -11.260517      -306.4143
  13   2.0000     -11.259563      -306.3883
  14   2.0000     -11.252771      -306.2035
  15   2.0000     -11.251176      -306.1601
  16   2.0000      -9.139008      -248.6851
  17   2.0000      -6.824255      -185.6974
  18   2.0000      -6.823764      -185.6840
  19   2.0000      -6.823336      -185.6724
  20   2.0000      -1.479080       -40.2478
  21   2.0000      -1.438743       -39.1502
  22   2.0000      -1.374971       -37.4149
  23   2.0000      -1.329050       -36.1653
  24   2.0000      -1.183507       -32.2049
  25   2.0000      -1.134826       -30.8802
  26   2.0000      -1.059620       -28.8337
  27   2.0000      -1.041865       -28.3506
  28   2.0000      -1.013147       -27.5691
  29   2.0000      -0.979787       -26.6614
  30   2.0000      -0.895392       -24.3648
  31   2.0000      -0.865369       -23.5479
  32   2.0000      -0.853218       -23.2173
  33   2.0000      -0.804089       -21.8804
  34   2.0000      -0.773238       -21.0409
  35   2.0000      -0.732250       -19.9255
  36   2.0000      -0.718193       -19.5430
  37   2.0000      -0.696297       -18.9472
  38   2.0000      -0.690007       -18.7760
  39   2.0000      -0.676318       -18.4036
  40   2.0000      -0.662752       -18.0344
  41   2.0000      -0.659050       -17.9337
  42   2.0000      -0.639831       -17.4107
  43   2.0000      -0.632219       -17.2036
  44   2.0000      -0.623634       -16.9700
  45   2.0000      -0.618186       -16.8217
  46   2.0000      -0.613204       -16.6861
  47   2.0000      -0.573854       -15.6154
  48   2.0000      -0.572065       -15.5667
  49   2.0000      -0.560892       -15.2627
  50   2.0000      -0.542413       -14.7598
  51   2.0000      -0.539276       -14.6744
  52   2.0000      -0.529174       -14.3996
  53   2.0000      -0.519580       -14.1385
  54   2.0000      -0.494701       -13.4615
  55   2.0000      -0.492157       -13.3923
  56   2.0000      -0.477163       -12.9843
  57   2.0000      -0.471364       -12.8265
  58   2.0000      -0.464886       -12.6502
  59   2.0000      -0.448554       -12.2058
  60   2.0000      -0.393265       -10.7013
  61   2.0000      -0.368416       -10.0251
  62   2.0000      -0.357970        -9.7409
  63   0.0000       0.016818         0.4577
  64   0.0000       0.024071         0.6550
  65   0.0000       0.027471         0.7475
  66   0.0000       0.029709         0.8084
  67   0.0000       0.036524         0.9939

MULLIKEN ATOMIC CHARGES
-----------------------
   0 C :   -0.908389
   1 H :    0.451620
   2 H :    0.410581
   3 H :    0.338740
   4 O :   -0.849871
   5 C :    1.744551
   6 O :   -1.016108
   7 C :   -0.132022
   8 C :   -0.716008
   9 C :   -0.572520
  10 H :    0.356101
  11 H :    0.295707
  12 S :    3.111137
  13 C :   -0.121903
  14 C :   -0.464465
  15 C :   -0.424214
  16 C :   -0.194088
  17 H :    0.377650
  18 C :   -0.293280
  19 H :    0.357405
  20 C :   -0.273006
  21 H :    0.242663
  22 H :    0.175537
  23 H :    0.326255
  24 O :   -1.503012
  25 O :   -1.444997
  26 H :    0.387347
  27 H :    0.338588
Sum of atomic charges:    0.0000000

LOEWDIN ATOMIC CHARGES
----------------------
   0 C :    0.589041
   1 H :   -0.316247
   2 H :   -0.317783
   3 H :   -0.309359
   4 O :    0.846993
   5 C :   -1.128167
   6 O :    0.759350
   7 C :   -0.171766
   8 C :    0.806774
   9 C :    0.361813
  10 H :   -0.329230
  11 H :   -0.366576
  12 S :   -0.178791
  13 C :   -0.254396
  14 C :    0.284033
  15 C :    0.272203
  16 C :    0.359135
  17 H :   -0.328475
  18 C :    0.354002
  19 H :   -0.339065
  20 C :    0.347237
  21 H :   -0.313022
  22 H :   -0.313300
  23 H :   -0.311858
  24 O :    0.323188
  25 O :    0.330301
  26 H :   -0.312653
  27 H :   -0.343383

  Mayer bond orders larger than 0.100000
B(  0-C ,  1-H ) :   0.8291 B(  0-C ,  2-H ) :   0.8230 B(  0-C ,  3-H ) :   0.9342
B(  0-C ,  4-O ) :   0.9513 B(  0-C ,  5-C ) :  -0.1812 B(  4-O ,  5-C ) :   0.6348
B(  4-O ,  6-O ) :   0.1399 B(  5-C ,  6-O ) :   0.9550 B(  5-C ,  7-C ) :   1.0092
B(  6-O ,  7-C ) :   0.1519 B(  7-C ,  8-C ) :   1.5179 B(  7-C ,  9-C ) :   0.7871
B(  7-C , 10-H ) :  -0.1159 B(  8-C , 26-H ) :   0.9649 B(  8-C , 27-H ) :   0.9459
B(  9-C , 10-H ) :   0.9622 B(  9-C , 11-H ) :   0.8266 B(  9-C , 12-S ) :   0.9327
B( 12-S , 13-C ) :   0.8911 B( 12-S , 14-C ) :  -0.1677 B( 12-S , 15-C ) :  -0.1272
B( 12-S , 24-O ) :   0.5078 B( 12-S , 25-O ) :   0.6837 B( 13-C , 14-C ) :   0.9971
B( 13-C , 15-C ) :   1.1154 B( 13-C , 16-C ) :  -0.3082 B( 13-C , 18-C ) :  -0.2393
B( 13-C , 20-C ) :   0.1547 B( 13-C , 25-O ) :  -0.1356 B( 14-C , 16-C ) :   1.3029
B( 14-C , 17-H ) :   0.8629 B( 14-C , 18-C ) :   0.1198 B( 14-C , 20-C ) :   0.1480
B( 14-C , 21-H ) :  -0.1482 B( 15-C , 16-C ) :   0.1309 B( 15-C , 18-C ) :   1.3147
B( 15-C , 19-H ) :   0.8632 B( 16-C , 20-C ) :   1.1196 B( 16-C , 21-H ) :   1.1676
B( 18-C , 20-C ) :   1.1365 B( 18-C , 22-H ) :   1.1838 B( 20-C , 21-H ) :  -0.1054
B( 20-C , 23-H ) :   1.0247 B( 24-O , 25-O ) :   0.1399

MP2 TOTAL ENERGY:    -1123.915069160 Eh
FINAL SINGLE POINT ENERGY     -1123.915069160066

DIPOLE MOMENT
-------------
                                X             Y             Z
Electronic contribution:     -9.41001      -1.43014      -0.69824
Nuclear contribution   :     11.84273       1.53926       1.01472
                        -----------------------------------------
Total Dipole Moment    :      2.43272       0.10912       0.31647
                        -----------------------------------------
Magnitude (a.u.)       :      2.45565
Magnitude (Debye)      :      6.24176

Rotational constants in cm-1:     0.020123     0.016885     0.011700
Rotational constants in MHz :   603.258196   506.189444   350.742221

                             ****ORCA TERMINATED NORMALLY****
TOTAL RUN TIME: 0 days 3 hours 16 minutes 32 seconds 861 msec
