                         Program Version 4.2.1 -  RELEASE  -
|  1> %pal
|  2>  nprocs 32
|  3> end
|  4> !RI-MP2 aug-cc-pVQZ aug-cc-pVQZ/C TightSCF
|  5> %maxcore 4500
|  6> *xyzfile 0 2  01_46R1.xyz
|  7>
|  8>
|  9>                          ****END OF INPUT****

CARTESIAN COORDINATES (ANGSTROEM)
---------------------------------
  C     -1.153848   -0.847181    1.138372
  H     -1.586719   -0.092741    1.799772
  H     -1.067639   -1.759624    1.736650
  C     -2.125926   -1.110269   -0.026849
  H     -1.802353   -1.996043   -0.583298
  H     -3.111717   -1.333727    0.390479
  C     -2.243603    0.046337   -1.009489
  H     -3.012954   -0.182177   -1.749311
  H     -1.299475    0.173972   -1.550709
  C      0.207560   -0.391459    0.725600
  C      1.871339    1.184145   -0.607499
  C      2.550427   -0.165488   -0.446215
  H      1.383139    1.262742   -1.578899
  H      2.576238    2.006834   -0.489853
  H      3.133873   -0.428919   -1.328252
  H      3.197887   -0.176521    0.430582
  O     -2.628681    1.264499   -0.392401
  H     -1.837573    1.685820   -0.039534
  S      1.243515   -1.415923   -0.244368
  S      0.620301    1.317666    0.710497

 Total Charge           Charge          ....    0
 Multiplicity           Mult            ....    2
 Number of Electrons    NEL             ....   87
 Basis Dimension        Dim             .... 1234

ORBITAL ENERGIES
----------------
                 SPIN UP ORBITALS
  NO   OCC          E(Eh)            E(eV)
   0   1.0000     -91.970484     -2502.6441
   1   1.0000     -91.966981     -2502.5488
   2   1.0000     -20.540591      -558.9379
   3   1.0000     -11.284383      -307.0637
   4   1.0000     -11.281070      -306.9735
   5   1.0000     -11.279422      -306.9287
   6   1.0000     -11.265586      -306.5522
   7   1.0000     -11.236618      -305.7639
   8   1.0000     -11.222144      -305.3701
   9   1.0000      -8.972466      -244.1532
  10   1.0000      -8.968871      -244.0554
  11   1.0000      -6.653977      -181.0639
  12   1.0000      -6.653424      -181.0489
  13   1.0000      -6.652077      -181.0122
  14   1.0000      -6.650479      -180.9687
  15   1.0000      -6.649856      -180.9518
  16   1.0000      -6.648542      -180.9160
  17   1.0000      -1.347766       -36.6746
  18   1.0000      -1.162280       -31.6273
  19   1.0000      -1.078729       -29.3537
  20   1.0000      -1.005492       -27.3608
  21   1.0000      -0.998664       -27.1750
  22   1.0000      -0.921423       -25.0732
  23   1.0000      -0.823415       -22.4063
  24   1.0000      -0.819851       -22.3093
  25   1.0000      -0.726850       -19.7786
  26   1.0000      -0.694375       -18.8949
  27   1.0000      -0.667811       -18.1721
  28   1.0000      -0.638178       -17.3657
  29   1.0000      -0.633811       -17.2469
  30   1.0000      -0.612675       -16.6717
  31   1.0000      -0.573270       -15.5995
  32   1.0000      -0.565079       -15.3766
  33   1.0000      -0.557655       -15.1746
  34   1.0000      -0.536303       -14.5935
  35   1.0000      -0.514849       -14.0097
  36   1.0000      -0.487837       -13.2747
  37   1.0000      -0.482809       -13.1379
  38   1.0000      -0.479605       -13.0507
  39   1.0000      -0.463979       -12.6255
  40   1.0000      -0.435613       -11.8536
  41   1.0000      -0.426944       -11.6177
  42   1.0000      -0.376313       -10.2400
  43   1.0000      -0.279003        -7.5921
  44   0.0000       0.021211         0.5772
  45   0.0000       0.029837         0.8119
  46   0.0000       0.031719         0.8631
  47   0.0000       0.034182         0.9301
  48   0.0000       0.042493         1.1563

                 SPIN DOWN ORBITALS
  NO   OCC          E(Eh)            E(eV)
   0   1.0000     -91.970274     -2502.6384
   1   1.0000     -91.966719     -2502.5416
   2   1.0000     -20.540573      -558.9374
   3   1.0000     -11.280870      -306.9681
   4   1.0000     -11.279372      -306.9273
   5   1.0000     -11.265732      -306.5561
   6   1.0000     -11.258706      -306.3650
   7   1.0000     -11.239376      -305.8390
   8   1.0000     -11.220073      -305.3137
   9   1.0000      -8.972164      -244.1450
  10   1.0000      -8.968559      -244.0469
  11   1.0000      -6.654729      -181.0844
  12   1.0000      -6.653324      -181.0462
  13   1.0000      -6.651096      -180.9855
  14   1.0000      -6.650337      -180.9649
  15   1.0000      -6.649687      -180.9472
  16   1.0000      -6.646562      -180.8622
  17   1.0000      -1.347678       -36.6722
  18   1.0000      -1.145239       -31.1635
  19   1.0000      -1.069049       -29.0903
  20   1.0000      -0.995189       -27.0805
  21   1.0000      -0.986377       -26.8407
  22   1.0000      -0.920440       -25.0464
  23   1.0000      -0.820788       -22.3348
  24   1.0000      -0.812936       -22.1211
  25   1.0000      -0.701881       -19.0992
  26   1.0000      -0.682798       -18.5799
  27   1.0000      -0.664183       -18.0733
  28   1.0000      -0.636047       -17.3077
  29   1.0000      -0.631610       -17.1870
  30   1.0000      -0.601705       -16.3732
  31   1.0000      -0.565329       -15.3834
  32   1.0000      -0.560614       -15.2551
  33   1.0000      -0.548288       -14.9197
  34   1.0000      -0.518555       -14.1106
  35   1.0000      -0.505726       -13.7615
  36   1.0000      -0.484807       -13.1923
  37   1.0000      -0.478812       -13.0291
  38   1.0000      -0.466767       -12.7014
  39   1.0000      -0.437585       -11.9073
  40   1.0000      -0.429829       -11.6962
  41   1.0000      -0.399771       -10.8783
  42   1.0000      -0.351544        -9.5660
  43   0.0000       0.021248         0.5782
  44   0.0000       0.029839         0.8119
  45   0.0000       0.031649         0.8612
  46   0.0000       0.034270         0.9325
  47   0.0000       0.042512         1.1568

MULLIKEN ATOMIC CHARGES AND SPIN POPULATIONS
--------------------------------------------
   0 C :   -0.209428   -0.175338
   1 H :    0.262949    0.009268
   2 H :    0.318017    0.034195
   3 C :   -0.544172    0.062150
   4 H :    0.255669   -0.006404
   5 H :    0.289766   -0.000856
   6 C :   -0.048619    0.001241
   7 H :    0.335848   -0.000067
   8 H :    0.215734    0.000117
   9 C :   -0.331007    1.026118
  10 C :   -0.626796    0.010244
  11 C :   -0.598625   -0.004520
  12 H :    0.322946    0.000676
  13 H :    0.376814   -0.003312
  14 H :    0.398509   -0.001519
  15 H :    0.243542    0.002100
  16 O :   -0.937094   -0.000035
  17 H :    0.378056   -0.001537
  18 S :   -0.034788    0.035007
  19 S :   -0.067320    0.012473
Sum of atomic charges         :   -0.0000000

LOEWDIN ATOMIC CHARGES AND SPIN POPULATIONS
-------------------------------------------
   0 C :    0.309478    0.107714
   1 H :   -0.330150    0.006070
   2 H :   -0.302540    0.015254
   3 C :    0.477251    0.022951
   4 H :   -0.289651    0.003743
   5 H :   -0.272828    0.005875
   6 C :    0.159790    0.004673
   7 H :   -0.305231    0.000236
   8 H :   -0.323875    0.000077
   9 C :   -0.850889    0.478211
  10 C :    0.098500    0.015630
  11 C :    0.080816    0.013092
  12 H :   -0.357911    0.004658
  13 H :   -0.354815    0.002427
  14 H :   -0.356901    0.002491
  15 H :   -0.359853    0.002084
  16 O :    1.279044    0.000292
  17 H :   -0.919313    0.004209
  18 S :    1.296987    0.159378
  19 S :    1.322092    0.150934

  Mayer bond orders larger than 0.100000
B(  0-C ,  1-H ) :   0.9920 B(  0-C ,  2-H ) :   0.8989 B(  0-C ,  3-C ) :   0.8693
B(  0-C ,  9-C ) :   0.5199 B(  3-C ,  4-H ) :   0.9065 B(  3-C ,  5-H ) :   0.8773
B(  3-C ,  6-C ) :   0.9879 B(  6-C ,  7-H ) :   0.8880 B(  6-C ,  8-H ) :   0.9387
B(  6-C , 16-O ) :   0.5800 B(  9-C , 18-S ) :   0.9541 B(  9-C , 19-S ) :   0.9868
B( 10-C , 11-C ) :   1.0803 B( 10-C , 12-H ) :   0.8329 B( 10-C , 13-H ) :   0.8111
B( 10-C , 19-S ) :   0.9656 B( 11-C , 14-H ) :   0.7596 B( 11-C , 15-H ) :   0.9367
B( 11-C , 18-S ) :   0.9890 B( 16-O , 17-H ) :   0.8317

MP2 TOTAL ENERGY:    -1105.386676319 Eh
FINAL SINGLE POINT ENERGY     -1105.386676318979

DIPOLE MOMENT
-------------
                                X             Y             Z
Electronic contribution:      4.69309       0.68197       2.64549
Nuclear contribution   :     -3.52882      -0.81802      -2.98512
                        -----------------------------------------
Total Dipole Moment    :      1.16427      -0.13604      -0.33963
                        -----------------------------------------
Magnitude (a.u.)       :      1.22040
Magnitude (Debye)      :      3.10202

Rotational constants in cm-1:     0.059422     0.029973     0.024445
Rotational constants in MHz :  1781.428658   898.560608   732.846774

                             ****ORCA TERMINATED NORMALLY****
TOTAL RUN TIME: 0 days 1 hours 14 minutes 46 seconds 967 msec
