                         Program Version 4.2.1 -  RELEASE  -
|  1> %pal
|  2>  nprocs 32
|  3> end
|  4> !RI-MP2 aug-cc-pVQZ aug-cc-pVQZ/C TightSCF
|  5> %maxcore 4500
|  6> *xyzfile 0 1  02_10R.xyz
|  7>
|  8>
|  9>                          ****END OF INPUT****

CARTESIAN COORDINATES (ANGSTROEM)
---------------------------------
  C      2.910393   -0.281075   -0.691851
  C      4.089179   -0.387817   -0.065942
  C     -4.254581    0.803958    0.279346
  C     -3.072288    0.515197    0.815199
  C      0.707428   -1.219164   -1.275763
  C      1.888890   -1.312466   -0.664657
  C     -2.712167   -0.756134    1.514499
  H     -3.571125   -1.432556    1.474078
  C     -0.364449   -2.261412   -1.252454
  H     -0.562849   -2.594018   -2.278097
  H     -0.016221   -3.141549   -0.700364
  C     -1.689199   -1.767397   -0.646212
  C     -1.507113   -1.421353    0.833205
  H     -0.642423   -0.758980    0.941088
  H     -1.260614   -2.337546    1.383571
  C     -4.505204    2.103769   -0.395275
  O     -3.645260    2.950250   -0.508050
  H     -1.972860   -0.852353   -1.179686
  C     -2.790674   -2.801584   -0.863280
  H     -2.888406   -3.051621   -1.922211
  H     -3.761928   -2.440559   -0.520737
  H     -2.567461   -3.726093   -0.321369
  C      5.155578    0.613126   -0.049741
  C      6.276904    0.338533    0.631376
  H      6.319393   -0.625340    1.134041
  C      7.497054    1.184500    0.800021
  H      8.381247    0.662455    0.421390
  H      7.682708    1.383247    1.860084
  H      7.431734    2.143044    0.288086
  C      4.917362    1.891077   -0.804118
  H      5.758803    2.576444   -0.737959
  H      4.033664    2.406884   -0.419273
  H      4.734597    1.685518   -1.862178
  C     -5.896487    2.312221   -0.939150
  H     -5.971044    3.290982   -1.407924
  H     -6.629921    2.230003   -0.132328
  H     -6.133054    1.532642   -1.668607
  C     -2.395924   -0.471276    2.986819
  H     -3.253247   -0.030418    3.498525
  H     -1.555750    0.222404    3.076451
  H     -2.124908   -1.394318    3.504350
  H      0.480262   -0.311640   -1.834029
  H      2.121436   -2.213481   -0.099714
  H      4.293859   -1.299730    0.490725
  H      2.673176    0.615370   -1.257054
  H     -2.292135    1.272184    0.741075
  H     -5.073077    0.090810    0.320325

 Total Charge           Charge          ....    0
 Multiplicity           Mult            ....    1
 Number of Electrons    NEL             ....  144
 Basis Dimension        Dim             .... 2808

ORBITAL ENERGIES
----------------

  NO   OCC          E(Eh)            E(eV)
   0   2.0000     -20.529618      -558.6393
   1   2.0000     -11.323168      -308.1191
   2   2.0000     -11.249905      -306.1255
   3   2.0000     -11.237228      -305.7805
   4   2.0000     -11.231538      -305.6257
   5   2.0000     -11.227989      -305.5291
   6   2.0000     -11.226410      -305.4862
   7   2.0000     -11.225705      -305.4670
   8   2.0000     -11.225206      -305.4534
   9   2.0000     -11.225061      -305.4494
  10   2.0000     -11.224893      -305.4449
  11   2.0000     -11.223781      -305.4146
  12   2.0000     -11.223149      -305.3974
  13   2.0000     -11.222276      -305.3736
  14   2.0000     -11.219754      -305.3050
  15   2.0000     -11.219256      -305.2915
  16   2.0000     -11.219070      -305.2864
  17   2.0000     -11.215222      -305.1817
  18   2.0000     -11.213508      -305.1351
  19   2.0000      -1.376664       -37.4609
  20   2.0000      -1.130320       -30.7576
  21   2.0000      -1.117969       -30.4215
  22   2.0000      -1.094893       -29.7936
  23   2.0000      -1.065509       -28.9940
  24   2.0000      -1.037608       -28.2348
  25   2.0000      -1.011975       -27.5372
  26   2.0000      -0.993908       -27.0456
  27   2.0000      -0.973274       -26.4841
  28   2.0000      -0.929602       -25.2958
  29   2.0000      -0.928190       -25.2573
  30   2.0000      -0.897803       -24.4305
  31   2.0000      -0.864071       -23.5126
  32   2.0000      -0.806291       -21.9403
  33   2.0000      -0.781629       -21.2692
  34   2.0000      -0.759216       -20.6593
  35   2.0000      -0.749764       -20.4021
  36   2.0000      -0.730930       -19.8896
  37   2.0000      -0.708708       -19.2849
  38   2.0000      -0.665516       -18.1096
  39   2.0000      -0.658293       -17.9131
  40   2.0000      -0.654579       -17.8120
  41   2.0000      -0.635497       -17.2928
  42   2.0000      -0.628037       -17.0897
  43   2.0000      -0.601668       -16.3722
  44   2.0000      -0.599169       -16.3042
  45   2.0000      -0.595492       -16.2042
  46   2.0000      -0.591672       -16.1002
  47   2.0000      -0.582307       -15.8454
  48   2.0000      -0.578441       -15.7402
  49   2.0000      -0.562983       -15.3196
  50   2.0000      -0.555877       -15.1262
  51   2.0000      -0.553561       -15.0632
  52   2.0000      -0.552676       -15.0391
  53   2.0000      -0.541603       -14.7378
  54   2.0000      -0.541239       -14.7279
  55   2.0000      -0.534736       -14.5509
  56   2.0000      -0.521831       -14.1997
  57   2.0000      -0.514583       -14.0025
  58   2.0000      -0.513630       -13.9766
  59   2.0000      -0.501295       -13.6409
  60   2.0000      -0.499558       -13.5937
  61   2.0000      -0.493907       -13.4399
  62   2.0000      -0.485268       -13.2048
  63   2.0000      -0.472607       -12.8603
  64   2.0000      -0.464625       -12.6431
  65   2.0000      -0.460844       -12.5402
  66   2.0000      -0.453843       -12.3497
  67   2.0000      -0.440670       -11.9912
  68   2.0000      -0.408060       -11.1039
  69   2.0000      -0.369580       -10.0568
  70   2.0000      -0.367851       -10.0097
  71   2.0000      -0.279155        -7.5962
  72   0.0000       0.019928         0.5423
  73   0.0000       0.023126         0.6293
  74   0.0000       0.025996         0.7074
  75   0.0000       0.027711         0.7541
  76   0.0000       0.032099         0.8735

MULLIKEN ATOMIC CHARGES
-----------------------
   0 C :   -0.092812
   1 C :   -0.344320
   2 C :   -0.758518
   3 C :    0.057258
   4 C :   -0.321850
   5 C :   -0.231652
   6 C :    0.320610
   7 H :    0.255529
   8 C :   -0.522076
   9 H :    0.345657
  10 H :    0.169173
  11 C :    0.637981
  12 C :   -0.426641
  13 H :    0.384581
  14 H :    0.147465
  15 C :    0.906260
  16 O :   -0.876254
  17 H :    0.137542
  18 C :   -1.201330
  19 H :    0.195039
  20 H :    0.279835
  21 H :    0.197381
  22 C :    0.190740
  23 C :   -0.421775
  24 H :    0.170409
  25 C :   -0.802826
  26 H :    0.232411
  27 H :    0.229753
  28 H :    0.268615
  29 C :   -0.717317
  30 H :    0.328853
  31 H :    0.179926
  32 H :    0.179344
  33 C :   -0.944164
  34 H :    0.331966
  35 H :    0.272779
  36 H :    0.259800
  37 C :   -1.121889
  38 H :    0.288875
  39 H :    0.217945
  40 H :    0.214026
  41 H :    0.181083
  42 H :    0.237106
  43 H :    0.177344
  44 H :    0.274936
  45 H :    0.320971
  46 H :    0.192229
Sum of atomic charges:    0.0000000

LOEWDIN ATOMIC CHARGES
----------------------
   0 C :    0.357375
   1 C :    0.344610
   2 C :    0.357740
   3 C :    0.348684
   4 C :    0.392029
   5 C :    0.372613
   6 C :    0.103954
   7 H :   -0.308589
   8 C :    0.495874
   9 H :   -0.273288
  10 H :   -0.286104
  11 C :    0.120888
  12 C :    0.508786
  13 H :   -0.283232
  14 H :   -0.254046
  15 C :   -0.688500
  16 O :    0.725806
  17 H :   -0.281845
  18 C :    0.939401
  19 H :   -0.268370
  20 H :   -0.286310
  21 H :   -0.260492
  22 C :   -0.042542
  23 C :    0.387547
  24 H :   -0.339288
  25 C :    0.908695
  26 H :   -0.286651
  27 H :   -0.286638
  28 H :   -0.334146
  29 C :    0.884942
  30 H :   -0.327982
  31 H :   -0.278341
  32 H :   -0.278250
  33 C :    0.875458
  34 H :   -0.318208
  35 H :   -0.294643
  36 H :   -0.294967
  37 C :    0.942422
  38 H :   -0.266613
  39 H :   -0.271126
  40 H :   -0.269538
  41 H :   -0.300890
  42 H :   -0.331661
  43 H :   -0.353105
  44 H :   -0.360357
  45 H :   -0.306089
  46 H :   -0.335013

  Mayer bond orders larger than 0.100000
B(  0-C ,  1-C ) :   1.2616 B(  0-C ,  4-C ) :  -0.6092 B(  0-C ,  5-C ) :   0.7872
B(  0-C , 22-C ) :  -0.7988 B(  0-C , 44-H ) :   0.9118 B(  1-C ,  5-C ) :  -0.8959
B(  1-C , 22-C ) :   1.1314 B(  1-C , 23-C ) :  -0.4627 B(  1-C , 43-H ) :   1.0352
B(  2-C ,  3-C ) :   0.9240 B(  2-C ,  6-C ) :  -0.4468 B(  2-C , 15-C ) :   0.9919
B(  2-C , 16-O ) :   0.4252 B(  2-C , 33-C ) :  -0.1388 B(  2-C , 46-H ) :   1.0033
B(  3-C ,  6-C ) :   0.8128 B(  3-C , 15-C ) :  -0.3397 B(  3-C , 45-H ) :   0.9276
B(  4-C ,  5-C ) :   1.4399 B(  4-C ,  8-C ) :   1.3274 B(  4-C , 10-H ) :   0.1140
B(  4-C , 11-C ) :  -0.2052 B(  4-C , 12-C ) :   0.1006 B(  4-C , 41-H ) :   1.0068
B(  5-C ,  8-C ) :  -0.3507 B(  5-C , 12-C ) :   0.1006 B(  5-C , 42-H ) :   1.0250
B(  6-C ,  7-H ) :   0.9956 B(  6-C , 12-C ) :   0.6462 B(  6-C , 37-C ) :   0.4002
B(  6-C , 38-H ) :  -0.1310 B(  6-C , 39-H ) :  -0.1893 B(  6-C , 40-H ) :  -0.1274
B(  8-C ,  9-H ) :   0.9086 B(  8-C , 10-H ) :   1.0390 B(  8-C , 11-C ) :   0.4039
B(  8-C , 18-C ) :   0.1985 B(  9-H , 11-C ) :  -0.1035 B( 10-H , 11-C ) :  -0.1652
B( 11-C , 12-C ) :   0.7453 B( 11-C , 17-H ) :   0.9541 B( 11-C , 18-C ) :   0.2205
B( 11-C , 19-H ) :  -0.1699 B( 11-C , 20-H ) :  -0.1633 B( 11-C , 21-H ) :  -0.1476
B( 12-C , 13-H ) :   0.7763 B( 12-C , 14-H ) :   0.9798 B( 14-H , 17-H ) :   0.1135
B( 15-C , 16-O ) :   0.8176 B( 15-C , 33-C ) :   1.0476 B( 18-C , 19-H ) :   1.1353
B( 18-C , 20-H ) :   1.0399 B( 18-C , 21-H ) :   1.0999 B( 22-C , 23-C ) :   1.4408
B( 22-C , 24-H ) :  -0.1125 B( 22-C , 25-C ) :  -0.1750 B( 22-C , 29-C ) :   0.6996
B( 23-C , 24-H ) :   1.1058 B( 23-C , 25-C ) :   0.8287 B( 23-C , 26-H ) :  -0.1100
B( 23-C , 27-H ) :  -0.1054 B( 25-C , 26-H ) :   1.0260 B( 25-C , 27-H ) :   1.0247
B( 25-C , 28-H ) :   0.9554 B( 29-C , 30-H ) :   0.9545 B( 29-C , 31-H ) :   1.0122
B( 29-C , 32-H ) :   1.0227 B( 33-C , 34-H ) :   0.9731 B( 33-C , 35-H ) :   0.9444
B( 33-C , 36-H ) :   0.9472 B( 37-C , 38-H ) :   1.0563 B( 37-C , 39-H ) :   1.0462
B( 37-C , 40-H ) :   1.1062

MP2 TOTAL ENERGY:     -776.525175112 Eh
FINAL SINGLE POINT ENERGY      -776.525175111579

DIPOLE MOMENT
-------------
                                X             Y             Z
Electronic contribution:     -4.11163       5.26150      -2.57146
Nuclear contribution   :      3.71402      -6.28459       2.89140
                        -----------------------------------------
Total Dipole Moment    :     -0.39761      -1.02309       0.31993
                        -----------------------------------------
Magnitude (a.u.)       :      1.14331
Magnitude (Debye)      :      2.90607

Rotational constants in cm-1:     0.016360     0.003749     0.003454
Rotational constants in MHz :   490.452234   112.401570   103.535514

                             ****ORCA TERMINATED NORMALLY****
TOTAL RUN TIME: 0 days 6 hours 56 minutes 32 seconds 527 msec
