                         Program Version 4.2.1 -  RELEASE  -
|  1> %pal
|  2>  nprocs 32
|  3> end
|  4> !RI-MP2 aug-cc-pVQZ aug-cc-pVQZ/C TightSCF
|  5> %maxcore 4500
|  6> *xyzfile 0 2  04_2TS.xyz
|  7>
|  8>
|  9>                          ****END OF INPUT****

CARTESIAN COORDINATES (ANGSTROEM)
---------------------------------
  C     -0.155432   -0.641101   -0.523781
  C     -1.429829   -0.227938    0.119312
  O     -1.529619    0.092235    1.277145
  N      0.758646   -1.176969    0.382901
  H      0.279733    0.463538   -0.904765
  H     -0.278754   -1.226256   -1.434313
  C      2.096135   -1.458091   -0.096887
  H      2.672103   -1.931060    0.697323
  H      2.612570   -0.547734   -0.421678
  H      2.043099   -2.150472   -0.939470
  H      0.710464   -0.737896    1.293856
  O     -2.450369   -0.173641   -0.747994
  O      1.361982    1.666357    0.467609
  O      0.884018    1.668155   -0.829227
  H      0.673831    2.123909    0.973567
  H     -3.216913    0.182698   -0.276943

 Total Charge           Charge          ....    0
 Multiplicity           Mult            ....    2
 Number of Electrons    NEL             ....   65
 Basis Dimension        Dim             .... 1008

ORBITAL ENERGIES
----------------
                 SPIN UP ORBITALS
  NO   OCC          E(Eh)            E(eV)
   0   1.0000     -20.684102      -562.8430
   1   1.0000     -20.655765      -562.0719
   2   1.0000     -20.620166      -561.1032
   3   1.0000     -20.555069      -559.3319
   4   1.0000     -15.552018      -423.1919
   5   1.0000     -11.391982      -309.9916
   6   1.0000     -11.282405      -307.0098
   7   1.0000     -11.247745      -306.0667
   8   1.0000      -1.540725       -41.9253
   9   1.0000      -1.478512       -40.2324
  10   1.0000      -1.374480       -37.4015
  11   1.0000      -1.234829       -33.6014
  12   1.0000      -1.219140       -33.1745
  13   1.0000      -1.015203       -27.6251
  14   1.0000      -0.899927       -24.4883
  15   1.0000      -0.824578       -22.4379
  16   1.0000      -0.774503       -21.0753
  17   1.0000      -0.754431       -20.5291
  18   1.0000      -0.726364       -19.7654
  19   1.0000      -0.716371       -19.4934
  20   1.0000      -0.661574       -18.0023
  21   1.0000      -0.651226       -17.7208
  22   1.0000      -0.630257       -17.1502
  23   1.0000      -0.621290       -16.9061
  24   1.0000      -0.599085       -16.3019
  25   1.0000      -0.564793       -15.3688
  26   1.0000      -0.548970       -14.9382
  27   1.0000      -0.532492       -14.4898
  28   1.0000      -0.530204       -14.4276
  29   1.0000      -0.513027       -13.9602
  30   1.0000      -0.487222       -13.2580
  31   1.0000      -0.467242       -12.7143
  32   1.0000      -0.350141        -9.5278
  33   0.0000       0.024574         0.6687
  34   0.0000       0.031449         0.8558
  35   0.0000       0.033402         0.9089
  36   0.0000       0.042502         1.1565
  37   0.0000       0.048232         1.3125

                 SPIN DOWN ORBITALS
  NO   OCC          E(Eh)            E(eV)
   0   1.0000     -20.653093      -561.9992
   1   1.0000     -20.646960      -561.8324
   2   1.0000     -20.620079      -561.1009
   3   1.0000     -20.553418      -559.2869
   4   1.0000     -15.549005      -423.1099
   5   1.0000     -11.392954      -310.0180
   6   1.0000     -11.273628      -306.7710
   7   1.0000     -11.247855      -306.0697
   8   1.0000      -1.488741       -40.5107
   9   1.0000      -1.477392       -40.2019
  10   1.0000      -1.371744       -37.3270
  11   1.0000      -1.224510       -33.3206
  12   1.0000      -1.139046       -30.9950
  13   1.0000      -0.999693       -27.2030
  14   1.0000      -0.897545       -24.4234
  15   1.0000      -0.809707       -22.0332
  16   1.0000      -0.742930       -20.2162
  17   1.0000      -0.725586       -19.7442
  18   1.0000      -0.715137       -19.4599
  19   1.0000      -0.679914       -18.5014
  20   1.0000      -0.640550       -17.4302
  21   1.0000      -0.626569       -17.0498
  22   1.0000      -0.621148       -16.9023
  23   1.0000      -0.606664       -16.5082
  24   1.0000      -0.576569       -15.6892
  25   1.0000      -0.560744       -15.2586
  26   1.0000      -0.532299       -14.4846
  27   1.0000      -0.507602       -13.8126
  28   1.0000      -0.499266       -13.5857
  29   1.0000      -0.483925       -13.1683
  30   1.0000      -0.462288       -12.5795
  31   1.0000      -0.355039        -9.6611
  32   0.0000       0.024639         0.6704
  33   0.0000       0.031420         0.8550
  34   0.0000       0.033415         0.9093
  35   0.0000       0.041846         1.1387
  36   0.0000       0.046345         1.2611

MULLIKEN ATOMIC CHARGES AND SPIN POPULATIONS
--------------------------------------------
   0 C :   -0.141928    0.401312
   1 C :    1.076041   -0.043010
   2 O :   -0.836811    0.039155
   3 N :   -0.479001    0.047550
   4 H :    0.359865   -0.257893
   5 H :    0.412005   -0.009603
   6 C :   -0.890115   -0.008967
   7 H :    0.344124    0.000682
   8 H :    0.284150    0.007730
   9 H :    0.275723    0.000513
  10 H :    0.316052   -0.004991
  11 O :   -0.744724    0.001598
  12 O :   -0.406002   -0.014445
  13 O :   -0.304966    0.845842
  14 H :    0.390416   -0.004876
  15 H :    0.345171   -0.000598
Sum of atomic charges         :    0.0000000

LOEWDIN ATOMIC CHARGES AND SPIN POPULATIONS
-------------------------------------------
   0 C :    0.153477    0.107645
   1 C :   -1.041449    0.015627
   2 O :    0.731639    0.023460
   3 N :    0.830692    0.062733
   4 H :   -0.910430    0.046741
   5 H :   -0.281164    0.028110
   6 C :    0.775113    0.004608
   7 H :   -0.290422    0.000345
   8 H :   -0.304928    0.000148
   9 H :   -0.295553   -0.000012
  10 H :   -0.556109    0.007730
  11 O :    1.266619    0.000555
  12 O :    0.885500    0.082823
  13 O :    0.704503    0.622684
  14 H :   -0.862156   -0.002726
  15 H :   -0.805332   -0.000470

  Mayer bond orders larger than 0.100000
B(  0-C ,  1-C ) :   1.1319 B(  0-C ,  3-N ) :   0.9346 B(  0-C ,  4-H ) :   0.5805
B(  0-C ,  5-H ) :   0.8333 B(  0-C , 11-O ) :   0.1369 B(  1-C ,  2-O ) :   1.3902
B(  1-C , 11-O ) :   0.6882 B(  3-N ,  6-C ) :   0.8730 B(  3-N , 10-H ) :   0.8625
B(  6-C ,  7-H ) :   0.9247 B(  6-C ,  8-H ) :   0.9333 B(  6-C ,  9-H ) :   0.9516
B( 11-O , 15-H ) :   0.9155 B( 12-O , 13-O ) :   0.9456 B( 12-O , 14-H ) :   0.8539

MP2 TOTAL ENERGY:     -474.001289810 Eh
FINAL SINGLE POINT ENERGY      -474.001289810346

DIPOLE MOMENT
-------------
                                X             Y             Z
Electronic contribution:     -5.68554       3.92858       0.84392
Nuclear contribution   :      5.47212      -3.77812      -1.00733
                        -----------------------------------------
Total Dipole Moment    :     -0.21342       0.15046      -0.16341
                        -----------------------------------------
Magnitude (a.u.)       :      0.30804
Magnitude (Debye)      :      0.78297

Rotational constants in cm-1:     0.077649     0.047625     0.037746
Rotational constants in MHz :  2327.854116  1427.766758  1131.585854

                             ****ORCA TERMINATED NORMALLY****
TOTAL RUN TIME: 0 days 0 hours 52 minutes 11 seconds 845 msec
