                         Program Version 4.2.1 -  RELEASE  -
|  1> %pal
|  2>  nprocs 32
|  3> end
|  4> !RI-MP2 aug-cc-pVQZ aug-cc-pVQZ/C TightSCF
|  5> %maxcore 4500
|  6> *xyzfile 0 1  04_2R1.xyz
|  7>
|  8>
|  9>                          ****END OF INPUT****

CARTESIAN COORDINATES (ANGSTROEM)
---------------------------------
  C     -0.165200   -0.910191   -0.269292
  C      0.944017    0.107248   -0.069242
  O      0.878649    1.271740   -0.353648
  N     -1.463493   -0.352376   -0.535192
  C     -2.067783    0.318765    0.607222
  H     -3.040785    0.715697    0.316409
  H     -1.464433    1.143183    1.009459
  H     -2.235309   -0.410225    1.404048
  H     -1.415033    0.277120   -1.326637
  O      2.054031   -0.456668    0.442721
  H      2.730888    0.232240    0.504997
  H     -0.207287   -1.554767    0.612053
  H      0.148764   -1.552123   -1.098699

 Total Charge           Charge          ....    0
 Multiplicity           Mult            ....    1
 Number of Electrons    NEL             ....   48
 Basis Dimension        Dim             ....  802

ORBITAL ENERGIES
----------------

  NO   OCC          E(Eh)            E(eV)
   0   2.0000     -20.615528      -560.9770
   1   2.0000     -20.551507      -559.2349
   2   2.0000     -15.550273      -423.1444
   3   2.0000     -11.384599      -309.7907
   4   2.0000     -11.274613      -306.7978
   5   2.0000     -11.243871      -305.9613
   6   2.0000      -1.472838       -40.0780
   7   2.0000      -1.369101       -37.2551
   8   2.0000      -1.218034       -33.1444
   9   2.0000      -1.001062       -27.2403
  10   2.0000      -0.897974       -24.4351
  11   2.0000      -0.811929       -22.0937
  12   2.0000      -0.711390       -19.3579
  13   2.0000      -0.709385       -19.3033
  14   2.0000      -0.679788       -18.4980
  15   2.0000      -0.631233       -17.1767
  16   2.0000      -0.611048       -16.6275
  17   2.0000      -0.599020       -16.3001
  18   2.0000      -0.565113       -15.3775
  19   2.0000      -0.526160       -14.3175
  20   2.0000      -0.522446       -14.2165
  21   2.0000      -0.490176       -13.3384
  22   2.0000      -0.465777       -12.6744
  23   2.0000      -0.382146       -10.3987
  24   0.0000       0.024795         0.6747
  25   0.0000       0.033028         0.8987
  26   0.0000       0.036074         0.9816
  27   0.0000       0.039229         1.0675
  28   0.0000       0.053098         1.4449

MULLIKEN ATOMIC CHARGES
-----------------------
   0 C :   -0.352667
   1 C :    0.991783
   2 O :   -0.782597
   3 N :   -0.497299
   4 C :   -0.781377
   5 H :    0.366279
   6 H :    0.272088
   7 H :    0.271010
   8 H :    0.235912
   9 O :   -0.721721
  10 H :    0.340572
  11 H :    0.262903
  12 H :    0.395114
Sum of atomic charges:   -0.0000000

LOEWDIN ATOMIC CHARGES
----------------------
   0 C :    0.279945
   1 C :   -1.026420
   2 O :    0.716381
   3 N :    0.858738
   4 C :    0.751690
   5 H :   -0.293326
   6 H :   -0.297452
   7 H :   -0.299992
   8 H :   -0.523211
   9 O :    1.254206
  10 H :   -0.812236
  11 H :   -0.314252
  12 H :   -0.294072

  Mayer bond orders larger than 0.100000
B(  0-C ,  1-C ) :   1.0588 B(  0-C ,  2-O ) :   0.1095 B(  0-C ,  3-N ) :   0.9221
B(  0-C , 11-H ) :   0.9205 B(  0-C , 12-H ) :   0.8059 B(  1-C ,  2-O ) :   1.4200
B(  1-C ,  9-O ) :   0.8575 B(  3-N ,  4-C ) :   0.8811 B(  3-N ,  8-H ) :   0.9044
B(  4-C ,  5-H ) :   0.9046 B(  4-C ,  6-H ) :   0.9291 B(  4-C ,  7-H ) :   0.9276
B(  9-O , 10-H ) :   0.9120

MP2 TOTAL ENERGY:     -323.286749080 Eh
FINAL SINGLE POINT ENERGY      -323.286749079820

DIPOLE MOMENT
-------------
                                X             Y             Z
Electronic contribution:      5.76448       0.83731      -1.21462
Nuclear contribution   :     -5.50995      -1.15155       1.43668
                        -----------------------------------------
Total Dipole Moment    :      0.25454      -0.31425       0.22206
                        -----------------------------------------
Magnitude (a.u.)       :      0.46136
Magnitude (Debye)      :      1.17268

Rotational constants in cm-1:     0.239494     0.076893     0.068145
Rotational constants in MHz :  7179.847640  2305.184405  2042.939735

                             ****ORCA TERMINATED NORMALLY****
TOTAL RUN TIME: 0 days 0 hours 10 minutes 27 seconds 872 msec
