                         Program Version 4.2.1 -  RELEASE  -
|  1> %pal
|  2>  nprocs 32
|  3> end
|  4> !RI-MP2 aug-cc-pVQZ aug-cc-pVQZ/C TightSCF
|  5> %maxcore 4500
|  6> *xyzfile 0 1  08_14P1.xyz
|  7>
|  8>
|  9>                          ****END OF INPUT****

CARTESIAN COORDINATES (ANGSTROEM)
---------------------------------
  N     -0.092641    1.510060   -0.011192
  C      1.115415    0.774058   -0.068567
  C      1.069024   -0.561365   -0.459770
  N     -0.182982   -1.114221   -0.734110
  C     -1.244382   -0.614219    0.034899
  C     -1.292571    0.899107   -0.036789
  N     -2.389976    1.580065   -0.085067
  C     -3.606070    0.954831   -0.190877
  C     -2.550749   -1.276886   -0.380009
  N     -3.617339   -0.448862   -0.418468
  C      2.347130    1.356749    0.203886
  C      3.530597    0.641882    0.080504
  C      3.480889   -0.698268   -0.328261
  C      2.247787   -1.279283   -0.585481
  O     -4.664684    1.523981   -0.143192
  O     -2.601674   -2.475933   -0.558969
  O     -1.121691   -0.858527    1.473063
  O     -0.727361   -2.207201    1.681903
  C     -0.033106    2.968217    0.031252
  H     -1.036553    3.352422   -0.115148
  H      0.625740    3.327628   -0.758710
  H      0.341877    3.300821    1.000546
  C      4.845208    1.304669    0.387106
  H      5.512283    1.291705   -0.478941
  H      5.368982    0.796660    1.201242
  H      4.701026    2.344275    0.681587
  C      4.740229   -1.505630   -0.473170
  H      5.285615   -1.565649    0.472305
  H      5.418001   -1.058475   -1.205125
  H      4.519661   -2.522388   -0.797633
  H      2.394819    2.389693    0.519698
  H      2.194865   -2.319882   -0.886202
  H     -4.530134   -0.858289   -0.572934
  H     -0.223358   -2.115553   -0.869866
  H     -1.565382   -2.693994    1.640272

 Total Charge           Charge          ....    0
 Multiplicity           Mult            ....    1
 Number of Electrons    NEL             ....  152
 Basis Dimension        Dim             .... 2324

ORBITAL ENERGIES
----------------

  NO   OCC          E(Eh)            E(eV)
   0   2.0000     -20.651954      -561.9682
   1   2.0000     -20.643334      -561.7337
   2   2.0000     -20.565647      -559.6197
   3   2.0000     -20.535006      -558.7859
   4   2.0000     -15.638293      -425.5396
   5   2.0000     -15.625613      -425.1945
   6   2.0000     -15.602267      -424.5593
   7   2.0000     -15.562595      -423.4797
   8   2.0000     -11.395715      -310.0932
   9   2.0000     -11.395625      -310.0907
  10   2.0000     -11.381763      -309.7135
  11   2.0000     -11.377645      -309.6015
  12   2.0000     -11.293783      -307.3195
  13   2.0000     -11.292289      -307.2788
  14   2.0000     -11.275758      -306.8290
  15   2.0000     -11.251394      -306.1660
  16   2.0000     -11.248888      -306.0978
  17   2.0000     -11.247081      -306.0486
  18   2.0000     -11.243476      -305.9505
  19   2.0000     -11.233591      -305.6815
  20   2.0000     -11.233477      -305.6785
  21   2.0000      -1.515973       -41.2517
  22   2.0000      -1.438571       -39.1455
  23   2.0000      -1.413139       -38.4535
  24   2.0000      -1.361573       -37.0503
  25   2.0000      -1.289493       -35.0889
  26   2.0000      -1.280079       -34.8327
  27   2.0000      -1.236128       -33.6368
  28   2.0000      -1.218670       -33.1617
  29   2.0000      -1.167769       -31.7766
  30   2.0000      -1.071274       -29.1509
  31   2.0000      -1.055218       -28.7139
  32   2.0000      -1.020344       -27.7650
  33   2.0000      -0.985453       -26.8155
  34   2.0000      -0.968955       -26.3666
  35   2.0000      -0.926881       -25.2217
  36   2.0000      -0.896397       -24.3922
  37   2.0000      -0.872341       -23.7376
  38   2.0000      -0.847813       -23.0702
  39   2.0000      -0.810005       -22.0413
  40   2.0000      -0.795080       -21.6352
  41   2.0000      -0.767577       -20.8868
  42   2.0000      -0.763654       -20.7801
  43   2.0000      -0.722324       -19.6554
  44   2.0000      -0.717984       -19.5373
  45   2.0000      -0.704704       -19.1760
  46   2.0000      -0.687687       -18.7129
  47   2.0000      -0.675346       -18.3771
  48   2.0000      -0.660268       -17.9668
  49   2.0000      -0.653101       -17.7718
  50   2.0000      -0.646664       -17.5966
  51   2.0000      -0.638898       -17.3853
  52   2.0000      -0.634938       -17.2775
  53   2.0000      -0.625551       -17.0221
  54   2.0000      -0.615144       -16.7389
  55   2.0000      -0.607503       -16.5310
  56   2.0000      -0.588676       -16.0187
  57   2.0000      -0.572178       -15.5698
  58   2.0000      -0.570882       -15.5345
  59   2.0000      -0.563780       -15.3412
  60   2.0000      -0.562555       -15.3079
  61   2.0000      -0.552662       -15.0387
  62   2.0000      -0.548912       -14.9367
  63   2.0000      -0.535667       -14.5762
  64   2.0000      -0.519759       -14.1434
  65   2.0000      -0.510639       -13.8952
  66   2.0000      -0.507551       -13.8112
  67   2.0000      -0.504137       -13.7183
  68   2.0000      -0.481785       -13.1100
  69   2.0000      -0.461796       -12.5661
  70   2.0000      -0.454607       -12.3705
  71   2.0000      -0.441268       -12.0075
  72   2.0000      -0.439115       -11.9489
  73   2.0000      -0.412356       -11.2208
  74   2.0000      -0.339056        -9.2262
  75   2.0000      -0.300681        -8.1819
  76   0.0000       0.017044         0.4638
  77   0.0000       0.021888         0.5956
  78   0.0000       0.027629         0.7518
  79   0.0000       0.030971         0.8428
  80   0.0000       0.034941         0.9508

MULLIKEN ATOMIC CHARGES
-----------------------
   0 N :   -0.335175
   1 C :    1.404377
   2 C :    0.596005
   3 N :   -0.949792
   4 C :    1.643669
   5 C :    0.797466
   6 N :   -0.944822
   7 C :    1.209285
   8 C :    1.593134
   9 N :   -1.009272
  10 C :   -0.669033
  11 C :    0.624269
  12 C :    0.289232
  13 C :   -1.017931
  14 O :   -0.892978
  15 O :   -0.960469
  16 O :   -0.562005
  17 O :   -0.589250
  18 C :   -1.206217
  19 H :    0.328434
  20 H :    0.312905
  21 H :    0.371065
  22 C :   -1.027927
  23 H :    0.177781
  24 H :    0.191693
  25 H :    0.261796
  26 C :   -1.001276
  27 H :    0.186977
  28 H :    0.192934
  29 H :    0.289593
  30 H :    0.075758
  31 H :    0.089062
  32 H :   -0.002975
  33 H :    0.152187
  34 H :    0.381501
Sum of atomic charges:    0.0000000

LOEWDIN ATOMIC CHARGES
----------------------
   0 N :    0.469306
   1 C :   -0.196473
   2 C :   -0.213598
   3 N :    0.854297
   4 C :   -0.876486
   5 C :   -0.513394
   6 N :    0.578630
   7 C :   -1.083240
   8 C :   -0.870477
   9 N :    0.785805
  10 C :    0.373091
  11 C :   -0.039719
  12 C :   -0.046112
  13 C :    0.388664
  14 O :    0.673656
  15 O :    0.760029
  16 O :    0.575696
  17 O :    0.953668
  18 C :    0.804338
  19 H :   -0.354209
  20 H :   -0.267366
  21 H :   -0.259069
  22 C :    0.910270
  23 H :   -0.280592
  24 H :   -0.279133
  25 H :   -0.299619
  26 C :    0.910983
  27 H :   -0.279241
  28 H :   -0.280058
  29 H :   -0.299944
  30 H :   -0.345234
  31 H :   -0.306343
  32 H :   -0.513921
  33 H :   -0.533171
  34 H :   -0.901034

  Mayer bond orders larger than 0.100000
B(  0-N ,  1-C ) :   0.3009 B(  0-N ,  2-C ) :   0.3503 B(  0-N ,  5-C ) :   1.2827
B(  0-N ,  6-N ) :   0.2887 B(  0-N , 10-C ) :  -0.3135 B(  0-N , 18-C ) :   0.9115
B(  0-N , 21-H ) :  -0.1320 B(  1-C ,  2-C ) :   1.4076 B(  1-C ,  3-N ) :   0.1954
B(  1-C ,  4-C ) :   0.2440 B(  1-C ,  5-C ) :  -0.2318 B(  1-C , 10-C ) :   0.8721
B(  1-C , 11-C ) :  -0.6236 B(  1-C , 13-C ) :  -0.1596 B(  1-C , 16-O ) :  -0.2394
B(  1-C , 18-C ) :  -0.3026 B(  1-C , 30-H ) :  -0.1007 B(  2-C ,  3-N ) :   0.2011
B(  2-C ,  4-C ) :  -0.1498 B(  2-C ,  5-C ) :   0.1749 B(  2-C , 10-C ) :  -0.1209
B(  2-C , 11-C ) :   0.1528 B(  2-C , 12-C ) :  -0.3522 B(  2-C , 13-C ) :   1.0133
B(  2-C , 16-O ) :   0.2093 B(  2-C , 31-H ) :  -0.1504 B(  2-C , 33-H ) :  -0.2319
B(  3-N ,  4-C ) :   0.7185 B(  3-N , 16-O ) :   0.1721 B(  3-N , 33-H ) :   1.0779
B(  4-C ,  5-C ) :   0.4699 B(  4-C ,  8-C ) :   1.1729 B(  4-C ,  9-N ) :  -0.1071
B(  4-C , 15-O ) :   0.4119 B(  4-C , 16-O ) :  -0.1514 B(  4-C , 17-O ) :  -0.4852
B(  5-C ,  6-N ) :   0.5929 B(  5-C ,  8-C ) :  -0.1925 B(  5-C , 10-C ) :  -0.1429
B(  5-C , 16-O ) :   0.3613 B(  6-N ,  7-C ) :   1.4156 B(  6-N , 18-C ) :  -0.1226
B(  7-C ,  8-C ) :   0.1056 B(  7-C ,  9-N ) :   0.9874 B(  7-C , 14-O ) :   1.1087
B(  7-C , 32-H ) :  -0.1268 B(  8-C ,  9-N ) :   0.8382 B(  8-C , 15-O ) :   0.6138
B(  8-C , 32-H ) :  -0.1641 B(  9-N , 14-O ) :   0.1858 B(  9-N , 15-O ) :   0.3556
B(  9-N , 32-H ) :   1.2991 B( 10-C , 11-C ) :   0.7745 B( 10-C , 13-C ) :   0.2589
B( 10-C , 22-C ) :  -0.3081 B( 10-C , 30-H ) :   1.0461 B( 11-C , 12-C ) :   0.7630
B( 11-C , 22-C ) :   0.6149 B( 11-C , 23-H ) :  -0.1906 B( 11-C , 24-H ) :  -0.1896
B( 12-C , 13-C ) :   0.8982 B( 12-C , 24-H ) :   0.1049 B( 12-C , 26-C ) :   0.6816
B( 12-C , 27-H ) :  -0.1769 B( 12-C , 28-H ) :  -0.1755 B( 12-C , 31-H ) :  -0.1438
B( 13-C , 26-C ) :  -0.2203 B( 13-C , 31-H ) :   1.1230 B( 16-O , 17-O ) :   0.8438
B( 17-O , 33-H ) :   0.1381 B( 17-O , 34-H ) :   0.8474 B( 18-C , 19-H ) :   0.8748
B( 18-C , 20-H ) :   0.9801 B( 18-C , 21-H ) :   0.9856 B( 22-C , 23-H ) :   1.1180
B( 22-C , 24-H ) :   1.0954 B( 22-C , 25-H ) :   1.0330 B( 26-C , 27-H ) :   1.0993
B( 26-C , 28-H ) :   1.1063 B( 26-C , 29-H ) :   0.9995

MP2 TOTAL ENERGY:    -1022.156184873 Eh
FINAL SINGLE POINT ENERGY     -1022.156184872574

DIPOLE MOMENT
-------------
                                X             Y             Z
Electronic contribution:    -26.07365      -3.86396      -0.10651
Nuclear contribution   :     28.34901       3.55468      -0.13529
                        -----------------------------------------
Total Dipole Moment    :      2.27536      -0.30928      -0.24180
                        -----------------------------------------
Magnitude (a.u.)       :      2.30898
Magnitude (Debye)      :      5.86895

Rotational constants in cm-1:     0.021876     0.007207     0.005881
Rotational constants in MHz :   655.833376   216.060844   176.306051

                             ****ORCA TERMINATED NORMALLY****
TOTAL RUN TIME: 0 days 6 hours 33 minutes 40 seconds 182 msec
