                         Program Version 4.2.1 -  RELEASE  -
|  1> %pal
|  2>  nprocs 32
|  3> end
|  4> !RI-MP2 aug-cc-pVQZ aug-cc-pVQZ/C TightSCF
|  5> %maxcore 4500
|  6> *xyzfile 0 2  01_22P.xyz
|  7>
|  8>
|  9>                          ****END OF INPUT****

CARTESIAN COORDINATES (ANGSTROEM)
---------------------------------
  C      0.133250   -0.371573    0.250681
  C      1.144215   -1.486638   -0.099525
  C      2.170155   -0.399295   -0.473692
  H      0.827819   -2.064532   -0.968893
  H      1.399409   -2.171639    0.709499
  C      1.013967    0.632272   -0.606145
  H      2.774855   -0.560967   -1.365517
  H      2.832462   -0.150316    0.356930
  S     -1.528844   -0.722882   -0.402102
  C     -2.358168    0.864129   -0.125846
  H     -3.324771    0.805380   -0.624551
  H     -1.786135    1.680786   -0.566869
  H     -2.523166    1.059102    0.932838
  C      0.118507   -0.052584    1.736424
  H     -0.339540   -0.873947    2.289831
  H     -0.435873    0.862706    1.948671
  H      1.135521    0.087564    2.112257
  C      1.224305    2.013494   -0.152659
  H      0.883293    2.860889   -0.732829
  H      1.711977    2.216665    0.793262
  H      0.628271    0.615591   -1.626420

 Total Charge           Charge          ....    0
 Multiplicity           Mult            ....    2
 Number of Electrons    NEL             ....   71
 Basis Dimension        Dim             .... 1242

ORBITAL ENERGIES
----------------
                 SPIN UP ORBITALS
  NO   OCC          E(Eh)            E(eV)
   0   1.0000     -91.933204     -2501.6297
   1   1.0000     -11.263452      -306.4941
   2   1.0000     -11.244856      -305.9881
   3   1.0000     -11.231813      -305.6332
   4   1.0000     -11.229659      -305.5745
   5   1.0000     -11.224379      -305.4309
   6   1.0000     -11.222556      -305.3813
   7   1.0000     -11.217982      -305.2568
   8   1.0000      -8.935472      -243.1465
   9   1.0000      -6.617011      -180.0580
  10   1.0000      -6.616078      -180.0326
  11   1.0000      -6.615302      -180.0115
  12   1.0000      -1.160333       -31.5743
  13   1.0000      -1.038017       -28.2459
  14   1.0000      -0.999351       -27.1937
  15   1.0000      -0.974477       -26.5169
  16   1.0000      -0.886422       -24.1208
  17   1.0000      -0.849786       -23.1238
  18   1.0000      -0.808553       -22.0018
  19   1.0000      -0.713554       -19.4168
  20   1.0000      -0.644562       -17.5394
  21   1.0000      -0.629026       -17.1167
  22   1.0000      -0.610124       -16.6023
  23   1.0000      -0.592784       -16.1305
  24   1.0000      -0.579375       -15.7656
  25   1.0000      -0.568497       -15.4696
  26   1.0000      -0.545514       -14.8442
  27   1.0000      -0.534741       -14.5510
  28   1.0000      -0.525375       -14.2962
  29   1.0000      -0.499912       -13.6033
  30   1.0000      -0.472902       -12.8683
  31   1.0000      -0.447998       -12.1907
  32   1.0000      -0.431043       -11.7293
  33   1.0000      -0.418986       -11.4012
  34   1.0000      -0.358222        -9.7477
  35   1.0000      -0.316827        -8.6213
  36   0.0000       0.025521         0.6945
  37   0.0000       0.029458         0.8016
  38   0.0000       0.031559         0.8588
  39   0.0000       0.034059         0.9268
  40   0.0000       0.044414         1.2086

                 SPIN DOWN ORBITALS
  NO   OCC          E(Eh)            E(eV)
   0   1.0000     -91.933195     -2501.6294
   1   1.0000     -11.260115      -306.4033
   2   1.0000     -11.244766      -305.9856
   3   1.0000     -11.233909      -305.6902
   4   1.0000     -11.222967      -305.3925
   5   1.0000     -11.221993      -305.3660
   6   1.0000     -11.218101      -305.2600
   7   1.0000     -11.208716      -305.0047
   8   1.0000      -8.935465      -243.1464
   9   1.0000      -6.617037      -180.0587
  10   1.0000      -6.616069      -180.0324
  11   1.0000      -6.615211      -180.0090
  12   1.0000      -1.153940       -31.4003
  13   1.0000      -1.034542       -28.1513
  14   1.0000      -0.977537       -26.6001
  15   1.0000      -0.954134       -25.9633
  16   1.0000      -0.884016       -24.0553
  17   1.0000      -0.825209       -22.4551
  18   1.0000      -0.793988       -21.6055
  19   1.0000      -0.709058       -19.2944
  20   1.0000      -0.641349       -17.4520
  21   1.0000      -0.624573       -16.9955
  22   1.0000      -0.603954       -16.4344
  23   1.0000      -0.588497       -16.0138
  24   1.0000      -0.574337       -15.6285
  25   1.0000      -0.564857       -15.3705
  26   1.0000      -0.545246       -14.8369
  27   1.0000      -0.532443       -14.4885
  28   1.0000      -0.520931       -14.1752
  29   1.0000      -0.485904       -13.2221
  30   1.0000      -0.465907       -12.6780
  31   1.0000      -0.444485       -12.0950
  32   1.0000      -0.427066       -11.6210
  33   1.0000      -0.406042       -11.0490
  34   1.0000      -0.330126        -8.9832
  35   0.0000       0.025744         0.7005
  36   0.0000       0.029026         0.7898
  37   0.0000       0.031431         0.8553
  38   0.0000       0.034134         0.9288
  39   0.0000       0.044190         1.2025

MULLIKEN ATOMIC CHARGES AND SPIN POPULATIONS
--------------------------------------------
   0 C :    0.923206    0.105198
   1 C :   -0.711878   -0.004669
   2 C :   -0.597074    0.081705
   3 H :    0.263824    0.000436
   4 H :    0.262611   -0.000102
   5 C :   -0.033307   -0.292271
   6 H :    0.304373   -0.004199
   7 H :    0.257938   -0.001592
   8 S :   -0.206121    0.003681
   9 C :   -1.050307    0.002377
  10 H :    0.389259    0.000040
  11 H :    0.315202   -0.013573
  12 H :    0.249051    0.000199
  13 C :   -1.197953    0.003448
  14 H :    0.299899    0.001686
  15 H :    0.312017   -0.006762
  16 H :    0.250639   -0.000255
  17 C :   -0.888105    1.284162
  18 H :    0.326574   -0.076618
  19 H :    0.256378   -0.086513
  20 H :    0.273774    0.003622
Sum of atomic charges         :   -0.0000000

LOEWDIN ATOMIC CHARGES AND SPIN POPULATIONS
-------------------------------------------
   0 C :   -0.646475    0.039529
   1 C :    0.461036    0.011043
   2 C :    0.542272    0.025712
   3 H :   -0.288886    0.000212
   4 H :   -0.251385    0.000284
   5 C :    0.028513    0.125007
   6 H :   -0.242958    0.005381
   7 H :   -0.272951    0.006770
   8 S :    1.378669    0.008420
   9 C :    0.564513    0.004121
  10 H :   -0.384295    0.000472
  11 H :   -0.366906    0.005410
  12 H :   -0.369030    0.000438
  13 C :    0.829704    0.012290
  14 H :   -0.280226    0.000566
  15 H :   -0.305450    0.006320
  16 H :   -0.284841    0.000617
  17 C :    0.863728    0.444560
  18 H :   -0.323407    0.150239
  19 H :   -0.329822    0.147425
  20 H :   -0.321802    0.005186

  Mayer bond orders larger than 0.100000
B(  0-C ,  1-C ) :   0.6653 B(  0-C ,  2-C ) :  -0.2161 B(  0-C ,  5-C ) :   0.7581
B(  0-C ,  8-S ) :   0.6896 B(  0-C , 13-C ) :   0.5708 B(  1-C ,  2-C ) :   1.2029
B(  1-C ,  3-H ) :   0.9449 B(  1-C ,  4-H ) :   0.9557 B(  1-C ,  5-C ) :  -0.1082
B(  2-C ,  5-C ) :   0.8698 B(  2-C ,  6-H ) :   0.8916 B(  2-C ,  7-H ) :   0.9406
B(  5-C , 17-C ) :   0.6406 B(  5-C , 18-H ) :  -0.1183 B(  5-C , 20-H ) :   0.9599
B(  8-S ,  9-C ) :   1.0688 B(  9-C , 10-H ) :   0.8699 B(  9-C , 11-H ) :   0.8840
B(  9-C , 12-H ) :   0.9287 B( 13-C , 14-H ) :   0.9824 B( 13-C , 15-H ) :   0.9962
B( 13-C , 16-H ) :   0.9959 B( 17-C , 18-H ) :   1.0121 B( 17-C , 19-H ) :   0.9870

MP2 TOTAL ENERGY:     -671.687237521 Eh
FINAL SINGLE POINT ENERGY      -671.687237520645

DIPOLE MOMENT
-------------
                                X             Y             Z
Electronic contribution:     -3.63594      -4.00947      -3.12615
Nuclear contribution   :      3.95290       4.52892       3.37443
                        -----------------------------------------
Total Dipole Moment    :      0.31697       0.51944       0.24827
                        -----------------------------------------
Magnitude (a.u.)       :      0.65721
Magnitude (Debye)      :      1.67051

Rotational constants in cm-1:     0.080205     0.046518     0.039383
Rotational constants in MHz :  2404.471978  1394.560955  1180.657806

                             ****ORCA TERMINATED NORMALLY****
TOTAL RUN TIME: 0 days 1 hours 20 minutes 51 seconds 106 msec
