                         Program Version 4.2.1 -  RELEASE  -
|  1> %pal
|  2>  nprocs 32
|  3> end
|  4> !RI-MP2 aug-cc-pVQZ aug-cc-pVQZ/C TightSCF MORead
|  5> %maxcore 4500
|  6> %moinp "05_33TS.gbw"
|  7> *xyzfile 1 1  05_33TS.xyz
|  8>
|  9>
| 10>                          ****END OF INPUT****

CARTESIAN COORDINATES (ANGSTROEM)
---------------------------------
  C      2.427515    1.540605   -0.782071
  C      1.639374    0.819252    1.649642
  C      0.285492    1.437714    1.294681
  C      0.395118    2.621904    0.337691
  C      1.042265    2.161702   -0.964671
  H     -0.355261    0.681045    0.839093
  H     -0.191037    1.752080    2.225403
  H      1.014271    3.397280    0.792870
  H      0.376085    1.440961   -1.436227
  H      1.143675    3.005480   -1.650269
  N      2.408654    0.580485    0.377577
  O      3.375366   -0.217984    0.434736
  C      2.803528    0.771181   -2.046139
  H      2.090201   -0.025488   -2.253738
  H      2.777113    1.463165   -2.887934
  H      3.807343    0.353899   -1.982890
  C      3.510954    2.598294   -0.515292
  H      4.455306    2.120977   -0.252287
  H      3.662857    3.176312   -1.427666
  H      3.239829    3.293844    0.275561
  C      1.434140   -0.501515    2.380580
  H      2.382055   -0.986773    2.608645
  H      0.924930   -0.294499    3.321997
  H      0.812553   -1.177370    1.799740
  C      2.487940    1.737735    2.547394
  H      2.603896    2.742259    2.148593
  H      2.000272    1.819125    3.519373
  H      3.478708    1.308286    2.698635
  C      2.745067   -2.483177   -0.652134
  H      2.899769   -2.177576   -1.694617
  H      3.085829   -1.425594   -0.084403
  O      3.590477   -3.456210   -0.215742
  C      4.931059   -3.348744   -0.683086
  H      5.461556   -4.217174   -0.302682
  H      4.957744   -3.352846   -1.776521
  C      1.389522   -2.635309   -0.215676
  H      1.245093   -3.286346    0.641270
  C      0.322128   -1.971678   -0.740770
  H      0.455199   -1.337547   -1.612187
  H      5.400341   -2.437585   -0.302495
  N     -0.896876    3.261343    0.109494
  H     -1.034882    4.180230    0.496005
  C     -1.942453    2.685985   -0.540240
  C     -3.202911    3.506336   -0.627354
  H     -4.006621    2.953756   -0.138834
  H     -3.118655    4.491993   -0.170373
  H     -3.472128    3.620916   -1.677603
  O     -1.871260    1.567725   -1.027127
  C     -0.997705   -2.100403   -0.222264
  H     -1.131325   -2.763748    0.625915
  C     -2.046682   -1.422089   -0.739468
  H     -1.854914   -0.739017   -1.559385
  C     -3.422565   -1.467283   -0.286137
  C     -4.336984   -0.574385   -0.858296
  C     -3.876017   -2.362535    0.692683
  C     -5.663321   -0.571596   -0.461384
  H     -3.983025    0.128203   -1.602084
  C     -5.200147   -2.358115    1.086301
  H     -3.195198   -3.076905    1.138143
  C     -6.097074   -1.462153    0.511361
  H     -6.362501    0.120936   -0.913345
  H     -5.542362   -3.058353    1.837901
  H     -7.135278   -1.465325    0.819845

 Total Charge           Charge          ....    1
 Multiplicity           Mult            ....    1
 Number of Electrons    NEL             ....  210
 Basis Dimension        Dim             .... 3850

ORBITAL ENERGIES
----------------

  NO   OCC          E(Eh)            E(eV)
   0   2.0000     -20.812496      -566.3368
   1   2.0000     -20.685328      -562.8764
   2   2.0000     -20.616416      -561.0012
   3   2.0000     -15.850435      -431.3123
   4   2.0000     -15.693205      -427.0338
   5   2.0000     -11.454196      -311.6845
   6   2.0000     -11.423531      -310.8501
   7   2.0000     -11.421635      -310.7985
   8   2.0000     -11.419122      -310.7301
   9   2.0000     -11.393604      -310.0357
  10   2.0000     -11.377460      -309.5964
  11   2.0000     -11.371833      -309.4433
  12   2.0000     -11.351118      -308.8796
  13   2.0000     -11.349808      -308.8440
  14   2.0000     -11.345474      -308.7261
  15   2.0000     -11.344830      -308.7085
  16   2.0000     -11.344565      -308.7013
  17   2.0000     -11.344224      -308.6920
  18   2.0000     -11.343792      -308.6803
  19   2.0000     -11.333053      -308.3880
  20   2.0000     -11.328180      -308.2554
  21   2.0000     -11.327573      -308.2389
  22   2.0000     -11.324761      -308.1624
  23   2.0000     -11.319800      -308.0274
  24   2.0000     -11.316640      -307.9414
  25   2.0000     -11.316485      -307.9372
  26   2.0000     -11.311035      -307.7889
  27   2.0000     -11.310068      -307.7626
  28   2.0000      -1.662661       -45.2433
  29   2.0000      -1.515311       -41.2337
  30   2.0000      -1.488349       -40.5000
  31   2.0000      -1.351016       -36.7630
  32   2.0000      -1.312696       -35.7203
  33   2.0000      -1.248943       -33.9855
  34   2.0000      -1.241536       -33.7839
  35   2.0000      -1.223993       -33.3065
  36   2.0000      -1.174672       -31.9644
  37   2.0000      -1.166549       -31.7434
  38   2.0000      -1.125536       -30.6274
  39   2.0000      -1.109172       -30.1821
  40   2.0000      -1.100016       -29.9330
  41   2.0000      -1.092063       -29.7165
  42   2.0000      -1.076514       -29.2934
  43   2.0000      -1.062957       -28.9245
  44   2.0000      -1.060771       -28.8650
  45   2.0000      -1.056530       -28.7496
  46   2.0000      -1.000637       -27.2287
  47   2.0000      -0.976439       -26.5703
  48   2.0000      -0.962780       -26.1986
  49   2.0000      -0.941253       -25.6128
  50   2.0000      -0.917054       -24.9543
  51   2.0000      -0.905738       -24.6464
  52   2.0000      -0.890260       -24.2252
  53   2.0000      -0.878593       -23.9077
  54   2.0000      -0.859726       -23.3943
  55   2.0000      -0.835154       -22.7257
  56   2.0000      -0.821831       -22.3632
  57   2.0000      -0.818492       -22.2723
  58   2.0000      -0.803009       -21.8510
  59   2.0000      -0.800830       -21.7917
  60   2.0000      -0.788193       -21.4478
  61   2.0000      -0.770355       -20.9624
  62   2.0000      -0.762962       -20.7612
  63   2.0000      -0.759345       -20.6628
  64   2.0000      -0.745594       -20.2887
  65   2.0000      -0.743470       -20.2308
  66   2.0000      -0.738129       -20.0855
  67   2.0000      -0.720544       -19.6070
  68   2.0000      -0.717193       -19.5158
  69   2.0000      -0.715484       -19.4693
  70   2.0000      -0.712625       -19.3915
  71   2.0000      -0.703529       -19.1440
  72   2.0000      -0.698607       -19.0101
  73   2.0000      -0.694048       -18.8860
  74   2.0000      -0.690768       -18.7967
  75   2.0000      -0.687097       -18.6969
  76   2.0000      -0.680069       -18.5056
  77   2.0000      -0.669725       -18.2242
  78   2.0000      -0.668516       -18.1912
  79   2.0000      -0.663181       -18.0461
  80   2.0000      -0.658498       -17.9186
  81   2.0000      -0.653606       -17.7855
  82   2.0000      -0.652524       -17.7561
  83   2.0000      -0.649096       -17.6628
  84   2.0000      -0.644389       -17.5347
  85   2.0000      -0.641027       -17.4432
  86   2.0000      -0.629874       -17.1397
  87   2.0000      -0.622192       -16.9307
  88   2.0000      -0.618710       -16.8359
  89   2.0000      -0.612819       -16.6757
  90   2.0000      -0.609339       -16.5809
  91   2.0000      -0.604700       -16.4547
  92   2.0000      -0.598835       -16.2951
  93   2.0000      -0.595074       -16.1928
  94   2.0000      -0.586758       -15.9665
  95   2.0000      -0.583721       -15.8838
  96   2.0000      -0.582069       -15.8389
  97   2.0000      -0.570200       -15.5159
  98   2.0000      -0.551309       -15.0019
  99   2.0000      -0.524520       -14.2729
 100   2.0000      -0.503714       -13.7068
 101   2.0000      -0.499748       -13.5988
 102   2.0000      -0.446755       -12.1568
 103   2.0000      -0.420109       -11.4317
 104   2.0000      -0.369729       -10.0608
 105   0.0000      -0.143071        -3.8932
 106   0.0000      -0.058119        -1.5815
 107   0.0000      -0.049634        -1.3506
 108   0.0000      -0.047068        -1.2808
 109   0.0000      -0.043219        -1.1761

MULLIKEN ATOMIC CHARGES
-----------------------
   0 C :    1.301562
   1 C :    1.296892
   2 C :   -1.210846
   3 C :    1.947624
   4 C :   -0.849492
   5 H :    0.878682
   6 H :   -0.133344
   7 H :    0.287040
   8 H :    0.459747
   9 H :   -0.010479
  10 N :    2.748590
  11 O :   -1.637298
  12 C :   -1.399753
  13 H :    0.221160
  14 H :   -0.019956
  15 H :    0.276679
  16 C :   -1.264982
  17 H :    0.166728
  18 H :    0.198092
  19 H :    0.262398
  20 C :   -1.390538
  21 H :    0.304592
  22 H :   -0.009456
  23 H :    0.311711
  24 C :   -1.300037
  25 H :    0.302182
  26 H :    0.174537
  27 H :    0.167235
  28 C :    1.694969
  29 H :    0.155936
  30 H :   -0.371660
  31 O :   -1.161302
  32 C :   -0.829070
  33 H :    0.447405
  34 H :    0.268142
  35 C :   -0.539871
  36 H :    0.151753
  37 C :    0.178607
  38 H :    0.192972
  39 H :    0.303708
  40 N :   -1.110974
  41 H :   -0.109488
  42 C :    0.935488
  43 C :   -0.952912
  44 H :    0.305553
  45 H :    0.333548
  46 H :    0.275392
  47 O :   -1.211605
  48 C :   -0.036335
  49 H :    0.103442
  50 C :   -0.338907
  51 H :    0.190189
  52 C :    1.169443
  53 C :   -0.654151
  54 C :   -0.755396
  55 C :   -0.347773
  56 H :    0.270561
  57 C :   -0.282501
  58 H :    0.156263
  59 C :   -0.381123
  60 H :    0.260636
  61 H :    0.260498
  62 H :    0.349291
Sum of atomic charges:    1.0000000

LOEWDIN ATOMIC CHARGES
----------------------
   0 C :   -0.349270
   1 C :   -0.346442
   2 C :    0.541016
   3 C :    0.037649
   4 C :    0.530905
   5 H :   -0.305911
   6 H :   -0.236148
   7 H :   -0.299097
   8 H :   -0.342673
   9 H :   -0.235720
  10 N :    0.183161
  11 O :    1.016818
  12 C :    0.926235
  13 H :   -0.300125
  14 H :   -0.248258
  15 H :   -0.266675
  16 C :    0.959532
  17 H :   -0.255222
  18 H :   -0.252159
  19 H :   -0.296447
  20 C :    0.928044
  21 H :   -0.260899
  22 H :   -0.249731
  23 H :   -0.335239
  24 C :    0.960270
  25 H :   -0.305713
  26 H :   -0.251197
  27 H :   -0.251820
  28 C :    0.014742
  29 H :   -0.289658
  30 H :   -0.829469
  31 O :    0.929787
  32 C :    0.634316
  33 H :   -0.309191
  34 H :   -0.296977
  35 C :    0.392250
  36 H :   -0.302234
  37 C :    0.386133
  38 H :   -0.324793
  39 H :   -0.297230
  40 N :    0.902511
  41 H :   -0.479818
  42 C :   -0.766483
  43 C :    0.924591
  44 H :   -0.287324
  45 H :   -0.298973
  46 H :   -0.284633
  47 O :    0.796761
  48 C :    0.382462
  49 H :   -0.345734
  50 C :    0.370051
  51 H :   -0.392991
  52 C :   -0.074122
  53 C :    0.334052
  54 C :    0.349015
  55 C :    0.363701
  56 H :   -0.344760
  57 C :    0.365094
  58 H :   -0.330656
  59 C :    0.356195
  60 H :   -0.315829
  61 H :   -0.314261
  62 H :   -0.311411

  Mayer bond orders larger than 0.100000
B(  0-C ,  1-C ) :   0.3989 B(  0-C ,  4-C ) :   0.2220 B(  0-C , 10-N ) :   1.2131
B(  0-C , 11-O ) :   0.1328 B(  0-C , 12-C ) :  -0.1647 B(  0-C , 13-H ) :  -0.2837
B(  0-C , 14-H ) :  -0.1243 B(  0-C , 15-H ) :  -0.3874 B(  0-C , 16-C ) :  -0.1704
B(  0-C , 17-H ) :  -0.3082 B(  0-C , 18-H ) :  -0.1796 B(  0-C , 19-H ) :  -0.1972
B(  0-C , 30-H ) :  -0.1240 B(  1-C ,  2-C ) :   0.1213 B(  1-C , 10-N ) :   0.6751
B(  1-C , 11-O ) :   0.2193 B(  1-C , 21-H ) :  -0.2172 B(  1-C , 23-H ) :  -0.3640
B(  1-C , 24-C ) :  -0.1254 B(  1-C , 25-H ) :  -0.1534 B(  1-C , 26-H ) :  -0.1553
B(  1-C , 27-H ) :  -0.3164 B(  1-C , 30-H ) :  -0.1775 B(  1-C , 37-C ) :   0.1059
B(  2-C ,  3-C ) :   0.8854 B(  2-C ,  5-H ) :   0.4047 B(  2-C ,  6-H ) :   1.5725
B(  2-C , 10-N ) :   0.1822 B(  2-C , 20-C ) :   0.2287 B(  2-C , 41-H ) :  -0.1124
B(  2-C , 48-C ) :   0.1245 B(  3-C ,  4-C ) :   0.8394 B(  3-C ,  5-H ) :  -0.1220
B(  3-C ,  6-H ) :  -0.1530 B(  3-C ,  7-H ) :   0.8917 B(  3-C ,  9-H ) :  -0.1622
B(  3-C , 10-N ) :  -0.1993 B(  3-C , 40-N ) :  -1.2569 B(  3-C , 41-H ) :  -0.3283
B(  3-C , 42-C ) :  -0.3669 B(  3-C , 47-O ) :   0.1717 B(  4-C ,  8-H ) :   0.9549
B(  4-C ,  9-H ) :   1.2526 B(  4-C , 10-N ) :   0.1778 B(  4-C , 12-C ) :   0.1157
B(  4-C , 40-N ) :   0.2545 B(  5-H ,  6-H ) :  -0.2685 B(  5-H ,  7-H ) :   0.1038
B(  5-H , 20-C ) :  -0.1936 B(  5-H , 40-N ) :   0.2108 B(  8-H , 12-C ) :  -0.1469
B(  8-H , 40-N ) :   0.1866 B( 10-N , 11-O ) :  -0.8881 B( 10-N , 12-C ) :  -0.6800
B( 10-N , 14-H ) :  -0.1358 B( 10-N , 20-C ) :  -0.6033 B( 10-N , 22-H ) :  -0.1626
B( 10-N , 24-C ) :  -0.2176 B( 10-N , 27-H ) :  -0.1030 B( 10-N , 37-C ) :  -0.1191
B( 11-O , 12-C ) :   0.1291 B( 11-O , 30-H ) :   0.4619 B( 11-O , 37-C ) :   0.1361
B( 12-C , 13-H ) :   1.1256 B( 12-C , 14-H ) :   1.5099 B( 12-C , 15-H ) :   1.2272
B( 16-C , 17-H ) :   1.3522 B( 16-C , 18-H ) :   1.1293 B( 16-C , 19-H ) :   1.1188
B( 20-C , 21-H ) :   1.1917 B( 20-C , 22-H ) :   1.4520 B( 20-C , 23-H ) :   0.9696
B( 24-C , 25-H ) :   1.0822 B( 24-C , 26-H ) :   1.1826 B( 24-C , 27-H ) :   1.3750
B( 28-C , 29-H ) :   1.1126 B( 28-C , 30-H ) :   0.6768 B( 28-C , 31-O ) :  -0.3876
B( 28-C , 32-C ) :  -0.5758 B( 28-C , 34-H ) :  -0.1052 B( 28-C , 35-C ) :   1.2403
B( 28-C , 37-C ) :  -0.4281 B( 28-C , 38-H ) :  -0.1287 B( 28-C , 39-H ) :  -0.1255
B( 28-C , 50-C ) :   0.1282 B( 30-H , 31-O ) :   0.4288 B( 30-H , 32-C ) :   0.1800
B( 31-O , 32-C ) :   1.1455 B( 31-O , 37-C ) :   0.1023 B( 31-O , 39-H ) :   0.1045
B( 32-C , 33-H ) :   0.8295 B( 32-C , 34-H ) :   0.9336 B( 32-C , 35-C ) :   0.1041
B( 32-C , 39-H ) :   0.8837 B( 35-C , 36-H ) :   1.1607 B( 35-C , 37-C ) :   1.1438
B( 35-C , 38-H ) :  -0.1748 B( 35-C , 48-C ) :  -0.6512 B( 37-C , 38-H ) :   1.2785
B( 37-C , 48-C ) :   0.2662 B( 37-C , 50-C ) :  -0.7458 B( 40-N , 41-H ) :   1.6310
B( 40-N , 42-C ) :   1.2700 B( 40-N , 47-O ) :   0.1105 B( 41-H , 42-C ) :  -0.1106
B( 42-C , 43-C ) :   0.4030 B( 42-C , 44-H ) :  -0.1707 B( 42-C , 45-H ) :  -0.1035
B( 42-C , 46-H ) :  -0.1676 B( 42-C , 47-O ) :   1.0339 B( 43-C , 44-H ) :   1.0009
B( 43-C , 45-H ) :   0.9900 B( 43-C , 46-H ) :   1.0602 B( 48-C , 49-H ) :   1.2318
B( 48-C , 50-C ) :   1.1323 B( 48-C , 51-H ) :  -0.1086 B( 48-C , 52-C ) :  -0.6971
B( 48-C , 54-C ) :  -0.2693 B( 49-H , 54-C ) :  -0.1330 B( 50-C , 51-H ) :   1.0876
B( 50-C , 52-C ) :   0.7980 B( 50-C , 53-C ) :  -0.4384 B( 50-C , 58-H ) :   0.1202
B( 51-H , 52-C ) :  -0.1342 B( 52-C , 53-C ) :   0.8213 B( 52-C , 54-C ) :   0.8854
B( 52-C , 55-C ) :  -0.5742 B( 52-C , 56-H ) :  -0.1827 B( 52-C , 57-C ) :  -0.4840
B( 52-C , 58-H ) :  -0.1061 B( 53-C , 55-C ) :   1.2431 B( 53-C , 56-H ) :   0.9751
B( 53-C , 57-C ) :   0.1034 B( 53-C , 60-H ) :  -0.1599 B( 54-C , 57-C ) :   1.2632
B( 54-C , 58-H ) :   1.1080 B( 54-C , 61-H ) :  -0.1443 B( 55-C , 59-C ) :   1.1528
B( 55-C , 60-H ) :   1.1425 B( 55-C , 62-H ) :  -0.1081 B( 57-C , 59-C ) :   1.2028
B( 57-C , 61-H ) :   1.1018 B( 59-C , 62-H ) :   0.9889

MP2 TOTAL ENERGY:    -1230.308906383 Eh
FINAL SINGLE POINT ENERGY     -1230.308906383339

DIPOLE MOMENT
-------------
                                X             Y             Z
Electronic contribution:    -15.38681      -8.47010      -1.70855
Nuclear contribution   :     17.36311      10.44810       2.09983
                        -----------------------------------------
Total Dipole Moment    :      1.97629       1.97800       0.39128
                        -----------------------------------------
Magnitude (a.u.)       :      2.82335
Magnitude (Debye)      :      7.17639

Rotational constants in cm-1:     0.007547     0.004010     0.003060
Rotational constants in MHz :   226.243886   120.213621    91.735350

                             ****ORCA TERMINATED NORMALLY****
TOTAL RUN TIME: 0 days 17 hours 3 minutes 9 seconds 938 msec
