                         Program Version 4.2.1 -  RELEASE  -
|  1> %pal
|  2>  nprocs 32
|  3> end
|  4> !RI-MP2 aug-cc-pVQZ aug-cc-pVQZ/C TightSCF
|  5> %maxcore 4500
|  6> *xyzfile 0 2  03_34R2.xyz
|  7>
|  8>
|  9>                          ****END OF INPUT****

CARTESIAN COORDINATES (ANGSTROEM)
---------------------------------
  O     -2.133264   -0.580539    0.000009
  C     -1.597183    0.466600   -0.000009
  C     -0.118263    0.767834    0.000000
  C      0.778869   -0.468577   -0.000012
  H      0.067521    1.404933    0.870625
  H      0.067536    1.404964   -0.870598
  H      0.542624   -1.080693    0.873721
  C      2.257118   -0.098404    0.000007
  H      0.542640   -1.080665   -0.873769
  H      2.518711    0.491142   -0.882550
  H      2.885142   -0.991194   -0.000005
  H      2.518697    0.491109    0.882590

 Total Charge           Charge          ....    0
 Multiplicity           Mult            ....    2
 Number of Electrons    NEL             ....   39
 Basis Dimension        Dim             ....  722

ORBITAL ENERGIES
----------------
                 SPIN UP ORBITALS
  NO   OCC          E(Eh)            E(eV)
   0   1.0000     -20.590279      -560.2900
   1   1.0000     -11.333501      -308.4002
   2   1.0000     -11.260559      -306.4154
   3   1.0000     -11.236797      -305.7688
   4   1.0000     -11.225328      -305.4567
   5   1.0000      -1.440321       -39.1931
   6   1.0000      -1.094720       -29.7888
   7   1.0000      -0.985610       -26.8198
   8   1.0000      -0.845757       -23.0142
   9   1.0000      -0.761646       -20.7254
  10   1.0000      -0.679093       -18.4791
  11   1.0000      -0.660308       -17.9679
  12   1.0000      -0.641565       -17.4579
  13   1.0000      -0.583747       -15.8846
  14   1.0000      -0.570799       -15.5322
  15   1.0000      -0.530880       -14.4460
  16   1.0000      -0.530307       -14.4304
  17   1.0000      -0.502742       -13.6803
  18   1.0000      -0.490411       -13.3448
  19   1.0000      -0.355310        -9.6685
  20   0.0000       0.023752         0.6463
  21   0.0000       0.032480         0.8838
  22   0.0000       0.033683         0.9166
  23   0.0000       0.039498         1.0748
  24   0.0000       0.053407         1.4533

                 SPIN DOWN ORBITALS
  NO   OCC          E(Eh)            E(eV)
   0   1.0000     -20.579379      -559.9934
   1   1.0000     -11.313977      -307.8690
   2   1.0000     -11.255227      -306.2703
   3   1.0000     -11.235730      -305.7398
   4   1.0000     -11.225151      -305.4519
   5   1.0000      -1.412735       -38.4425
   6   1.0000      -1.082988       -29.4696
   7   1.0000      -0.968698       -26.3596
   8   1.0000      -0.834570       -22.7098
   9   1.0000      -0.729323       -19.8459
  10   1.0000      -0.657129       -17.8814
  11   1.0000      -0.635507       -17.2930
  12   1.0000      -0.589203       -16.0330
  13   1.0000      -0.580815       -15.8048
  14   1.0000      -0.532565       -14.4918
  15   1.0000      -0.523597       -14.2478
  16   1.0000      -0.509574       -13.8662
  17   1.0000      -0.490171       -13.3382
  18   1.0000      -0.485673       -13.2158
  19   0.0000       0.022934         0.6241
  20   0.0000       0.032126         0.8742
  21   0.0000       0.033755         0.9185
  22   0.0000       0.038193         1.0393
  23   0.0000       0.053518         1.4563

MULLIKEN ATOMIC CHARGES AND SPIN POPULATIONS
--------------------------------------------
   0 O :   -0.673634    0.159123
   1 C :    0.373468    0.857720
   2 C :   -0.400625   -0.023774
   3 C :   -0.298235    0.054061
   4 H :    0.295285   -0.023543
   5 H :    0.295288   -0.023545
   6 H :    0.241332   -0.001394
   7 C :   -0.800131   -0.001630
   8 H :    0.241335   -0.001393
   9 H :    0.231427   -0.000146
  10 H :    0.263063    0.004667
  11 H :    0.231426   -0.000146
Sum of atomic charges         :   -0.0000000

LOEWDIN ATOMIC CHARGES AND SPIN POPULATIONS
-------------------------------------------
   0 O :    0.582305    0.264083
   1 C :   -0.311719    0.500106
   2 C :    0.400213    0.145961
   3 C :    0.459106    0.029437
   4 H :   -0.319954    0.021963
   5 H :   -0.319954    0.021963
   6 H :   -0.281508    0.002456
   7 C :    0.921158    0.006907
   8 H :   -0.281507    0.002456
   9 H :   -0.283529    0.000986
  10 H :   -0.281081    0.002697
  11 H :   -0.283529    0.000986

  Mayer bond orders larger than 0.100000
B(  0-O ,  1-C ) :   1.7360 B(  1-C ,  2-C ) :   0.7600 B(  2-C ,  3-C ) :   0.8842
B(  2-C ,  4-H ) :   0.8821 B(  2-C ,  5-H ) :   0.8821 B(  3-C ,  6-H ) :   0.8793
B(  3-C ,  7-C ) :   0.9734 B(  3-C ,  8-H ) :   0.8793 B(  7-C ,  9-H ) :   0.9405
B(  7-C , 10-H ) :   0.9864 B(  7-C , 11-H ) :   0.9405

MP2 TOTAL ENERGY:     -231.420501439 Eh
FINAL SINGLE POINT ENERGY      -231.420501439164

DIPOLE MOMENT
-------------
                                X             Y             Z
Electronic contribution:     -8.32459      -0.11604      -0.00002
Nuclear contribution   :      9.38417       0.64947       0.00001
                        -----------------------------------------
Total Dipole Moment    :      1.05958       0.53343      -0.00000
                        -----------------------------------------
Magnitude (a.u.)       :      1.18628
Magnitude (Debye)      :      3.01528

Rotational constants in cm-1:     0.556824     0.085411     0.077197
Rotational constants in MHz : 16693.167535  2560.559437  2314.321740

                             ****ORCA TERMINATED NORMALLY****
TOTAL RUN TIME: 0 days 0 hours 15 minutes 25 seconds 481 msec
