                         Program Version 4.2.1 -  RELEASE  -
|  1> %pal
|  2>  nprocs 32
|  3> end
|  4> !RI-MP2 aug-cc-pVQZ aug-cc-pVQZ/C TightSCF
|  5> %maxcore 4500
|  6> *xyzfile 0 1  10_46R.xyz
|  7>
|  8>
|  9>                          ****END OF INPUT****

CARTESIAN COORDINATES (ANGSTROEM)
---------------------------------
  C      0.048625   -2.370899    0.052773
  H     -0.038888   -3.405916    0.386528
  H      0.353143   -2.386538   -1.012754
  C      1.109172   -1.660974    0.850113
  C     -0.196172    0.412419    0.727384
  H     -0.564521    0.316573    1.753486
  H     -0.195839    1.462053    0.472738
  C     -1.186528   -0.323264   -0.190541
  H     -0.792991   -0.250967   -1.225134
  N     -1.245341   -1.723891    0.206586
  C      2.318200    0.447988    0.283421
  C      1.835828   -2.295021    1.760471
  C      3.539687   -0.331110   -0.040871
  C      3.638852   -1.160017   -1.072074
  C      1.183108   -0.195207    0.607889
  C      4.856018   -1.957566   -1.414534
  H      5.189625   -1.758178   -2.437012
  H      5.681666   -1.735381   -0.735921
  H      4.646521   -3.030237   -1.353203
  C     -2.560928    0.325091   -0.190240
  C     -2.309638   -2.447315   -0.460739
  H     -2.200791   -3.509764   -0.234041
  H     -2.246783   -2.338708   -1.559331
  C     -3.644981   -1.936057    0.043829
  H     -3.760237   -2.230719    1.091223
  C     -3.724187   -0.436984   -0.074104
  H     -4.464753   -2.393951   -0.515917
  C     -4.964531    0.198050   -0.092236
  H     -5.862462   -0.404066   -0.000402
  C     -2.677274    1.704999   -0.360350
  H     -1.788113    2.309930   -0.488255
  C     -5.067974    1.570169   -0.235959
  H     -6.041358    2.045508   -0.248762
  C     -3.913312    2.327865   -0.380397
  H     -3.975234    3.401415   -0.511571
  C      2.459730    1.982838    0.148232
  C      1.746576    2.455210   -1.130300
  H      0.677653    2.246802   -1.120856
  H      2.171050    1.955708   -2.004292
  H      1.878878    3.532907   -1.261354
  C      3.936429    2.391505    0.003582
  H      4.404164    1.933174   -0.868054
  H      4.520750    2.121804    0.885993
  H      3.996863    3.476108   -0.111225
  C      1.937282    2.723258    1.390983
  H      0.875333    2.582438    1.574712
  H      2.114128    3.796817    1.282554
  H      2.471274    2.385259    2.282002
  H      2.588780   -1.777307    2.341718
  H      1.707610   -3.355831    1.943988
  H      2.769980   -1.296486   -1.712271
  H      4.418044   -0.175081    0.581303

 Total Charge           Charge          ....    0
 Multiplicity           Mult            ....    1
 Number of Electrons    NEL             ....  168
 Basis Dimension        Dim             .... 3174

ORBITAL ENERGIES
----------------

  NO   OCC          E(Eh)            E(eV)
   0   2.0000     -15.544161      -422.9781
   1   2.0000     -11.260649      -306.4178
   2   2.0000     -11.249597      -306.1171
   3   2.0000     -11.247471      -306.0593
   4   2.0000     -11.239717      -305.8482
   5   2.0000     -11.233900      -305.6900
   6   2.0000     -11.232574      -305.6539
   7   2.0000     -11.230386      -305.5943
   8   2.0000     -11.228706      -305.5486
   9   2.0000     -11.227575      -305.5178
  10   2.0000     -11.227090      -305.5047
  11   2.0000     -11.226957      -305.5010
  12   2.0000     -11.225670      -305.4660
  13   2.0000     -11.224690      -305.4393
  14   2.0000     -11.222061      -305.3678
  15   2.0000     -11.219732      -305.3044
  16   2.0000     -11.218340      -305.2666
  17   2.0000     -11.216479      -305.2159
  18   2.0000     -11.215940      -305.2013
  19   2.0000     -11.210739      -305.0597
  20   2.0000     -11.207963      -304.9842
  21   2.0000     -11.207408      -304.9691
  22   2.0000     -11.207019      -304.9585
  23   2.0000      -1.252273       -34.0761
  24   2.0000      -1.155497       -31.4427
  25   2.0000      -1.138335       -30.9757
  26   2.0000      -1.090637       -29.6778
  27   2.0000      -1.067557       -29.0497
  28   2.0000      -1.058339       -28.7989
  29   2.0000      -1.049704       -28.5639
  30   2.0000      -1.006501       -27.3883
  31   2.0000      -0.992459       -27.0062
  32   2.0000      -0.963088       -26.2070
  33   2.0000      -0.933127       -25.3917
  34   2.0000      -0.930909       -25.3313
  35   2.0000      -0.918917       -25.0050
  36   2.0000      -0.896509       -24.3953
  37   2.0000      -0.857321       -23.3289
  38   2.0000      -0.833734       -22.6871
  39   2.0000      -0.822234       -22.3741
  40   2.0000      -0.802412       -21.8348
  41   2.0000      -0.755291       -20.5525
  42   2.0000      -0.753957       -20.5162
  43   2.0000      -0.741793       -20.1852
  44   2.0000      -0.694561       -18.9000
  45   2.0000      -0.677485       -18.4353
  46   2.0000      -0.659309       -17.9407
  47   2.0000      -0.651750       -17.7350
  48   2.0000      -0.643196       -17.5022
  49   2.0000      -0.632947       -17.2234
  50   2.0000      -0.621309       -16.9067
  51   2.0000      -0.615738       -16.7551
  52   2.0000      -0.605668       -16.4811
  53   2.0000      -0.599156       -16.3039
  54   2.0000      -0.593980       -16.1630
  55   2.0000      -0.591814       -16.1041
  56   2.0000      -0.582087       -15.8394
  57   2.0000      -0.574036       -15.6203
  58   2.0000      -0.563584       -15.3359
  59   2.0000      -0.563321       -15.3287
  60   2.0000      -0.555987       -15.1292
  61   2.0000      -0.545393       -14.8409
  62   2.0000      -0.540112       -14.6972
  63   2.0000      -0.534357       -14.5406
  64   2.0000      -0.528217       -14.3735
  65   2.0000      -0.526775       -14.3343
  66   2.0000      -0.516527       -14.0554
  67   2.0000      -0.513258       -13.9665
  68   2.0000      -0.510989       -13.9047
  69   2.0000      -0.506100       -13.7717
  70   2.0000      -0.498680       -13.5698
  71   2.0000      -0.492974       -13.4145
  72   2.0000      -0.477727       -12.9996
  73   2.0000      -0.471020       -12.8171
  74   2.0000      -0.463727       -12.6186
  75   2.0000      -0.455891       -12.4054
  76   2.0000      -0.442571       -12.0430
  77   2.0000      -0.432039       -11.7564
  78   2.0000      -0.373581       -10.1657
  79   2.0000      -0.364469        -9.9177
  80   2.0000      -0.358937        -9.7672
  81   2.0000      -0.327608        -8.9147
  82   2.0000      -0.320479        -8.7207
  83   2.0000      -0.301628        -8.2077
  84   0.0000       0.020716         0.5637
  85   0.0000       0.024244         0.6597
  86   0.0000       0.024456         0.6655
  87   0.0000       0.028446         0.7741
  88   0.0000       0.031857         0.8669

MULLIKEN ATOMIC CHARGES
-----------------------
   0 C :   -0.315636
   1 H :    0.238127
   2 H :    0.212994
   3 C :   -0.600292
   4 C :   -0.663551
   5 H :    0.288903
   6 H :    0.371914
   7 C :    1.935105
   8 H :    0.229036
   9 N :   -0.312625
  10 C :    0.124129
  11 C :   -1.011000
  12 C :   -0.256784
  13 C :   -0.415983
  14 C :    1.642669
  15 C :   -0.960009
  16 H :    0.281491
  17 H :    0.215621
  18 H :    0.281231
  19 C :    0.470543
  20 C :   -0.830351
  21 H :    0.180971
  22 H :    0.254071
  23 C :   -0.677714
  24 H :    0.189852
  25 C :    0.275475
  26 H :    0.197125
  27 C :   -0.671237
  28 H :    0.232158
  29 C :   -0.811532
  30 H :    0.131182
  31 C :   -0.394713
  32 H :    0.254004
  33 C :   -0.735778
  34 H :    0.188024
  35 C :    2.095439
  36 C :   -1.394438
  37 H :    0.305526
  38 H :    0.163691
  39 H :    0.151102
  40 C :   -1.371532
  41 H :    0.191245
  42 H :    0.219083
  43 H :    0.175900
  44 C :   -1.275200
  45 H :    0.256881
  46 H :    0.138053
  47 H :    0.115361
  48 H :    0.166610
  49 H :    0.140799
  50 H :    0.089811
  51 H :    0.294247
Sum of atomic charges:   -0.0000000

LOEWDIN ATOMIC CHARGES
----------------------
   0 C :    0.335564
   1 H :   -0.306764
   2 H :   -0.246308
   3 C :   -0.070828
   4 C :    0.518896
   5 H :   -0.222910
   6 H :   -0.426567
   7 C :   -0.032424
   8 H :   -0.251430
   9 N :    0.541528
  10 C :   -0.024102
  11 C :    0.824752
  12 C :    0.294712
  13 C :    0.387630
  14 C :   -0.011492
  15 C :    0.909742
  16 H :   -0.291943
  17 H :   -0.309553
  18 H :   -0.290041
  19 C :   -0.008875
  20 C :    0.355601
  21 H :   -0.277960
  22 H :   -0.237558
  23 C :    0.524373
  24 H :   -0.256265
  25 C :   -0.036306
  26 H :   -0.273393
  27 C :    0.357215
  28 H :   -0.312582
  29 C :    0.366527
  30 H :   -0.329269
  31 C :    0.350354
  32 H :   -0.320169
  33 C :    0.360950
  34 H :   -0.318651
  35 C :   -0.265122
  36 C :    0.932544
  37 H :   -0.303019
  38 H :   -0.255302
  39 H :   -0.260509
  40 C :    0.883791
  41 H :   -0.279384
  42 H :   -0.267803
  43 H :   -0.271417
  44 C :    0.930935
  45 H :   -0.312590
  46 H :   -0.265419
  47 H :   -0.253488
  48 H :   -0.329058
  49 H :   -0.329227
  50 H :   -0.307404
  51 H :   -0.319981

  Mayer bond orders larger than 0.100000
B(  0-C ,  1-H ) :   1.0168 B(  0-C ,  2-H ) :   0.9920 B(  0-C ,  3-C ) :   0.7762
B(  0-C ,  7-C ) :  -0.1532 B(  0-C ,  9-N ) :   1.1228 B(  0-C , 10-C ) :   0.1102
B(  0-C , 14-C ) :  -0.2485 B(  0-C , 20-C ) :   0.1137 B(  1-H ,  3-C ) :  -0.1054
B(  2-H ,  3-C ) :   0.1198 B(  3-C ,  5-H ) :  -0.1748 B(  3-C ,  7-C ) :   0.1172
B(  3-C ,  9-N ) :   0.1637 B(  3-C , 10-C ) :  -0.6799 B(  3-C , 11-C ) :   1.9807
B(  3-C , 12-C ) :   0.1310 B(  3-C , 14-C ) :   0.2520 B(  3-C , 48-H ) :  -0.1379
B(  3-C , 49-H ) :  -0.1142 B(  4-C ,  5-H ) :   0.9396 B(  4-C ,  6-H ) :   0.9075
B(  4-C ,  7-C ) :   1.1861 B(  4-C , 14-C ) :   0.3303 B(  4-C , 19-C ) :   0.2138
B(  4-C , 25-C ) :  -0.1127 B(  4-C , 29-C ) :   0.2620 B(  4-C , 44-C ) :  -0.2017
B(  4-C , 45-H ) :  -0.1363 B(  5-H ,  6-H ) :  -0.1847 B(  5-H ,  8-H ) :   0.1437
B(  5-H ,  9-N ) :  -0.1689 B(  5-H , 10-C ) :   0.1415 B(  6-H ,  7-C ) :   0.1760
B(  6-H , 10-C ) :   0.1351 B(  6-H , 19-C ) :  -0.2073 B(  6-H , 29-C ) :  -0.3964
B(  6-H , 30-H ) :  -0.1052 B(  6-H , 35-C ) :   0.1126 B(  7-C ,  8-H ) :   0.7976
B(  7-C ,  9-N ) :   0.2424 B(  7-C , 10-C ) :  -0.1241 B(  7-C , 19-C ) :  -0.4009
B(  7-C , 20-C ) :  -0.3007 B(  7-C , 23-C ) :   0.1054 B(  7-C , 25-C ) :  -0.4086
B(  7-C , 29-C ) :  -0.8335 B(  9-N , 20-C ) :   0.6894 B(  9-N , 22-H ) :  -0.1164
B(  9-N , 23-C ) :  -0.1040 B(  9-N , 24-H ) :  -0.1051 B( 10-C , 11-C ) :   0.1008
B( 10-C , 12-C ) :   0.9677 B( 10-C , 13-C ) :  -0.4933 B( 10-C , 14-C ) :   1.3299
B( 10-C , 35-C ) :   0.9175 B( 10-C , 44-C ) :  -0.1310 B( 11-C , 14-C ) :  -0.8774
B( 11-C , 48-H ) :   1.2527 B( 11-C , 49-H ) :   1.2458 B( 12-C , 13-C ) :   1.4842
B( 12-C , 14-C ) :  -0.4003 B( 12-C , 15-C ) :  -0.1370 B( 12-C , 51-H ) :   0.9222
B( 13-C , 15-C ) :   0.6626 B( 13-C , 16-H ) :  -0.1754 B( 13-C , 18-H ) :  -0.1401
B( 13-C , 50-H ) :   1.0900 B( 14-C , 35-C ) :  -0.1094 B( 14-C , 45-H ) :   0.1280
B( 14-C , 49-H ) :  -0.1081 B( 15-C , 16-H ) :   1.0456 B( 15-C , 17-H ) :   1.0193
B( 15-C , 18-H ) :   1.0240 B( 19-C , 20-C ) :   0.1969 B( 19-C , 23-C ) :  -0.1510
B( 19-C , 25-C ) :   0.9644 B( 19-C , 27-C ) :  -0.5808 B( 19-C , 29-C ) :   1.1049
B( 19-C , 33-C ) :  -0.4634 B( 20-C , 21-H ) :   1.0720 B( 20-C , 22-H ) :   1.0076
B( 20-C , 23-C ) :   1.1336 B( 23-C , 24-H ) :   1.0850 B( 23-C , 25-C ) :   0.3750
B( 23-C , 26-H ) :   1.1502 B( 25-C , 26-H ) :  -0.1890 B( 25-C , 27-C ) :   1.0192
B( 25-C , 28-H ) :  -0.1148 B( 25-C , 31-C ) :  -0.3164 B( 27-C , 28-H ) :   1.0570
B( 27-C , 31-C ) :   1.2801 B( 27-C , 32-H ) :  -0.2265 B( 27-C , 33-C ) :   0.2696
B( 29-C , 30-H ) :   1.1501 B( 29-C , 31-C ) :  -0.2235 B( 29-C , 33-C ) :   0.9140
B( 29-C , 34-H ) :  -0.1592 B( 31-C , 32-H ) :   1.1861 B( 31-C , 33-C ) :   1.3746
B( 32-H , 33-C ) :  -0.1592 B( 33-C , 34-H ) :   1.1713 B( 35-C , 38-H ) :  -0.1941
B( 35-C , 39-H ) :  -0.2124 B( 35-C , 40-C ) :  -0.2126 B( 35-C , 41-H ) :  -0.2289
B( 35-C , 42-H ) :  -0.2577 B( 35-C , 43-H ) :  -0.2150 B( 35-C , 45-H ) :  -0.1249
B( 35-C , 46-H ) :  -0.2601 B( 35-C , 47-H ) :  -0.2929 B( 36-C , 37-H ) :   0.9437
B( 36-C , 38-H ) :   1.2514 B( 36-C , 39-H ) :   1.2479 B( 36-C , 40-C ) :   0.1628
B( 36-C , 44-C ) :   0.1328 B( 40-C , 41-H ) :   1.1341 B( 40-C , 42-H ) :   1.1873
B( 40-C , 43-H ) :   1.2470 B( 40-C , 44-C ) :   0.1742 B( 44-C , 45-H ) :   1.0334
B( 44-C , 46-H ) :   1.2483 B( 44-C , 47-H ) :   1.3268

MP2 TOTAL ENERGY:     -908.826837843 Eh
FINAL SINGLE POINT ENERGY      -908.826837842842

DIPOLE MOMENT
-------------
                                X             Y             Z
Electronic contribution:    -18.87862      -3.74902       2.52748
Nuclear contribution   :     19.01032       3.59890      -2.87614
                        -----------------------------------------
Total Dipole Moment    :      0.13170      -0.15011      -0.34867
                        -----------------------------------------
Magnitude (a.u.)       :      0.40180
Magnitude (Debye)      :      1.02130

Rotational constants in cm-1:     0.014463     0.005667     0.004488
Rotational constants in MHz :   433.582549   169.897694   134.540668

                             ****ORCA TERMINATED NORMALLY****
TOTAL RUN TIME: 0 days 18 hours 18 minutes 43 seconds 965 msec
