                         Program Version 4.2.1 -  RELEASE  -
|  1> %pal
|  2>  nprocs 32
|  3> end
|  4> !RI-MP2 aug-cc-pVQZ aug-cc-pVQZ/C TightSCF
|  5> %maxcore 4500
|  6> *xyzfile 0 1  06_24P.xyz
|  7>
|  8>
|  9>                          ****END OF INPUT****

CARTESIAN COORDINATES (ANGSTROEM)
---------------------------------
  C      0.648503    2.595494    0.372259
  C      0.454733    1.219434    1.068882
  C     -2.159439    1.240975   -0.618622
  H      1.718701    2.748165    0.211483
  C     -0.587409    1.260166    2.206605
  H     -0.789021    0.241115    2.553838
  H     -0.132702    1.779793    3.057222
  H     -3.019171    1.061360   -1.270914
  H      1.406093    0.968573    1.545340
  C     -1.905059    1.960333    1.892452
  H     -2.501449    1.990172    2.809796
  H     -1.706463    3.006318    1.643693
  C     -2.762627    1.337710    0.795255
  H     -3.086020    0.343839    1.117836
  H     -3.678092    1.934329    0.719343
  C     -1.551373    2.587076   -1.090924
  H     -1.809469    2.725046   -2.145416
  C     -0.029933    2.759765   -0.994549
  H      0.442034    2.064304   -1.698277
  H      0.214930    3.755587   -1.376642
  H     -2.046966    3.406626   -0.559943
  H      0.328952    3.397086    1.045540
  C     -1.195458    0.052635   -0.817483
  H     -0.918235    0.003996   -1.881313
  Si    -1.954151   -1.683260   -0.572623
  C     -1.750477   -2.306053    1.191797
  H     -2.286367   -1.692933    1.919081
  H     -2.132988   -3.326995    1.276746
  H     -0.695357   -2.326139    1.477893
  C     -1.069646   -2.875920   -1.719973
  H     -1.458064   -3.891326   -1.604095
  H     -1.198578   -2.587678   -2.766603
  H      0.000584   -2.892467   -1.507731
  C     -3.779705   -1.656215   -1.026194
  H     -3.924955   -1.310631   -2.053090
  H     -4.197178   -2.664499   -0.957059
  H     -4.367167   -1.009628   -0.371503
  B      0.144835    0.147452   -0.038852
  C      3.509659    0.442686   -1.452258
  C      3.442753   -0.385547   -0.262025
  C      4.615921    1.032366   -1.903808
  C      2.298321   -0.910673    0.191837
  O      1.116196   -0.760062   -0.439259
  O      2.130331   -1.678153    1.283489
  C      3.274624   -1.979682    2.063038
  H      3.728165   -1.066364    2.457193
  H      2.923190   -2.599521    2.883905
  H      4.011743   -2.530668    1.473435
  H      2.582180    0.573212   -2.000302
  H      5.566339    0.927961   -1.391300
  H      4.604629    1.636458   -2.801607
  H      4.362124   -0.578293    0.272859

 Total Charge           Charge          ....    0
 Multiplicity           Mult            ....    1
 Number of Electrons    NEL             ....  168
 Basis Dimension        Dim             .... 3110

ORBITAL ENERGIES
----------------

  NO   OCC          E(Eh)            E(eV)
   0   2.0000     -68.740186     -1870.5156
   1   2.0000     -20.598887      -560.5242
   2   2.0000     -20.577475      -559.9416
   3   2.0000     -11.359273      -309.1015
   4   2.0000     -11.291689      -307.2625
   5   2.0000     -11.231920      -305.6361
   6   2.0000     -11.220095      -305.3143
   7   2.0000     -11.214506      -305.1622
   8   2.0000     -11.213873      -305.1450
   9   2.0000     -11.213312      -305.1297
  10   2.0000     -11.213161      -305.1256
  11   2.0000     -11.210442      -305.0516
  12   2.0000     -11.210161      -305.0440
  13   2.0000     -11.209844      -305.0354
  14   2.0000     -11.209079      -305.0145
  15   2.0000     -11.192325      -304.5587
  16   2.0000     -11.188495      -304.4544
  17   2.0000     -11.187040      -304.4148
  18   2.0000     -11.181567      -304.2659
  19   2.0000     -11.174687      -304.0787
  20   2.0000      -7.606824      -206.9922
  21   2.0000      -6.088806      -165.6848
  22   2.0000      -4.195307      -114.1601
  23   2.0000      -4.195167      -114.1563
  24   2.0000      -4.195128      -114.1552
  25   2.0000      -1.461430       -39.7675
  26   2.0000      -1.378255       -37.5042
  27   2.0000      -1.113260       -30.2934
  28   2.0000      -1.082322       -29.4515
  29   2.0000      -1.046201       -28.4686
  30   2.0000      -1.041713       -28.3465
  31   2.0000      -1.002765       -27.2866
  32   2.0000      -0.971961       -26.4484
  33   2.0000      -0.962924       -26.2025
  34   2.0000      -0.945623       -25.7317
  35   2.0000      -0.917622       -24.9698
  36   2.0000      -0.914561       -24.8865
  37   2.0000      -0.911630       -24.8067
  38   2.0000      -0.879525       -23.9331
  39   2.0000      -0.824521       -22.4364
  40   2.0000      -0.796771       -21.6812
  41   2.0000      -0.792105       -21.5543
  42   2.0000      -0.764875       -20.8133
  43   2.0000      -0.725927       -19.7535
  44   2.0000      -0.716491       -19.4967
  45   2.0000      -0.698788       -19.0150
  46   2.0000      -0.682462       -18.5707
  47   2.0000      -0.660289       -17.9674
  48   2.0000      -0.642137       -17.4734
  49   2.0000      -0.634516       -17.2661
  50   2.0000      -0.621368       -16.9083
  51   2.0000      -0.606825       -16.5125
  52   2.0000      -0.598710       -16.2917
  53   2.0000      -0.591989       -16.1088
  54   2.0000      -0.585494       -15.9321
  55   2.0000      -0.576847       -15.6968
  56   2.0000      -0.574899       -15.6438
  57   2.0000      -0.570354       -15.5201
  58   2.0000      -0.561404       -15.2766
  59   2.0000      -0.558177       -15.1888
  60   2.0000      -0.554884       -15.0991
  61   2.0000      -0.547245       -14.8913
  62   2.0000      -0.543147       -14.7798
  63   2.0000      -0.532449       -14.4887
  64   2.0000      -0.530506       -14.4358
  65   2.0000      -0.521752       -14.1976
  66   2.0000      -0.520196       -14.1552
  67   2.0000      -0.511573       -13.9206
  68   2.0000      -0.502893       -13.6844
  69   2.0000      -0.495959       -13.4957
  70   2.0000      -0.490453       -13.3459
  71   2.0000      -0.484607       -13.1868
  72   2.0000      -0.475979       -12.9520
  73   2.0000      -0.466883       -12.7045
  74   2.0000      -0.458078       -12.4649
  75   2.0000      -0.441850       -12.0233
  76   2.0000      -0.428823       -11.6689
  77   2.0000      -0.428201       -11.6519
  78   2.0000      -0.426527       -11.6064
  79   2.0000      -0.415780       -11.3140
  80   2.0000      -0.411649       -11.2015
  81   2.0000      -0.406001       -11.0478
  82   2.0000      -0.378398       -10.2967
  83   2.0000      -0.296707        -8.0738
  84   0.0000       0.019139         0.5208
  85   0.0000       0.023644         0.6434
  86   0.0000       0.025748         0.7006
  87   0.0000       0.026494         0.7209
  88   0.0000       0.033815         0.9202

MULLIKEN ATOMIC CHARGES
-----------------------
   0 C :   -0.583653
   1 C :    0.460226
   2 C :    0.985223
   3 H :    0.133180
   4 C :   -0.730356
   5 H :    0.243188
   6 H :    0.051245
   7 H :    0.314704
   8 H :    0.484219
   9 C :   -0.200749
  10 H :   -0.042828
  11 H :    0.105230
  12 C :   -0.701555
  13 H :    0.271521
  14 H :   -0.051685
  15 C :   -0.784304
  16 H :    0.010545
  17 C :   -0.735713
  18 H :    0.262482
  19 H :    0.115832
  20 H :    0.137634
  21 H :    0.098800
  22 C :   -1.400402
  23 H :   -0.106004
  24 Si:    1.928144
  25 C :   -1.202713
  26 H :    0.203093
  27 H :    0.114028
  28 H :    0.298306
  29 C :   -1.242610
  30 H :    0.316182
  31 H :    0.230679
  32 H :    0.392786
  33 C :   -0.973388
  34 H :    0.219743
  35 H :    0.224341
  36 H :    0.274615
  37 B :    2.471699
  38 C :   -0.813008
  39 C :   -0.336520
  40 C :   -0.883290
  41 C :    1.733607
  42 O :   -1.800706
  43 O :   -1.003973
  44 C :   -0.931802
  45 H :    0.338342
  46 H :    0.346485
  47 H :    0.334353
  48 H :    0.583041
  49 H :    0.319132
  50 H :    0.265230
  51 H :    0.257424
Sum of atomic charges:   -0.0000000

LOEWDIN ATOMIC CHARGES
----------------------
   0 C :    0.589992
   1 C :    0.341524
   2 C :    0.152754
   3 H :   -0.255827
   4 C :    0.575350
   5 H :   -0.265850
   6 H :   -0.250358
   7 H :   -0.303066
   8 H :   -0.321233
   9 C :    0.573752
  10 H :   -0.249568
  11 H :   -0.297771
  12 C :    0.558933
  13 H :   -0.310486
  14 H :   -0.247393
  15 C :    0.593358
  16 H :   -0.254759
  17 C :    0.576849
  18 H :   -0.284343
  19 H :   -0.249157
  20 H :   -0.271296
  21 H :   -0.268937
  22 C :    0.383070
  23 H :   -0.324867
  24 Si:    0.182136
  25 C :    1.024179
  26 H :   -0.336472
  27 H :   -0.320962
  28 H :   -0.333806
  29 C :    1.010479
  30 H :   -0.329161
  31 H :   -0.326773
  32 H :   -0.347111
  33 C :    1.013749
  34 H :   -0.324137
  35 H :   -0.328300
  36 H :   -0.339904
  37 B :   -1.126128
  38 C :    0.306256
  39 C :    0.305228
  40 C :    0.787421
  41 C :   -0.826832
  42 O :    1.008985
  43 O :    0.896777
  44 C :    0.591582
  45 H :   -0.300742
  46 H :   -0.309680
  47 H :   -0.301318
  48 H :   -0.358381
  49 H :   -0.359099
  50 H :   -0.361781
  51 H :   -0.386875

  Mayer bond orders larger than 0.100000
B(  0-C ,  1-C ) :   0.5600 B(  0-C ,  3-H ) :   1.1413 B(  0-C ,  4-C ) :   0.1015
B(  0-C ,  8-H ) :  -0.1981 B(  0-C , 17-C ) :   0.7346 B(  0-C , 19-H ) :  -0.1005
B(  0-C , 21-H ) :   1.3414 B(  1-C ,  2-C ) :   0.1359 B(  1-C ,  4-C ) :   0.2289
B(  1-C ,  5-H ) :  -0.1204 B(  1-C ,  8-H ) :   0.8457 B(  1-C ,  9-C ) :  -0.2331
B(  1-C , 21-H ) :  -0.2562 B(  1-C , 37-B ) :   0.9848 B(  1-C , 41-C ) :  -0.1061
B(  1-C , 43-O ) :  -0.1880 B(  2-C ,  7-H ) :   1.1774 B(  2-C ,  9-C ) :  -0.1106
B(  2-C , 12-C ) :   0.2693 B(  2-C , 13-H ) :  -0.1686 B(  2-C , 14-H ) :  -0.1161
B(  2-C , 15-C ) :   0.3180 B(  2-C , 16-H ) :  -0.2515 B(  2-C , 17-C ) :   0.1093
B(  2-C , 20-H ) :  -0.2562 B(  2-C , 22-C ) :   0.5128 B(  2-C , 23-H ) :  -0.1790
B(  2-C , 24-Si) :  -0.1915 B(  2-C , 33-C ) :  -0.1196 B(  2-C , 37-B ) :  -0.2732
B(  4-C ,  5-H ) :   1.1230 B(  4-C ,  6-H ) :   1.2588 B(  4-C ,  8-H ) :  -0.1058
B(  4-C ,  9-C ) :   0.6786 B(  4-C , 10-H ) :  -0.1243 B(  5-H , 37-B ) :  -0.1472
B(  7-H , 12-C ) :  -0.1180 B(  7-H , 22-C ) :  -0.1859 B(  9-C , 10-H ) :   1.2911
B(  9-C , 11-H ) :   1.2577 B(  9-C , 12-C ) :   0.4921 B(  9-C , 37-B ) :   0.1607
B( 10-H , 12-C ) :  -0.1421 B( 11-H , 12-C ) :  -0.1141 B( 12-C , 13-H ) :   1.0684
B( 12-C , 14-H ) :   1.3527 B( 12-C , 22-C ) :   0.1378 B( 15-C , 16-H ) :   1.3664
B( 15-C , 17-C ) :   0.7544 B( 15-C , 18-H ) :  -0.1138 B( 15-C , 20-H ) :   1.3334
B( 16-H , 17-C ) :  -0.1026 B( 17-C , 18-H ) :   1.0426 B( 17-C , 19-H ) :   1.1618
B( 17-C , 22-C ) :   0.1351 B( 17-C , 37-B ) :  -0.1533 B( 22-C , 23-H ) :   1.2106
B( 22-C , 24-Si) :   0.9651 B( 22-C , 29-C ) :   0.2167 B( 22-C , 33-C ) :   0.1368
B( 22-C , 37-B ) :   0.2775 B( 23-H , 37-B ) :   0.2899 B( 23-H , 42-O ) :  -0.1652
B( 24-Si, 25-C ) :   0.2910 B( 24-Si, 29-C ) :   0.7391 B( 24-Si, 30-H ) :  -0.1081
B( 24-Si, 31-H ) :  -0.1212 B( 24-Si, 33-C ) :   0.5374 B( 24-Si, 34-H ) :  -0.1421
B( 24-Si, 35-H ) :  -0.1695 B( 24-Si, 36-H ) :  -0.1612 B( 25-C , 26-H ) :   1.0032
B( 25-C , 27-H ) :   1.1947 B( 25-C , 28-H ) :   1.0046 B( 25-C , 37-B ) :   0.1930
B( 28-H , 37-B ) :  -0.1176 B( 29-C , 30-H ) :   0.9658 B( 29-C , 31-H ) :   1.0513
B( 29-C , 32-H ) :   0.8252 B( 29-C , 33-C ) :   0.1098 B( 29-C , 37-B ) :  -0.1569
B( 33-C , 34-H ) :   1.0573 B( 33-C , 35-H ) :   1.0879 B( 33-C , 36-H ) :   1.0095
B( 37-B , 38-C ) :  -0.2801 B( 37-B , 39-C ) :  -0.2207 B( 37-B , 42-O ) :  -1.3391
B( 37-B , 43-O ) :   0.3517 B( 38-C , 39-C ) :   0.5699 B( 38-C , 40-C ) :   1.7850
B( 38-C , 41-C ) :  -0.2479 B( 38-C , 48-H ) :   0.5365 B( 38-C , 50-H ) :  -0.1843
B( 39-C , 40-C ) :  -0.4065 B( 39-C , 41-C ) :   1.5137 B( 39-C , 51-H ) :   0.9473
B( 40-C , 49-H ) :   0.9664 B( 40-C , 50-H ) :   1.0984 B( 41-C , 42-O ) :   1.0196
B( 41-C , 44-C ) :  -0.1516 B( 42-O , 43-O ) :  -0.1652 B( 43-O , 44-C ) :   0.9382
B( 44-C , 45-H ) :   0.8766 B( 44-C , 46-H ) :   0.9628 B( 44-C , 47-H ) :   0.9193

MP2 TOTAL ENERGY:    -1129.401863969 Eh
FINAL SINGLE POINT ENERGY     -1129.401863969270

DIPOLE MOMENT
-------------
                                X             Y             Z
Electronic contribution:      8.45836      -4.10510      -1.55304
Nuclear contribution   :     -8.24558       4.15265       2.22353
                        -----------------------------------------
Total Dipole Moment    :      0.21278       0.04755       0.67049
                        -----------------------------------------
Magnitude (a.u.)       :      0.70505
Magnitude (Debye)      :      1.79209

Rotational constants in cm-1:     0.011794     0.007874     0.006516
Rotational constants in MHz :   353.585272   236.069124   195.341946

                             ****ORCA TERMINATED NORMALLY****
TOTAL RUN TIME: 0 days 16 hours 13 minutes 36 seconds 603 msec
