                         Program Version 4.2.1 -  RELEASE  -
|  1> %pal
|  2>  nprocs 32
|  3> end
|  4> !RI-MP2 aug-cc-pVQZ aug-cc-pVQZ/C TightSCF
|  5> %maxcore 4500
|  6> *xyzfile 1 1  10_15P.xyz
|  7>
|  8>
|  9>                          ****END OF INPUT****

CARTESIAN COORDINATES (ANGSTROEM)
---------------------------------
  C     -1.912584   -0.585062    0.393568
  N     -0.505815   -0.917388    0.154198
  N      0.212488    0.079824    0.254182
  C      1.628852    0.010038    0.053468
  C      2.411333    1.116864    0.364116
  C      2.185481   -1.166572   -0.441146
  C      3.781637    1.037187    0.177705
  H      1.978615    2.027036    0.754790
  C      3.553246   -1.225782   -0.624245
  H      1.552712   -2.010150   -0.677802
  C      4.350988   -0.128168   -0.315543
  H      4.403628    1.888854    0.419312
  H      4.001077   -2.131259   -1.012158
  H      5.422187   -0.183189   -0.462459
  C     -2.751615   -1.004741   -0.839508
  C     -2.328048   -1.288862    1.682350
  H     -1.772615   -0.914017    2.544756
  H     -3.389924   -1.106764    1.853028
  H     -2.170257   -2.364571    1.604463
  C     -1.951671    0.968443    0.444940
  C     -0.493745    1.356007    0.607895
  C     -2.615053    1.394998   -0.871108
  H     -3.106217    2.364808   -0.796897
  H     -1.864328    1.467540   -1.665952
  C     -3.573081    0.243125   -1.173592
  H     -2.088043   -1.250499   -1.672203
  H     -3.353137   -1.888330   -0.631223
  H     -4.450717    0.305385   -0.524622
  H     -3.928459    0.242892   -2.203257
  H     -0.204388    1.609650    1.628018
  H     -0.154872    2.136876   -0.070284
  H     -2.536404    1.303842    1.300437

 Total Charge           Charge          ....    1
 Multiplicity           Mult            ....    1
 Number of Electrons    NEL             ....  108
 Basis Dimension        Dim             .... 1982

ORBITAL ENERGIES
----------------

  NO   OCC          E(Eh)            E(eV)
   0   2.0000     -15.889557      -432.3768
   1   2.0000     -15.833466      -430.8505
   2   2.0000     -11.446786      -311.4829
   3   2.0000     -11.434395      -311.1457
   4   2.0000     -11.431535      -311.0679
   5   2.0000     -11.391276      -309.9724
   6   2.0000     -11.388664      -309.9013
   7   2.0000     -11.384084      -309.7767
   8   2.0000     -11.373934      -309.5005
   9   2.0000     -11.371031      -309.4215
  10   2.0000     -11.370174      -309.3982
  11   2.0000     -11.362857      -309.1991
  12   2.0000     -11.362261      -309.1828
  13   2.0000     -11.358501      -309.0805
  14   2.0000     -11.349207      -308.8276
  15   2.0000      -1.622324       -44.1457
  16   2.0000      -1.338945       -36.4345
  17   2.0000      -1.292170       -35.1617
  18   2.0000      -1.262934       -34.3662
  19   2.0000      -1.195402       -32.5285
  20   2.0000      -1.170068       -31.8392
  21   2.0000      -1.160013       -31.5656
  22   2.0000      -1.106435       -30.1076
  23   2.0000      -1.073735       -29.2178
  24   2.0000      -1.014513       -27.6063
  25   2.0000      -0.986770       -26.8514
  26   2.0000      -0.959265       -26.1029
  27   2.0000      -0.935621       -25.4595
  28   2.0000      -0.928091       -25.2546
  29   2.0000      -0.893058       -24.3013
  30   2.0000      -0.846235       -23.0272
  31   2.0000      -0.820759       -22.3340
  32   2.0000      -0.811457       -22.0809
  33   2.0000      -0.786944       -21.4138
  34   2.0000      -0.774607       -21.0781
  35   2.0000      -0.758456       -20.6386
  36   2.0000      -0.747769       -20.3478
  37   2.0000      -0.744907       -20.2699
  38   2.0000      -0.738812       -20.1041
  39   2.0000      -0.719006       -19.5651
  40   2.0000      -0.694764       -18.9055
  41   2.0000      -0.691488       -18.8163
  42   2.0000      -0.677256       -18.4291
  43   2.0000      -0.658721       -17.9247
  44   2.0000      -0.646481       -17.5916
  45   2.0000      -0.641439       -17.4544
  46   2.0000      -0.637417       -17.3450
  47   2.0000      -0.622762       -16.9462
  48   2.0000      -0.613536       -16.6952
  49   2.0000      -0.608178       -16.5494
  50   2.0000      -0.603473       -16.4213
  51   2.0000      -0.597937       -16.2707
  52   2.0000      -0.483605       -13.1596
  53   2.0000      -0.479845       -13.0572
  54   0.0000      -0.107183        -2.9166
  55   0.0000      -0.069158        -1.8819
  56   0.0000      -0.056618        -1.5407
  57   0.0000      -0.055180        -1.5015
  58   0.0000      -0.052204        -1.4205

MULLIKEN ATOMIC CHARGES
-----------------------
   0 C :    1.437791
   1 N :   -0.602798
   2 N :    0.205294
   3 C :    1.159785
   4 C :   -0.248633
   5 C :   -0.559434
   6 C :   -0.461715
   7 H :    0.185229
   8 C :   -0.326411
   9 H :    0.264274
  10 C :   -0.455789
  11 H :    0.264178
  12 H :    0.273174
  13 H :    0.337762
  14 C :   -0.766479
  15 C :   -1.139942
  16 H :    0.261670
  17 H :    0.271358
  18 H :    0.256917
  19 C :   -0.213132
  20 C :   -0.511862
  21 C :   -0.607289
  22 H :    0.292352
  23 H :    0.186794
  24 C :   -0.604227
  25 H :    0.236577
  26 H :    0.319224
  27 H :    0.199516
  28 H :    0.311625
  29 H :    0.364725
  30 H :    0.335062
  31 H :    0.334404
Sum of atomic charges:    1.0000000

LOEWDIN ATOMIC CHARGES
----------------------
   0 C :   -0.431231
   1 N :    0.636086
   2 N :    0.299966
   3 C :   -0.192297
   4 C :    0.363275
   5 C :    0.359746
   6 C :    0.388150
   7 H :   -0.330056
   8 C :    0.386814
   9 H :   -0.323189
  10 C :    0.384190
  11 H :   -0.302276
  12 H :   -0.302472
  13 H :   -0.298506
  14 C :    0.561258
  15 C :    0.961185
  16 H :   -0.253923
  17 H :   -0.254858
  18 H :   -0.255713
  19 C :    0.152629
  20 C :    0.487229
  21 C :    0.577135
  22 H :   -0.230284
  23 H :   -0.253366
  24 C :    0.577112
  25 H :   -0.256014
  26 H :   -0.247039
  27 H :   -0.244097
  28 H :   -0.236811
  29 H :   -0.228272
  30 H :   -0.253364
  31 H :   -0.241008

  Mayer bond orders larger than 0.100000
B(  0-C ,  1-N ) :   0.6418 B(  0-C ,  2-N ) :  -0.3843 B(  0-C , 14-C ) :   0.3651
B(  0-C , 15-C ) :   0.1436 B(  0-C , 16-H ) :  -0.1314 B(  0-C , 17-H ) :  -0.1320
B(  0-C , 18-H ) :  -0.1956 B(  0-C , 19-C ) :   0.7562 B(  0-C , 25-H ) :  -0.1095
B(  1-N ,  2-N ) :   0.2520 B(  1-N ,  3-C ) :  -0.1072 B(  1-N , 14-C ) :   0.1350
B(  2-N ,  3-C ) :   1.0150 B(  2-N ,  4-C ) :   0.1201 B(  2-N ,  5-C ) :   0.1519
B(  2-N , 19-C ) :   0.1739 B(  2-N , 20-C ) :   0.6407 B(  3-C ,  4-C ) :   0.7466
B(  3-C ,  5-C ) :   0.5740 B(  3-C ,  6-C ) :  -0.4336 B(  3-C ,  8-C ) :  -0.4105
B(  3-C , 10-C ) :  -0.2164 B(  3-C , 20-C ) :  -0.1068 B(  4-C ,  6-C ) :   1.2206
B(  4-C ,  7-H ) :   1.0553 B(  4-C , 11-H ) :  -0.1299 B(  4-C , 20-C ) :  -0.1111
B(  5-C ,  6-C ) :   0.1355 B(  5-C ,  8-C ) :   1.2595 B(  5-C ,  9-H ) :   0.9622
B(  5-C , 10-C ) :   0.1340 B(  5-C , 12-H ) :  -0.1595 B(  6-C , 10-C ) :   1.2117
B(  6-C , 11-H ) :   1.1214 B(  8-C , 10-C ) :   1.1454 B(  8-C , 12-H ) :   1.1322
B( 10-C , 11-H ) :  -0.1141 B( 10-C , 13-H ) :   1.0190 B( 14-C , 15-C ) :   0.1078
B( 14-C , 24-C ) :   0.9880 B( 14-C , 25-H ) :   1.0219 B( 14-C , 26-H ) :   0.9254
B( 15-C , 16-H ) :   1.0378 B( 15-C , 17-H ) :   1.0376 B( 15-C , 18-H ) :   1.0917
B( 15-C , 19-C ) :   0.1245 B( 19-C , 20-C ) :   1.0724 B( 19-C , 21-C ) :   0.6462
B( 19-C , 23-H ) :  -0.1108 B( 19-C , 24-C ) :  -0.1565 B( 19-C , 31-H ) :   0.8540
B( 20-C , 29-H ) :   0.8660 B( 20-C , 30-H ) :   0.9258 B( 21-C , 22-H ) :   0.8877
B( 21-C , 23-H ) :   1.0575 B( 21-C , 24-C ) :   1.0605 B( 24-C , 27-H ) :   1.0155
B( 24-C , 28-H ) :   0.8707

MP2 TOTAL ENERGY:     -613.766967839 Eh
FINAL SINGLE POINT ENERGY      -613.766967839270

DIPOLE MOMENT
-------------
                                X             Y             Z
Electronic contribution:     11.61640      -0.97018      -0.02533
Nuclear contribution   :    -11.86084       1.51853       0.39697
                        -----------------------------------------
Total Dipole Moment    :     -0.24444       0.54835       0.37164
                        -----------------------------------------
Magnitude (a.u.)       :      0.70608
Magnitude (Debye)      :      1.79472

Rotational constants in cm-1:     0.050520     0.011396     0.010710
Rotational constants in MHz :  1514.558241   341.637050   321.088954

                             ****ORCA TERMINATED NORMALLY****
TOTAL RUN TIME: 0 days 4 hours 25 minutes 15 seconds 122 msec
