                         Program Version 4.2.1 -  RELEASE  -
|  1> %pal
|  2>  nprocs 32
|  3> end
|  4> !RI-MP2 aug-cc-pVQZ aug-cc-pVQZ/C TightSCF
|  5> %maxcore 4500
|  6> *xyzfile 0 1  06_8R1.xyz
|  7>
|  8>
|  9>                          ****END OF INPUT****

CARTESIAN COORDINATES (ANGSTROEM)
---------------------------------
  C     -0.658352   -1.465003   -0.000034
  C      0.150316   -0.329021   -0.000061
  C     -0.386738    0.977916   -0.000009
  C     -1.776468    1.138041    0.000025
  C     -2.580947    0.016468    0.000033
  C     -2.026250   -1.273621    0.000010
  H     -0.235250   -2.462193   -0.000034
  H     -2.213978    2.129575    0.000049
  H     -3.658349    0.128201    0.000064
  H     -2.684072   -2.134255    0.000031
  C      0.727145    1.880800   -0.000015
  C      1.853552    1.115402   -0.000040
  H      2.890810    1.412765   -0.000053
  N      1.521658   -0.222077   -0.000121
  H      0.693126    2.958249   -0.000021
  C      2.444036   -1.331776    0.000138
  H      2.307489   -1.953691   -0.887991
  H      3.462347   -0.946800   -0.000711
  H      2.308497   -1.952552    0.889228

 Total Charge           Charge          ....    0
 Multiplicity           Mult            ....    1
 Number of Electrons    NEL             ....   70
 Basis Dimension        Dim             .... 1214

ORBITAL ENERGIES
----------------

  NO   OCC          E(Eh)            E(eV)
   0   2.0000     -15.599614      -424.4871
   1   2.0000     -11.273680      -306.7724
   2   2.0000     -11.264982      -306.5357
   3   2.0000     -11.257225      -306.3247
   4   2.0000     -11.226966      -305.5013
   5   2.0000     -11.225651      -305.4655
   6   2.0000     -11.224459      -305.4331
   7   2.0000     -11.220865      -305.3353
   8   2.0000     -11.216566      -305.2183
   9   2.0000     -11.211219      -305.0728
  10   2.0000      -1.306356       -35.5478
  11   2.0000      -1.135777       -30.9061
  12   2.0000      -1.073937       -29.2233
  13   2.0000      -1.010941       -27.5091
  14   2.0000      -0.978714       -26.6322
  15   2.0000      -0.933046       -25.3895
  16   2.0000      -0.836921       -22.7738
  17   2.0000      -0.796923       -21.6854
  18   2.0000      -0.772370       -21.0172
  19   2.0000      -0.700513       -19.0619
  20   2.0000      -0.663612       -18.0578
  21   2.0000      -0.647505       -17.6195
  22   2.0000      -0.641164       -17.4469
  23   2.0000      -0.608123       -16.5479
  24   2.0000      -0.588145       -16.0042
  25   2.0000      -0.579196       -15.7607
  26   2.0000      -0.559570       -15.2267
  27   2.0000      -0.541474       -14.7343
  28   2.0000      -0.540733       -14.7141
  29   2.0000      -0.505162       -13.7461
  30   2.0000      -0.479355       -13.0439
  31   2.0000      -0.458125       -12.4662
  32   2.0000      -0.379351       -10.3227
  33   2.0000      -0.298097        -8.1116
  34   2.0000      -0.281239        -7.6529
  35   0.0000       0.021962         0.5976
  36   0.0000       0.027577         0.7504
  37   0.0000       0.029797         0.8108
  38   0.0000       0.039361         1.0711
  39   0.0000       0.039516         1.0753

MULLIKEN ATOMIC CHARGES
-----------------------
   0 C :   -0.436361
   1 C :    1.127437
   2 C :   -0.059759
   3 C :   -0.461481
   4 C :   -0.439274
   5 C :   -0.301761
   6 H :    0.271957
   7 H :    0.279588
   8 H :    0.238376
   9 H :    0.251380
  10 C :   -0.107321
  11 C :   -0.905603
  12 H :    0.285009
  13 N :   -0.058813
  14 H :    0.354555
  15 C :   -0.966808
  16 H :    0.297399
  17 H :    0.333949
  18 H :    0.297531
Sum of atomic charges:    0.0000000

LOEWDIN ATOMIC CHARGES
----------------------
   0 C :    0.372457
   1 C :   -0.296419
   2 C :   -0.147028
   3 C :    0.359620
   4 C :    0.328766
   5 C :    0.331217
   6 H :   -0.321920
   7 H :   -0.316541
   8 H :   -0.332834
   9 H :   -0.328134
  10 C :    0.371121
  11 C :    0.220975
  12 H :   -0.296239
  13 N :    0.416337
  14 H :   -0.320019
  15 C :    0.805177
  16 H :   -0.273762
  17 H :   -0.299084
  18 H :   -0.273688

  Mayer bond orders larger than 0.100000
B(  0-C ,  1-C ) :   1.0034 B(  0-C ,  2-C ) :  -0.1842 B(  0-C ,  3-C ) :   0.1273
B(  0-C ,  5-C ) :   1.3157 B(  0-C ,  6-H ) :   0.9981 B(  0-C ,  9-H ) :  -0.1554
B(  0-C , 13-N ) :  -0.2095 B(  1-C ,  2-C ) :   0.8322 B(  1-C ,  3-C ) :  -0.2439
B(  1-C ,  5-C ) :  -0.4139 B(  1-C , 10-C ) :  -0.1559 B(  1-C , 11-C ) :  -0.3462
B(  1-C , 13-N ) :   0.8631 B(  1-C , 15-C ) :  -0.1235 B(  2-C ,  3-C ) :   1.0941
B(  2-C ,  4-C ) :  -0.1395 B(  2-C ,  5-C ) :   0.1043 B(  2-C ,  7-H ) :  -0.1694
B(  2-C , 10-C ) :   0.9417 B(  3-C ,  4-C ) :   1.2957 B(  3-C ,  7-H ) :   1.0541
B(  3-C ,  8-H ) :  -0.1646 B(  3-C , 10-C ) :  -0.1630 B(  4-C ,  5-C ) :   1.0804
B(  4-C ,  8-H ) :   1.1489 B(  4-C ,  9-H ) :  -0.1094 B(  5-C ,  8-H ) :  -0.1065
B(  5-C ,  9-H ) :   1.1449 B( 10-C , 11-C ) :   1.4475 B( 10-C , 12-H ) :  -0.1081
B( 10-C , 13-N ) :  -0.2080 B( 10-C , 14-H ) :   0.9561 B( 11-C , 12-H ) :   1.1550
B( 11-C , 13-N ) :   1.1672 B( 11-C , 14-H ) :  -0.1092 B( 13-N , 15-C ) :   0.7143
B( 15-C , 16-H ) :   0.9997 B( 15-C , 17-H ) :   0.8856 B( 15-C , 18-H ) :   0.9995

MP2 TOTAL ENERGY:     -402.409262698 Eh
FINAL SINGLE POINT ENERGY      -402.409262698277

DIPOLE MOMENT
-------------
                                X             Y             Z
Electronic contribution:     -2.04546       2.45182      -0.00051
Nuclear contribution   :      2.88585      -2.82818       0.00056
                        -----------------------------------------
Total Dipole Moment    :      0.84040      -0.37636       0.00005
                        -----------------------------------------
Magnitude (a.u.)       :      0.92083
Magnitude (Debye)      :      2.34055

Rotational constants in cm-1:     0.089123     0.043737     0.029502
Rotational constants in MHz :  2671.836662  1311.192707   884.455606

                             ****ORCA TERMINATED NORMALLY****
TOTAL RUN TIME: 0 days 0 hours 55 minutes 37 seconds 40 msec
