                         Program Version 4.2.1 -  RELEASE  -
|  1> %pal
|  2>  nprocs 32
|  3> end
|  4> !RI-MP2 aug-cc-pVQZ aug-cc-pVQZ/C TightSCF
|  5> %maxcore 4500
|  6> *xyzfile 0 1  02_17R.xyz
|  7>
|  8>
|  9>                          ****END OF INPUT****

CARTESIAN COORDINATES (ANGSTROEM)
---------------------------------
  C      2.587148   -0.526237   -0.320022
  C      1.300888   -1.250932   -0.062149
  C     -1.369120    1.611448    0.148653
  C      2.271065    0.873519   -0.871063
  H      3.161150   -0.419429    0.609141
  C      1.148851    1.604500   -0.112585
  H      3.187953    1.463953   -0.843049
  H      2.000554    0.766975   -1.924275
  C     -0.214836    1.451224   -0.792028
  H      1.092689    1.209971    0.910944
  C      0.732133   -1.483719    1.123520
  C     -0.723126   -1.700606    1.200389
  C     -2.542671    0.980720    0.102279
  C     -1.535789   -2.180273    0.266560
  C      1.415695   -1.315810    2.453643
  H      1.206654   -2.179101    3.090513
  H      1.035245   -0.434117    2.979773
  H      2.495528   -1.218105    2.367016
  H     -0.264116    2.224377   -1.565859
  H     -0.281223    0.501090   -1.316271
  C     -3.010718   -1.965100    0.324828
  H     -3.581137   -2.882599    0.184653
  H     -3.299343   -1.518312    1.277916
  C     -2.865330    0.066812   -1.042611
  O      3.396745   -1.165982   -1.289359
  O      1.387568    3.003073   -0.020537
  O     -2.727677    0.396357   -2.187071
  O     -3.431459   -1.144743   -0.785357
  C      3.945570   -2.385901   -0.845602
  H      3.164857   -3.107982   -0.581012
  H      4.540810   -2.786065   -1.664687
  H      4.594371   -2.233762    0.026947
  C      2.332773    3.362624    0.956044
  H      2.409162    4.448963    0.946645
  H      2.014559    3.034095    1.954565
  H      3.324068    2.940754    0.750778
  C     -3.656409    1.261643    1.075682
  H     -4.526313    1.671578    0.555416
  H     -3.332825    1.990792    1.818924
  H     -3.997028    0.368082    1.601912
  H     -1.151117   -2.624411   -0.646648
  H     -1.180882   -1.279354    2.094440
  H      0.704994   -1.396478   -0.957378
  H     -1.216772    2.325964    0.954959

 Total Charge           Charge          ....    0
 Multiplicity           Mult            ....    1
 Number of Electrons    NEL             ....  152
 Basis Dimension        Dim             .... 2704

ORBITAL ENERGIES
----------------

  NO   OCC          E(Eh)            E(eV)
   0   2.0000     -20.586436      -560.1854
   1   2.0000     -20.558245      -559.4183
   2   2.0000     -20.555550      -559.3450
   3   2.0000     -20.534124      -558.7619
   4   2.0000     -11.371986      -309.4475
   5   2.0000     -11.301342      -307.5251
   6   2.0000     -11.290809      -307.2385
   7   2.0000     -11.283733      -307.0460
   8   2.0000     -11.273443      -306.7660
   9   2.0000     -11.271245      -306.7062
  10   2.0000     -11.253150      -306.2138
  11   2.0000     -11.249663      -306.1189
  12   2.0000     -11.244917      -305.9898
  13   2.0000     -11.242580      -305.9261
  14   2.0000     -11.238179      -305.8064
  15   2.0000     -11.237289      -305.7822
  16   2.0000     -11.233938      -305.6910
  17   2.0000     -11.233377      -305.6757
  18   2.0000     -11.222938      -305.3917
  19   2.0000     -11.222345      -305.3755
  20   2.0000      -1.446176       -39.3525
  21   2.0000      -1.382884       -37.6302
  22   2.0000      -1.379336       -37.5337
  23   2.0000      -1.353781       -36.8383
  24   2.0000      -1.138673       -30.9849
  25   2.0000      -1.112387       -30.2696
  26   2.0000      -1.082680       -29.4612
  27   2.0000      -1.056145       -28.7392
  28   2.0000      -1.018458       -27.7136
  29   2.0000      -0.965345       -26.2684
  30   2.0000      -0.959906       -26.1204
  31   2.0000      -0.943979       -25.6870
  32   2.0000      -0.923404       -25.1271
  33   2.0000      -0.902309       -24.5531
  34   2.0000      -0.855095       -23.2683
  35   2.0000      -0.846626       -23.0379
  36   2.0000      -0.807303       -21.9678
  37   2.0000      -0.795799       -21.6548
  38   2.0000      -0.740521       -20.1506
  39   2.0000      -0.738341       -20.0913
  40   2.0000      -0.691814       -18.8252
  41   2.0000      -0.683166       -18.5899
  42   2.0000      -0.677801       -18.4439
  43   2.0000      -0.668866       -18.2008
  44   2.0000      -0.661215       -17.9926
  45   2.0000      -0.652249       -17.7486
  46   2.0000      -0.643875       -17.5207
  47   2.0000      -0.637318       -17.3423
  48   2.0000      -0.636421       -17.3179
  49   2.0000      -0.618232       -16.8229
  50   2.0000      -0.613083       -16.6828
  51   2.0000      -0.596648       -16.2356
  52   2.0000      -0.593387       -16.1469
  53   2.0000      -0.589013       -16.0279
  54   2.0000      -0.579954       -15.7813
  55   2.0000      -0.570979       -15.5371
  56   2.0000      -0.560789       -15.2599
  57   2.0000      -0.554814       -15.0973
  58   2.0000      -0.547741       -14.9048
  59   2.0000      -0.542311       -14.7570
  60   2.0000      -0.531526       -14.4636
  61   2.0000      -0.524684       -14.2774
  62   2.0000      -0.519291       -14.1306
  63   2.0000      -0.512019       -13.9327
  64   2.0000      -0.498800       -13.5730
  65   2.0000      -0.495658       -13.4875
  66   2.0000      -0.490375       -13.3438
  67   2.0000      -0.479514       -13.0482
  68   2.0000      -0.463225       -12.6050
  69   2.0000      -0.453812       -12.3488
  70   2.0000      -0.440322       -11.9818
  71   2.0000      -0.430143       -11.7048
  72   2.0000      -0.426088       -11.5944
  73   2.0000      -0.417466       -11.3598
  74   2.0000      -0.359937        -9.7944
  75   2.0000      -0.326789        -8.8924
  76   0.0000       0.014784         0.4023
  77   0.0000       0.022860         0.6221
  78   0.0000       0.024175         0.6578
  79   0.0000       0.029198         0.7945
  80   0.0000       0.033276         0.9055

MULLIKEN ATOMIC CHARGES
-----------------------
   0 C :    1.903925
   1 C :   -0.546693
   2 C :   -0.497838
   3 C :   -1.068653
   4 H :    0.128035
   5 C :    1.826194
   6 H :    0.276988
   7 H :    0.202811
   8 C :   -0.620146
   9 H :   -0.079026
  10 C :    1.083983
  11 C :   -0.254439
  12 C :   -0.032602
  13 C :   -0.687266
  14 C :   -1.075982
  15 H :    0.240388
  16 H :    0.159052
  17 H :    0.275067
  18 H :    0.448410
  19 H :    0.068350
  20 C :   -0.295052
  21 H :    0.460675
  22 H :    0.185090
  23 C :    2.299811
  24 O :   -1.231061
  25 O :   -1.260493
  26 O :   -1.146146
  27 O :   -1.146369
  28 C :   -0.808468
  29 H :    0.234221
  30 H :    0.424884
  31 H :    0.243660
  32 C :   -0.809371
  33 H :    0.445244
  34 H :    0.215766
  35 H :    0.219933
  36 C :   -1.043754
  37 H :    0.275513
  38 H :    0.228188
  39 H :    0.212376
  40 H :    0.172676
  41 H :    0.098739
  42 H :    0.134903
  43 H :    0.138476
Sum of atomic charges:   -0.0000000

LOEWDIN ATOMIC CHARGES
----------------------
   0 C :   -0.241988
   1 C :    0.338254
   2 C :    0.399405
   3 C :    0.535714
   4 H :   -0.337416
   5 C :   -0.225731
   6 H :   -0.290843
   7 H :   -0.273010
   8 C :    0.489968
   9 H :   -0.350066
  10 C :   -0.014972
  11 C :    0.353592
  12 C :   -0.084467
  13 C :    0.380620
  14 C :    0.917763
  15 H :   -0.272204
  16 H :   -0.270567
  17 H :   -0.311090
  18 H :   -0.262247
  19 H :   -0.361252
  20 C :    0.183338
  21 H :   -0.306405
  22 H :   -0.360653
  23 C :   -1.094721
  24 O :    0.910142
  25 O :    0.921397
  26 O :    0.714364
  27 O :    0.851822
  28 C :    0.579608
  29 H :   -0.310223
  30 H :   -0.318489
  31 H :   -0.298819
  32 C :    0.581092
  33 H :   -0.314880
  34 H :   -0.298410
  35 H :   -0.312572
  36 C :    0.904515
  37 H :   -0.268283
  38 H :   -0.300668
  39 H :   -0.315588
  40 H :   -0.304634
  41 H :   -0.323455
  42 H :   -0.335684
  43 H :   -0.302257

  Mayer bond orders larger than 0.100000
B(  0-C ,  1-C ) :   0.7409 B(  0-C ,  3-C ) :   0.6557 B(  0-C ,  4-H ) :   1.0395
B(  0-C , 10-C ) :  -0.1664 B(  0-C , 24-O ) :  -0.8368 B(  0-C , 28-C ) :  -0.5326
B(  0-C , 29-H ) :  -0.1179 B(  1-C , 10-C ) :   1.3031 B(  1-C , 11-C ) :  -0.4816
B(  1-C , 14-C ) :   0.1750 B(  1-C , 17-H ) :   0.1246 B(  1-C , 24-O ) :   0.5271
B(  1-C , 28-C ) :   0.1192 B(  1-C , 42-H ) :   1.1883 B(  2-C ,  8-C ) :   0.9860
B(  2-C , 12-C ) :   1.0632 B(  2-C , 18-H ) :  -0.1253 B(  2-C , 26-O ) :   0.1556
B(  2-C , 43-H ) :   1.2653 B(  3-C ,  5-C ) :   0.7002 B(  3-C ,  6-H ) :   1.0412
B(  3-C ,  7-H ) :   1.1163 B(  3-C , 24-O ) :   0.2962 B(  3-C , 25-O ) :   0.2300
B(  5-C ,  6-H ) :  -0.1376 B(  5-C ,  8-C ) :   0.8457 B(  5-C ,  9-H ) :   1.0553
B(  5-C , 12-C ) :   0.1117 B(  5-C , 25-O ) :  -0.8186 B(  5-C , 32-C ) :  -0.5766
B(  5-C , 34-H ) :  -0.1128 B(  5-C , 35-H ) :  -0.1214 B(  8-C , 18-H ) :   0.8670
B(  8-C , 19-H ) :   0.9583 B(  8-C , 25-O ) :   0.2413 B(  8-C , 26-O ) :   0.1146
B(  9-H , 25-O ) :   0.3575 B( 10-C , 11-C ) :  -0.3710 B( 10-C , 13-C ) :  -0.7021
B( 10-C , 14-C ) :   0.3347 B( 10-C , 15-H ) :  -0.2360 B( 10-C , 16-H ) :  -0.1859
B( 10-C , 17-H ) :  -0.1785 B( 10-C , 41-H ) :  -0.2593 B( 11-C , 13-C ) :   1.4690
B( 11-C , 14-C ) :  -0.1413 B( 11-C , 20-C ) :  -0.1901 B( 11-C , 41-H ) :   1.3080
B( 12-C , 23-C ) :   0.8835 B( 12-C , 26-O ) :   0.3634 B( 12-C , 36-C ) :   0.3463
B( 12-C , 37-H ) :  -0.2187 B( 12-C , 38-H ) :  -0.1108 B( 12-C , 39-H ) :  -0.1837
B( 12-C , 43-H ) :  -0.1062 B( 13-C , 20-C ) :   1.1164 B( 13-C , 40-H ) :   1.1203
B( 14-C , 15-H ) :   1.1450 B( 14-C , 16-H ) :   1.1122 B( 14-C , 17-H ) :   1.0486
B( 20-C , 21-H ) :   0.8441 B( 20-C , 22-H ) :   1.0473 B( 20-C , 27-O ) :   0.6076
B( 23-C , 26-O ) :   0.3794 B( 23-C , 27-O ) :   0.4763 B( 24-O , 28-C ) :   1.1782
B( 25-O , 32-C ) :   1.2185 B( 25-O , 34-H ) :   0.1233 B( 26-O , 27-O ) :   0.1672
B( 28-C , 29-H ) :   0.9455 B( 28-C , 30-H ) :   0.8624 B( 28-C , 31-H ) :   0.9410
B( 32-C , 33-H ) :   0.8313 B( 32-C , 34-H ) :   0.9570 B( 32-C , 35-H ) :   0.9888
B( 36-C , 37-H ) :   1.1168 B( 36-C , 38-H ) :   1.0475 B( 36-C , 39-H ) :   1.1150

MP2 TOTAL ENERGY:     -923.467820659 Eh
FINAL SINGLE POINT ENERGY      -923.467820659087

DIPOLE MOMENT
-------------
                                X             Y             Z
Electronic contribution:    -11.48226      -1.40999     -10.34723
Nuclear contribution   :     12.30004       0.90013      12.78643
                        -----------------------------------------
Total Dipole Moment    :      0.81778      -0.50985       2.43920
                        -----------------------------------------
Magnitude (a.u.)       :      2.62268
Magnitude (Debye)      :      6.66631

Rotational constants in cm-1:     0.014284     0.008375     0.006715
Rotational constants in MHz :   428.217830   251.074275   201.302079

                             ****ORCA TERMINATED NORMALLY****
TOTAL RUN TIME: 0 days 10 hours 47 minutes 26 seconds 355 msec
