                         Program Version 4.2.1 -  RELEASE  -
|  1> %pal
|  2>  nprocs 32
|  3> end
|  4> !RI-MP2 aug-cc-pVQZ aug-cc-pVQZ/C TightSCF
|  5> %maxcore 4500
|  6> *xyzfile -1 1  08_5R2.xyz
|  7>
|  8>
|  9>                          ****END OF INPUT****

CARTESIAN COORDINATES (ANGSTROEM)
---------------------------------
  O     -2.943995   -0.974048   -0.397166
  C     -2.068427   -0.193757    0.013785
  O     -2.202626    0.861064    0.681250
  C     -0.610205   -0.600319   -0.359238
  C      0.448006    0.336690    0.222912
  H     -0.528929   -0.605461   -1.449699
  H     -0.452700   -1.621601   -0.011215
  N      0.313283    1.662132   -0.355613
  C      1.856078   -0.159858    0.039979
  H      0.293480    0.337354    1.315620
  O      2.804958    0.485730   -0.331612
  O      2.013973   -1.455711    0.410350
  H      2.953133   -1.648408    0.293205
  H     -0.611786    1.981234   -0.070226
  H      1.022634    2.289141    0.004398

 Total Charge           Charge          ....   -1
 Multiplicity           Mult            ....    1
 Number of Electrons    NEL             ....   70
 Basis Dimension        Dim             ....  996

ORBITAL ENERGIES
----------------

  NO   OCC          E(Eh)            E(eV)
   0   2.0000     -20.499983      -557.8329
   1   2.0000     -20.434549      -556.0523
   2   2.0000     -20.309170      -552.6406
   3   2.0000     -20.304196      -552.5052
   4   2.0000     -15.399340      -419.0374
   5   2.0000     -11.266078      -306.5656
   6   2.0000     -11.152477      -303.4743
   7   2.0000     -11.137304      -303.0614
   8   2.0000     -11.073216      -301.3175
   9   2.0000      -1.355983       -36.8982
  10   2.0000      -1.248270       -33.9672
  11   2.0000      -1.191407       -32.4198
  12   2.0000      -1.091571       -29.7031
  13   2.0000      -1.054390       -28.6914
  14   2.0000      -0.881332       -23.9823
  15   2.0000      -0.781488       -21.2654
  16   2.0000      -0.669672       -18.2227
  17   2.0000      -0.596272       -16.2254
  18   2.0000      -0.577615       -15.7177
  19   2.0000      -0.553680       -15.0664
  20   2.0000      -0.520683       -14.1685
  21   2.0000      -0.507656       -13.8140
  22   2.0000      -0.492379       -13.3983
  23   2.0000      -0.443584       -12.0705
  24   2.0000      -0.440776       -11.9941
  25   2.0000      -0.423778       -11.5316
  26   2.0000      -0.409799       -11.1512
  27   2.0000      -0.383482       -10.4351
  28   2.0000      -0.362269        -9.8578
  29   2.0000      -0.342590        -9.3224
  30   2.0000      -0.338609        -9.2140
  31   2.0000      -0.263478        -7.1696
  32   2.0000      -0.228999        -6.2314
  33   2.0000      -0.215099        -5.8531
  34   2.0000      -0.213695        -5.8149
  35   0.0000       0.097031         2.6403
  36   0.0000       0.115048         3.1306
  37   0.0000       0.123075         3.3491
  38   0.0000       0.133637         3.6364
  39   0.0000       0.136620         3.7176

MULLIKEN ATOMIC CHARGES
-----------------------
   0 O :   -0.964830
   1 C :    1.113317
   2 O :   -0.994143
   3 C :   -0.702118
   4 C :    0.230800
   5 H :    0.232816
   6 H :    0.250908
   7 N :   -0.776682
   8 C :    1.121264
   9 H :    0.310088
  10 O :   -0.895014
  11 O :   -0.719937
  12 H :    0.292730
  13 H :    0.312286
  14 H :    0.188517
Sum of atomic charges:   -1.0000000

LOEWDIN ATOMIC CHARGES
----------------------
   0 O :    0.504732
   1 C :   -1.439553
   2 O :    0.574500
   3 C :    0.353497
   4 C :   -0.192387
   5 H :   -0.305760
   6 H :   -0.338289
   7 N :    1.251133
   8 C :   -1.031956
   9 H :   -0.305631
  10 O :    0.705824
  11 O :    1.252079
  12 H :   -0.839291
  13 H :   -0.660756
  14 H :   -0.528141

  Mayer bond orders larger than 0.100000
B(  0-O ,  1-C ) :   1.2049 B(  0-O ,  2-O ) :   0.1081 B(  0-O ,  3-C ) :   0.1510
B(  1-C ,  2-O ) :   1.2658 B(  1-C ,  3-C ) :   1.1848 B(  1-C ,  4-C ) :  -0.1143
B(  3-C ,  4-C ) :   0.8565 B(  3-C ,  5-H ) :   0.9124 B(  3-C ,  6-H ) :   0.9444
B(  4-C ,  7-N ) :   0.6444 B(  4-C ,  8-C ) :   1.1668 B(  4-C ,  9-H ) :   0.7969
B(  4-C , 10-O ) :   0.2550 B(  7-N , 13-H ) :   0.8872 B(  7-N , 14-H ) :   1.0007
B(  8-C , 10-O ) :   1.1164 B(  8-C , 11-O ) :   0.8085 B( 11-O , 12-H ) :   0.9586

MP2 TOTAL ENERGY:     -511.120242454 Eh
FINAL SINGLE POINT ENERGY      -511.120242453502

DIPOLE MOMENT
-------------
                                X             Y             Z
Electronic contribution:      1.03679      -1.10599       0.36910
Nuclear contribution   :      2.62176       0.71118       0.08409
                        -----------------------------------------
Total Dipole Moment    :      3.65856      -0.39481       0.45319
                        -----------------------------------------
Magnitude (a.u.)       :      3.70760
Magnitude (Debye)      :      9.42397

Rotational constants in cm-1:     0.114487     0.031153     0.026184
Rotational constants in MHz :  3432.240362   933.930680   784.982616

                             ****ORCA TERMINATED NORMALLY****
TOTAL RUN TIME: 0 days 0 hours 23 minutes 54 seconds 760 msec
