                         Program Version 4.2.1 -  RELEASE  -
|  1> %pal
|  2>  nprocs 32
|  3> end
|  4> !RI-MP2 aug-cc-pVQZ aug-cc-pVQZ/C TightSCF
|  5> %maxcore 4500
|  6> *xyzfile 0 1  06_33P2.xyz
|  7>
|  8>
|  9>                          ****END OF INPUT****

CARTESIAN COORDINATES (ANGSTROEM)
---------------------------------
  C     -0.609270    0.000000    0.372843
  C      0.057091    1.260541   -0.152141
  Cl    -2.370987    0.000000   -0.067158
  C      0.057091   -1.260541   -0.152141
  C      1.546883    1.259575    0.199742
  C      2.241300    0.000000   -0.315201
  C      1.546883   -1.259575    0.199742
  H     -0.438547    2.142024    0.258728
  H     -0.068499    1.296694   -1.238963
  H     -0.068499   -1.296694   -1.238963
  H     -0.438547   -2.142024    0.258728
  H      1.663649    1.318859    1.288122
  H      2.019536    2.154391   -0.212187
  H      3.293392    0.000000   -0.019418
  H      2.222531    0.000000   -1.411142
  H      1.663649   -1.318859    1.288122
  H      2.019536   -2.154391   -0.212187
  H     -0.601291    0.000000    1.463787

 Total Charge           Charge          ....    0
 Multiplicity           Mult            ....    1
 Number of Electrons    NEL             ....   64
 Basis Dimension        Dim             .... 1070

ORBITAL ENERGIES
----------------

  NO   OCC          E(Eh)            E(eV)
   0   2.0000    -104.809713     -2852.0173
   1   2.0000     -11.290110      -307.2195
   2   2.0000     -11.229238      -305.5631
   3   2.0000     -11.229224      -305.5627
   4   2.0000     -11.227177      -305.5070
   5   2.0000     -11.227119      -305.5054
   6   2.0000     -11.224320      -305.4293
   7   2.0000     -10.535554      -286.6870
   8   2.0000      -8.002538      -217.7601
   9   2.0000      -8.001014      -217.7187
  10   2.0000      -8.000998      -217.7182
  11   2.0000      -1.157185       -31.4886
  12   2.0000      -1.086212       -29.5573
  13   2.0000      -1.018908       -27.7259
  14   2.0000      -0.982202       -26.7271
  15   2.0000      -0.848148       -23.0793
  16   2.0000      -0.824942       -22.4478
  17   2.0000      -0.770153       -20.9569
  18   2.0000      -0.660874       -17.9833
  19   2.0000      -0.621322       -16.9070
  20   2.0000      -0.615116       -16.7382
  21   2.0000      -0.610805       -16.6208
  22   2.0000      -0.550112       -14.9693
  23   2.0000      -0.542063       -14.7503
  24   2.0000      -0.533390       -14.5143
  25   2.0000      -0.511832       -13.9276
  26   2.0000      -0.498125       -13.5547
  27   2.0000      -0.469370       -12.7722
  28   2.0000      -0.456275       -12.4159
  29   2.0000      -0.449425       -12.2295
  30   2.0000      -0.421711       -11.4753
  31   2.0000      -0.418666       -11.3925
  32   0.0000       0.024090         0.6555
  33   0.0000       0.029181         0.7941
  34   0.0000       0.030672         0.8346
  35   0.0000       0.035330         0.9614
  36   0.0000       0.046476         1.2647

MULLIKEN ATOMIC CHARGES
-----------------------
   0 C :    0.307379
   1 C :   -0.415473
   2 Cl:   -0.576313
   3 C :   -0.415473
   4 C :   -0.432692
   5 C :   -0.399527
   6 C :   -0.432692
   7 H :    0.277443
   8 H :    0.174511
   9 H :    0.174511
  10 H :    0.277443
  11 H :    0.174935
  12 H :    0.251634
  13 H :    0.247720
  14 H :    0.143252
  15 H :    0.174935
  16 H :    0.251634
  17 H :    0.216775
Sum of atomic charges:    0.0000000

LOEWDIN ATOMIC CHARGES
----------------------
   0 C :   -0.524329
   1 C :    0.413890
   2 Cl:    1.187549
   3 C :    0.413890
   4 C :    0.530222
   5 C :    0.531474
   6 C :    0.530222
   7 H :   -0.284233
   8 H :   -0.290311
   9 H :   -0.290311
  10 H :   -0.284233
  11 H :   -0.261727
  12 H :   -0.257058
  13 H :   -0.257935
  14 H :   -0.262535
  15 H :   -0.261727
  16 H :   -0.257058
  17 H :   -0.375788

  Mayer bond orders larger than 0.100000
B(  0-C ,  1-C ) :   0.8194 B(  0-C ,  2-Cl) :   0.3472 B(  0-C ,  3-C ) :   0.8194
B(  0-C , 17-H ) :   0.9797 B(  1-C ,  4-C ) :   0.8973 B(  1-C ,  7-H ) :   0.9579
B(  1-C ,  8-H ) :   0.9607 B(  3-C ,  6-C ) :   0.8973 B(  3-C ,  9-H ) :   0.9607
B(  3-C , 10-H ) :   0.9579 B(  4-C ,  5-C ) :   0.8787 B(  4-C , 11-H ) :   0.9679
B(  4-C , 12-H ) :   0.9536 B(  5-C ,  6-C ) :   0.8787 B(  5-C , 13-H ) :   0.9439
B(  5-C , 14-H ) :   1.0081 B(  6-C , 15-H ) :   0.9679 B(  6-C , 16-H ) :   0.9536

MP2 TOTAL ENERGY:     -694.563402950 Eh
FINAL SINGLE POINT ENERGY      -694.563402949696

DIPOLE MOMENT
-------------
                                X             Y             Z
Electronic contribution:    -13.78436      -0.00000      -0.16111
Nuclear contribution   :     14.85545       0.00000       0.32500
                        -----------------------------------------
Total Dipole Moment    :      1.07109      -0.00000       0.16390
                        -----------------------------------------
Magnitude (a.u.)       :      1.08356
Magnitude (Debye)      :      2.75419

Rotational constants in cm-1:     0.143896     0.046095     0.037285
Rotational constants in MHz :  4313.879123  1381.905759  1117.774538

                             ****ORCA TERMINATED NORMALLY****
TOTAL RUN TIME: 0 days 0 hours 30 minutes 45 seconds 197 msec
