                         Program Version 4.2.1 -  RELEASE  -
|  1> %pal
|  2>  nprocs 32
|  3> end
|  4> !RI-MP2 aug-cc-pVQZ aug-cc-pVQZ/C TightSCF
|  5> %maxcore 4500
|  6> *xyzfile -1 1  10_34R.xyz
|  7>
|  8>
|  9>                          ****END OF INPUT****

CARTESIAN COORDINATES (ANGSTROEM)
---------------------------------
  C      4.224638   -0.615837   -1.396711
  C      3.311126    0.616171   -1.275779
  C      2.370415    0.397899   -0.141078
  C      2.480222   -0.535471    0.796927
  C      3.567803   -1.556587    0.888570
  C      4.720054   -1.115788   -0.030893
  H      3.899589    1.525065   -1.100886
  H      2.768983    0.783555   -2.214048
  H      3.662397   -1.424004   -1.879996
  H      5.082210   -0.400454   -2.043913
  H      3.930151   -1.669538    1.917453
  H      3.199721   -2.548512    0.586788
  H      5.263434   -0.301308    0.461309
  H      5.433811   -1.935068   -0.171386
  C     -0.568647   -0.922788   -0.008601
  C     -0.167668    0.528146   -0.429515
  C      1.062938    1.018931    0.420362
  C      1.215127   -0.170745    1.542775
  C      0.030843   -1.118911    1.412146
  H      0.108211    0.537260   -1.490136
  H     -0.722914   -0.849708    2.156673
  H      0.294174   -2.170286    1.589360
  O      1.094392    2.292671    0.758546
  C     -1.485748    1.321661   -0.382622
  C     -2.141456   -0.929532   -0.000529
  H     -2.453066   -0.697756    1.023762
  C     -2.512239    0.295491   -0.833125
  H     -2.379022    0.109736   -1.904485
  H     -3.522773    0.668375   -0.661900
  C      0.016259   -1.932133   -1.003369
  H      1.096252   -1.800187   -1.065330
  H     -0.177048   -2.968269   -0.712233
  H     -0.395046   -1.780719   -2.006219
  C     -2.849654   -2.233394   -0.385233
  H     -2.446456   -2.586220   -1.340790
  C     -4.353759   -2.023808   -0.571554
  H     -4.570143   -1.342336   -1.395737
  H     -4.856133   -2.973974   -0.778569
  H     -4.799148   -1.600583    0.334774
  C     -2.618535   -3.319305    0.667219
  H     -1.558769   -3.495432    0.849875
  H     -3.066993   -3.019877    1.619985
  H     -3.075533   -4.266894    0.365025
  O     -1.856344    1.761931    0.916550
  O     -1.530757    2.470271   -1.196478
  C     -1.176840    3.586137   -0.381306
  H     -0.099387    3.745637   -0.415256
  H     -1.741731    4.447710   -0.747313
  C     -1.571420    3.151778    1.035140
  H     -0.729281    3.291026    1.711220
  H     -2.481492    3.645527    1.395895
  H      1.356926    0.226756    2.550186

 Total Charge           Charge          ....   -1
 Multiplicity           Mult            ....    1
 Number of Electrons    NEL             ....  174
 Basis Dimension        Dim             .... 3174

ORBITAL ENERGIES
----------------

  NO   OCC          E(Eh)            E(eV)
   0   2.0000     -20.417515      -555.5888
   1   2.0000     -20.410894      -555.4087
   2   2.0000     -20.247135      -550.9526
   3   2.0000     -11.186463      -304.3991
   4   2.0000     -11.126796      -302.7755
   5   2.0000     -11.126155      -302.7581
   6   2.0000     -11.120390      -302.6012
   7   2.0000     -11.116902      -302.5063
   8   2.0000     -11.113692      -302.4189
   9   2.0000     -11.111784      -302.3670
  10   2.0000     -11.110238      -302.3249
  11   2.0000     -11.104967      -302.1815
  12   2.0000     -11.101563      -302.0889
  13   2.0000     -11.098274      -301.9994
  14   2.0000     -11.097677      -301.9832
  15   2.0000     -11.095804      -301.9322
  16   2.0000     -11.089981      -301.7737
  17   2.0000     -11.088102      -301.7226
  18   2.0000     -11.076143      -301.3972
  19   2.0000     -11.061770      -301.0061
  20   2.0000     -11.060891      -300.9821
  21   2.0000     -11.056545      -300.8639
  22   2.0000     -11.054277      -300.8022
  23   2.0000      -1.291810       -35.1519
  24   2.0000      -1.184161       -32.2227
  25   2.0000      -1.083098       -29.4726
  26   2.0000      -1.022823       -27.8324
  27   2.0000      -1.003369       -27.3031
  28   2.0000      -0.963549       -26.2195
  29   2.0000      -0.935084       -25.4449
  30   2.0000      -0.901750       -24.5379
  31   2.0000      -0.882059       -24.0020
  32   2.0000      -0.851271       -23.1643
  33   2.0000      -0.832654       -22.6577
  34   2.0000      -0.827330       -22.5128
  35   2.0000      -0.810426       -22.0528
  36   2.0000      -0.763944       -20.7880
  37   2.0000      -0.755569       -20.5601
  38   2.0000      -0.705830       -19.2066
  39   2.0000      -0.697453       -18.9787
  40   2.0000      -0.682764       -18.5790
  41   2.0000      -0.659926       -17.9575
  42   2.0000      -0.634545       -17.2669
  43   2.0000      -0.608972       -16.5710
  44   2.0000      -0.591933       -16.1073
  45   2.0000      -0.549480       -14.9521
  46   2.0000      -0.543849       -14.7989
  47   2.0000      -0.527466       -14.3531
  48   2.0000      -0.525526       -14.3003
  49   2.0000      -0.519047       -14.1240
  50   2.0000      -0.503442       -13.6994
  51   2.0000      -0.498789       -13.5727
  52   2.0000      -0.477906       -13.0045
  53   2.0000      -0.474892       -12.9225
  54   2.0000      -0.468933       -12.7603
  55   2.0000      -0.462293       -12.5796
  56   2.0000      -0.458812       -12.4849
  57   2.0000      -0.451210       -12.2781
  58   2.0000      -0.443732       -12.0746
  59   2.0000      -0.440705       -11.9922
  60   2.0000      -0.439806       -11.9677
  61   2.0000      -0.431265       -11.7353
  62   2.0000      -0.420801       -11.4506
  63   2.0000      -0.416471       -11.3328
  64   2.0000      -0.406584       -11.0637
  65   2.0000      -0.403477       -10.9792
  66   2.0000      -0.394342       -10.7306
  67   2.0000      -0.385280       -10.4840
  68   2.0000      -0.383079       -10.4241
  69   2.0000      -0.377145       -10.2626
  70   2.0000      -0.367841       -10.0095
  71   2.0000      -0.353674        -9.6240
  72   2.0000      -0.353230        -9.6119
  73   2.0000      -0.349164        -9.5012
  74   2.0000      -0.344580        -9.3765
  75   2.0000      -0.338982        -9.2242
  76   2.0000      -0.326984        -8.8977
  77   2.0000      -0.325353        -8.8533
  78   2.0000      -0.309441        -8.4203
  79   2.0000      -0.303562        -8.2603
  80   2.0000      -0.294778        -8.0213
  81   2.0000      -0.283915        -7.7257
  82   2.0000      -0.280125        -7.6226
  83   2.0000      -0.251176        -6.8349
  84   2.0000      -0.182250        -4.9593
  85   2.0000      -0.157587        -4.2882
  86   2.0000      -0.141987        -3.8636
  87   0.0000       0.081643         2.2216
  88   0.0000       0.085971         2.3394
  89   0.0000       0.091688         2.4950
  90   0.0000       0.094790         2.5794
  91   0.0000       0.097455         2.6519

MULLIKEN ATOMIC CHARGES
-----------------------
   0 C :   -0.515623
   1 C :   -0.751701
   2 C :    0.126008
   3 C :    0.790701
   4 C :   -0.596751
   5 C :   -0.677945
   6 H :    0.152917
   7 H :    0.195929
   8 H :    0.172744
   9 H :    0.187364
  10 H :    0.197378
  11 H :    0.095396
  12 H :    0.142590
  13 H :    0.210009
  14 C :    2.499061
  15 C :   -1.608049
  16 C :    2.544591
  17 C :   -0.745608
  18 C :   -1.013628
  19 H :   -0.133591
  20 H :    0.139935
  21 H :    0.047337
  22 O :   -1.704363
  23 C :    2.804528
  24 C :    1.137782
  25 H :    0.005174
  26 C :   -0.823392
  27 H :    0.214660
  28 H :    0.124476
  29 C :   -1.639811
  30 H :    0.491154
  31 H :    0.085201
  32 H :    0.162501
  33 C :    0.132340
  34 H :    0.015168
  35 C :   -1.093083
  36 H :    0.158312
  37 H :    0.221800
  38 H :    0.100717
  39 C :   -1.106485
  40 H :    0.264031
  41 H :    0.057225
  42 H :    0.163470
  43 O :   -1.169593
  44 O :   -1.448317
  45 C :   -0.556735
  46 H :    0.367435
  47 H :    0.354979
  48 C :   -0.794760
  49 H :    0.365659
  50 H :    0.337687
  51 H :    0.313181
Sum of atomic charges:   -1.0000000

LOEWDIN ATOMIC CHARGES
----------------------
   0 C :    0.509506
   1 C :    0.551920
   2 C :   -0.039701
   3 C :   -0.023331
   4 C :    0.539953
   5 C :    0.508841
   6 H :   -0.265023
   7 H :   -0.270290
   8 H :   -0.272812
   9 H :   -0.266965
  10 H :   -0.273587
  11 H :   -0.272184
  12 H :   -0.268750
  13 H :   -0.268272
  14 C :   -0.180825
  15 C :    0.115220
  16 C :   -0.847198
  17 C :    0.171482
  18 C :    0.554296
  19 H :   -0.298500
  20 H :   -0.280840
  21 H :   -0.261184
  22 O :    0.660039
  23 C :   -0.972069
  24 C :    0.144602
  25 H :   -0.317353
  26 C :    0.489562
  27 H :   -0.246052
  28 H :   -0.261328
  29 C :    0.935668
  30 H :   -0.297625
  31 H :   -0.286391
  32 H :   -0.254609
  33 C :    0.126883
  34 H :   -0.298912
  35 C :    0.922070
  36 H :   -0.289311
  37 H :   -0.276461
  38 H :   -0.265920
  39 C :    0.931362
  40 H :   -0.310199
  41 H :   -0.264470
  42 H :   -0.266018
  43 O :    0.928378
  44 O :    0.916895
  45 C :    0.170413
  46 H :   -0.398242
  47 H :   -0.306081
  48 C :    0.167418
  49 H :   -0.379103
  50 H :   -0.303736
  51 H :   -0.261164

  Mayer bond orders larger than 0.100000
B(  0-C ,  1-C ) :   0.9155 B(  0-C ,  2-C ) :  -0.1312 B(  0-C ,  5-C ) :   0.8011
B(  0-C ,  8-H ) :   1.0720 B(  0-C ,  9-H ) :   1.0402 B(  1-C ,  2-C ) :  -0.1433
B(  1-C ,  3-C ) :  -0.1315 B(  1-C ,  6-H ) :   1.2235 B(  1-C ,  7-H ) :   1.1219
B(  1-C , 16-C ) :   0.1528 B(  1-C , 22-O ) :   0.1130 B(  2-C ,  3-C ) :   1.9966
B(  2-C ,  6-H ) :  -0.3044 B(  2-C ,  7-H ) :  -0.1674 B(  2-C , 14-C ) :   0.1389
B(  2-C , 15-C ) :   0.2168 B(  2-C , 16-C ) :   0.4440 B(  2-C , 17-C ) :  -0.2307
B(  2-C , 22-O ) :   0.3090 B(  3-C , 10-H ) :  -0.2422 B(  3-C , 11-H ) :  -0.1556
B(  3-C , 16-C ) :  -0.3608 B(  3-C , 17-C ) :   0.8116 B(  3-C , 18-C ) :  -0.2731
B(  4-C ,  5-C ) :   0.8746 B(  4-C , 10-H ) :   1.1565 B(  4-C , 11-H ) :   1.1895
B(  5-C , 12-H ) :   1.1174 B(  5-C , 13-H ) :   1.0020 B( 14-C , 15-C ) :   0.5640
B( 14-C , 16-C ) :  -0.1192 B( 14-C , 18-C ) :  -0.8404 B( 14-C , 20-H ) :  -0.2842
B( 14-C , 21-H ) :  -0.4817 B( 14-C , 22-O ) :   0.1826 B( 14-C , 24-C ) :   0.7667
B( 14-C , 25-H ) :   0.1715 B( 14-C , 29-C ) :  -0.5130 B( 14-C , 30-H ) :   0.1046
B( 14-C , 31-H ) :  -0.4347 B( 14-C , 32-H ) :  -0.3227 B( 14-C , 33-C ) :   0.1517
B( 14-C , 39-C ) :   0.1079 B( 14-C , 43-O ) :  -0.3113 B( 15-C , 16-C ) :   1.0229
B( 15-C , 18-C ) :  -0.1020 B( 15-C , 19-H ) :   1.3840 B( 15-C , 22-O ) :   1.3208
B( 15-C , 23-C ) :   0.3674 B( 15-C , 24-C ) :   0.3613 B( 15-C , 26-C ) :  -0.5007
B( 15-C , 28-H ) :  -0.1193 B( 15-C , 43-O ) :   0.4280 B( 15-C , 44-O ) :   0.6553
B( 15-C , 45-C ) :   0.1934 B( 15-C , 46-H ) :   0.1362 B( 15-C , 48-C ) :   0.1523
B( 15-C , 49-H ) :   0.1771 B( 16-C , 17-C ) :   0.8450 B( 16-C , 22-O ) :  -1.8132
B( 16-C , 23-C ) :   0.1882 B( 16-C , 44-O ) :   0.1420 B( 16-C , 48-C ) :  -0.1484
B( 16-C , 51-H ) :   0.1149 B( 17-C , 18-C ) :   1.2310 B( 17-C , 51-H ) :   0.8010
B( 18-C , 20-H ) :   1.2878 B( 18-C , 21-H ) :   1.4464 B( 18-C , 22-O ) :  -0.1603
B( 18-C , 23-C ) :   0.1366 B( 18-C , 24-C ) :   0.1636 B( 19-H , 23-C ) :  -0.2881
B( 19-H , 43-O ) :   0.1218 B( 19-H , 44-O ) :  -0.1815 B( 20-H , 43-O ) :  -0.1303
B( 22-O , 23-C ) :   0.2759 B( 22-O , 45-C ) :  -0.1239 B( 23-C , 24-C ) :  -0.1108
B( 23-C , 26-C ) :   1.4150 B( 23-C , 44-O ) :  -1.0404 B( 23-C , 45-C ) :  -0.6616
B( 23-C , 46-H ) :  -0.1676 B( 23-C , 48-C ) :  -0.5725 B( 23-C , 49-H ) :  -0.2123
B( 24-C , 25-H ) :   1.0391 B( 24-C , 26-C ) :   0.4191 B( 24-C , 28-H ) :  -0.1984
B( 24-C , 29-C ) :   0.1506 B( 24-C , 30-H ) :  -0.1093 B( 24-C , 33-C ) :  -0.1983
B( 24-C , 35-C ) :  -0.3527 B( 24-C , 39-C ) :  -0.5649 B( 25-H , 39-C ) :   0.1050
B( 25-H , 43-O ) :  -0.1924 B( 26-C , 27-H ) :   1.1963 B( 26-C , 28-H ) :   1.1671
B( 26-C , 43-O ) :  -0.1098 B( 27-H , 44-O ) :  -0.1055 B( 29-C , 30-H ) :   0.7975
B( 29-C , 31-H ) :   1.4672 B( 29-C , 32-H ) :   1.3419 B( 31-H , 32-H ) :   0.1285
B( 33-C , 34-H ) :   1.1931 B( 33-C , 35-C ) :   0.3866 B( 33-C , 36-H ) :  -0.1817
B( 33-C , 37-H ) :  -0.1868 B( 33-C , 38-H ) :  -0.1554 B( 33-C , 39-C ) :   0.5367
B( 33-C , 41-H ) :  -0.2654 B( 33-C , 42-H ) :  -0.1465 B( 35-C , 36-H ) :   1.1873
B( 35-C , 37-H ) :   1.1124 B( 35-C , 38-H ) :   1.2006 B( 35-C , 39-C ) :   0.1204
B( 39-C , 40-H ) :   0.9654 B( 39-C , 41-H ) :   1.2727 B( 39-C , 42-H ) :   1.1593
B( 43-O , 44-O ) :   0.1953 B( 43-O , 45-C ) :   0.1357 B( 43-O , 48-C ) :   1.1389
B( 44-O , 45-C ) :   1.0978 B( 44-O , 48-C ) :   0.2214 B( 45-C , 46-H ) :   0.8442
B( 45-C , 47-H ) :   0.8804 B( 45-C , 48-C ) :   1.2669 B( 48-C , 49-H ) :   0.9048
B( 48-C , 50-H ) :   0.9090

MP2 TOTAL ENERGY:    -1003.550579326 Eh
FINAL SINGLE POINT ENERGY     -1003.550579326096

DIPOLE MOMENT
-------------
                                X             Y             Z
Electronic contribution:      2.25742      17.00571       2.64242
Nuclear contribution   :     -3.08605     -19.18804      -3.43724
                        -----------------------------------------
Total Dipole Moment    :     -0.82863      -2.18233      -0.79482
                        -----------------------------------------
Magnitude (a.u.)       :      2.46596
Magnitude (Debye)      :      6.26797

Rotational constants in cm-1:     0.012482     0.007608     0.005568
Rotational constants in MHz :   374.192769   228.077300   166.915721

                             ****ORCA TERMINATED NORMALLY****
TOTAL RUN TIME: 0 days 19 hours 17 minutes 31 seconds 470 msec
