                         Program Version 4.2.1 -  RELEASE  -
|  1> %pal
|  2>  nprocs 32
|  3> end
|  4> !RI-MP2 aug-cc-pVQZ aug-cc-pVQZ/C TightSCF
|  5> %maxcore 4500
|  6> *xyzfile 0 1  02_39R.xyz
|  7>
|  8>
|  9>                          ****END OF INPUT****

CARTESIAN COORDINATES (ANGSTROEM)
---------------------------------
  C      5.690299   -0.508888   -0.965221
  C      4.597784   -0.866247   -1.741636
  C      3.303828   -0.704345   -1.270412
  C      3.083539   -0.174085    0.003676
  C      4.189027    0.185800    0.780891
  C      5.477038    0.018597    0.300285
  H      6.697377   -0.639281   -1.341306
  H      4.748518   -1.279223   -2.731822
  H      2.461174   -0.984444   -1.883750
  H      4.053928    0.602964    1.771724
  H      6.317513    0.304567    0.920973
  C      1.717186    0.002864    0.523916
  C      0.465901   -0.242083   -0.182637
  O      0.356728   -0.632744   -1.312011
  O     -0.597947    0.058083    0.614357
  N      1.582974    0.448285    1.752305
  N      1.500465    0.830821    2.802803
  C     -1.876121   -0.197617    0.107873
  C     -2.671397    0.826975   -0.200392
  C     -2.255105   -1.618809    0.080435
  C     -3.188965   -2.094560   -0.840244
  C     -1.686522   -2.515194    0.985420
  C     -3.562129   -3.428403   -0.838650
  H     -3.600880   -1.420872   -1.580860
  C     -2.057805   -3.850630    0.982312
  H     -0.958767   -2.159166    1.703459
  C     -2.999436   -4.311998    0.073328
  H     -4.282981   -3.784180   -1.564857
  H     -1.610909   -4.533282    1.694943
  H     -3.286590   -5.356365    0.068467
  C     -2.355631    2.244542   -0.209870
  C     -0.982896    2.858910   -0.021294
  C     -3.280874    3.198021   -0.364042
  C     -1.191127    4.329643   -0.429660
  H     -0.218835    2.372646   -0.629218
  C     -2.705167    4.582547   -0.291485
  H     -0.589284    5.020427    0.161751
  H     -0.900473    4.456226   -1.474744
  H     -2.955220    5.046752    0.670552
  H     -3.093781    5.247652   -1.066646
  H     -0.670083    2.763066    1.023085
  H     -4.340413    3.002522   -0.483875
  H     -3.693184    0.573288   -0.457962

 Total Charge           Charge          ....    0
 Multiplicity           Mult            ....    1
 Number of Electrons    NEL             ....  174
 Basis Dimension        Dim             .... 2828

ORBITAL ENERGIES
----------------

  NO   OCC          E(Eh)            E(eV)
   0   2.0000     -20.612995      -560.9081
   1   2.0000     -20.546498      -559.0986
   2   2.0000     -15.768389      -429.0797
   3   2.0000     -15.705478      -427.3678
   4   2.0000     -11.399182      -310.1875
   5   2.0000     -11.303920      -307.5953
   6   2.0000     -11.300185      -307.4937
   7   2.0000     -11.266895      -306.5878
   8   2.0000     -11.247669      -306.0646
   9   2.0000     -11.239905      -305.8534
  10   2.0000     -11.238384      -305.8120
  11   2.0000     -11.237029      -305.7751
  12   2.0000     -11.236118      -305.7503
  13   2.0000     -11.235900      -305.7444
  14   2.0000     -11.235215      -305.7258
  15   2.0000     -11.235064      -305.7216
  16   2.0000     -11.234585      -305.7086
  17   2.0000     -11.233720      -305.6851
  18   2.0000     -11.233688      -305.6842
  19   2.0000     -11.231754      -305.6316
  20   2.0000     -11.229075      -305.5587
  21   2.0000     -11.224778      -305.4417
  22   2.0000     -11.222947      -305.3919
  23   2.0000     -11.222617      -305.3829
  24   2.0000     -11.218813      -305.2794
  25   2.0000      -1.511146       -41.1204
  26   2.0000      -1.476581       -40.1798
  27   2.0000      -1.377784       -37.4914
  28   2.0000      -1.197821       -32.5944
  29   2.0000      -1.164921       -31.6991
  30   2.0000      -1.147924       -31.2366
  31   2.0000      -1.144487       -31.1431
  32   2.0000      -1.081039       -29.4166
  33   2.0000      -1.024141       -27.8683
  34   2.0000      -1.022673       -27.8283
  35   2.0000      -1.021350       -27.7924
  36   2.0000      -1.017755       -27.6945
  37   2.0000      -0.968601       -26.3570
  38   2.0000      -0.957676       -26.0597
  39   2.0000      -0.906951       -24.6794
  40   2.0000      -0.860367       -23.4118
  41   2.0000      -0.845939       -23.0192
  42   2.0000      -0.833884       -22.6911
  43   2.0000      -0.828125       -22.5344
  44   2.0000      -0.799429       -21.7536
  45   2.0000      -0.779469       -21.2104
  46   2.0000      -0.753546       -20.5050
  47   2.0000      -0.737313       -20.0633
  48   2.0000      -0.720575       -19.6078
  49   2.0000      -0.715374       -19.4663
  50   2.0000      -0.705485       -19.1972
  51   2.0000      -0.704705       -19.1760
  52   2.0000      -0.688112       -18.7245
  53   2.0000      -0.667469       -18.1627
  54   2.0000      -0.662994       -18.0410
  55   2.0000      -0.650294       -17.6954
  56   2.0000      -0.642793       -17.4913
  57   2.0000      -0.637070       -17.3355
  58   2.0000      -0.629703       -17.1351
  59   2.0000      -0.624582       -16.9957
  60   2.0000      -0.618822       -16.8390
  61   2.0000      -0.601326       -16.3629
  62   2.0000      -0.591477       -16.0949
  63   2.0000      -0.588529       -16.0147
  64   2.0000      -0.587432       -15.9848
  65   2.0000      -0.575255       -15.6535
  66   2.0000      -0.554665       -15.0932
  67   2.0000      -0.538217       -14.6456
  68   2.0000      -0.523151       -14.2357
  69   2.0000      -0.517353       -14.0779
  70   2.0000      -0.515534       -14.0284
  71   2.0000      -0.507280       -13.8038
  72   2.0000      -0.502443       -13.6722
  73   2.0000      -0.497828       -13.5466
  74   2.0000      -0.495669       -13.4878
  75   2.0000      -0.491800       -13.3826
  76   2.0000      -0.487403       -13.2629
  77   2.0000      -0.483248       -13.1498
  78   2.0000      -0.472692       -12.8626
  79   2.0000      -0.457950       -12.4615
  80   2.0000      -0.425711       -11.5842
  81   2.0000      -0.404924       -11.0185
  82   2.0000      -0.355661        -9.6780
  83   2.0000      -0.343238        -9.3400
  84   2.0000      -0.341486        -9.2923
  85   2.0000      -0.299228        -8.1424
  86   2.0000      -0.288794        -7.8585
  87   0.0000       0.021471         0.5843
  88   0.0000       0.023557         0.6410
  89   0.0000       0.025536         0.6949
  90   0.0000       0.028775         0.7830
  91   0.0000       0.032247         0.8775

MULLIKEN ATOMIC CHARGES
-----------------------
   0 C :   -0.407379
   1 C :   -0.294988
   2 C :   -0.632393
   3 C :    0.402622
   4 C :   -0.553156
   5 C :   -0.292297
   6 H :    0.351817
   7 H :    0.222653
   8 H :    0.365929
   9 H :    0.173349
  10 H :    0.256163
  11 C :    0.249938
  12 C :    2.177043
  13 O :   -1.155043
  14 O :   -1.162620
  15 N :    0.094523
  16 N :   -0.476473
  17 C :    0.699852
  18 C :   -0.157198
  19 C :    0.616914
  20 C :   -0.510328
  21 C :   -0.513173
  22 C :   -0.378820
  23 H :    0.249786
  24 C :   -0.412802
  25 H :    0.312532
  26 C :   -0.337897
  27 H :    0.223594
  28 H :    0.205733
  29 H :    0.359906
  30 C :    0.277349
  31 C :   -0.304868
  32 C :   -0.619509
  33 C :   -0.672776
  34 H :    0.366651
  35 C :   -0.512213
  36 H :    0.282468
  37 H :    0.276568
  38 H :    0.230165
  39 H :    0.277547
  40 H :    0.213905
  41 H :    0.237331
  42 H :    0.269595
Sum of atomic charges:    0.0000000

LOEWDIN ATOMIC CHARGES
----------------------
   0 C :    0.338976
   1 C :    0.350471
   2 C :    0.334404
   3 C :   -0.136690
   4 C :    0.311411
   5 C :    0.341826
   6 H :   -0.322860
   7 H :   -0.317140
   8 H :   -0.413872
   9 H :   -0.355763
  10 H :   -0.318657
  11 C :   -0.361385
  12 C :   -1.128755
  13 O :    0.780956
  14 O :    0.811327
  15 N :    0.040670
  16 N :    0.498966
  17 C :   -0.435760
  18 C :    0.361603
  19 C :   -0.128968
  20 C :    0.339545
  21 C :    0.333695
  22 C :    0.354708
  23 H :   -0.321920
  24 C :    0.352208
  25 H :   -0.327985
  26 C :    0.341998
  27 H :   -0.318094
  28 H :   -0.318446
  29 H :   -0.320865
  30 C :   -0.031579
  31 C :    0.493443
  32 C :    0.407859
  33 C :    0.528096
  34 H :   -0.292338
  35 C :    0.510979
  36 H :   -0.256588
  37 H :   -0.267311
  38 H :   -0.268055
  39 H :   -0.272025
  40 H :   -0.268139
  41 H :   -0.288595
  42 H :   -0.361352

  Mayer bond orders larger than 0.100000
B(  0-C ,  1-C ) :   1.1748 B(  0-C ,  5-C ) :   1.1464 B(  0-C ,  6-H ) :   0.9830
B(  0-C , 10-H ) :  -0.1055 B(  1-C ,  2-C ) :   1.2876 B(  1-C ,  3-C ) :  -0.3953
B(  1-C ,  4-C ) :   0.1009 B(  1-C ,  7-H ) :   1.1566 B(  2-C ,  3-C ) :   1.1061
B(  2-C ,  4-C ) :   0.1141 B(  2-C ,  5-C ) :   0.1452 B(  2-C ,  6-H ) :  -0.1034
B(  2-C ,  7-H ) :  -0.1352 B(  2-C ,  8-H ) :   0.8287 B(  2-C , 11-C ) :  -0.4609
B(  3-C ,  4-C ) :   1.0374 B(  3-C ,  5-C ) :  -0.4680 B(  3-C ,  8-H ) :  -0.1490
B(  3-C ,  9-H ) :  -0.1748 B(  3-C , 11-C ) :   0.6147 B(  3-C , 12-C ) :  -0.1362
B(  3-C , 13-O ) :  -0.1189 B(  3-C , 15-N ) :   0.2231 B(  4-C ,  5-C ) :   1.3261
B(  4-C ,  6-H ) :  -0.1067 B(  4-C ,  9-H ) :   1.0088 B(  4-C , 10-H ) :  -0.1625
B(  4-C , 11-C ) :  -0.4930 B(  5-C , 10-H ) :   1.1326 B(  8-H , 11-C ) :   0.1408
B( 11-C , 12-C ) :   1.0010 B( 11-C , 13-O ) :   0.5293 B( 11-C , 14-O ) :   0.1412
B( 11-C , 15-N ) :   0.1258 B( 12-C , 13-O ) :   0.1494 B( 12-C , 14-O ) :   0.7991
B( 13-O , 14-O ) :   0.1895 B( 13-O , 17-C ) :   0.1204 B( 14-O , 15-N ) :   0.1541
B( 15-N , 16-N ) :   1.8003 B( 17-C , 18-C ) :   1.7088 B( 17-C , 19-C ) :   0.9432
B( 17-C , 20-C ) :  -0.3316 B( 17-C , 21-C ) :  -0.4383 B( 17-C , 30-C ) :  -0.6909
B( 18-C , 19-C ) :  -0.7627 B( 18-C , 30-C ) :   0.4323 B( 18-C , 32-C ) :  -0.7186
B( 18-C , 42-H ) :   0.9965 B( 19-C , 20-C ) :   1.2307 B( 19-C , 21-C ) :   1.0708
B( 19-C , 22-C ) :  -0.4697 B( 19-C , 24-C ) :  -0.4750 B( 19-C , 30-C ) :   0.1418
B( 20-C , 22-C ) :   1.3660 B( 20-C , 23-H ) :   0.9644 B( 20-C , 24-C ) :   0.1637
B( 20-C , 27-H ) :  -0.1326 B( 21-C , 22-C ) :   0.1595 B( 21-C , 24-C ) :   1.3220
B( 21-C , 25-H ) :   0.8723 B( 21-C , 28-H ) :  -0.1232 B( 22-C , 26-C ) :   1.1793
B( 22-C , 27-H ) :   1.1511 B( 24-C , 26-C ) :   1.2079 B( 24-C , 28-H ) :   1.1663
B( 26-C , 29-H ) :   0.9859 B( 30-C , 31-C ) :   0.5854 B( 30-C , 32-C ) :   1.4732
B( 30-C , 35-C ) :  -0.2928 B( 30-C , 41-H ) :  -0.1186 B( 31-C , 32-C ) :  -0.1324
B( 31-C , 33-C ) :   0.8621 B( 31-C , 34-H ) :   0.7976 B( 31-C , 40-H ) :   0.9028
B( 32-C , 35-C ) :   1.0118 B( 32-C , 41-H ) :   1.1199 B( 33-C , 35-C ) :   1.0809
B( 33-C , 36-H ) :   0.9783 B( 33-C , 37-H ) :   0.8952 B( 35-C , 38-H ) :   0.9604
B( 35-C , 39-H ) :   0.9724

MP2 TOTAL ENERGY:    -1069.172480588 Eh
FINAL SINGLE POINT ENERGY     -1069.172480587748

DIPOLE MOMENT
-------------
                                X             Y             Z
Electronic contribution:      5.86808      -8.89448       5.59501
Nuclear contribution   :     -5.84417       9.13109      -5.12782
                        -----------------------------------------
Total Dipole Moment    :      0.02391       0.23661       0.46719
                        -----------------------------------------
Magnitude (a.u.)       :      0.52423
Magnitude (Debye)      :      1.33250

Rotational constants in cm-1:     0.008224     0.005410     0.003767
Rotational constants in MHz :   246.558602   162.186590   112.935494

                             ****ORCA TERMINATED NORMALLY****
TOTAL RUN TIME: 0 days 12 hours 7 minutes 16 seconds 311 msec
