                         Program Version 4.2.1 -  RELEASE  -
|  1> %pal
|  2>  nprocs 32
|  3> end
|  4> !RI-MP2 aug-cc-pVQZ aug-cc-pVQZ/C TightSCF
|  5> %maxcore 4500
|  6> *xyzfile 0 1  02_39P.xyz
|  7>
|  8>
|  9>                          ****END OF INPUT****

CARTESIAN COORDINATES (ANGSTROEM)
---------------------------------
  C     -5.159048   -0.866899    1.045864
  C     -4.006184   -1.437200    1.561183
  C     -2.761811   -1.113110    1.040439
  C     -2.652125   -0.198739   -0.017097
  C     -3.827033    0.378567   -0.527510
  C     -5.060078    0.042775   -0.000542
  H     -6.128266   -1.126054    1.454781
  H     -4.069391   -2.145775    2.378502
  H     -1.871853   -1.570417    1.440285
  H     -3.760620    1.093079   -1.334289
  H     -5.953629    0.497596   -0.410907
  C     -1.364930    0.182333   -0.574749
  C     -1.135736    1.202542   -1.595512
  O     -1.894813    1.936558   -2.155165
  O      0.201872    1.165924   -1.942207
  N     -0.196679   -0.434522   -0.368247
  N      0.030041   -1.496037    0.320762
  C      0.887042    0.444754   -0.953132
  C      2.021605   -0.364463   -1.476213
  C      1.378039    1.414746    0.124037
  C      1.860006    2.652332   -0.289936
  C      1.400760    1.084389    1.473547
  C      2.366205    3.548748    0.639698
  H      1.819149    2.918899   -1.338020
  C      1.899872    1.987522    2.400484
  H      1.011519    0.131278    1.808467
  C      2.388980    3.218693    1.987090
  H      2.735306    4.511689    0.308505
  H      1.899399    1.728248    3.452227
  H      2.778613    3.921387    2.713455
  C      2.191491   -1.588658   -1.010695
  C      3.404366   -2.477013   -1.070642
  C      1.223237   -2.223528   -0.062808
  C      3.348078   -3.274036    0.267045
  H      4.315082   -1.885885   -1.169919
  C      2.156975   -2.692926    1.056447
  H      0.845960   -3.136425   -0.553244
  H      3.180736   -4.333713    0.066678
  H      4.280887   -3.198720    0.824904
  H      1.686535   -3.416823    1.721625
  H      2.467351   -1.831790    1.653179
  H      3.360284   -3.149048   -1.930932
  H      2.754655    0.161548   -2.075921

 Total Charge           Charge          ....    0
 Multiplicity           Mult            ....    1
 Number of Electrons    NEL             ....  174
 Basis Dimension        Dim             .... 2828

ORBITAL ENERGIES
----------------

  NO   OCC          E(Eh)            E(eV)
   0   2.0000     -20.612869      -560.9047
   1   2.0000     -20.542167      -558.9808
   2   2.0000     -15.729911      -428.0326
   3   2.0000     -15.586105      -424.1195
   4   2.0000     -11.388098      -309.8859
   5   2.0000     -11.378538      -309.6258
   6   2.0000     -11.287236      -307.1413
   7   2.0000     -11.276136      -306.8393
   8   2.0000     -11.259875      -306.3968
   9   2.0000     -11.259216      -306.3788
  10   2.0000     -11.249827      -306.1233
  11   2.0000     -11.247386      -306.0569
  12   2.0000     -11.245415      -306.0033
  13   2.0000     -11.245037      -305.9930
  14   2.0000     -11.244894      -305.9891
  15   2.0000     -11.244205      -305.9704
  16   2.0000     -11.243581      -305.9534
  17   2.0000     -11.242737      -305.9304
  18   2.0000     -11.239313      -305.8372
  19   2.0000     -11.236509      -305.7609
  20   2.0000     -11.229450      -305.5689
  21   2.0000     -11.226484      -305.4882
  22   2.0000     -11.225838      -305.4706
  23   2.0000     -11.225225      -305.4539
  24   2.0000     -11.224547      -305.4354
  25   2.0000      -1.494143       -40.6577
  26   2.0000      -1.406981       -38.2859
  27   2.0000      -1.373652       -37.3790
  28   2.0000      -1.191486       -32.4220
  29   2.0000      -1.175392       -31.9840
  30   2.0000      -1.154650       -31.4196
  31   2.0000      -1.127347       -30.6767
  32   2.0000      -1.099519       -29.9194
  33   2.0000      -1.038339       -28.2546
  34   2.0000      -1.031763       -28.0757
  35   2.0000      -1.028949       -27.9991
  36   2.0000      -1.011696       -27.5296
  37   2.0000      -0.986443       -26.8425
  38   2.0000      -0.975008       -26.5313
  39   2.0000      -0.898081       -24.4380
  40   2.0000      -0.876389       -23.8478
  41   2.0000      -0.861681       -23.4475
  42   2.0000      -0.839488       -22.8436
  43   2.0000      -0.833724       -22.6868
  44   2.0000      -0.818580       -22.2747
  45   2.0000      -0.803811       -21.8728
  46   2.0000      -0.794566       -21.6212
  47   2.0000      -0.750139       -20.4123
  48   2.0000      -0.738304       -20.0903
  49   2.0000      -0.720519       -19.6063
  50   2.0000      -0.703032       -19.1305
  51   2.0000      -0.686629       -18.6841
  52   2.0000      -0.675253       -18.3746
  53   2.0000      -0.663493       -18.0546
  54   2.0000      -0.653723       -17.7887
  55   2.0000      -0.649771       -17.6812
  56   2.0000      -0.640090       -17.4177
  57   2.0000      -0.631025       -17.1711
  58   2.0000      -0.625381       -17.0175
  59   2.0000      -0.616031       -16.7631
  60   2.0000      -0.604992       -16.4627
  61   2.0000      -0.600282       -16.3345
  62   2.0000      -0.597658       -16.2631
  63   2.0000      -0.587426       -15.9847
  64   2.0000      -0.580841       -15.8055
  65   2.0000      -0.575462       -15.6591
  66   2.0000      -0.569417       -15.4946
  67   2.0000      -0.558931       -15.2093
  68   2.0000      -0.537292       -14.6204
  69   2.0000      -0.522363       -14.2142
  70   2.0000      -0.519923       -14.1478
  71   2.0000      -0.511606       -13.9215
  72   2.0000      -0.506865       -13.7925
  73   2.0000      -0.504907       -13.7392
  74   2.0000      -0.498170       -13.5559
  75   2.0000      -0.495147       -13.4736
  76   2.0000      -0.490416       -13.3449
  77   2.0000      -0.484662       -13.1883
  78   2.0000      -0.467366       -12.7177
  79   2.0000      -0.448742       -12.2109
  80   2.0000      -0.420117       -11.4320
  81   2.0000      -0.383980       -10.4486
  82   2.0000      -0.370665       -10.0863
  83   2.0000      -0.350194        -9.5293
  84   2.0000      -0.343526        -9.3478
  85   2.0000      -0.332294        -9.0422
  86   2.0000      -0.274501        -7.4695
  87   0.0000       0.016714         0.4548
  88   0.0000       0.022424         0.6102
  89   0.0000       0.023547         0.6407
  90   0.0000       0.027418         0.7461
  91   0.0000       0.031664         0.8616

MULLIKEN ATOMIC CHARGES
-----------------------
   0 C :   -0.428404
   1 C :   -0.500411
   2 C :   -0.593942
   3 C :    0.756857
   4 C :   -0.608786
   5 C :   -0.394556
   6 H :    0.347895
   7 H :    0.225186
   8 H :    0.372998
   9 H :    0.357474
  10 H :    0.209339
  11 C :   -0.247166
  12 C :    1.984044
  13 O :   -1.077538
  14 O :   -1.481735
  15 N :    0.282493
  16 N :   -0.951155
  17 C :    2.488340
  18 C :   -0.715779
  19 C :    0.909537
  20 C :   -0.831042
  21 C :   -0.732405
  22 C :   -0.421315
  23 H :    0.281481
  24 C :   -0.595830
  25 H :    0.265834
  26 C :   -0.405634
  27 H :    0.212053
  28 H :    0.201345
  29 H :    0.329583
  30 C :    0.302172
  31 C :   -0.626870
  32 C :    0.454922
  33 C :   -0.589860
  34 H :    0.175773
  35 C :   -0.874657
  36 H :    0.377944
  37 H :    0.187265
  38 H :    0.292477
  39 H :    0.310424
  40 H :    0.324967
  41 H :    0.281022
  42 H :    0.145661
Sum of atomic charges:    0.0000000

LOEWDIN ATOMIC CHARGES
----------------------
   0 C :    0.339189
   1 C :    0.351173
   2 C :    0.342726
   3 C :   -0.070236
   4 C :    0.336476
   5 C :    0.352720
   6 H :   -0.320596
   7 H :   -0.321415
   8 H :   -0.413729
   9 H :   -0.417918
  10 H :   -0.319778
  11 C :   -0.229868
  12 C :   -1.031921
  13 O :    0.728487
  14 O :    0.877074
  15 N :    0.174131
  16 N :    0.571659
  17 C :   -0.815790
  18 C :    0.423740
  19 C :   -0.091058
  20 C :    0.350544
  21 C :    0.353961
  22 C :    0.363100
  23 H :   -0.319432
  24 C :    0.369077
  25 H :   -0.364092
  26 C :    0.350010
  27 H :   -0.315242
  28 H :   -0.313561
  29 H :   -0.317949
  30 C :   -0.026376
  31 C :    0.562661
  32 C :   -0.130738
  33 C :    0.565688
  34 H :   -0.265883
  35 C :    0.540399
  36 H :   -0.291253
  37 H :   -0.262245
  38 H :   -0.255995
  39 H :   -0.242835
  40 H :   -0.272409
  41 H :   -0.255919
  42 H :   -0.286576

  Mayer bond orders larger than 0.100000
B(  0-C ,  1-C ) :   1.3048 B(  0-C ,  5-C ) :   1.1574 B(  0-C ,  6-H ) :   1.0072
B(  1-C ,  2-C ) :   1.1199 B(  1-C ,  3-C ) :  -0.4819 B(  1-C ,  4-C ) :   0.1637
B(  1-C ,  6-H ) :  -0.1210 B(  1-C ,  7-H ) :   1.1137 B(  2-C ,  3-C ) :   0.9165
B(  2-C ,  7-H ) :  -0.1203 B(  2-C ,  8-H ) :   0.6571 B(  2-C , 11-C ) :  -0.4160
B(  2-C , 15-N ) :   0.2274 B(  2-C , 16-N ) :  -0.1842 B(  3-C ,  4-C ) :   1.1063
B(  3-C ,  5-C ) :  -0.4496 B(  3-C ,  8-H ) :  -0.1412 B(  3-C ,  9-H ) :  -0.1915
B(  3-C , 11-C ) :   0.1572 B(  3-C , 12-C ) :  -0.2762 B(  3-C , 16-N ) :   0.1105
B(  4-C ,  5-C ) :   1.2990 B(  4-C ,  6-H ) :  -0.1248 B(  4-C ,  9-H ) :   0.8570
B(  4-C , 10-H ) :  -0.1817 B(  4-C , 11-C ) :  -0.4814 B(  4-C , 17-C ) :  -0.1229
B(  5-C , 10-H ) :   1.2111 B(  8-H , 11-C ) :   0.1468 B(  8-H , 16-N ) :   0.2362
B(  9-H , 11-C ) :   0.2196 B( 11-C , 12-C ) :   1.5988 B( 11-C , 13-O ) :   0.6267
B( 11-C , 14-O ) :   0.4026 B( 11-C , 15-N ) :   1.3027 B( 11-C , 17-C ) :  -0.1446
B( 11-C , 21-C ) :  -0.1100 B( 11-C , 32-C ) :   0.1105 B( 12-C , 13-O ) :   0.1064
B( 12-C , 14-O ) :   0.7362 B( 13-O , 14-O ) :   0.2236 B( 13-O , 17-C ) :   0.2385
B( 14-O , 17-C ) :  -1.0192 B( 14-O , 18-C ) :   0.2825 B( 14-O , 19-C ) :   0.4586
B( 15-N , 17-C ) :   0.3874 B( 15-N , 18-C ) :   0.2664 B( 16-N , 17-C ) :   0.1764
B( 16-N , 21-C ) :  -0.1134 B( 16-N , 32-C ) :   1.3039 B( 17-C , 18-C ) :   0.6982
B( 17-C , 19-C ) :   0.3790 B( 17-C , 20-C ) :  -0.1494 B( 17-C , 21-C ) :  -0.3398
B( 17-C , 30-C ) :  -0.3088 B( 17-C , 32-C ) :  -0.1470 B( 18-C , 30-C ) :   1.1390
B( 18-C , 31-C ) :  -0.2896 B( 18-C , 42-H ) :   1.1583 B( 19-C , 20-C ) :   0.5063
B( 19-C , 21-C ) :   0.5509 B( 19-C , 22-C ) :  -0.3036 B( 19-C , 24-C ) :  -0.6014
B( 19-C , 26-C ) :  -0.1486 B( 20-C , 22-C ) :   1.4539 B( 20-C , 23-H ) :   1.0807
B( 20-C , 24-C ) :   0.2173 B( 20-C , 26-C ) :   0.1233 B( 20-C , 27-H ) :  -0.1695
B( 21-C , 24-C ) :   1.5930 B( 21-C , 25-H ) :   0.9645 B( 22-C , 24-C ) :   0.1063
B( 22-C , 26-C ) :   1.1188 B( 22-C , 27-H ) :   1.1745 B( 24-C , 26-C ) :   1.2750
B( 24-C , 28-H ) :   1.1023 B( 24-C , 29-H ) :  -0.1371 B( 26-C , 29-H ) :   1.0563
B( 30-C , 31-C ) :   0.4745 B( 30-C , 32-C ) :   0.4977 B( 30-C , 33-C ) :  -0.1140
B( 30-C , 34-H ) :  -0.1549 B( 30-C , 36-H ) :  -0.1184 B( 30-C , 41-H ) :  -0.1654
B( 30-C , 42-H ) :  -0.1557 B( 31-C , 33-C ) :   1.1356 B( 31-C , 34-H ) :   1.1167
B( 31-C , 41-H ) :   1.0098 B( 32-C , 33-C ) :  -0.1215 B( 32-C , 35-C ) :   0.6757
B( 32-C , 36-H ) :   0.7863 B( 33-C , 35-C ) :   1.0858 B( 33-C , 37-H ) :   1.0348
B( 33-C , 38-H ) :   0.9169 B( 35-C , 39-H ) :   0.9239 B( 35-C , 40-H ) :   0.8673

MP2 TOTAL ENERGY:    -1069.187059772 Eh
FINAL SINGLE POINT ENERGY     -1069.187059771863

DIPOLE MOMENT
-------------
                                X             Y             Z
Electronic contribution:     -9.39581       9.68740      -7.92065
Nuclear contribution   :     11.20058     -10.67567       8.84698
                        -----------------------------------------
Total Dipole Moment    :      1.80477      -0.98827       0.92633
                        -----------------------------------------
Magnitude (a.u.)       :      2.25654
Magnitude (Debye)      :      5.73566

Rotational constants in cm-1:     0.010227     0.006204     0.005039
Rotational constants in MHz :   306.596751   186.004999   151.072639

                             ****ORCA TERMINATED NORMALLY****
TOTAL RUN TIME: 0 days 13 hours 46 minutes 50 seconds 542 msec
