                         Program Version 4.2.1 -  RELEASE  -
|  1> %pal
|  2>  nprocs 32
|  3> end
|  4> !RI-MP2 aug-cc-pVQZ aug-cc-pVQZ/C TightSCF
|  5> %maxcore 4500
|  6> *xyzfile 0 2  04_46R2.xyz
|  7>
|  8>
|  9>                          ****END OF INPUT****

CARTESIAN COORDINATES (ANGSTROEM)
---------------------------------
  C     -0.423469   -1.198801   -0.186411
  C      0.397486   -0.055815    0.410279
  S      2.134537   -0.003838   -0.058105
  C     -1.869669   -0.748185    0.053866
  C     -1.838188    0.796647   -0.048272
  C     -0.346382    1.196461   -0.097992
  H     -0.192818   -2.166919    0.260508
  H     -0.207494   -1.265486   -1.256203
  H      0.335489   -0.080591    1.501719
  H     -2.193063   -1.053234    1.051727
  H     -2.562875   -1.200516   -0.656338
  H     -2.333030    1.252015    0.810865
  H     -2.358848    1.152841   -0.938053
  H     -0.116599    2.081763    0.494571
  H     -0.042027    1.399683   -1.127941

 Total Charge           Charge          ....    0
 Multiplicity           Mult            ....    2
 Number of Electrons    NEL             ....   55
 Basis Dimension        Dim             ....  898

ORBITAL ENERGIES
----------------
                 SPIN UP ORBITALS
  NO   OCC          E(Eh)            E(eV)
   0   1.0000     -91.960610     -2502.3754
   1   1.0000     -11.260065      -306.4019
   2   1.0000     -11.232185      -305.6433
   3   1.0000     -11.225095      -305.4504
   4   1.0000     -11.224721      -305.4402
   5   1.0000     -11.223293      -305.4013
   6   1.0000      -8.962751      -243.8889
   7   1.0000      -6.658643      -181.1909
   8   1.0000      -6.640189      -180.6887
   9   1.0000      -6.638813      -180.6513
  10   1.0000      -1.142925       -31.1006
  11   1.0000      -1.020919       -27.7806
  12   1.0000      -0.974828       -26.5264
  13   1.0000      -0.901635       -24.5347
  14   1.0000      -0.786354       -21.3978
  15   1.0000      -0.773081       -21.0366
  16   1.0000      -0.667073       -18.1520
  17   1.0000      -0.629222       -17.1220
  18   1.0000      -0.586325       -15.9547
  19   1.0000      -0.585202       -15.9242
  20   1.0000      -0.512763       -13.9530
  21   1.0000      -0.491614       -13.3775
  22   1.0000      -0.488333       -13.2882
  23   1.0000      -0.482093       -13.1184
  24   1.0000      -0.464680       -12.6446
  25   1.0000      -0.457912       -12.4604
  26   1.0000      -0.413449       -11.2505
  27   1.0000      -0.361545        -9.8381
  28   0.0000       0.025834         0.7030
  29   0.0000       0.031888         0.8677
  30   0.0000       0.032496         0.8843
  31   0.0000       0.038095         1.0366
  32   0.0000       0.049727         1.3531

                 SPIN DOWN ORBITALS
  NO   OCC          E(Eh)            E(eV)
   0   1.0000     -91.951552     -2502.1289
   1   1.0000     -11.261248      -306.4341
   2   1.0000     -11.230667      -305.6020
   3   1.0000     -11.224890      -305.4448
   4   1.0000     -11.224439      -305.4325
   5   1.0000     -11.223316      -305.4019
   6   1.0000      -8.952775      -243.6174
   7   1.0000      -6.635132      -180.5511
   8   1.0000      -6.633571      -180.5086
   9   1.0000      -6.617771      -180.0787
  10   1.0000      -1.138103       -30.9694
  11   1.0000      -0.996863       -27.1260
  12   1.0000      -0.972621       -26.4664
  13   1.0000      -0.852295       -23.1921
  14   1.0000      -0.783901       -21.3310
  15   1.0000      -0.757122       -20.6023
  16   1.0000      -0.665421       -18.1070
  17   1.0000      -0.622368       -16.9355
  18   1.0000      -0.585000       -15.9187
  19   1.0000      -0.578378       -15.7385
  20   1.0000      -0.493982       -13.4419
  21   1.0000      -0.487913       -13.2768
  22   1.0000      -0.481869       -13.1123
  23   1.0000      -0.481327       -13.0976
  24   1.0000      -0.464220       -12.6321
  25   1.0000      -0.447019       -12.1640
  26   1.0000      -0.343061        -9.3352
  27   0.0000       0.021028         0.5722
  28   0.0000       0.025968         0.7066
  29   0.0000       0.032073         0.8728
  30   0.0000       0.035237         0.9588
  31   0.0000       0.038403         1.0450

MULLIKEN ATOMIC CHARGES AND SPIN POPULATIONS
--------------------------------------------
   0 C :   -0.560961    0.020428
   1 C :    0.035313   -0.178358
   2 S :   -0.300761    1.141193
   3 C :   -0.567418   -0.002058
   4 C :   -0.443454    0.012398
   5 C :   -0.571555    0.020468
   6 H :    0.396553   -0.006083
   7 H :    0.202791    0.002297
   8 H :    0.230605    0.016380
   9 H :    0.200259   -0.000467
  10 H :    0.321050    0.000924
  11 H :    0.221932    0.001079
  12 H :    0.260170    0.001101
  13 H :    0.351845   -0.013907
  14 H :    0.223631   -0.015395
Sum of atomic charges         :   -0.0000000

LOEWDIN ATOMIC CHARGES AND SPIN POPULATIONS
-------------------------------------------
   0 C :    0.415936    0.012755
   1 C :   -0.474584    0.176811
   2 S :    1.117833    0.731869
   3 C :    0.538231    0.000819
   4 C :    0.550820    0.005371
   5 C :    0.413805    0.033929
   6 H :   -0.264310    0.002967
   7 H :   -0.296277   -0.000151
   8 H :   -0.375634    0.010127
   9 H :   -0.268173    0.000065
  10 H :   -0.259878    0.000170
  11 H :   -0.266766    0.001155
  12 H :   -0.265209    0.001085
  13 H :   -0.267281    0.005189
  14 H :   -0.298513    0.017840

  Mayer bond orders larger than 0.100000
B(  0-C ,  1-C ) :   0.8874 B(  0-C ,  3-C ) :   1.0052 B(  0-C ,  6-H ) :   0.8020
B(  0-C ,  7-H ) :   0.9670 B(  1-C ,  2-S ) :   0.6612 B(  1-C ,  5-C ) :   0.8821
B(  1-C ,  8-H ) :   0.9187 B(  3-C ,  4-C ) :   0.9501 B(  3-C ,  9-H ) :   0.9651
B(  3-C , 10-H ) :   0.8746 B(  4-C ,  5-C ) :   0.9491 B(  4-C , 11-H ) :   0.9588
B(  4-C , 12-H ) :   0.9211 B(  5-C , 13-H ) :   0.8578 B(  5-C , 14-H ) :   0.9676

MP2 TOTAL ENERGY:     -593.262541497 Eh
FINAL SINGLE POINT ENERGY      -593.262541496673

DIPOLE MOMENT
-------------
                                X             Y             Z
Electronic contribution:      9.11714      -0.12365      -0.00635
Nuclear contribution   :     -9.93988       0.12217       0.14562
                        -----------------------------------------
Total Dipole Moment    :     -0.82275      -0.00149       0.13927
                        -----------------------------------------
Magnitude (a.u.)       :      0.83445
Magnitude (Debye)      :      2.12101

Rotational constants in cm-1:     0.215263     0.063073     0.052189
Rotational constants in MHz :  6453.407426  1890.888934  1564.579632

                             ****ORCA TERMINATED NORMALLY****
TOTAL RUN TIME: 0 days 2 hours 5 minutes 48 seconds 825 msec
