                         Program Version 4.2.1 -  RELEASE  -
|  1> %pal
|  2>  nprocs 32
|  3> end
|  4> !RI-MP2 aug-cc-pVQZ aug-cc-pVQZ/C TightSCF
|  5> %maxcore 4500
|  6> *xyzfile 0 1  02_16R.xyz
|  7>
|  8>
|  9>                          ****END OF INPUT****

CARTESIAN COORDINATES (ANGSTROEM)
---------------------------------
  C      2.365888    1.567425   -0.156808
  C      0.949610    1.672120    0.321817
  C      0.563625   -1.511915    0.657756
  C      3.053945    0.309765    0.369364
  H      2.383124    1.580430   -1.258090
  C      2.800191   -0.983046   -0.399125
  H      4.128926    0.493621    0.352493
  H      2.783352    0.163064    1.418255
  C      1.335745   -1.368692   -0.615428
  H      3.263856   -0.893799   -1.392690
  C     -0.120212    1.854670   -0.447277
  C     -1.478096    1.817847    0.069776
  C     -0.762243   -1.575460    0.822004
  C     -2.576104    1.974011   -0.665551
  H      0.853920   -0.647584   -1.274754
  H      1.292131   -2.308602   -1.173106
  C     -3.971230    1.836339   -0.126932
  H     -4.605939    1.365827   -0.890037
  H     -4.403257    2.822876    0.065171
  C     -1.651797   -1.563125   -0.360304
  C     -3.887346   -1.546760   -1.102402
  H     -3.810363   -2.526162   -1.573313
  H     -3.682752   -0.778499   -1.847075
  H     -4.872495   -1.410122   -0.663327
  O     -2.960656   -1.448421   -0.014938
  O      3.150079    2.655483    0.322922
  O      3.497285   -1.980914    0.336893
  O     -1.314222   -1.667067   -1.512624
  O     -4.044884    1.130640    1.094196
  H     -3.667331    0.252492    0.953338
  C      2.793285    3.906517   -0.219273
  H      3.493837    4.636324    0.183691
  H      2.875068    3.898724   -1.314355
  H      1.773474    4.196402    0.053187
  C      3.772316   -3.164344   -0.374230
  H      4.300626   -2.948841   -1.311700
  H      4.413458   -3.774558    0.260475
  H      2.865263   -3.734084   -0.604716
  C     -1.393932   -1.663160    2.184442
  H     -1.997185   -0.778759    2.403506
  H     -2.055853   -2.527262    2.266563
  H     -0.623019   -1.743782    2.950785
  H      0.001231    1.975790   -1.521931
  H      0.817650    1.554166    1.395319
  H     -1.587116    1.608766    1.130155
  H     -2.489857    2.197370   -1.726751
  H      1.166557   -1.564720    1.560326

 Total Charge           Charge          ....    0
 Multiplicity           Mult            ....    1
 Number of Electrons    NEL             ....  162
 Basis Dimension        Dim             .... 2876

ORBITAL ENERGIES
----------------

  NO   OCC          E(Eh)            E(eV)
   0   2.0000     -20.607347      -560.7544
   1   2.0000     -20.553396      -559.2863
   2   2.0000     -20.551520      -559.2353
   3   2.0000     -20.549136      -559.1704
   4   2.0000     -20.540839      -558.9447
   5   2.0000     -11.380372      -309.6757
   6   2.0000     -11.289845      -307.2123
   7   2.0000     -11.285047      -307.0817
   8   2.0000     -11.282372      -307.0089
   9   2.0000     -11.280440      -306.9564
  10   2.0000     -11.269794      -306.6667
  11   2.0000     -11.263585      -306.4977
  12   2.0000     -11.252546      -306.1973
  13   2.0000     -11.242105      -305.9132
  14   2.0000     -11.234903      -305.7173
  15   2.0000     -11.233389      -305.6761
  16   2.0000     -11.230379      -305.5942
  17   2.0000     -11.226796      -305.4966
  18   2.0000     -11.226066      -305.4768
  19   2.0000     -11.223234      -305.3997
  20   2.0000     -11.217051      -305.2315
  21   2.0000      -1.466228       -39.8981
  22   2.0000      -1.377586       -37.4860
  23   2.0000      -1.373360       -37.3710
  24   2.0000      -1.363747       -37.1094
  25   2.0000      -1.357501       -36.9395
  26   2.0000      -1.121000       -30.5040
  27   2.0000      -1.106740       -30.1159
  28   2.0000      -1.076782       -29.3007
  29   2.0000      -1.039220       -28.2786
  30   2.0000      -1.006585       -27.3906
  31   2.0000      -0.978494       -26.6262
  32   2.0000      -0.959121       -26.0990
  33   2.0000      -0.926125       -25.2011
  34   2.0000      -0.914791       -24.8927
  35   2.0000      -0.904404       -24.6101
  36   2.0000      -0.855277       -23.2733
  37   2.0000      -0.840385       -22.8680
  38   2.0000      -0.789653       -21.4875
  39   2.0000      -0.776071       -21.1180
  40   2.0000      -0.764462       -20.8021
  41   2.0000      -0.758683       -20.6448
  42   2.0000      -0.699711       -19.0401
  43   2.0000      -0.690643       -18.7933
  44   2.0000      -0.681982       -18.5577
  45   2.0000      -0.679332       -18.4856
  46   2.0000      -0.673969       -18.3396
  47   2.0000      -0.659805       -17.9542
  48   2.0000      -0.652536       -17.7564
  49   2.0000      -0.647400       -17.6167
  50   2.0000      -0.641872       -17.4662
  51   2.0000      -0.633180       -17.2297
  52   2.0000      -0.611565       -16.6415
  53   2.0000      -0.608521       -16.5587
  54   2.0000      -0.599507       -16.3134
  55   2.0000      -0.596540       -16.2327
  56   2.0000      -0.592180       -16.1141
  57   2.0000      -0.582075       -15.8391
  58   2.0000      -0.576444       -15.6858
  59   2.0000      -0.568521       -15.4702
  60   2.0000      -0.556247       -15.1363
  61   2.0000      -0.552178       -15.0255
  62   2.0000      -0.545771       -14.8512
  63   2.0000      -0.541490       -14.7347
  64   2.0000      -0.540145       -14.6981
  65   2.0000      -0.518223       -14.1016
  66   2.0000      -0.513822       -13.9818
  67   2.0000      -0.509223       -13.8567
  68   2.0000      -0.496944       -13.5225
  69   2.0000      -0.492858       -13.4114
  70   2.0000      -0.485306       -13.2058
  71   2.0000      -0.470342       -12.7987
  72   2.0000      -0.468487       -12.7482
  73   2.0000      -0.468212       -12.7407
  74   2.0000      -0.455140       -12.3850
  75   2.0000      -0.443568       -12.0701
  76   2.0000      -0.433873       -11.8063
  77   2.0000      -0.425506       -11.5786
  78   2.0000      -0.418669       -11.3926
  79   2.0000      -0.361568        -9.8388
  80   2.0000      -0.316740        -8.6189
  81   0.0000       0.021215         0.5773
  82   0.0000       0.025061         0.6819
  83   0.0000       0.026113         0.7106
  84   0.0000       0.028755         0.7825
  85   0.0000       0.033386         0.9085

MULLIKEN ATOMIC CHARGES
-----------------------
   0 C :    1.819881
   1 C :   -0.452683
   2 C :    0.377500
   3 C :   -0.813277
   4 H :    0.118769
   5 C :    1.169380
   6 H :    0.193606
   7 H :    0.281104
   8 C :   -0.658686
   9 H :    0.184299
  10 C :   -0.012442
  11 C :    0.021103
  12 C :   -0.391703
  13 C :   -0.626820
  14 H :    0.252618
  15 H :    0.316505
  16 C :   -0.037962
  17 H :    0.251200
  18 H :    0.425585
  19 C :    2.387176
  20 C :   -0.984598
  21 H :    0.329297
  22 H :    0.355120
  23 H :    0.389169
  24 O :   -0.849001
  25 O :   -1.201520
  26 O :   -1.131125
  27 O :   -1.187695
  28 O :   -1.116779
  29 H :    0.483562
  30 C :   -0.806849
  31 H :    0.432406
  32 H :    0.229266
  33 H :    0.250383
  34 C :   -0.828543
  35 H :    0.247299
  36 H :    0.397721
  37 H :    0.264952
  38 C :   -1.247143
  39 H :    0.192150
  40 H :    0.251890
  41 H :    0.235440
  42 H :    0.105596
  43 H :    0.039066
  44 H :    0.140348
  45 H :    0.121700
  46 H :    0.082733
Sum of atomic charges:   -0.0000000

LOEWDIN ATOMIC CHARGES
----------------------
   0 C :   -0.249246
   1 C :    0.331508
   2 C :    0.378996
   3 C :    0.484995
   4 H :   -0.308914
   5 C :   -0.215155
   6 H :   -0.283810
   7 H :   -0.289195
   8 C :    0.483771
   9 H :   -0.290246
  10 C :    0.359947
  11 C :    0.333609
  12 C :   -0.070610
  13 C :    0.380683
  14 H :   -0.346855
  15 H :   -0.295326
  16 C :    0.149600
  17 H :   -0.327208
  18 H :   -0.313897
  19 C :   -1.070963
  20 C :    0.588069
  21 H :   -0.299428
  22 H :   -0.325611
  23 H :   -0.307359
  24 O :    0.870791
  25 O :    0.903613
  26 O :    0.913667
  27 O :    0.771947
  28 O :    1.292580
  29 H :   -0.948623
  30 C :    0.572851
  31 H :   -0.320944
  32 H :   -0.301045
  33 H :   -0.318394
  34 C :    0.583110
  35 H :   -0.299455
  36 H :   -0.317754
  37 H :   -0.313120
  38 C :    0.884840
  39 H :   -0.297741
  40 H :   -0.281365
  41 H :   -0.302788
  42 H :   -0.310245
  43 H :   -0.299008
  44 H :   -0.352745
  45 H :   -0.311483
  46 H :   -0.316041

  Mayer bond orders larger than 0.100000
B(  0-C ,  1-C ) :   0.7486 B(  0-C ,  3-C ) :   0.8514 B(  0-C ,  4-H ) :   1.1103
B(  0-C , 10-C ) :  -0.2215 B(  0-C , 25-O ) :  -0.9898 B(  0-C , 30-C ) :  -0.4775
B(  0-C , 43-H ) :  -0.1436 B(  1-C ,  3-C ) :   0.1040 B(  1-C , 10-C ) :   1.0720
B(  1-C , 11-C ) :  -0.5208 B(  1-C , 25-O ) :   0.5868 B(  1-C , 43-H ) :   1.3324
B(  2-C ,  5-C ) :  -0.1716 B(  2-C ,  8-C ) :   0.9103 B(  2-C , 12-C ) :   0.5553
B(  2-C , 14-H ) :   0.1171 B(  2-C , 15-H ) :  -0.1193 B(  2-C , 19-C ) :  -0.1526
B(  2-C , 38-C ) :  -0.3886 B(  2-C , 46-H ) :   1.1853 B(  3-C ,  5-C ) :   0.8791
B(  3-C ,  6-H ) :   1.0813 B(  3-C ,  7-H ) :   0.8839 B(  3-C , 25-O ) :   0.3686
B(  3-C , 26-O ) :   0.3332 B(  5-C ,  6-H ) :  -0.1242 B(  5-C ,  8-C ) :   1.0483
B(  5-C ,  9-H ) :   1.1428 B(  5-C , 26-O ) :  -0.3274 B(  5-C , 34-C ) :  -0.4122
B(  8-C ,  9-H ) :  -0.1466 B(  8-C , 12-C ) :  -0.3864 B(  8-C , 14-H ) :   0.8677
B(  8-C , 15-H ) :   0.9513 B(  8-C , 26-O ) :   0.2507 B(  8-C , 34-C ) :   0.1339
B(  8-C , 46-H ) :  -0.1011 B( 10-C , 11-C ) :   0.5262 B( 10-C , 13-C ) :  -0.4486
B( 10-C , 25-O ) :   0.1038 B( 10-C , 42-H ) :   1.1764 B( 11-C , 13-C ) :   1.1720
B( 11-C , 16-C ) :  -0.3725 B( 11-C , 28-O ) :  -0.1205 B( 11-C , 42-H ) :  -0.1206
B( 11-C , 44-H ) :   1.0598 B( 11-C , 45-H ) :  -0.1127 B( 12-C , 19-C ) :   1.0796
B( 12-C , 27-O ) :   0.3367 B( 12-C , 38-C ) :   0.6437 B( 12-C , 39-H ) :  -0.1727
B( 12-C , 40-H ) :  -0.1768 B( 12-C , 46-H ) :  -0.1168 B( 13-C , 16-C ) :   0.8765
B( 13-C , 17-H ) :  -0.1659 B( 13-C , 18-H ) :  -0.1260 B( 13-C , 45-H ) :   1.2035
B( 16-C , 17-H ) :   1.0714 B( 16-C , 18-H ) :   0.8463 B( 16-C , 28-O ) :   0.6586
B( 19-C , 20-C ) :  -0.2660 B( 19-C , 24-O ) :   0.4591 B( 19-C , 27-O ) :   0.2928
B( 19-C , 38-C ) :   0.1246 B( 20-C , 21-H ) :   0.9834 B( 20-C , 22-H ) :   0.8725
B( 20-C , 23-H ) :   0.9101 B( 20-C , 24-O ) :   0.8227 B( 24-O , 27-O ) :   0.1404
B( 25-O , 30-C ) :   1.1932 B( 26-O , 34-C ) :   1.1486 B( 28-O , 29-H ) :   0.5999
B( 30-C , 31-H ) :   0.8520 B( 30-C , 32-H ) :   0.9540 B( 30-C , 33-H ) :   0.9107
B( 34-C , 35-H ) :   0.9562 B( 34-C , 36-H ) :   0.8997 B( 34-C , 37-H ) :   0.9416
B( 38-C , 39-H ) :   1.1076 B( 38-C , 40-H ) :   1.1002 B( 38-C , 41-H ) :   1.0864

MP2 TOTAL ENERGY:     -999.833773964 Eh
FINAL SINGLE POINT ENERGY      -999.833773964331

DIPOLE MOMENT
-------------
                                X             Y             Z
Electronic contribution:     -2.93540      -1.44855       0.71176
Nuclear contribution   :      2.64190       1.10983      -1.58559
                        -----------------------------------------
Total Dipole Moment    :     -0.29349      -0.33872      -0.87383
                        -----------------------------------------
Magnitude (a.u.)       :      0.98206
Magnitude (Debye)      :      2.49621

Rotational constants in cm-1:     0.012422     0.007154     0.005142
Rotational constants in MHz :   372.398429   214.483574   154.148822

                             ****ORCA TERMINATED NORMALLY****
TOTAL RUN TIME: 0 days 11 hours 16 minutes 23 seconds 104 msec
