                         Program Version 4.2.1 -  RELEASE  -
|  1> %pal
|  2>  nprocs 32
|  3> end
|  4> !RI-MP2 aug-cc-pVQZ aug-cc-pVQZ/C TightSCF
|  5> %maxcore 4500
|  6> *xyzfile 0 1  02_49R2.xyz
|  7>
|  8>
|  9>                          ****END OF INPUT****

CARTESIAN COORDINATES (ANGSTROEM)
---------------------------------
  C      2.251261    0.262442    0.000045
  C      1.772643   -1.038749    0.000055
  C      1.351542    1.322830   -0.000022
  H      2.463768   -1.873043    0.000101
  C      0.405294   -1.275060    0.000002
  H      1.717537    2.342646   -0.000042
  C     -0.011660    1.083968   -0.000073
  C     -0.509313   -0.221742   -0.000052
  H      0.035963   -2.294661    0.000008
  C     -1.948478   -0.530133   -0.000088
  H     -0.695804    1.923239   -0.000144
  C     -2.956035    0.336251    0.000113
  H      3.317629    0.452618    0.000082
  H     -3.982382   -0.007491    0.000063
  H     -2.805087    1.409137    0.000343
  H     -2.183146   -1.591290   -0.000287

 Total Charge           Charge          ....    0
 Multiplicity           Mult            ....    1
 Number of Electrons    NEL             ....   56
 Basis Dimension        Dim             .... 1008

ORBITAL ENERGIES
----------------

  NO   OCC          E(Eh)            E(eV)
   0   2.0000     -11.243393      -305.9483
   1   2.0000     -11.238938      -305.8270
   2   2.0000     -11.235131      -305.7235
   3   2.0000     -11.234719      -305.7122
   4   2.0000     -11.233598      -305.6818
   5   2.0000     -11.233142      -305.6693
   6   2.0000     -11.232758      -305.6589
   7   2.0000     -11.226102      -305.4778
   8   2.0000      -1.162265       -31.6268
   9   2.0000      -1.073203       -29.2033
  10   2.0000      -1.018871       -27.7249
  11   2.0000      -0.992262       -27.0008
  12   2.0000      -0.852335       -23.1932
  13   2.0000      -0.828089       -22.5334
  14   2.0000      -0.766536       -20.8585
  15   2.0000      -0.701870       -19.0988
  16   2.0000      -0.655219       -17.8294
  17   2.0000      -0.634611       -17.2686
  18   2.0000      -0.611240       -16.6327
  19   2.0000      -0.587890       -15.9973
  20   2.0000      -0.580558       -15.7978
  21   2.0000      -0.527035       -14.3413
  22   2.0000      -0.516844       -14.0640
  23   2.0000      -0.495231       -13.4759
  24   2.0000      -0.487498       -13.2655
  25   2.0000      -0.412611       -11.2277
  26   2.0000      -0.340699        -9.2709
  27   2.0000      -0.307375        -8.3641
  28   0.0000       0.025521         0.6945
  29   0.0000       0.027300         0.7429
  30   0.0000       0.028878         0.7858
  31   0.0000       0.040035         1.0894
  32   0.0000       0.040532         1.1029

MULLIKEN ATOMIC CHARGES
-----------------------
   0 C :   -0.401656
   1 C :   -0.331087
   2 C :   -0.272815
   3 H :    0.263863
   4 C :   -0.269980
   5 H :    0.256576
   6 C :   -0.097381
   7 C :    0.258073
   8 H :    0.284794
   9 C :   -0.345334
  10 H :    0.297034
  11 C :   -0.893523
  12 H :    0.300262
  13 H :    0.321295
  14 H :    0.351386
  15 H :    0.278493
Sum of atomic charges:   -0.0000000

LOEWDIN ATOMIC CHARGES
----------------------
   0 C :    0.335985
   1 C :    0.342606
   2 C :    0.346066
   3 H :   -0.320700
   4 C :    0.325508
   5 H :   -0.319864
   6 C :    0.326763
   7 C :   -0.111366
   8 H :   -0.324080
   9 C :    0.336910
  10 H :   -0.342004
  11 C :    0.798135
  12 H :   -0.322458
  13 H :   -0.349668
  14 H :   -0.365853
  15 H :   -0.355981

  Mayer bond orders larger than 0.100000
B(  0-C ,  1-C ) :   1.2223 B(  0-C ,  2-C ) :   1.1646 B(  0-C ,  3-H ) :  -0.1089
B(  0-C , 12-H ) :   1.0195 B(  1-C ,  3-H ) :   1.1227 B(  1-C ,  4-C ) :   1.1955
B(  1-C ,  6-C ) :   0.1152 B(  1-C ,  7-C ) :  -0.3582 B(  2-C ,  5-H ) :   1.1098
B(  2-C ,  6-C ) :   1.1766 B(  2-C ,  7-C ) :  -0.2626 B(  3-H ,  4-C ) :  -0.1493
B(  4-C ,  7-C ) :   0.9020 B(  4-C ,  8-H ) :   0.9655 B(  4-C ,  9-C ) :  -0.2913
B(  5-H ,  6-C ) :  -0.1287 B(  6-C ,  7-C ) :   1.1838 B(  6-C ,  9-C ) :  -0.3728
B(  6-C , 10-H ) :   0.9290 B(  6-C , 11-C ) :  -0.1222 B(  7-C ,  8-H ) :  -0.1065
B(  7-C ,  9-C ) :   0.8189 B(  7-C , 15-H ) :  -0.1230 B(  9-C , 11-C ) :   1.5118
B(  9-C , 13-H ) :  -0.1781 B(  9-C , 15-H ) :   0.9979 B( 11-C , 13-H ) :   1.0187
B( 11-C , 14-H ) :   0.9679

MP2 TOTAL ENERGY:     -309.062906626 Eh
FINAL SINGLE POINT ENERGY      -309.062906625926

DIPOLE MOMENT
-------------
                                X             Y             Z
Electronic contribution:      2.21610      -0.36168      -0.00012
Nuclear contribution   :     -2.15240       0.36469       0.00012
                        -----------------------------------------
Total Dipole Moment    :      0.06370       0.00301       0.00000
                        -----------------------------------------
Magnitude (a.u.)       :      0.06377
Magnitude (Debye)      :      0.16210

Rotational constants in cm-1:     0.174458     0.051781     0.039929
Rotational constants in MHz :  5230.118810  1552.341380  1197.047922

                             ****ORCA TERMINATED NORMALLY****
TOTAL RUN TIME: 0 days 0 hours 24 minutes 21 seconds 441 msec
