                         Program Version 4.2.1 -  RELEASE  -
|  1> %pal
|  2>  nprocs 32
|  3> end
|  4> !RI-MP2 aug-cc-pVQZ aug-cc-pVQZ/C TightSCF
|  5> %maxcore 4500
|  6> *xyzfile 0 1  05_24P2.xyz
|  7>
|  8>
|  9>                          ****END OF INPUT****

CARTESIAN COORDINATES (ANGSTROEM)
---------------------------------
  C     -2.897864    1.427774   -0.667339
  C     -1.562634    2.092278   -0.872965
  C     -0.407101    1.504032   -0.584898
  N     -0.331989    0.209708   -0.060111
  C     -1.506182   -0.415890    0.273631
  C     -2.720812    0.091570    0.019719
  C     -3.873749   -0.736863    0.436529
  O     -3.759642   -1.831825    0.965112
  N     -5.106732   -0.208691    0.175539
  C      0.941704   -0.363914    0.275562
  C      1.887869   -0.565180   -0.911178
  C      3.242003   -0.510727   -0.239529
  C      3.031750    0.589353    0.793274
  O      1.652940    0.463214    1.184887
  H      0.735358   -1.336750    0.730935
  C      3.920762    0.510871    2.009058
  H      3.169918    1.554187    0.289859
  H      3.692387    1.320763    2.702783
  H      4.966675    0.594835    1.707051
  H      3.775055   -0.439365    2.526827
  O      4.314056   -0.180624   -1.089932
  H      3.422411   -1.470920    0.261707
  O      1.710515   -1.789130   -1.585504
  H      1.809824    0.277789   -1.607233
  H      0.898759   -1.760996   -2.100102
  H      4.446982   -0.903311   -1.710151
  H     -5.908455   -0.727414    0.493761
  H     -5.237444    0.721360   -0.179266
  H     -1.424398   -1.378853    0.761757
  H     -1.543332    3.102219   -1.262202
  H      0.541273    2.006829   -0.709989
  H     -3.412360    1.308925   -1.631750
  H     -3.539048    2.090674   -0.069670

 Total Charge           Charge          ....    0
 Multiplicity           Mult            ....    1
 Number of Electrons    NEL             ....  128
 Basis Dimension        Dim             .... 2096

ORBITAL ENERGIES
----------------

  NO   OCC          E(Eh)            E(eV)
   0   2.0000     -20.582840      -560.0875
   1   2.0000     -20.574383      -559.8574
   2   2.0000     -20.568587      -559.6997
   3   2.0000     -20.496327      -557.7334
   4   2.0000     -15.602118      -424.5552
   5   2.0000     -15.573275      -423.7704
   6   2.0000     -11.340686      -308.5958
   7   2.0000     -11.334846      -308.4369
   8   2.0000     -11.296928      -307.4050
   9   2.0000     -11.293320      -307.3069
  10   2.0000     -11.291737      -307.2638
  11   2.0000     -11.287608      -307.1514
  12   2.0000     -11.276246      -306.8423
  13   2.0000     -11.246170      -306.0239
  14   2.0000     -11.231912      -305.6359
  15   2.0000     -11.222412      -305.3774
  16   2.0000     -11.220891      -305.3360
  17   2.0000      -1.416557       -38.5465
  18   2.0000      -1.387987       -37.7690
  19   2.0000      -1.378143       -37.5012
  20   2.0000      -1.366174       -37.1755
  21   2.0000      -1.293253       -35.1912
  22   2.0000      -1.200762       -32.6744
  23   2.0000      -1.102641       -30.0044
  24   2.0000      -1.066375       -29.0175
  25   2.0000      -1.054574       -28.6964
  26   2.0000      -1.034983       -28.1633
  27   2.0000      -0.948446       -25.8085
  28   2.0000      -0.901944       -24.5432
  29   2.0000      -0.879110       -23.9218
  30   2.0000      -0.844192       -22.9716
  31   2.0000      -0.815981       -22.2040
  32   2.0000      -0.792178       -21.5563
  33   2.0000      -0.751363       -20.4456
  34   2.0000      -0.743151       -20.2222
  35   2.0000      -0.715535       -19.4707
  36   2.0000      -0.708849       -19.2888
  37   2.0000      -0.691253       -18.8099
  38   2.0000      -0.682224       -18.5643
  39   2.0000      -0.658533       -17.9196
  40   2.0000      -0.642949       -17.4955
  41   2.0000      -0.638405       -17.3719
  42   2.0000      -0.626101       -17.0371
  43   2.0000      -0.617392       -16.8001
  44   2.0000      -0.614825       -16.7302
  45   2.0000      -0.608402       -16.5555
  46   2.0000      -0.590460       -16.0672
  47   2.0000      -0.563161       -15.3244
  48   2.0000      -0.559511       -15.2251
  49   2.0000      -0.555628       -15.1194
  50   2.0000      -0.555406       -15.1134
  51   2.0000      -0.545396       -14.8410
  52   2.0000      -0.534009       -14.5311
  53   2.0000      -0.529843       -14.4178
  54   2.0000      -0.525165       -14.2905
  55   2.0000      -0.503196       -13.6926
  56   2.0000      -0.494882       -13.4664
  57   2.0000      -0.467163       -12.7122
  58   2.0000      -0.448022       -12.1913
  59   2.0000      -0.432657       -11.7732
  60   2.0000      -0.415138       -11.2965
  61   2.0000      -0.406615       -11.0645
  62   2.0000      -0.381985       -10.3943
  63   2.0000      -0.295039        -8.0284
  64   0.0000       0.018578         0.5055
  65   0.0000       0.024584         0.6690
  66   0.0000       0.028041         0.7630
  67   0.0000       0.028721         0.7815
  68   0.0000       0.036287         0.9874

MULLIKEN ATOMIC CHARGES
-----------------------
   0 C :    0.025739
   1 C :   -0.280469
   2 C :   -0.561821
   3 N :   -0.638163
   4 C :    0.104209
   5 C :   -0.421700
   6 C :    1.307052
   7 O :   -0.960991
   8 N :   -0.872988
   9 C :    0.759309
  10 C :    0.680216
  11 C :    0.713828
  12 C :    0.376046
  13 O :   -0.997305
  14 H :    0.351783
  15 C :   -0.914000
  16 H :    0.193631
  17 H :    0.226517
  18 H :    0.253166
  19 H :    0.246001
  20 O :   -1.026121
  21 H :    0.090505
  22 O :   -1.132036
  23 H :    0.110922
  24 H :    0.332035
  25 H :    0.318228
  26 H :    0.169363
  27 H :    0.325335
  28 H :    0.267050
  29 H :    0.228137
  30 H :    0.354187
  31 H :    0.209344
  32 H :    0.162992
Sum of atomic charges:   -0.0000000

LOEWDIN ATOMIC CHARGES
----------------------
   0 C :    0.451136
   1 C :    0.416262
   2 C :    0.230264
   3 N :    0.453222
   4 C :    0.204358
   5 C :   -0.068382
   6 C :   -0.871042
   7 O :    0.688502
   8 N :    1.238477
   9 C :   -0.374340
  10 C :   -0.244186
  11 C :   -0.266967
  12 C :   -0.238783
  13 O :    0.948061
  14 H :   -0.322679
  15 C :    0.933443
  16 H :   -0.287399
  17 H :   -0.276949
  18 H :   -0.275676
  19 H :   -0.282060
  20 O :    1.317728
  21 H :   -0.281604
  22 O :    1.320228
  23 H :   -0.301293
  24 H :   -0.756083
  25 H :   -0.763601
  26 H :   -0.494142
  27 H :   -0.540452
  28 H :   -0.344650
  29 H :   -0.317215
  30 H :   -0.326300
  31 H :   -0.276170
  32 H :   -0.291709

  Mayer bond orders larger than 0.100000
B(  0-C ,  1-C ) :   0.8178 B(  0-C ,  2-C ) :  -0.2988 B(  0-C ,  5-C ) :   0.5952
B(  0-C , 31-H ) :   0.9159 B(  0-C , 32-H ) :   1.0214 B(  1-C ,  2-C ) :   1.4749
B(  1-C ,  3-N ) :  -0.2013 B(  1-C ,  5-C ) :  -0.1989 B(  1-C , 29-H ) :   1.0751
B(  2-C ,  3-N ) :   0.9360 B(  2-C ,  4-C ) :   0.3443 B(  2-C , 29-H ) :  -0.1180
B(  2-C , 30-H ) :   0.7762 B(  3-N ,  4-C ) :   1.3143 B(  3-N ,  9-C ) :   0.7467
B(  3-N , 13-O ) :   0.1202 B(  4-C ,  5-C ) :   0.9384 B(  4-C ,  6-C ) :  -0.4107
B(  4-C ,  7-O ) :  -0.2408 B(  4-C , 28-H ) :   0.9360 B(  5-C ,  6-C ) :   1.4248
B(  5-C ,  7-O ) :   0.7690 B(  5-C ,  8-N ) :  -0.1821 B(  6-C ,  7-O ) :   0.7421
B(  6-C ,  8-N ) :   0.9905 B(  7-O ,  8-N ) :   0.1827 B(  8-N , 26-H ) :   1.0854
B(  8-N , 27-H ) :   0.9030 B(  9-C , 10-C ) :   0.9450 B(  9-C , 11-C ) :  -0.1338
B(  9-C , 13-O ) :   0.1599 B(  9-C , 14-H ) :   0.8570 B(  9-C , 22-O ) :   0.2844
B( 10-C , 11-C ) :   0.8532 B( 10-C , 12-C ) :  -0.1019 B( 10-C , 13-O ) :   0.1541
B( 10-C , 20-O ) :   0.2601 B( 10-C , 22-O ) :  -0.2946 B( 10-C , 23-H ) :   1.1029
B( 11-C , 12-C ) :   0.9707 B( 11-C , 20-O ) :  -0.1350 B( 11-C , 21-H ) :   1.0859
B( 11-C , 22-O ) :   0.1374 B( 12-C , 13-O ) :   0.6473 B( 12-C , 15-C ) :   0.3809
B( 12-C , 16-H ) :   1.0308 B( 12-C , 17-H ) :  -0.1521 B( 12-C , 18-H ) :  -0.1434
B( 15-C , 17-H ) :   1.0778 B( 15-C , 18-H ) :   1.0815 B( 15-C , 19-H ) :   0.9763
B( 20-O , 25-H ) :   0.9664 B( 22-O , 23-H ) :   0.1529 B( 22-O , 24-H ) :   0.9710

MP2 TOTAL ENERGY:     -837.937564243 Eh
FINAL SINGLE POINT ENERGY      -837.937564243133

DIPOLE MOMENT
-------------
                                X             Y             Z
Electronic contribution:     -6.16355      -3.86771      -1.21594
Nuclear contribution   :      6.42704       4.91010       0.19682
                        -----------------------------------------
Total Dipole Moment    :      0.26348       1.04239      -1.01912
                        -----------------------------------------
Magnitude (a.u.)       :      1.48142
Magnitude (Debye)      :      3.76547

Rotational constants in cm-1:     0.034150     0.007344     0.007172
Rotational constants in MHz :  1023.802380   220.165118   215.001894

                             ****ORCA TERMINATED NORMALLY****
TOTAL RUN TIME: 0 days 4 hours 19 minutes 3 seconds 952 msec
