                         Program Version 4.2.1 -  RELEASE  -
|  1> %pal
|  2>  nprocs 32
|  3> end
|  4> !RI-MP2 aug-cc-pVQZ aug-cc-pVQZ/C TightSCF
|  5> %maxcore 4500
|  6> *xyzfile 0 1  10_2TS.xyz
|  7>
|  8>
|  9>                          ****END OF INPUT****

CARTESIAN COORDINATES (ANGSTROEM)
---------------------------------
  C      3.016546   -0.229167   -1.263777
  C      1.495140   -0.216161   -1.389606
  C      0.845843    0.617269   -0.229237
  C      1.772833    0.589721    0.994376
  C      2.546046   -0.687044    1.189886
  C      3.524867   -0.920926    0.011626
  C     -0.440580   -0.165058    0.116881
  C     -0.370766   -1.491395   -0.490166
  C      0.831397   -1.595744   -1.396734
  O     -1.151928   -2.417015   -0.315150
  C      0.620432    2.065666   -0.674494
  C     -0.562869    2.162026   -1.654588
  C     -1.647912    1.222312   -1.244560
  N     -2.498464    1.475642   -0.254643
  O     -3.025296    0.378542    0.274787
  C     -1.340081    0.025024    1.191977
  C     -1.403559    1.369077    1.859613
  C     -2.139873    2.336032    0.864204
  O      1.878404    1.534281    1.742618
  C      4.931235   -0.440988    0.355878
  O     -2.468813   -2.925455    2.108290
  O     -3.391945   -1.418201   -1.912625
  H      1.240991    0.287306   -2.324154
  H      1.475056   -2.386414   -1.002962
  H      0.516906   -1.921677   -2.389680
  H      3.367148    0.810000   -1.262717
  H      3.466402   -0.698539   -2.142372
  H      1.527568    2.458393   -1.142203
  H      0.452880    2.686680    0.202406
  H      3.071720   -0.636974    2.142586
  H      1.827076   -1.508218    1.249438
  H      3.571467   -1.997849   -0.169236
  H      5.607140   -0.569501   -0.493177
  H      4.924298    0.619463    0.622754
  H      5.342552   -0.996497    1.201108
  H     -1.977286    0.420700   -1.894891
  H     -1.731418   -0.839145    1.713471
  H     -0.928547    3.190228   -1.704888
  H     -0.250842    1.895467   -2.664326
  H     -0.409769    1.752676    2.085665
  H     -1.968415    1.301013    2.786439
  H     -1.542987    3.183522    0.539289
  H     -3.066284    2.695599    1.304458
  H     -2.122257   -2.876553    1.201893
  H     -2.819270   -2.142526   -1.637082
  H     -3.379985   -3.215601    2.026901
  H     -3.500456   -0.902135   -1.097228

 Total Charge           Charge          ....    0
 Multiplicity           Mult            ....    1
 Number of Electrons    NEL             ....  168
 Basis Dimension        Dim             .... 2910

ORBITAL ENERGIES
----------------

  NO   OCC          E(Eh)            E(eV)
   0   2.0000     -20.556834      -559.3799
   1   2.0000     -20.554023      -559.3034
   2   2.0000     -20.534137      -558.7623
   3   2.0000     -20.526375      -558.5511
   4   2.0000     -20.516684      -558.2874
   5   2.0000     -15.668983      -426.3747
   6   2.0000     -11.335818      -308.4633
   7   2.0000     -11.333325      -308.3954
   8   2.0000     -11.330420      -308.3164
   9   2.0000     -11.298800      -307.4560
  10   2.0000     -11.288151      -307.1662
  11   2.0000     -11.269101      -306.6478
  12   2.0000     -11.268914      -306.6427
  13   2.0000     -11.255087      -306.2665
  14   2.0000     -11.251530      -306.1697
  15   2.0000     -11.250798      -306.1498
  16   2.0000     -11.245320      -306.0007
  17   2.0000     -11.242361      -305.9202
  18   2.0000     -11.240231      -305.8622
  19   2.0000     -11.240020      -305.8565
  20   2.0000     -11.231463      -305.6237
  21   2.0000     -11.226776      -305.4961
  22   2.0000      -1.449311       -39.4378
  23   2.0000      -1.402571       -38.1659
  24   2.0000      -1.383587       -37.6493
  25   2.0000      -1.314223       -35.7618
  26   2.0000      -1.306312       -35.5466
  27   2.0000      -1.190873       -32.4053
  28   2.0000      -1.165767       -31.7221
  29   2.0000      -1.115160       -30.3451
  30   2.0000      -1.099236       -29.9117
  31   2.0000      -1.069079       -29.0911
  32   2.0000      -1.034518       -28.1507
  33   2.0000      -1.012638       -27.5553
  34   2.0000      -0.982230       -26.7278
  35   2.0000      -0.967750       -26.3338
  36   2.0000      -0.909533       -24.7497
  37   2.0000      -0.881775       -23.9943
  38   2.0000      -0.847626       -23.0651
  39   2.0000      -0.818789       -22.2804
  40   2.0000      -0.802138       -21.8273
  41   2.0000      -0.784388       -21.3443
  42   2.0000      -0.742957       -20.2169
  43   2.0000      -0.729339       -19.8463
  44   2.0000      -0.714021       -19.4295
  45   2.0000      -0.703990       -19.1565
  46   2.0000      -0.698322       -19.0023
  47   2.0000      -0.678156       -18.4536
  48   2.0000      -0.675376       -18.3779
  49   2.0000      -0.670656       -18.2495
  50   2.0000      -0.663586       -18.0571
  51   2.0000      -0.653856       -17.7923
  52   2.0000      -0.637637       -17.3510
  53   2.0000      -0.635916       -17.3041
  54   2.0000      -0.627410       -17.0727
  55   2.0000      -0.623576       -16.9684
  56   2.0000      -0.604176       -16.4405
  57   2.0000      -0.596364       -16.2279
  58   2.0000      -0.586307       -15.9542
  59   2.0000      -0.582611       -15.8536
  60   2.0000      -0.576002       -15.6738
  61   2.0000      -0.564837       -15.3700
  62   2.0000      -0.555199       -15.1077
  63   2.0000      -0.551733       -15.0134
  64   2.0000      -0.546821       -14.8797
  65   2.0000      -0.541224       -14.7274
  66   2.0000      -0.539926       -14.6921
  67   2.0000      -0.527480       -14.3535
  68   2.0000      -0.526397       -14.3240
  69   2.0000      -0.517904       -14.0929
  70   2.0000      -0.513519       -13.9736
  71   2.0000      -0.503436       -13.6992
  72   2.0000      -0.501820       -13.6552
  73   2.0000      -0.493324       -13.4240
  74   2.0000      -0.475494       -12.9388
  75   2.0000      -0.473986       -12.8978
  76   2.0000      -0.472263       -12.8509
  77   2.0000      -0.468278       -12.7425
  78   2.0000      -0.458672       -12.4811
  79   2.0000      -0.451642       -12.2898
  80   2.0000      -0.418876       -11.3982
  81   2.0000      -0.405644       -11.0381
  82   2.0000      -0.385563       -10.4917
  83   2.0000      -0.334249        -9.0954
  84   0.0000       0.013636         0.3711
  85   0.0000       0.019676         0.5354
  86   0.0000       0.024181         0.6580
  87   0.0000       0.027233         0.7411
  88   0.0000       0.032446         0.8829

MULLIKEN ATOMIC CHARGES
-----------------------
   0 C :   -0.385878
   1 C :   -0.329195
   2 C :    2.031747
   3 C :    1.605507
   4 C :   -0.828850
   5 C :    0.393585
   6 C :    0.536102
   7 C :    1.819572
   8 C :   -0.801294
   9 O :   -1.339728
  10 C :   -0.933439
  11 C :   -0.774877
  12 C :    0.227294
  13 N :   -0.206297
  14 O :   -1.057879
  15 C :   -0.628657
  16 C :   -0.996084
  17 C :   -0.683571
  18 O :   -1.329146
  19 C :   -1.067608
  20 O :   -0.833662
  21 O :   -0.965150
  22 H :    0.296534
  23 H :    0.241391
  24 H :    0.142692
  25 H :    0.163314
  26 H :    0.077234
  27 H :    0.044151
  28 H :    0.248247
  29 H :    0.108041
  30 H :    0.293478
  31 H :    0.151654
  32 H :    0.215260
  33 H :    0.174944
  34 H :    0.219994
  35 H :    0.805582
  36 H :    0.663440
  37 H :    0.198518
  38 H :    0.047189
  39 H :    0.335891
  40 H :    0.169571
  41 H :    0.340387
  42 H :    0.359206
  43 H :    0.282201
  44 H :    0.338673
  45 H :    0.309635
  46 H :    0.320283
Sum of atomic charges:    0.0000000

LOEWDIN ATOMIC CHARGES
----------------------
   0 C :    0.557139
   1 C :    0.147869
   2 C :   -0.259518
   3 C :   -0.603695
   4 C :    0.537166
   5 C :    0.151806
   6 C :   -0.102245
   7 C :   -0.584927
   8 C :    0.554007
   9 O :    0.885109
  10 C :    0.531296
  11 C :    0.600314
  12 C :    0.188544
  13 N :    0.041529
  14 O :    0.725692
  15 C :    0.184150
  16 C :    0.577547
  17 C :    0.408463
  18 O :    0.834251
  19 C :    0.945496
  20 O :    1.641865
  21 O :    1.647636
  22 H :   -0.290276
  23 H :   -0.285626
  24 H :   -0.242423
  25 H :   -0.267156
  26 H :   -0.232352
  27 H :   -0.236245
  28 H :   -0.342281
  29 H :   -0.285000
  30 H :   -0.276024
  31 H :   -0.266705
  32 H :   -0.264329
  33 H :   -0.267209
  34 H :   -0.266391
  35 H :   -0.345414
  36 H :   -0.377673
  37 H :   -0.247698
  38 H :   -0.266630
  39 H :   -0.346726
  40 H :   -0.253569
  41 H :   -0.305395
  42 H :   -0.264211
  43 H :   -1.041551
  44 H :   -0.889027
  45 H :   -0.759689
  46 H :   -0.989894

  Mayer bond orders larger than 0.100000
B(  0-C ,  1-C ) :   0.7276 B(  0-C ,  2-C ) :  -0.1807 B(  0-C ,  5-C ) :   0.6885
B(  0-C , 22-H ) :  -0.1429 B(  0-C , 25-H ) :   1.1294 B(  0-C , 26-H ) :   1.1696
B(  1-C ,  2-C ) :   0.2917 B(  1-C ,  6-C ) :   0.2769 B(  1-C ,  8-C ) :   0.9143
B(  1-C , 18-O ) :   0.1062 B(  1-C , 22-H ) :   1.0569 B(  1-C , 23-H ) :  -0.1342
B(  1-C , 24-H ) :  -0.1514 B(  1-C , 26-H ) :  -0.1129 B(  2-C ,  3-C ) :  -0.2502
B(  2-C ,  4-C ) :  -0.1629 B(  2-C ,  5-C ) :   0.2564 B(  2-C ,  6-C ) :   0.8619
B(  2-C ,  8-C ) :  -0.2752 B(  2-C ,  9-O ) :   0.1045 B(  2-C , 10-C ) :  -0.5057
B(  2-C , 11-C ) :  -0.5611 B(  2-C , 13-N ) :  -0.1409 B(  2-C , 15-C ) :   0.4412
B(  2-C , 16-C ) :  -0.1727 B(  2-C , 18-O ) :   0.4711 B(  2-C , 27-H ) :  -0.2694
B(  2-C , 28-H ) :  -0.2656 B(  2-C , 39-H ) :  -0.1015 B(  3-C ,  4-C ) :   1.1494
B(  3-C ,  5-C ) :  -0.1393 B(  3-C ,  6-C ) :   0.7036 B(  3-C , 10-C ) :   0.1801
B(  3-C , 18-O ) :  -0.7898 B(  4-C ,  5-C ) :   0.7541 B(  4-C ,  6-C ) :  -0.1947
B(  4-C , 18-O ) :   0.2743 B(  4-C , 29-H ) :   1.1192 B(  4-C , 30-H ) :   0.9004
B(  5-C , 19-C ) :   0.2246 B(  5-C , 31-H ) :   1.0580 B(  5-C , 32-H ) :  -0.1378
B(  5-C , 33-H ) :  -0.1796 B(  5-C , 34-H ) :  -0.1983 B(  6-C ,  7-C ) :   0.9085
B(  6-C ,  8-C ) :  -0.3259 B(  6-C ,  9-O ) :   1.2616 B(  6-C , 10-C ) :  -0.3523
B(  6-C , 12-C ) :  -0.1983 B(  6-C , 14-O ) :  -0.1031 B(  6-C , 15-C ) :   0.6930
B(  6-C , 16-C ) :  -0.1660 B(  6-C , 18-O ) :   0.1523 B(  6-C , 21-O ) :  -0.2188
B(  7-C ,  8-C ) :   1.1797 B(  7-C ,  9-O ) :  -1.0054 B(  7-C , 15-C ) :  -0.2320
B(  7-C , 21-O ) :  -0.1545 B(  8-C , 23-H ) :   1.0907 B(  8-C , 24-H ) :   1.1460
B(  9-O , 43-H ) :   0.2081 B( 10-C , 11-C ) :   0.9176 B( 10-C , 17-C ) :  -0.1253
B( 10-C , 18-O ) :   0.3389 B( 10-C , 27-H ) :   1.3854 B( 10-C , 28-H ) :   1.3029
B( 11-C , 12-C ) :   0.8020 B( 11-C , 13-N ) :  -0.1238 B( 11-C , 37-H ) :   1.1563
B( 11-C , 38-H ) :   1.3556 B( 12-C , 13-N ) :   0.8305 B( 12-C , 14-O ) :  -0.2818
B( 12-C , 15-C ) :   0.1485 B( 12-C , 21-O ) :   0.1685 B( 12-C , 35-H ) :   0.6723
B( 12-C , 38-H ) :  -0.1210 B( 13-N , 14-O ) :   0.6552 B( 13-N , 15-C ) :   0.2385
B( 13-N , 17-C ) :   0.9577 B( 14-O , 15-C ) :   0.5098 B( 15-C , 16-C ) :   0.7526
B( 15-C , 17-C ) :  -0.2735 B( 15-C , 20-O ) :   0.3442 B( 15-C , 36-H ) :   0.9902
B( 16-C , 17-C ) :   1.1294 B( 16-C , 18-O ) :  -0.1164 B( 16-C , 39-H ) :   0.8590
B( 16-C , 40-H ) :   1.1304 B( 17-C , 41-H ) :   0.9650 B( 17-C , 42-H ) :   0.9343
B( 19-C , 32-H ) :   1.1341 B( 19-C , 33-H ) :   1.1319 B( 19-C , 34-H ) :   1.1274
B( 20-O , 36-H ) :  -0.5282 B( 20-O , 43-H ) :   0.8202 B( 20-O , 45-H ) :   0.9405
B( 21-O , 35-H ) :  -0.3112 B( 21-O , 44-H ) :   0.9616 B( 21-O , 46-H ) :   0.8733

MP2 TOTAL ENERGY:    -1053.940105358 Eh
FINAL SINGLE POINT ENERGY     -1053.940105357606

DIPOLE MOMENT
-------------
                                X             Y             Z
Electronic contribution:    -10.86451       1.01034       1.96264
Nuclear contribution   :     12.71719       0.54886      -2.85757
                        -----------------------------------------
Total Dipole Moment    :      1.85268       1.55920      -0.89493
                        -----------------------------------------
Magnitude (a.u.)       :      2.58156
Magnitude (Debye)      :      6.56179

Rotational constants in cm-1:     0.014041     0.007938     0.007098
Rotational constants in MHz :   420.927908   237.969247   212.781279

                             ****ORCA TERMINATED NORMALLY****
TOTAL RUN TIME: 0 days 15 hours 58 minutes 29 seconds 63 msec
