                         Program Version 4.2.1 -  RELEASE  -
|  1> %pal
|  2>  nprocs 32
|  3> end
|  4> !RI-MP2 aug-cc-pVQZ aug-cc-pVQZ/C TightSCF
|  5> %maxcore 4500
|  6> *xyzfile 0 1  04_58P2.xyz
|  7>
|  8>
|  9>                          ****END OF INPUT****

CARTESIAN COORDINATES (ANGSTROEM)
---------------------------------
  C      2.891384    0.892132    0.000090
  C      1.814419   -0.164658    0.000013
  O      2.067689   -1.355028    0.000108
  N      0.534937    0.289415   -0.000130
  H      0.317297    1.274422   -0.000082
  C     -0.571674   -0.628335   -0.000059
  C     -1.860835    0.143175   -0.000029
  H     -0.549821   -1.285941   -0.873926
  H     -0.549755   -1.285882    0.873854
  O     -1.946548    1.342067    0.000016
  O     -2.923680   -0.670600   -0.000050
  H     -3.719469   -0.119916   -0.000014
  H      2.499564    1.909545   -0.000452
  H      3.519474    0.747907   -0.879372
  H      3.518697    0.748571    0.880222

 Total Charge           Charge          ....    0
 Multiplicity           Mult            ....    1
 Number of Electrons    NEL             ....   62
 Basis Dimension        Dim             ....  962

ORBITAL ENERGIES
----------------

  NO   OCC          E(Eh)            E(eV)
   0   2.0000     -20.629910      -561.3684
   1   2.0000     -20.568438      -559.6956
   2   2.0000     -20.516661      -558.2867
   3   2.0000     -15.591003      -424.2528
   4   2.0000     -11.405460      -310.3583
   5   2.0000     -11.352028      -308.9044
   6   2.0000     -11.293107      -307.3011
   7   2.0000     -11.238307      -305.8099
   8   2.0000      -1.490643       -40.5625
   9   2.0000      -1.389617       -37.8134
  10   2.0000      -1.384604       -37.6770
  11   2.0000      -1.244148       -33.8550
  12   2.0000      -1.045212       -28.4417
  13   2.0000      -0.984750       -26.7964
  14   2.0000      -0.846640       -23.0382
  15   2.0000      -0.806019       -21.9329
  16   2.0000      -0.730096       -19.8669
  17   2.0000      -0.717846       -19.5336
  18   2.0000      -0.686883       -18.6910
  19   2.0000      -0.664755       -18.0889
  20   2.0000      -0.661524       -18.0010
  21   2.0000      -0.629129       -17.1195
  22   2.0000      -0.597308       -16.2536
  23   2.0000      -0.589363       -16.0374
  24   2.0000      -0.580973       -15.8091
  25   2.0000      -0.560601       -15.2547
  26   2.0000      -0.512346       -13.9416
  27   2.0000      -0.504705       -13.7337
  28   2.0000      -0.479590       -13.0503
  29   2.0000      -0.429155       -11.6779
  30   2.0000      -0.404466       -11.0061
  31   0.0000       0.021864         0.5950
  32   0.0000       0.026240         0.7140
  33   0.0000       0.037357         1.0165
  34   0.0000       0.041175         1.1204
  35   0.0000       0.044881         1.2213

MULLIKEN ATOMIC CHARGES
-----------------------
   0 C :   -0.766418
   1 C :    0.938033
   2 O :   -0.817451
   3 N :   -0.616218
   4 H :    0.340758
   5 C :   -0.433248
   6 C :    1.120347
   7 H :    0.317957
   8 H :    0.317952
   9 O :   -0.815022
  10 O :   -0.695979
  11 H :    0.347838
  12 H :    0.222935
  13 H :    0.269239
  14 H :    0.269278
Sum of atomic charges:    0.0000000

LOEWDIN ATOMIC CHARGES
----------------------
   0 C :    0.896424
   1 C :   -0.841137
   2 O :    0.704030
   3 N :    0.798055
   4 H :   -0.569978
   5 C :    0.289998
   6 C :   -1.008846
   7 H :   -0.286950
   8 H :   -0.286954
   9 O :    0.741567
  10 O :    1.266436
  11 H :   -0.800757
  12 H :   -0.308854
  13 H :   -0.296531
  14 H :   -0.296503

  Mayer bond orders larger than 0.100000
B(  0-C ,  1-C ) :   0.8840 B(  0-C , 12-H ) :   1.0094 B(  0-C , 13-H ) :   0.9422
B(  0-C , 14-H ) :   0.9420 B(  1-C ,  2-O ) :   1.1665 B(  1-C ,  3-N ) :   1.1557
B(  2-O ,  3-N ) :   0.2117 B(  2-O ,  5-C ) :   0.1075 B(  3-N ,  4-H ) :   0.8907
B(  3-N ,  5-C ) :   0.8472 B(  5-C ,  6-C ) :   1.1985 B(  5-C ,  7-H ) :   0.8735
B(  5-C ,  8-H ) :   0.8735 B(  5-C ,  9-O ) :   0.1314 B(  5-C , 10-O ) :   0.1391
B(  6-C ,  9-O ) :   1.3274 B(  6-C , 10-O ) :   0.7855 B( 10-O , 11-H ) :   0.9006

MP2 TOTAL ENERGY:     -436.506954508 Eh
FINAL SINGLE POINT ENERGY      -436.506954508313

DIPOLE MOMENT
-------------
                                X             Y             Z
Electronic contribution:     -5.61371      -1.19975      -0.00024
Nuclear contribution   :      4.96665       1.96841       0.00023
                        -----------------------------------------
Total Dipole Moment    :     -0.64706       0.76866      -0.00001
                        -----------------------------------------
Magnitude (a.u.)       :      1.00475
Magnitude (Debye)      :      2.55388

Rotational constants in cm-1:     0.179482     0.033419     0.028468
Rotational constants in MHz :  5380.736430  1001.872796   853.453037

                             ****ORCA TERMINATED NORMALLY****
TOTAL RUN TIME: 0 days 0 hours 18 minutes 58 seconds 861 msec
