                         Program Version 4.2.1 -  RELEASE  -
|  1> %pal
|  2>  nprocs 32
|  3> end
|  4> !RI-MP2 aug-cc-pVQZ aug-cc-pVQZ/C TightSCF
|  5> %maxcore 4500
|  6> *xyzfile 0 1  10_72TS.xyz
|  7>
|  8>
|  9>                          ****END OF INPUT****

CARTESIAN COORDINATES (ANGSTROEM)
---------------------------------
  C     -3.356468   -1.233100   -0.988054
  C     -4.693918   -1.459460   -0.285765
  C     -5.238066   -0.264771    0.480156
  C     -4.269707    0.290420    1.518497
  C     -2.962064    0.758270    0.932658
  C     -2.208872   -0.960346   -0.016808
  H     -5.434553   -1.758296   -1.031180
  H     -4.582177   -2.295371    0.410680
  H     -3.111806   -2.169165   -1.501198
  H     -4.756339    1.132312    2.027530
  H     -4.098239   -0.467021    2.290161
  H     -3.052270    1.213168   -0.045269
  H     -2.246001   -1.577886    0.876250
  H     -6.162569   -0.567445    0.984088
  O     -5.557285    0.731671   -0.504555
  H     -5.903125    1.519495   -0.075782
  O     -3.430013   -0.250534   -2.008792
  H     -4.152167    0.354776   -1.796358
  C     -0.946366   -0.724444   -0.552683
  H     -0.901303   -0.406166   -1.588035
  C     -1.953801    1.248281    1.756898
  H     -2.020223    1.070094    2.826602
  C      0.289698   -1.086264    0.074237
  C      0.256168   -1.616593    1.486016
  H     -0.156941   -2.629941    1.515243
  H     -0.371451   -0.991324    2.121592
  H      1.247502   -1.650322    1.934617
  C      1.447532   -0.969518   -0.629455
  C      1.869055    1.604682   -0.139664
  C      2.807877   -1.501229   -0.252757
  H      1.364309   -0.610358   -1.649893
  H      1.843015    1.222365    0.867199
  C      3.715837   -0.451505    0.425703
  H      2.678230   -2.287538    0.496925
  H      3.191460   -0.054372    1.299028
  C     -0.767604    1.758132    1.244341
  H      0.054229    1.920851    1.934994
  C      3.469176   -2.117801   -1.488837
  H      2.790934   -2.830060   -1.961662
  H      3.714553   -1.344410   -2.219104
  H      4.387526   -2.648110   -1.235505
  C      5.049293   -1.006633    0.899885
  H      4.854365   -1.920136    1.470495
  H      5.643508   -1.290657    0.029362
  C      5.825786   -0.009091    1.750544
  H      5.263735    0.268413    2.646830
  H      6.780055   -0.429005    2.073668
  H      6.030032    0.900479    1.184506
  O      4.040940    0.621723   -0.469559
  C      3.133521    1.545989   -0.881472
  O      3.405408    2.232307   -1.831595
  C      0.741260    2.092892   -0.704186
  H      0.799635    2.432297   -1.733063
  C     -0.537991    1.959652   -0.107147
  H     -1.388400    2.066629   -0.769358

 Total Charge           Charge          ....    0
 Multiplicity           Mult            ....    1
 Number of Electrons    NEL             ....  188
 Basis Dimension        Dim             .... 3380

ORBITAL ENERGIES
----------------

  NO   OCC          E(Eh)            E(eV)
   0   2.0000     -20.583165      -560.0964
   1   2.0000     -20.577822      -559.9510
   2   2.0000     -20.545737      -559.0779
   3   2.0000     -20.512522      -558.1741
   4   2.0000     -11.360453      -309.1336
   5   2.0000     -11.303844      -307.5932
   6   2.0000     -11.292486      -307.2842
   7   2.0000     -11.289768      -307.2102
   8   2.0000     -11.260379      -306.4105
   9   2.0000     -11.248620      -306.0905
  10   2.0000     -11.240698      -305.8749
  11   2.0000     -11.240388      -305.8665
  12   2.0000     -11.239162      -305.8331
  13   2.0000     -11.238663      -305.8196
  14   2.0000     -11.237711      -305.7937
  15   2.0000     -11.236530      -305.7615
  16   2.0000     -11.236452      -305.7594
  17   2.0000     -11.234524      -305.7069
  18   2.0000     -11.233185      -305.6705
  19   2.0000     -11.228441      -305.5414
  20   2.0000     -11.226645      -305.4925
  21   2.0000     -11.224145      -305.4245
  22   2.0000     -11.222505      -305.3799
  23   2.0000     -11.213596      -305.1375
  24   2.0000     -11.211614      -305.0835
  25   2.0000      -1.436150       -39.0796
  26   2.0000      -1.392452       -37.8905
  27   2.0000      -1.356999       -36.9258
  28   2.0000      -1.340355       -36.4729
  29   2.0000      -1.141576       -31.0639
  30   2.0000      -1.121750       -30.5244
  31   2.0000      -1.105083       -30.0708
  32   2.0000      -1.089180       -29.6381
  33   2.0000      -1.065890       -29.0044
  34   2.0000      -1.047279       -28.4979
  35   2.0000      -1.022073       -27.8120
  36   2.0000      -1.004383       -27.3307
  37   2.0000      -0.960830       -26.1455
  38   2.0000      -0.944484       -25.7007
  39   2.0000      -0.934574       -25.4311
  40   2.0000      -0.908007       -24.7081
  41   2.0000      -0.879670       -23.9370
  42   2.0000      -0.848951       -23.1011
  43   2.0000      -0.827272       -22.5112
  44   2.0000      -0.814810       -22.1721
  45   2.0000      -0.795780       -21.6543
  46   2.0000      -0.782219       -21.2853
  47   2.0000      -0.747439       -20.3389
  48   2.0000      -0.735722       -20.0200
  49   2.0000      -0.722907       -19.6713
  50   2.0000      -0.714176       -19.4337
  51   2.0000      -0.704297       -19.1649
  52   2.0000      -0.679333       -18.4856
  53   2.0000      -0.674168       -18.3450
  54   2.0000      -0.661120       -17.9900
  55   2.0000      -0.652411       -17.7530
  56   2.0000      -0.647622       -17.6227
  57   2.0000      -0.641867       -17.4661
  58   2.0000      -0.630889       -17.1674
  59   2.0000      -0.621798       -16.9200
  60   2.0000      -0.612511       -16.6673
  61   2.0000      -0.607852       -16.5405
  62   2.0000      -0.599611       -16.3163
  63   2.0000      -0.592837       -16.1319
  64   2.0000      -0.584544       -15.9063
  65   2.0000      -0.582418       -15.8484
  66   2.0000      -0.575384       -15.6570
  67   2.0000      -0.572479       -15.5779
  68   2.0000      -0.565239       -15.3809
  69   2.0000      -0.549963       -14.9652
  70   2.0000      -0.548570       -14.9273
  71   2.0000      -0.537835       -14.6352
  72   2.0000      -0.535481       -14.5712
  73   2.0000      -0.533574       -14.5193
  74   2.0000      -0.525819       -14.3083
  75   2.0000      -0.519028       -14.1235
  76   2.0000      -0.513731       -13.9793
  77   2.0000      -0.510132       -13.8814
  78   2.0000      -0.504711       -13.7339
  79   2.0000      -0.499098       -13.5811
  80   2.0000      -0.495267       -13.4769
  81   2.0000      -0.489530       -13.3208
  82   2.0000      -0.488004       -13.2793
  83   2.0000      -0.475510       -12.9393
  84   2.0000      -0.474011       -12.8985
  85   2.0000      -0.464500       -12.6397
  86   2.0000      -0.452277       -12.3071
  87   2.0000      -0.440553       -11.9881
  88   2.0000      -0.437684       -11.9100
  89   2.0000      -0.425840       -11.5877
  90   2.0000      -0.403638       -10.9836
  91   2.0000      -0.379779       -10.3343
  92   2.0000      -0.293661        -7.9909
  93   2.0000      -0.254268        -6.9190
  94   0.0000       0.011404         0.3103
  95   0.0000       0.018390         0.5004
  96   0.0000       0.022147         0.6027
  97   0.0000       0.025592         0.6964
  98   0.0000       0.030213         0.8221

MULLIKEN ATOMIC CHARGES
-----------------------
   0 C :    0.597656
   1 C :   -0.981097
   2 C :    0.644305
   3 C :   -0.692589
   4 C :    1.012149
   5 C :    0.513583
   6 H :    0.106111
   7 H :    0.166486
   8 H :    0.330317
   9 H :    0.230924
  10 H :    0.090274
  11 H :    0.483821
  12 H :    0.152271
  13 H :    0.327576
  14 O :   -1.047348
  15 H :    0.275204
  16 O :   -1.339533
  17 H :    0.485918
  18 C :   -0.322239
  19 H :    0.123967
  20 C :   -0.880233
  21 H :   -0.064275
  22 C :    0.663499
  23 C :   -1.209021
  24 H :    0.193251
  25 H :    0.226720
  26 H :    0.245028
  27 C :   -0.027339
  28 C :   -0.777808
  29 C :    0.073191
  30 H :    0.051409
  31 H :    0.273726
  32 C :    1.580804
  33 H :    0.138877
  34 H :    0.176831
  35 C :   -0.184054
  36 H :    0.115685
  37 C :   -1.219048
  38 H :    0.251100
  39 H :    0.215737
  40 H :    0.212153
  41 C :   -0.712618
  42 H :    0.195576
  43 H :    0.128703
  44 C :   -0.948371
  45 H :    0.156422
  46 H :    0.276944
  47 H :    0.221565
  48 O :   -1.241095
  49 C :    1.798050
  50 O :   -1.195961
  51 C :   -0.286530
  52 H :    0.065753
  53 C :    0.034167
  54 H :    0.293404
Sum of atomic charges:    0.0000000

LOEWDIN ATOMIC CHARGES
----------------------
   0 C :   -0.194480
   1 C :    0.518861
   2 C :   -0.148486
   3 C :    0.524354
   4 C :    0.259774
   5 C :    0.279229
   6 H :   -0.261546
   7 H :   -0.261665
   8 H :   -0.299272
   9 H :   -0.259953
  10 H :   -0.261291
  11 H :   -0.388271
  12 H :   -0.329793
  13 H :   -0.273658
  14 O :    1.349997
  15 H :   -0.730434
  16 O :    1.337693
  17 H :   -0.947256
  18 C :    0.354367
  19 H :   -0.311762
  20 C :    0.378332
  21 H :   -0.305677
  22 C :   -0.005094
  23 C :    0.923627
  24 H :   -0.251132
  25 H :   -0.306930
  26 H :   -0.302498
  27 C :    0.352190
  28 C :    0.260602
  29 C :    0.125875
  30 H :   -0.317999
  31 H :   -0.403322
  32 C :   -0.213431
  33 H :   -0.314721
  34 H :   -0.340797
  35 C :    0.346718
  36 H :   -0.317179
  37 C :    0.942084
  38 H :   -0.261999
  39 H :   -0.267923
  40 H :   -0.281457
  41 C :    0.500150
  42 H :   -0.259997
  43 H :   -0.286539
  44 C :    0.944704
  45 H :   -0.276684
  46 H :   -0.276345
  47 H :   -0.286393
  48 O :    0.885066
  49 C :   -1.061571
  50 O :    0.677398
  51 C :    0.357988
  52 H :   -0.314614
  53 C :    0.338076
  54 H :   -0.336921

  Mayer bond orders larger than 0.100000
B(  0-C ,  1-C ) :   1.0170 B(  0-C ,  5-C ) :   0.7626 B(  0-C ,  6-H ) :  -0.1033
B(  0-C ,  8-H ) :   0.9554 B(  0-C , 18-C ) :  -0.2227 B(  1-C ,  2-C ) :   0.7523
B(  1-C ,  5-C ) :  -0.4145 B(  1-C ,  6-H ) :   1.1829 B(  1-C ,  7-H ) :   1.1285
B(  1-C , 14-O ) :   0.1895 B(  1-C , 16-O ) :   0.1920 B(  2-C ,  3-C ) :   0.9872
B(  2-C , 13-H ) :   0.9635 B(  2-C , 14-O ) :   0.1978 B(  3-C ,  4-C ) :   0.1488
B(  3-C ,  9-H ) :   1.1299 B(  3-C , 10-H ) :   1.2787 B(  3-C , 20-C ) :  -0.3012
B(  4-C ,  5-C ) :   0.3329 B(  4-C ,  9-H ) :  -0.1993 B(  4-C , 10-H ) :  -0.1921
B(  4-C , 11-H ) :   1.0401 B(  4-C , 20-C ) :   0.1288 B(  4-C , 21-H ) :  -0.2673
B(  4-C , 35-C ) :  -0.3318 B(  5-C ,  7-H ) :  -0.1121 B(  5-C ,  8-H ) :  -0.1417
B(  5-C , 12-H ) :   1.1009 B(  5-C , 16-O ) :   0.2556 B(  5-C , 18-C ) :   0.4918
B(  5-C , 22-C ) :  -0.2140 B( 11-H , 20-C ) :  -0.2165 B( 12-H , 18-C ) :  -0.1689
B( 14-O , 15-H ) :   0.9883 B( 16-O , 17-H ) :   0.7677 B( 16-O , 18-C ) :  -0.2239
B( 18-C , 19-H ) :   1.2510 B( 18-C , 22-C ) :   0.9988 B( 18-C , 27-C ) :  -0.1738
B( 18-C , 28-C ) :   0.1323 B( 18-C , 30-H ) :  -0.1381 B( 19-H , 22-C ) :  -0.1816
B( 20-C , 21-H ) :   1.5070 B( 20-C , 22-C ) :   0.1703 B( 20-C , 35-C ) :   0.9522
B( 20-C , 36-H ) :  -0.3442 B( 20-C , 53-C ) :  -0.2838 B( 21-H , 35-C ) :  -0.1807
B( 22-C , 23-C ) :   0.3149 B( 22-C , 24-H ) :  -0.1564 B( 22-C , 26-H ) :  -0.1201
B( 22-C , 27-C ) :   0.9451 B( 22-C , 29-C ) :  -0.2704 B( 22-C , 30-H ) :  -0.2165
B( 22-C , 37-C ) :   0.1081 B( 23-C , 24-H ) :   1.1580 B( 23-C , 25-H ) :   1.0577
B( 23-C , 26-H ) :   1.0969 B( 27-C , 29-C ) :   0.7103 B( 27-C , 30-H ) :   1.3934
B( 27-C , 32-C ) :   0.1165 B( 27-C , 37-C ) :  -0.4013 B( 27-C , 50-O ) :   0.1918
B( 28-C , 31-H ) :   1.0850 B( 28-C , 49-C ) :   1.3386 B( 28-C , 50-O ) :   0.2671
B( 28-C , 51-C ) :   1.1622 B( 28-C , 52-H ) :  -0.1080 B( 28-C , 53-C ) :  -0.4828
B( 29-C , 32-C ) :   0.5976 B( 29-C , 33-H ) :   1.0483 B( 29-C , 37-C ) :   0.4427
B( 29-C , 39-H ) :  -0.2739 B( 29-C , 40-H ) :  -0.1662 B( 29-C , 41-C ) :   0.1020
B( 29-C , 48-O ) :   0.1572 B( 32-C , 34-H ) :   0.9682 B( 32-C , 42-H ) :  -0.1891
B( 32-C , 43-H ) :  -0.2557 B( 32-C , 44-C ) :  -0.1551 B( 32-C , 48-O ) :  -0.5069
B( 34-H , 48-O ) :   0.1005 B( 35-C , 36-H ) :   1.2688 B( 35-C , 51-C ) :  -0.4314
B( 35-C , 53-C ) :   1.4788 B( 37-C , 38-H ) :   1.0910 B( 37-C , 39-H ) :   1.1417
B( 37-C , 40-H ) :   1.1549 B( 41-C , 42-H ) :   1.1175 B( 41-C , 43-H ) :   1.1781
B( 41-C , 44-C ) :   0.9037 B( 41-C , 46-H ) :  -0.1388 B( 41-C , 48-O ) :   0.1590
B( 44-C , 45-H ) :   1.0218 B( 44-C , 46-H ) :   1.0494 B( 44-C , 47-H ) :   0.9823
B( 48-O , 49-C ) :   0.9917 B( 48-O , 50-O ) :   0.2633 B( 49-C , 50-O ) :   0.2013
B( 49-C , 51-C ) :  -0.3243 B( 51-C , 52-H ) :   1.3077 B( 51-C , 53-C ) :   0.6487
B( 51-C , 54-H ) :  -0.2630 B( 52-H , 53-C ) :  -0.1333 B( 53-C , 54-H ) :   1.0148

MP2 TOTAL ENERGY:    -1117.270404010 Eh
FINAL SINGLE POINT ENERGY     -1117.270404010217

DIPOLE MOMENT
-------------
                                X             Y             Z
Electronic contribution:     -4.54312      12.41452      -9.16510
Nuclear contribution   :      2.32476     -14.03694      11.52322
                        -----------------------------------------
Total Dipole Moment    :     -2.21837      -1.62242       2.35812
                        -----------------------------------------
Magnitude (a.u.)       :      3.62134
Magnitude (Debye)      :      9.20472

Rotational constants in cm-1:     0.016082     0.003741     0.003605
Rotational constants in MHz :   482.119139   112.160147   108.064591

                             ****ORCA TERMINATED NORMALLY****
TOTAL RUN TIME: 0 days 23 hours 33 minutes 23 seconds 686 msec
