                         Program Version 4.2.1 -  RELEASE  -
|  1> %pal
|  2>  nprocs 32
|  3> end
|  4> !RI-MP2 aug-cc-pVQZ aug-cc-pVQZ/C TightSCF
|  5> %maxcore 4500
|  6> *xyzfile 0 1  10_24R2.xyz
|  7>
|  8>
|  9>                          ****END OF INPUT****

CARTESIAN COORDINATES (ANGSTROEM)
---------------------------------
  C      0.811734   -0.666208   -0.000003
  C      0.811736    0.666206    0.000003
  C     -0.698454    0.782618    0.000007
  H     -1.139133    1.241103    0.888199
  H     -1.139142    1.241125   -0.888168
  C     -0.698457   -0.782616   -0.000007
  H     -1.139146   -1.241121    0.888168
  H     -1.139137   -1.241099   -0.888199
  H      1.598597   -1.410518   -0.000004
  H      1.598601    1.410513    0.000004

 Total Charge           Charge          ....    0
 Multiplicity           Mult            ....    1
 Number of Electrons    NEL             ....   30
 Basis Dimension        Dim             ....  596

ORBITAL ENERGIES
----------------

  NO   OCC          E(Eh)            E(eV)
   0   2.0000     -11.225354      -305.4574
   1   2.0000     -11.224567      -305.4360
   2   2.0000     -11.224333      -305.4296
   3   2.0000     -11.223349      -305.4029
   4   2.0000      -1.146577       -31.1999
   5   2.0000      -0.898152       -24.4400
   6   2.0000      -0.876208       -23.8428
   7   2.0000      -0.706301       -19.2194
   8   2.0000      -0.674539       -18.3551
   9   2.0000      -0.623306       -16.9610
  10   2.0000      -0.533740       -14.5238
  11   2.0000      -0.505873       -13.7655
  12   2.0000      -0.463674       -12.6172
  13   2.0000      -0.454351       -12.3635
  14   2.0000      -0.351643        -9.5687
  15   0.0000       0.028317         0.7705
  16   0.0000       0.033103         0.9008
  17   0.0000       0.035649         0.9701
  18   0.0000       0.039143         1.0651
  19   0.0000       0.049183         1.3384

MULLIKEN ATOMIC CHARGES
-----------------------
   0 C :   -0.534205
   1 C :   -0.534205
   2 C :   -0.518616
   3 H :    0.287493
   4 H :    0.287498
   5 C :   -0.518618
   6 H :    0.287498
   7 H :    0.287494
   8 H :    0.477831
   9 H :    0.477831
Sum of atomic charges:   -0.0000000

LOEWDIN ATOMIC CHARGES
----------------------
   0 C :    0.389273
   1 C :    0.389273
   2 C :    0.471712
   3 H :   -0.279966
   4 H :   -0.279966
   5 C :    0.471712
   6 H :   -0.279967
   7 H :   -0.279967
   8 H :   -0.301052
   9 H :   -0.301053

  Mayer bond orders larger than 0.100000
B(  0-C ,  1-C ) :   1.7536 B(  0-C ,  2-C ) :  -0.1025 B(  0-C ,  5-C ) :   1.0707
B(  0-C ,  8-H ) :   0.7176 B(  1-C ,  2-C ) :   1.0707 B(  1-C ,  5-C ) :  -0.1025
B(  1-C ,  9-H ) :   0.7176 B(  2-C ,  3-H ) :   0.8741 B(  2-C ,  4-H ) :   0.8741
B(  2-C ,  5-C ) :   1.0334 B(  5-C ,  6-H ) :   0.8741 B(  5-C ,  7-H ) :   0.8741

MP2 TOTAL ENERGY:     -155.668165222 Eh
FINAL SINGLE POINT ENERGY      -155.668165222113

DIPOLE MOMENT
-------------
                                X             Y             Z
Electronic contribution:      1.37657      -0.00000       0.00000
Nuclear contribution   :     -1.41591       0.00000       0.00000
                        -----------------------------------------
Total Dipole Moment    :     -0.03934       0.00000       0.00000
                        -----------------------------------------
Magnitude (a.u.)       :      0.03934
Magnitude (Debye)      :      0.09999

Rotational constants in cm-1:     0.434729     0.410378     0.229374
Rotational constants in MHz : 13032.856395 12302.830993  6876.454017

                             ****ORCA TERMINATED NORMALLY****
TOTAL RUN TIME: 0 days 0 hours 3 minutes 38 seconds 46 msec
