                         Program Version 4.2.1 -  RELEASE  -
|  1> %pal
|  2>  nprocs 32
|  3> end
|  4> !RI-MP2 aug-cc-pVQZ aug-cc-pVQZ/C TightSCF
|  5> %maxcore 4500
|  6> *xyzfile 0 1  02_25P.xyz
|  7>
|  8>
|  9>                          ****END OF INPUT****

CARTESIAN COORDINATES (ANGSTROEM)
---------------------------------
  C     -1.001355    0.951491    0.059226
  C     -0.328733   -0.407639    0.274185
  C      1.092932   -0.321131    0.894225
  C      1.649167    1.115376    0.975288
  C      1.180723    1.991274   -0.160839
  C     -0.074306    1.926306   -0.597928
  C     -2.329128    0.563127   -0.587972
  C     -2.705783   -0.774679    0.108767
  C     -1.453211   -1.208479    0.915331
  H     -3.095907    1.330026   -0.468710
  H     -2.972669   -1.530923   -0.631076
  H     -1.555041   -0.921819    1.965923
  C      0.263877   -1.073445   -1.010644
  H     -0.126646   -2.060221   -1.267323
  H      0.270624   -0.446288   -1.904757
  C      1.616195   -1.087808   -0.318514
  O      2.689854   -1.530999   -0.603204
  H     -2.189902    0.410553   -1.661668
  H     -3.571321   -0.658409    0.762299
  H     -1.284487   -2.286765    0.887244
  H     -0.424828    2.562486   -1.404087
  H      1.888338    2.684870   -0.601078
  H     -1.224714    1.335845    1.066271
  H      1.320735    1.557152    1.923626
  H      2.739273    1.073992    1.013400
  H      1.245455   -0.848863    1.838822

 Total Charge           Charge          ....    0
 Multiplicity           Mult            ....    1
 Number of Electrons    NEL             ....   88
 Basis Dimension        Dim             .... 1604

ORBITAL ENERGIES
----------------

  NO   OCC          E(Eh)            E(eV)
   0   2.0000     -20.544568      -559.0461
   1   2.0000     -11.320342      -308.0422
   2   2.0000     -11.240168      -305.8605
   3   2.0000     -11.238723      -305.8212
   4   2.0000     -11.237271      -305.7817
   5   2.0000     -11.232047      -305.6395
   6   2.0000     -11.230547      -305.5987
   7   2.0000     -11.228516      -305.5435
   8   2.0000     -11.228324      -305.5382
   9   2.0000     -11.226863      -305.4985
  10   2.0000     -11.226312      -305.4835
  11   2.0000     -11.225693      -305.4666
  12   2.0000      -1.389166       -37.8011
  13   2.0000      -1.186444       -32.2848
  14   2.0000      -1.093997       -29.7692
  15   2.0000      -1.078874       -29.3577
  16   2.0000      -0.995714       -27.0948
  17   2.0000      -0.954894       -25.9840
  18   2.0000      -0.932995       -25.3881
  19   2.0000      -0.868813       -23.6416
  20   2.0000      -0.794757       -21.6264
  21   2.0000      -0.775820       -21.1111
  22   2.0000      -0.741070       -20.1655
  23   2.0000      -0.686872       -18.6907
  24   2.0000      -0.677464       -18.4347
  25   2.0000      -0.654882       -17.8202
  26   2.0000      -0.652297       -17.7499
  27   2.0000      -0.638956       -17.3869
  28   2.0000      -0.606680       -16.5086
  29   2.0000      -0.600158       -16.3311
  30   2.0000      -0.572787       -15.5863
  31   2.0000      -0.565297       -15.3825
  32   2.0000      -0.553715       -15.0673
  33   2.0000      -0.548132       -14.9154
  34   2.0000      -0.525266       -14.2932
  35   2.0000      -0.501185       -13.6379
  36   2.0000      -0.487926       -13.2771
  37   2.0000      -0.475527       -12.9397
  38   2.0000      -0.466385       -12.6910
  39   2.0000      -0.455036       -12.3821
  40   2.0000      -0.443985       -12.0814
  41   2.0000      -0.429738       -11.6938
  42   2.0000      -0.390678       -10.6309
  43   2.0000      -0.353722        -9.6253
  44   0.0000       0.020913         0.5691
  45   0.0000       0.026884         0.7316
  46   0.0000       0.027247         0.7414
  47   0.0000       0.031647         0.8612
  48   0.0000       0.039291         1.0692

MULLIKEN ATOMIC CHARGES
-----------------------
   0 C :    0.233369
   1 C :    1.743970
   2 C :   -0.396103
   3 C :   -0.621863
   4 C :   -0.429194
   5 C :   -0.577881
   6 C :   -0.784089
   7 C :   -0.494355
   8 C :   -1.047337
   9 H :    0.228792
  10 H :    0.172883
  11 H :    0.151873
  12 C :   -0.875648
  13 H :    0.225235
  14 H :    0.190090
  15 C :    1.256179
  16 O :   -1.088704
  17 H :    0.137871
  18 H :    0.261244
  19 H :    0.226378
  20 H :    0.246116
  21 H :    0.236446
  22 H :    0.287857
  23 H :    0.210089
  24 H :    0.217308
  25 H :    0.289471
Sum of atomic charges:    0.0000000

LOEWDIN ATOMIC CHARGES
----------------------
   0 C :    0.071215
   1 C :   -0.302550
   2 C :    0.168784
   3 C :    0.526604
   4 C :    0.418767
   5 C :    0.417045
   6 C :    0.563006
   7 C :    0.581258
   8 C :    0.560548
   9 H :   -0.245838
  10 H :   -0.258738
  11 H :   -0.252284
  12 C :    0.568409
  13 H :   -0.247838
  14 H :   -0.260673
  15 C :   -0.620365
  16 O :    0.719465
  17 H :   -0.263601
  18 H :   -0.257014
  19 H :   -0.251224
  20 H :   -0.290428
  21 H :   -0.299728
  22 H :   -0.265429
  23 H :   -0.264020
  24 H :   -0.274456
  25 H :   -0.240916

  Mayer bond orders larger than 0.100000
B(  0-C ,  1-C ) :   0.6563 B(  0-C ,  4-C ) :  -0.3421 B(  0-C ,  5-C ) :   0.5307
B(  0-C ,  6-C ) :   0.6019 B(  0-C ,  7-C ) :  -0.1144 B(  0-C , 17-H ) :  -0.1434
B(  0-C , 22-H ) :   0.9762 B(  1-C ,  2-C ) :   0.3496 B(  1-C ,  3-C ) :  -0.1003
B(  1-C ,  5-C ) :   0.1086 B(  1-C ,  6-C ) :  -0.1459 B(  1-C ,  7-C ) :  -0.4269
B(  1-C ,  8-C ) :   0.1430 B(  1-C , 11-H ) :  -0.1559 B(  1-C , 12-C ) :   0.4450
B(  1-C , 13-H ) :  -0.1210 B(  1-C , 14-H ) :  -0.1528 B(  1-C , 15-C ) :  -0.4852
B(  1-C , 19-H ) :  -0.1383 B(  2-C ,  3-C ) :   0.8811 B(  2-C , 15-C ) :   1.3104
B(  2-C , 16-O ) :   0.3622 B(  2-C , 25-H ) :   0.8630 B(  3-C ,  4-C ) :   0.8285
B(  3-C , 23-H ) :   0.9623 B(  3-C , 24-H ) :   1.0756 B(  4-C ,  5-C ) :   1.6274
B(  4-C , 21-H ) :   1.1559 B(  4-C , 24-H ) :  -0.1142 B(  5-C , 20-H ) :   1.0777
B(  5-C , 21-H ) :  -0.1778 B(  6-C ,  7-C ) :   1.1287 B(  6-C ,  9-H ) :   1.0316
B(  6-C , 17-H ) :   1.1169 B(  7-C ,  8-C ) :   1.2130 B(  7-C , 10-H ) :   1.0168
B(  7-C , 18-H ) :   0.9456 B(  8-C , 11-H ) :   1.1547 B(  8-C , 19-H ) :   1.0721
B( 12-C , 13-H ) :   0.9835 B( 12-C , 14-H ) :   1.0934 B( 12-C , 15-C ) :   1.2625
B( 12-C , 16-O ) :   0.2983 B( 15-C , 16-O ) :   0.3027 B( 15-C , 25-H ) :   0.1185

MP2 TOTAL ENERGY:     -501.901621532 Eh
FINAL SINGLE POINT ENERGY      -501.901621531651

DIPOLE MOMENT
-------------
                                X             Y             Z
Electronic contribution:      7.81197      -1.65399      -1.10240
Nuclear contribution   :     -9.10610       2.21828       1.53765
                        -----------------------------------------
Total Dipole Moment    :     -1.29413       0.56429       0.43524
                        -----------------------------------------
Magnitude (a.u.)       :      1.47738
Magnitude (Debye)      :      3.75520

Rotational constants in cm-1:     0.050209     0.030858     0.023725
Rotational constants in MHz :  1505.230586   925.099948   711.259792

                             ****ORCA TERMINATED NORMALLY****
TOTAL RUN TIME: 0 days 2 hours 20 minutes 6 seconds 303 msec
