                         Program Version 4.2.1 -  RELEASE  -
|  1> %pal
|  2>  nprocs 32
|  3> end
|  4> !RI-MP2 aug-cc-pVQZ aug-cc-pVQZ/C TightSCF
|  5> %maxcore 4500
|  6> *xyzfile 0 1  10_92TS.xyz
|  7>
|  8>
|  9>                          ****END OF INPUT****

CARTESIAN COORDINATES (ANGSTROEM)
---------------------------------
  C     -1.813079   -1.618312   -0.247366
  C     -3.001168   -0.964642    0.433446
  C     -3.077762    0.455421   -0.105501
  C     -1.750493    1.114156   -0.096980
  C     -0.583533   -0.812024   -0.090517
  H     -1.615985   -2.615418    0.156379
  H     -2.025309   -1.737631   -1.315595
  H     -2.844793   -0.947924    1.515144
  H     -3.924421   -1.512852    0.234670
  H     -3.437347    0.431502   -1.139668
  H     -3.783227    1.064221    0.463151
  C      0.644504   -0.784759    0.021963
  C     -1.128625    2.168362   -0.119200
  H     -0.899360    3.203062   -0.146364
  C      1.865023   -1.622042    0.143531
  H      1.725678   -2.559055   -0.400995
  C      3.083727   -0.859740   -0.356791
  H      3.053098   -0.781902   -1.446522
  H      4.012765   -1.362536   -0.082475
  C      3.009825    0.523761    0.260768
  H      3.212657    0.469819    1.334728
  H      3.721725    1.224382   -0.175753
  C      1.642498    1.098450    0.102597
  N      1.064806    2.116163    0.018390
  H      2.005377   -1.880594    1.198873

 Total Charge           Charge          ....    0
 Multiplicity           Mult            ....    1
 Number of Electrons    NEL             ....   86
 Basis Dimension        Dim             .... 1558

ORBITAL ENERGIES
----------------

  NO   OCC          E(Eh)            E(eV)
   0   2.0000     -15.535464      -422.7415
   1   2.0000     -11.257857      -306.3419
   2   2.0000     -11.255957      -306.2901
   3   2.0000     -11.247631      -306.0636
   4   2.0000     -11.244738      -305.9849
   5   2.0000     -11.240281      -305.8636
   6   2.0000     -11.235658      -305.7378
   7   2.0000     -11.234226      -305.6988
   8   2.0000     -11.225849      -305.4709
   9   2.0000     -11.224078      -305.4227
  10   2.0000     -11.209437      -305.0243
  11   2.0000     -11.209191      -305.0176
  12   2.0000      -1.195557       -32.5328
  13   2.0000      -1.118262       -30.4295
  14   2.0000      -1.104303       -30.0496
  15   2.0000      -1.033440       -28.1213
  16   2.0000      -1.010194       -27.4888
  17   2.0000      -0.958812       -26.0906
  18   2.0000      -0.920536       -25.0491
  19   2.0000      -0.844780       -22.9876
  20   2.0000      -0.820479       -22.3264
  21   2.0000      -0.718026       -19.5385
  22   2.0000      -0.703839       -19.1524
  23   2.0000      -0.668997       -18.2043
  24   2.0000      -0.655922       -17.8486
  25   2.0000      -0.643681       -17.5155
  26   2.0000      -0.627226       -17.0677
  27   2.0000      -0.595873       -16.2145
  28   2.0000      -0.585382       -15.9291
  29   2.0000      -0.572065       -15.5667
  30   2.0000      -0.553375       -15.0581
  31   2.0000      -0.529120       -14.3981
  32   2.0000      -0.521446       -14.1893
  33   2.0000      -0.511118       -13.9082
  34   2.0000      -0.507733       -13.8161
  35   2.0000      -0.498238       -13.5577
  36   2.0000      -0.496805       -13.5188
  37   2.0000      -0.488289       -13.2870
  38   2.0000      -0.434524       -11.8240
  39   2.0000      -0.370086       -10.0706
  40   2.0000      -0.354133        -9.6365
  41   2.0000      -0.343902        -9.3580
  42   2.0000      -0.295500        -8.0410
  43   0.0000       0.022590         0.6147
  44   0.0000       0.024636         0.6704
  45   0.0000       0.031618         0.8604
  46   0.0000       0.032272         0.8782
  47   0.0000       0.038669         1.0522

MULLIKEN ATOMIC CHARGES
-----------------------
   0 C :   -0.345962
   1 C :   -0.554242
   2 C :   -0.292020
   3 C :   -0.120167
   4 C :    0.171153
   5 H :    0.344170
   6 H :    0.223452
   7 H :    0.203445
   8 H :    0.328518
   9 H :    0.231457
  10 H :    0.327717
  11 C :   -0.235613
  12 C :   -0.579665
  13 H :    0.302319
  14 C :   -0.302690
  15 H :    0.326758
  16 C :   -0.568177
  17 H :    0.203515
  18 H :    0.340319
  19 C :   -0.424488
  20 H :    0.249152
  21 H :    0.358098
  22 C :    0.461020
  23 N :   -0.870283
  24 H :    0.222214
Sum of atomic charges:   -0.0000000

LOEWDIN ATOMIC CHARGES
----------------------
   0 C :    0.450685
   1 C :    0.493648
   2 C :    0.426786
   3 C :    0.059890
   4 C :    0.127376
   5 H :   -0.275378
   6 H :   -0.277781
   7 H :   -0.262206
   8 H :   -0.255823
   9 H :   -0.285003
  10 H :   -0.282140
  11 C :    0.090850
  12 C :    0.461321
  13 H :   -0.455390
  14 C :    0.445702
  15 H :   -0.274775
  16 C :    0.496008
  17 H :   -0.261239
  18 H :   -0.255509
  19 C :    0.442843
  20 H :   -0.279016
  21 H :   -0.281012
  22 C :   -0.292521
  23 N :    0.520441
  24 H :   -0.277755

  Mayer bond orders larger than 0.100000
B(  0-C ,  1-C ) :   1.1161 B(  0-C ,  4-C ) :   0.4997 B(  0-C ,  5-H ) :   0.9092
B(  0-C ,  6-H ) :   0.9733 B(  0-C , 11-C ) :  -0.1028 B(  1-C ,  2-C ) :   1.0494
B(  1-C ,  3-C ) :  -0.1238 B(  1-C ,  4-C ) :  -0.1311 B(  1-C ,  7-H ) :   0.9552
B(  1-C ,  8-H ) :   0.8961 B(  2-C ,  3-C ) :   0.7160 B(  2-C ,  9-H ) :   0.9457
B(  2-C , 10-H ) :   0.9020 B(  2-C , 12-C ) :  -0.1693 B(  3-C ,  4-C ) :   0.2599
B(  3-C , 11-C ) :  -0.1946 B(  3-C , 12-C ) :   2.1637 B(  3-C , 13-H ) :  -0.1700
B(  4-C , 11-C ) :   2.0764 B(  4-C , 14-C ) :  -0.1132 B(  4-C , 22-C ) :  -0.2573
B( 11-C , 14-C ) :   0.5117 B( 11-C , 16-C ) :  -0.1452 B( 11-C , 22-C ) :   0.4844
B( 11-C , 23-N ) :   0.1018 B( 12-C , 13-H ) :   1.1254 B( 12-C , 23-N ) :   0.1763
B( 14-C , 15-H ) :   0.9113 B( 14-C , 16-C ) :   1.0922 B( 14-C , 24-H ) :   0.9605
B( 16-C , 17-H ) :   0.9487 B( 16-C , 18-H ) :   0.8760 B( 16-C , 19-C ) :   1.0828
B( 16-C , 22-C ) :  -0.1269 B( 19-C , 20-H ) :   0.9091 B( 19-C , 21-H ) :   0.8601
B( 19-C , 22-C ) :   0.8566 B( 22-C , 23-N ) :   2.0372

MP2 TOTAL ENERGY:     -480.669232043 Eh
FINAL SINGLE POINT ENERGY      -480.669232042995

DIPOLE MOMENT
-------------
                                X             Y             Z
Electronic contribution:      0.93898       5.79798      -0.14306
Nuclear contribution   :     -0.80426      -7.09273       0.19849
                        -----------------------------------------
Total Dipole Moment    :      0.13472      -1.29475       0.05543
                        -----------------------------------------
Magnitude (a.u.)       :      1.30292
Magnitude (Debye)      :      3.31175

Rotational constants in cm-1:     0.054522     0.021955     0.016177
Rotational constants in MHz :  1634.523891   658.180186   484.971549

                             ****ORCA TERMINATED NORMALLY****
TOTAL RUN TIME: 0 days 2 hours 2 minutes 18 seconds 376 msec
