                         Program Version 4.2.1 -  RELEASE  -
|  1> %pal
|  2>  nprocs 32
|  3> end
|  4> !RI-MP2 aug-cc-pVQZ aug-cc-pVQZ/C TightSCF
|  5> %maxcore 4500
|  6> *xyzfile 0 1  07_10P1.xyz
|  7>
|  8>
|  9>                          ****END OF INPUT****

CARTESIAN COORDINATES (ANGSTROEM)
---------------------------------
  C      1.451593    1.125865   -0.069617
  C      1.260153   -0.261683   -0.140660
  C      0.002083   -0.810011   -0.341972
  C     -1.113022    0.011422   -0.473566
  C     -0.937978    1.394309   -0.416813
  C      0.327877    1.927646   -0.215237
  H     -0.110420   -1.883938   -0.401932
  H      0.447351    3.004436   -0.179733
  N     -2.371080   -0.570275   -0.705746
  C     -3.301439   -0.408895    0.137648
  O     -4.514978   -0.919979   -0.052365
  N      2.331873   -1.145067   -0.012312
  C      3.513263   -1.223160    0.147713
  O      4.652966   -1.417814    0.299949
  H     -4.490169   -1.381462   -0.900018
  O     -3.266949    0.233989    1.304868
  H     -2.382648    0.606041    1.429437
  C      2.814856    1.715056    0.143444
  H      3.256752    1.380993    1.086243
  H      3.505217    1.435265   -0.657062
  H      2.763556    2.802987    0.169663
  H     -1.787818    2.050208   -0.565448

 Total Charge           Charge          ....    0
 Multiplicity           Mult            ....    1
 Number of Electrons    NEL             ....  100
 Basis Dimension        Dim             .... 1488

ORBITAL ENERGIES
----------------

  NO   OCC          E(Eh)            E(eV)
   0   2.0000     -20.625504      -561.2485
   1   2.0000     -20.619203      -561.0770
   2   2.0000     -20.610101      -560.8294
   3   2.0000     -15.600094      -424.5001
   4   2.0000     -15.552545      -423.2063
   5   2.0000     -11.419729      -310.7466
   6   2.0000     -11.407491      -310.4136
   7   2.0000     -11.310657      -307.7786
   8   2.0000     -11.288645      -307.1796
   9   2.0000     -11.255746      -306.2844
  10   2.0000     -11.251959      -306.1814
  11   2.0000     -11.243906      -305.9622
  12   2.0000     -11.242999      -305.9376
  13   2.0000     -11.240232      -305.8623
  14   2.0000      -1.501646       -40.8619
  15   2.0000      -1.467910       -39.9439
  16   2.0000      -1.411056       -38.3968
  17   2.0000      -1.298798       -35.3421
  18   2.0000      -1.250513       -34.0282
  19   2.0000      -1.163156       -31.6511
  20   2.0000      -1.060264       -28.8513
  21   2.0000      -1.046161       -28.4675
  22   2.0000      -0.963036       -26.2055
  23   2.0000      -0.898331       -24.4448
  24   2.0000      -0.884460       -24.0674
  25   2.0000      -0.840352       -22.8672
  26   2.0000      -0.800255       -21.7761
  27   2.0000      -0.735913       -20.0252
  28   2.0000      -0.730907       -19.8890
  29   2.0000      -0.699258       -19.0278
  30   2.0000      -0.693431       -18.8692
  31   2.0000      -0.674225       -18.3466
  32   2.0000      -0.669930       -18.2297
  33   2.0000      -0.664906       -18.0930
  34   2.0000      -0.659145       -17.9362
  35   2.0000      -0.633896       -17.2492
  36   2.0000      -0.617155       -16.7936
  37   2.0000      -0.600607       -16.3434
  38   2.0000      -0.596454       -16.2303
  39   2.0000      -0.567212       -15.4346
  40   2.0000      -0.553318       -15.0565
  41   2.0000      -0.542906       -14.7732
  42   2.0000      -0.532039       -14.4775
  43   2.0000      -0.528912       -14.3924
  44   2.0000      -0.494442       -13.4545
  45   2.0000      -0.458422       -12.4743
  46   2.0000      -0.449007       -12.2181
  47   2.0000      -0.418786       -11.3957
  48   2.0000      -0.343252        -9.3404
  49   2.0000      -0.321736        -8.7549
  50   0.0000       0.020338         0.5534
  51   0.0000       0.026673         0.7258
  52   0.0000       0.029663         0.8072
  53   0.0000       0.034040         0.9263
  54   0.0000       0.039223         1.0673

MULLIKEN ATOMIC CHARGES
-----------------------
   0 C :    0.674824
   1 C :    0.672884
   2 C :   -0.967266
   3 C :    0.985800
   4 C :   -0.249573
   5 C :   -0.595254
   6 H :    0.244262
   7 H :    0.139630
   8 N :   -0.958111
   9 C :    1.325898
  10 O :   -0.789635
  11 N :   -0.983020
  12 C :    1.355524
  13 O :   -0.732686
  14 H :    0.389124
  15 O :   -0.790201
  16 H :    0.382823
  17 C :   -0.873402
  18 H :    0.164664
  19 H :    0.173982
  20 H :    0.221332
  21 H :    0.208403
Sum of atomic charges:    0.0000000

LOEWDIN ATOMIC CHARGES
----------------------
   0 C :   -0.081154
   1 C :   -0.350850
   2 C :    0.308989
   3 C :   -0.395809
   4 C :    0.328603
   5 C :    0.357097
   6 H :   -0.320507
   7 H :   -0.314893
   8 N :    0.563340
   9 C :   -1.047107
  10 O :    1.249457
  11 N :    0.492101
  12 C :   -0.750001
  13 O :    0.617176
  14 H :   -0.820903
  15 O :    1.293019
  16 H :   -0.844687
  17 C :    0.895094
  18 H :   -0.283604
  19 H :   -0.283092
  20 H :   -0.299468
  21 H :   -0.312798

  Mayer bond orders larger than 0.100000
B(  0-C ,  1-C ) :   1.0785 B(  0-C ,  4-C ) :  -0.2414 B(  0-C ,  5-C ) :   0.9068
B(  0-C , 12-C ) :   0.1025 B(  0-C , 17-C ) :   0.4839 B(  0-C , 18-H ) :  -0.1510
B(  0-C , 19-H ) :  -0.1487 B(  0-C , 20-H ) :  -0.1357 B(  1-C ,  2-C ) :   1.3915
B(  1-C ,  3-C ) :  -0.4605 B(  1-C ,  4-C ) :   0.1148 B(  1-C , 11-N ) :   0.1256
B(  1-C , 12-C ) :  -0.2348 B(  1-C , 13-O ) :   0.1199 B(  2-C ,  3-C ) :   1.3896
B(  2-C ,  4-C ) :   0.1005 B(  2-C ,  5-C ) :   0.2400 B(  2-C ,  6-H ) :   0.9216
B(  3-C ,  4-C ) :   1.2304 B(  3-C ,  5-C ) :  -0.2434 B(  3-C ,  8-N ) :   0.1235
B(  3-C ,  9-C ) :  -0.1037 B(  4-C ,  5-C ) :   1.1485 B(  4-C ,  7-H ) :  -0.1848
B(  4-C ,  8-N ) :   0.1224 B(  4-C , 21-H ) :   1.0659 B(  5-C ,  7-H ) :   1.1738
B(  5-C , 21-H ) :  -0.1265 B(  8-N ,  9-C ) :   1.8982 B(  9-C , 10-O ) :   0.7440
B(  9-C , 15-O ) :   0.7914 B( 10-O , 14-H ) :   0.8317 B( 11-N , 12-C ) :   2.4208
B( 11-N , 13-O ) :   0.3363 B( 12-C , 13-O ) :   1.2974 B( 15-O , 16-H ) :   0.8103
B( 17-C , 18-H ) :   1.0725 B( 17-C , 19-H ) :   1.0695 B( 17-C , 20-H ) :   1.0724

MP2 TOTAL ENERGY:     -681.963598434 Eh
FINAL SINGLE POINT ENERGY      -681.963598433684

DIPOLE MOMENT
-------------
                                X             Y             Z
Electronic contribution:     -1.45595      -6.96273      -0.08898
Nuclear contribution   :      1.12608       7.79017       0.00138
                        -----------------------------------------
Total Dipole Moment    :     -0.32986       0.82744      -0.08761
                        -----------------------------------------
Magnitude (a.u.)       :      0.89506
Magnitude (Debye)      :      2.27507

Rotational constants in cm-1:     0.057005     0.010857     0.009625
Rotational constants in MHz :  1708.966219   325.483720   288.550732

                             ****ORCA TERMINATED NORMALLY****
TOTAL RUN TIME: 0 days 1 hours 39 minutes 53 seconds 635 msec
