                         Program Version 4.2.1 -  RELEASE  -
|  1> %pal
|  2>  nprocs 32
|  3> end
|  4> !RI-MP2 aug-cc-pVQZ aug-cc-pVQZ/C TightSCF
|  5> %maxcore 4500
|  6> *xyzfile 0 2  04_41P.xyz
|  7>
|  8>
|  9>                          ****END OF INPUT****

CARTESIAN COORDINATES (ANGSTROEM)
---------------------------------
  N     -0.932927   -0.200224    0.742575
  S     -0.000908   -1.272426   -0.096452
  O      1.334627   -0.430338   -0.379956
  C      2.149793   -0.049525    0.750258
  C      3.348162    0.696479    0.198080
  H      2.449275   -0.952539    1.283540
  H      1.550356    0.583354    1.408555
  C      2.996844    1.932106   -0.548259
  H      3.904786    0.003193   -0.450203
  H      4.013345    0.925706    1.036036
  H      3.685087    2.765460   -0.589162
  C     -1.847658    0.788089    0.109495
  C     -3.045091    0.097772   -0.547003
  C     -1.076440    1.626614   -0.906413
  C     -2.317818    1.674647    1.261468
  H     -2.846764    1.089029    2.018542
  H     -3.007296    2.433879    0.889057
  H     -1.472259    2.173585    1.737250
  H     -2.724355   -0.548043   -1.362900
  H     -3.736248    0.844955   -0.942891
  H     -3.586651   -0.509221    0.183049
  H     -0.718102    1.020116   -1.737957
  H     -0.223571    2.117409   -0.435374
  H     -1.737234    2.395812   -1.309527
  O     -0.518798   -1.542702   -1.411732
  O      0.300621   -2.332870    0.837923
  H      2.140100    1.938236   -1.208315
  H     -1.323813   -0.670359    1.549885

 Total Charge           Charge          ....    0
 Multiplicity           Mult            ....    2
 Number of Electrons    NEL             ....  105
 Basis Dimension        Dim             .... 1700

ORBITAL ENERGIES
----------------
                 SPIN UP ORBITALS
  NO   OCC          E(Eh)            E(eV)
   0   1.0000     -92.225230     -2509.5761
   1   1.0000     -20.611401      -560.8647
   2   1.0000     -20.553002      -559.2756
   3   1.0000     -20.550678      -559.2124
   4   1.0000     -15.598347      -424.4526
   5   1.0000     -11.300632      -307.5058
   6   1.0000     -11.293819      -307.3204
   7   1.0000     -11.240671      -305.8742
   8   1.0000     -11.238079      -305.8037
   9   1.0000     -11.232099      -305.6409
  10   1.0000     -11.222357      -305.3759
  11   1.0000     -11.218132      -305.2609
  12   1.0000      -9.184952      -249.9353
  13   1.0000      -6.871520      -186.9836
  14   1.0000      -6.870878      -186.9661
  15   1.0000      -6.869982      -186.9417
  16   1.0000      -1.504765       -40.9467
  17   1.0000      -1.385961       -37.7139
  18   1.0000      -1.353049       -36.8183
  19   1.0000      -1.247263       -33.9398
  20   1.0000      -1.088267       -29.6133
  21   1.0000      -1.077226       -29.3128
  22   1.0000      -0.961147       -26.1541
  23   1.0000      -0.953493       -25.9459
  24   1.0000      -0.948413       -25.8076
  25   1.0000      -0.867138       -23.5960
  26   1.0000      -0.824589       -22.4382
  27   1.0000      -0.786092       -21.3907
  28   1.0000      -0.741721       -20.1833
  29   1.0000      -0.718796       -19.5594
  30   1.0000      -0.683345       -18.5948
  31   1.0000      -0.670213       -18.2374
  32   1.0000      -0.653793       -17.7906
  33   1.0000      -0.630857       -17.1665
  34   1.0000      -0.624207       -16.9855
  35   1.0000      -0.611599       -16.6424
  36   1.0000      -0.598061       -16.2741
  37   1.0000      -0.575971       -15.6730
  38   1.0000      -0.572246       -15.5716
  39   1.0000      -0.560914       -15.2632
  40   1.0000      -0.547595       -14.9008
  41   1.0000      -0.541746       -14.7417
  42   1.0000      -0.535693       -14.5770
  43   1.0000      -0.527387       -14.3509
  44   1.0000      -0.517964       -14.0945
  45   1.0000      -0.504719       -13.7341
  46   1.0000      -0.503438       -13.6993
  47   1.0000      -0.493795       -13.4368
  48   1.0000      -0.486937       -13.2502
  49   1.0000      -0.478438       -13.0190
  50   1.0000      -0.477497       -12.9934
  51   1.0000      -0.424009       -11.5379
  52   1.0000      -0.364105        -9.9078
  53   0.0000       0.019114         0.5201
  54   0.0000       0.025649         0.6979
  55   0.0000       0.027923         0.7598
  56   0.0000       0.033506         0.9118
  57   0.0000       0.038038         1.0351

                 SPIN DOWN ORBITALS
  NO   OCC          E(Eh)            E(eV)
   0   1.0000     -92.225224     -2509.5759
   1   1.0000     -20.611497      -560.8674
   2   1.0000     -20.553005      -559.2757
   3   1.0000     -20.550682      -559.2125
   4   1.0000     -15.598347      -424.4526
   5   1.0000     -11.299708      -307.4807
   6   1.0000     -11.293821      -307.3205
   7   1.0000     -11.243667      -305.9557
   8   1.0000     -11.232098      -305.6409
   9   1.0000     -11.222330      -305.3751
  10   1.0000     -11.218130      -305.2608
  11   1.0000     -11.214641      -305.1659
  12   1.0000      -9.184944      -249.9350
  13   1.0000      -6.871504      -186.9831
  14   1.0000      -6.870873      -186.9660
  15   1.0000      -6.869977      -186.9416
  16   1.0000      -1.504794       -40.9475
  17   1.0000      -1.386004       -37.7151
  18   1.0000      -1.353060       -36.8186
  19   1.0000      -1.247259       -33.9397
  20   1.0000      -1.083605       -29.4864
  21   1.0000      -1.065032       -28.9810
  22   1.0000      -0.956610       -26.0307
  23   1.0000      -0.949353       -25.8332
  24   1.0000      -0.923982       -25.1428
  25   1.0000      -0.858960       -23.3735
  26   1.0000      -0.801017       -21.7968
  27   1.0000      -0.778709       -21.1897
  28   1.0000      -0.740724       -20.1561
  29   1.0000      -0.718404       -19.5488
  30   1.0000      -0.680727       -18.5235
  31   1.0000      -0.668048       -18.1785
  32   1.0000      -0.653113       -17.7721
  33   1.0000      -0.628072       -17.0907
  34   1.0000      -0.618984       -16.8434
  35   1.0000      -0.608175       -16.5493
  36   1.0000      -0.595522       -16.2050
  37   1.0000      -0.572837       -15.5877
  38   1.0000      -0.566444       -15.4137
  39   1.0000      -0.554551       -15.0901
  40   1.0000      -0.546727       -14.8772
  41   1.0000      -0.536369       -14.5953
  42   1.0000      -0.528764       -14.3884
  43   1.0000      -0.525634       -14.3032
  44   1.0000      -0.517274       -14.0757
  45   1.0000      -0.503822       -13.7097
  46   1.0000      -0.501638       -13.6503
  47   1.0000      -0.492489       -13.4013
  48   1.0000      -0.484264       -13.1775
  49   1.0000      -0.478240       -13.0136
  50   1.0000      -0.477333       -12.9889
  51   1.0000      -0.423823       -11.5328
  52   0.0000       0.019062         0.5187
  53   0.0000       0.025787         0.7017
  54   0.0000       0.028002         0.7620
  55   0.0000       0.033386         0.9085
  56   0.0000       0.037954         1.0328

MULLIKEN ATOMIC CHARGES AND SPIN POPULATIONS
--------------------------------------------
   0 N :   -0.516253   -0.000749
   1 S :    3.287958    0.001908
   2 O :   -1.002911   -0.006567
   3 C :   -0.142417    0.042617
   4 C :   -0.392249   -0.209635
   5 H :    0.396962   -0.003217
   6 H :    0.287267   -0.003842
   7 C :   -0.945606    1.237954
   8 H :    0.231012    0.085124
   9 H :    0.264498    0.018146
  10 H :    0.377562   -0.088366
  11 C :    1.534404   -0.004932
  12 C :   -1.086681    0.000438
  13 C :   -1.153880    0.012340
  14 C :   -1.120512    0.001131
  15 H :    0.234908   -0.000018
  16 H :    0.262980   -0.000003
  17 H :    0.239850    0.000913
  18 H :    0.265532    0.000133
  19 H :    0.279972   -0.000094
  20 H :    0.211151    0.000013
  21 H :    0.268026    0.000266
  22 H :    0.372455   -0.011773
  23 H :    0.198049    0.000495
  24 O :   -1.414465   -0.000212
  25 O :   -1.475239   -0.000173
  26 H :    0.403750   -0.071914
  27 H :    0.133878    0.000015
Sum of atomic charges         :    0.0000000

LOEWDIN ATOMIC CHARGES AND SPIN POPULATIONS
-------------------------------------------
   0 N :    0.709448    0.000234
   1 S :   -0.643289    0.000255
   2 O :    0.644613    0.000211
   3 C :    0.103084    0.018741
   4 C :    0.443607    0.147595
   5 H :   -0.315306    0.002558
   6 H :   -0.311780    0.008287
   7 C :    0.859896    0.465143
   8 H :   -0.287907    0.032666
   9 H :   -0.298231    0.012328
  10 H :   -0.331553    0.153331
  11 C :   -0.482073    0.000217
  12 C :    0.906371    0.000026
  13 C :    0.887450    0.000914
  14 C :    0.899287    0.000115
  15 H :   -0.268895    0.000007
  16 H :   -0.268276    0.000011
  17 H :   -0.268568    0.000073
  18 H :   -0.329932    0.000009
  19 H :   -0.269784    0.000008
  20 H :   -0.269398    0.000010
  21 H :   -0.305540   -0.000043
  22 H :   -0.291427    0.002971
  23 H :   -0.264256    0.000108
  24 O :    0.352825   -0.000029
  25 O :    0.344553    0.000101
  26 H :   -0.359346    0.154122
  27 H :   -0.585573    0.000032

  Mayer bond orders larger than 0.100000
B(  0-N ,  1-S ) :   0.9238 B(  0-N , 11-C ) :   0.2256 B(  0-N , 27-H ) :   1.1821
B(  1-S ,  2-O ) :   0.5137 B(  1-S , 24-O ) :   0.6200 B(  1-S , 25-O ) :   0.8608
B(  2-O ,  3-C ) :   0.7590 B(  3-C ,  4-C ) :   1.0049 B(  3-C ,  5-H ) :   0.8258
B(  3-C ,  6-H ) :   0.8228 B(  4-C ,  7-C ) :   0.8842 B(  4-C ,  8-H ) :   0.8615
B(  4-C ,  9-H ) :   0.9757 B(  7-C , 10-H ) :   0.9080 B(  7-C , 26-H ) :   0.8080
B( 11-C , 12-C ) :   0.3180 B( 11-C , 13-C ) :   0.3895 B( 11-C , 14-C ) :   0.2371
B( 11-C , 15-H ) :  -0.1517 B( 11-C , 16-H ) :  -0.1116 B( 11-C , 17-H ) :  -0.1831
B( 11-C , 18-H ) :  -0.1143 B( 11-C , 19-H ) :  -0.1158 B( 11-C , 20-H ) :  -0.1342
B( 11-C , 21-H ) :  -0.1274 B( 11-C , 22-H ) :  -0.1166 B( 12-C , 13-C ) :   0.1095
B( 12-C , 14-C ) :   0.1274 B( 12-C , 18-H ) :   1.0283 B( 12-C , 19-H ) :   0.9896
B( 12-C , 20-H ) :   1.0888 B( 13-C , 14-C ) :   0.1042 B( 13-C , 21-H ) :   0.9938
B( 13-C , 22-H ) :   0.9270 B( 13-C , 23-H ) :   1.0878 B( 14-C , 15-H ) :   1.0557
B( 14-C , 16-H ) :   1.0209 B( 14-C , 17-H ) :   1.0751 B( 25-O , 27-H ) :  -0.1017

MP2 TOTAL ENERGY:     -953.638904869 Eh
FINAL SINGLE POINT ENERGY      -953.638904868560

DIPOLE MOMENT
-------------
                                X             Y             Z
Electronic contribution:      3.56351     -14.13977      -1.15819
Nuclear contribution   :     -3.67578      15.81567       2.09297
                        -----------------------------------------
Total Dipole Moment    :     -0.11228       1.67589       0.93478
                        -----------------------------------------
Magnitude (a.u.)       :      1.92225
Magnitude (Debye)      :      4.88597

Rotational constants in cm-1:     0.036363     0.020688     0.016292
Rotational constants in MHz :  1090.121224   620.211326   488.428729

                             ****ORCA TERMINATED NORMALLY****
TOTAL RUN TIME: 0 days 2 hours 57 minutes 13 seconds 803 msec
