                         Program Version 4.2.1 -  RELEASE  -
|  1> %pal
|  2>  nprocs 32
|  3> end
|  4> !RI-MP2 aug-cc-pVQZ aug-cc-pVQZ/C TightSCF
|  5> %maxcore 4500
|  6> *xyzfile -1 1  09_16P.xyz
|  7>
|  8>
|  9>                          ****END OF INPUT****

CARTESIAN COORDINATES (ANGSTROEM)
---------------------------------
  C     -1.883456    0.304779   -0.111006
  C     -0.921220    1.464239   -0.208050
  O     -1.344878    2.595151   -0.021272
  C      0.507137    1.166188   -0.468195
  C      1.242919    0.724575    0.858274
  C      2.616714    0.137235    0.739952
  C      3.138002   -0.041642   -0.459108
  O      4.411310   -0.592527   -0.728525
  C      5.145538   -0.967543    0.405040
  H      2.712816    0.196907   -1.441869
  H      6.096584   -1.367666    0.039577
  H      5.319068   -0.114831    1.071225
  H      4.614446   -1.722688    0.996062
  C     -1.469539   -1.024721   -0.187591
  C     -2.396781   -2.054157   -0.097762
  C     -3.745627   -1.768777    0.064612
  C     -4.165839   -0.445708    0.142936
  C     -3.239120    0.580628    0.059285
  H     -0.419539   -1.261183   -0.301320
  H     -2.060837   -3.083225   -0.150428
  H     -4.467700   -2.574796    0.133310
  H     -5.217874   -0.217144    0.272525
  H     -3.538148    1.619346    0.124533
  H      0.990825    2.060773   -0.859798
  H      0.608462    0.366376   -1.204105
  H      1.262924    1.611854    1.501889
  H      0.595139    0.014691    1.386444

 Total Charge           Charge          ....   -1
 Multiplicity           Mult            ....    1
 Number of Electrons    NEL             ....  102
 Basis Dimension        Dim             .... 1718

ORBITAL ENERGIES
----------------

  NO   OCC          E(Eh)            E(eV)
   0   2.0000     -20.421271      -555.6910
   1   2.0000     -20.385755      -554.7246
   2   2.0000     -11.210706      -305.0588
   3   2.0000     -11.157163      -303.6018
   4   2.0000     -11.150123      -303.4103
   5   2.0000     -11.148651      -303.3702
   6   2.0000     -11.147319      -303.3340
   7   2.0000     -11.146588      -303.3141
   8   2.0000     -11.143053      -303.2179
   9   2.0000     -11.106646      -302.2272
  10   2.0000     -11.086045      -301.6666
  11   2.0000     -11.072459      -301.2969
  12   2.0000     -11.065452      -301.1063
  13   2.0000     -10.976230      -298.6784
  14   2.0000      -1.263822       -34.3903
  15   2.0000      -1.200991       -32.6806
  16   2.0000      -1.071179       -29.1483
  17   2.0000      -0.953492       -25.9458
  18   2.0000      -0.932569       -25.3765
  19   2.0000      -0.909769       -24.7561
  20   2.0000      -0.824867       -22.4458
  21   2.0000      -0.777554       -21.1583
  22   2.0000      -0.752903       -20.4875
  23   2.0000      -0.738168       -20.0866
  24   2.0000      -0.700276       -19.0555
  25   2.0000      -0.651815       -17.7368
  26   2.0000      -0.604929       -16.4610
  27   2.0000      -0.549405       -14.9501
  28   2.0000      -0.545236       -14.8366
  29   2.0000      -0.544067       -14.8048
  30   2.0000      -0.528802       -14.3894
  31   2.0000      -0.504392       -13.7252
  32   2.0000      -0.498932       -13.5766
  33   2.0000      -0.473789       -12.8925
  34   2.0000      -0.465353       -12.6629
  35   2.0000      -0.453978       -12.3534
  36   2.0000      -0.448095       -12.1933
  37   2.0000      -0.427900       -11.6438
  38   2.0000      -0.412546       -11.2259
  39   2.0000      -0.404366       -11.0033
  40   2.0000      -0.387243       -10.5374
  41   2.0000      -0.371064       -10.0972
  42   2.0000      -0.355883        -9.6841
  43   2.0000      -0.347963        -9.4686
  44   2.0000      -0.312150        -8.4940
  45   2.0000      -0.304268        -8.2795
  46   2.0000      -0.292896        -7.9701
  47   2.0000      -0.253419        -6.8959
  48   2.0000      -0.250681        -6.8214
  49   2.0000      -0.127138        -3.4596
  50   2.0000      -0.103458        -2.8152
  51   0.0000       0.078150         2.1266
  52   0.0000       0.087717         2.3869
  53   0.0000       0.099737         2.7140
  54   0.0000       0.106046         2.8856
  55   0.0000       0.109603         2.9824

MULLIKEN ATOMIC CHARGES
-----------------------
   0 C :    0.004207
   1 C :    1.363855
   2 O :   -1.007662
   3 C :   -0.382681
   4 C :   -0.370429
   5 C :   -0.986291
   6 C :   -0.028452
   7 O :   -0.934728
   8 C :   -0.781108
   9 H :    0.419640
  10 H :    0.506145
  11 H :    0.257408
  12 H :    0.280174
  13 C :   -0.271616
  14 C :   -0.512837
  15 C :   -0.368847
  16 C :   -0.402761
  17 C :   -0.361828
  18 H :    0.477785
  19 H :    0.217984
  20 H :    0.307750
  21 H :    0.216025
  22 H :    0.241223
  23 H :    0.281671
  24 H :    0.180709
  25 H :    0.366615
  26 H :    0.288052
Sum of atomic charges:   -1.0000000

LOEWDIN ATOMIC CHARGES
----------------------
   0 C :   -0.098404
   1 C :   -0.656777
   2 O :    0.734617
   3 C :    0.401104
   4 C :    0.334294
   5 C :    0.162423
   6 C :   -0.181632
   7 O :    0.766851
   8 C :    0.418672
   9 H :   -0.445347
  10 H :   -0.355382
  11 H :   -0.356948
  12 H :   -0.356432
  13 C :    0.339077
  14 C :    0.355072
  15 C :    0.325223
  16 C :    0.337011
  17 C :    0.310320
  18 H :   -0.345023
  19 H :   -0.322042
  20 H :   -0.326681
  21 H :   -0.329222
  22 H :   -0.353960
  23 H :   -0.299678
  24 H :   -0.364232
  25 H :   -0.330045
  26 H :   -0.362858

  Mayer bond orders larger than 0.100000
B(  0-C ,  1-C ) :   0.7778 B(  0-C ,  2-O ) :   0.5006 B(  0-C ,  3-C ) :  -0.1400
B(  0-C , 13-C ) :   1.1231 B(  0-C , 14-C ) :  -0.3083 B(  0-C , 16-C ) :  -0.4257
B(  0-C , 17-C ) :   0.9723 B(  0-C , 18-H ) :  -0.1172 B(  1-C ,  2-O ) :   0.1069
B(  1-C ,  3-C ) :   1.1045 B(  1-C , 13-C ) :  -0.2772 B(  1-C , 17-C ) :  -0.2488
B(  2-O ,  3-C ) :   0.2809 B(  2-O , 22-H ) :   0.1494 B(  3-C ,  4-C ) :   0.8188
B(  3-C , 23-H ) :   0.8734 B(  3-C , 24-H ) :   0.9599 B(  4-C ,  5-C ) :   0.6591
B(  4-C , 25-H ) :   0.8499 B(  4-C , 26-H ) :   0.9090 B(  5-C ,  6-C ) :   1.9665
B(  5-C ,  7-O ) :   0.1956 B(  6-C ,  7-O ) :   0.3642 B(  6-C ,  9-H ) :   0.8161
B(  7-O ,  8-C ) :   0.9676 B(  8-C , 10-H ) :   0.7354 B(  8-C , 11-H ) :   0.9206
B(  8-C , 12-H ) :   0.9118 B( 13-C , 14-C ) :   1.0360 B( 13-C , 15-C ) :  -0.1447
B( 13-C , 18-H ) :   0.7355 B( 13-C , 19-H ) :  -0.1202 B( 14-C , 15-C ) :   1.3075
B( 14-C , 17-C ) :   0.1654 B( 14-C , 18-H ) :  -0.1382 B( 14-C , 19-H ) :   1.1305
B( 14-C , 20-H ) :  -0.1164 B( 15-C , 16-C ) :   1.1629 B( 15-C , 20-H ) :   1.0437
B( 15-C , 21-H ) :  -0.1046 B( 16-C , 17-C ) :   1.3790 B( 16-C , 20-H ) :  -0.1069
B( 16-C , 21-H ) :   1.1688 B( 17-C , 21-H ) :  -0.1668 B( 17-C , 22-H ) :   0.9404

MP2 TOTAL ENERGY:     -614.460042253 Eh
FINAL SINGLE POINT ENERGY      -614.460042253209

DIPOLE MOMENT
-------------
                                X             Y             Z
Electronic contribution:    -10.87422       3.28650      -2.26507
Nuclear contribution   :      6.56012      -4.45060       1.55994
                        -----------------------------------------
Total Dipole Moment    :     -4.31410      -1.16411      -0.70513
                        -----------------------------------------
Magnitude (a.u.)       :      4.52370
Magnitude (Debye)      :     11.49832

Rotational constants in cm-1:     0.047147     0.009704     0.008396
Rotational constants in MHz :  1413.433885   290.909673   251.698135

                             ****ORCA TERMINATED NORMALLY****
TOTAL RUN TIME: 0 days 2 hours 7 minutes 31 seconds 614 msec
