                         Program Version 4.2.1 -  RELEASE  -
|  1> %pal
|  2>  nprocs 32
|  3> end
|  4> !RI-MP2 aug-cc-pVQZ aug-cc-pVQZ/C TightSCF
|  5> %maxcore 4500
|  6> *xyzfile 1 1  05_24TS.xyz
|  7>
|  8>
|  9>                          ****END OF INPUT****

CARTESIAN COORDINATES (ANGSTROEM)
---------------------------------
  C      0.309814    0.943647    1.933612
  C     -0.789872    1.755981    2.423504
  C     -2.051607    1.406620    2.109093
  N     -2.309617    0.236661    1.436372
  C     -1.339314   -0.712042    1.334997
  C     -0.053393   -0.439732    1.671942
  C      1.040647   -1.446594    1.692516
  O      2.197064   -1.078154    1.779898
  N      0.695507   -2.759494    1.576781
  C     -3.568038    0.083800    0.708092
  C     -3.404998    0.367481   -0.787312
  C     -4.604535   -0.375658   -1.344115
  C     -4.639047   -1.629263   -0.468186
  O     -4.018232   -1.233341    0.790202
  H     -4.273717    0.792703    1.154678
  C     -6.009373   -2.198821   -0.207214
  H     -3.993936   -2.381192   -0.931971
  H     -5.946405   -3.081250    0.429795
  H     -6.468547   -2.489028   -1.154261
  H     -6.648485   -1.461500    0.282452
  O     -4.477772   -0.752031   -2.690797
  H     -5.504541    0.231670   -1.186498
  O     -3.379801    1.720365   -1.127849
  H     -2.506802   -0.154723   -1.143432
  H     -2.473948    2.072773   -1.059347
  H     -4.652526    0.008474   -3.252753
  H     -0.215826   -3.083728    1.854907
  H      1.454158   -3.418253    1.669380
  H     -2.919243    1.997880    2.369579
  H     -0.603764    2.648692    3.005154
  H     -1.688698   -1.672976    0.982340
  H      0.676788    1.438260    0.749501
  C      4.624901    0.659932   -0.223000
  N      5.230018   -0.591525   -0.407024
  C      4.558229   -1.689086   -0.852378
  N      3.288905   -1.671347   -1.164876
  C      2.639825   -0.499985   -1.003273
  C      3.256117    0.662861   -0.604148
  N      2.518701    1.824915   -0.397748
  C      1.171552    1.840024   -0.470360
  C      0.598365    0.768231   -1.384358
  N      1.293810   -0.490480   -1.204263
  H      0.671546    1.143026   -2.416376
  H     -0.456742    0.632481   -1.161770
  C      0.558366    3.219725   -0.630536
  N     -0.902959    3.204833   -0.545541
  H      0.842039    3.575094   -1.625111
  H      1.023487    3.898754    0.093623
  O      5.240048    1.609650    0.227123
  H      6.195723   -0.649941   -0.111376
  N      5.247661   -2.844605   -0.955156
  H      6.252706   -2.866064   -0.923978
  H      4.770216   -3.622292   -1.380382
  H      0.911432   -1.319950   -1.633532
  H     -1.277110    4.018272   -1.022715
  H     -1.203335    3.270636    0.420862
  H      3.039475    2.598038    0.004262
  H      1.285583    1.076802    2.395287

 Total Charge           Charge          ....    1
 Multiplicity           Mult            ....    1
 Number of Electrons    NEL             ....  230
 Basis Dimension        Dim             .... 3722

ORBITAL ENERGIES
----------------

  NO   OCC          E(Eh)            E(eV)
   0   2.0000     -20.677206      -562.6554
   1   2.0000     -20.666485      -562.3636
   2   2.0000     -20.660600      -562.2035
   3   2.0000     -20.623090      -561.1828
   4   2.0000     -20.606479      -560.7308
   5   2.0000     -15.749554      -428.5671
   6   2.0000     -15.720879      -427.7869
   7   2.0000     -15.714048      -427.6010
   8   2.0000     -15.694960      -427.0816
   9   2.0000     -15.691634      -426.9911
  10   2.0000     -15.686390      -426.8484
  11   2.0000     -15.682834      -426.7516
  12   2.0000     -15.642379      -425.6508
  13   2.0000     -11.483884      -312.4924
  14   2.0000     -11.462025      -311.8976
  15   2.0000     -11.456934      -311.7590
  16   2.0000     -11.448745      -311.5362
  17   2.0000     -11.446481      -311.4746
  18   2.0000     -11.433070      -311.1097
  19   2.0000     -11.429021      -310.9995
  20   2.0000     -11.420726      -310.7738
  21   2.0000     -11.412106      -310.5392
  22   2.0000     -11.406121      -310.3763
  23   2.0000     -11.403528      -310.3058
  24   2.0000     -11.395354      -310.0834
  25   2.0000     -11.387643      -309.8735
  26   2.0000     -11.386201      -309.8343
  27   2.0000     -11.365693      -309.2762
  28   2.0000     -11.362326      -309.1846
  29   2.0000     -11.344964      -308.7122
  30   2.0000     -11.305074      -307.6267
  31   2.0000      -1.525689       -41.5161
  32   2.0000      -1.493636       -40.6439
  33   2.0000      -1.489569       -40.5332
  34   2.0000      -1.481602       -40.3164
  35   2.0000      -1.467103       -39.9219
  36   2.0000      -1.441407       -39.2227
  37   2.0000      -1.435241       -39.0549
  38   2.0000      -1.425328       -38.7851
  39   2.0000      -1.365726       -37.1633
  40   2.0000      -1.327391       -36.1201
  41   2.0000      -1.316429       -35.8218
  42   2.0000      -1.312611       -35.7179
  43   2.0000      -1.291831       -35.1525
  44   2.0000      -1.246251       -33.9122
  45   2.0000      -1.192490       -32.4493
  46   2.0000      -1.183762       -32.2118
  47   2.0000      -1.161596       -31.6086
  48   2.0000      -1.140298       -31.0291
  49   2.0000      -1.092702       -29.7339
  50   2.0000      -1.072744       -29.1909
  51   2.0000      -1.056925       -28.7604
  52   2.0000      -1.031423       -28.0664
  53   2.0000      -1.002735       -27.2858
  54   2.0000      -0.996389       -27.1131
  55   2.0000      -0.981560       -26.7096
  56   2.0000      -0.941156       -25.6102
  57   2.0000      -0.925186       -25.1756
  58   2.0000      -0.922724       -25.1086
  59   2.0000      -0.906759       -24.6742
  60   2.0000      -0.895606       -24.3707
  61   2.0000      -0.873575       -23.7712
  62   2.0000      -0.859585       -23.3905
  63   2.0000      -0.851392       -23.1676
  64   2.0000      -0.836919       -22.7737
  65   2.0000      -0.832264       -22.6471
  66   2.0000      -0.828904       -22.5556
  67   2.0000      -0.820511       -22.3272
  68   2.0000      -0.814246       -22.1567
  69   2.0000      -0.808976       -22.0134
  70   2.0000      -0.795931       -21.6584
  71   2.0000      -0.791418       -21.5356
  72   2.0000      -0.791040       -21.5253
  73   2.0000      -0.771572       -20.9955
  74   2.0000      -0.766409       -20.8550
  75   2.0000      -0.765056       -20.8182
  76   2.0000      -0.763811       -20.7844
  77   2.0000      -0.756189       -20.5770
  78   2.0000      -0.746755       -20.3202
  79   2.0000      -0.741039       -20.1647
  80   2.0000      -0.733486       -19.9592
  81   2.0000      -0.730651       -19.8820
  82   2.0000      -0.717931       -19.5359
  83   2.0000      -0.715501       -19.4698
  84   2.0000      -0.714665       -19.4470
  85   2.0000      -0.708450       -19.2779
  86   2.0000      -0.701475       -19.0881
  87   2.0000      -0.689600       -18.7650
  88   2.0000      -0.680048       -18.5050
  89   2.0000      -0.664938       -18.0939
  90   2.0000      -0.662136       -18.0176
  91   2.0000      -0.658994       -17.9321
  92   2.0000      -0.658110       -17.9081
  93   2.0000      -0.652466       -17.7545
  94   2.0000      -0.643563       -17.5122
  95   2.0000      -0.639645       -17.4056
  96   2.0000      -0.637511       -17.3476
  97   2.0000      -0.630592       -17.1593
  98   2.0000      -0.622521       -16.9397
  99   2.0000      -0.617081       -16.7916
 100   2.0000      -0.593956       -16.1624
 101   2.0000      -0.580108       -15.7855
 102   2.0000      -0.565497       -15.3879
 103   2.0000      -0.553659       -15.0658
 104   2.0000      -0.551687       -15.0122
 105   2.0000      -0.546545       -14.8722
 106   2.0000      -0.541447       -14.7335
 107   2.0000      -0.531383       -14.4597
 108   2.0000      -0.526973       -14.3397
 109   2.0000      -0.522637       -14.2217
 110   2.0000      -0.520396       -14.1607
 111   2.0000      -0.505418       -13.7531
 112   2.0000      -0.487893       -13.2762
 113   2.0000      -0.438153       -11.9228
 114   2.0000      -0.372196       -10.1280
 115   0.0000      -0.083787        -2.2800
 116   0.0000      -0.057870        -1.5747
 117   0.0000      -0.052053        -1.4164
 118   0.0000      -0.046903        -1.2763
 119   0.0000      -0.043237        -1.1765

MULLIKEN ATOMIC CHARGES
-----------------------
   0 C :    0.994484
   1 C :   -0.668425
   2 C :    0.092625
   3 N :   -0.822097
   4 C :    0.802187
   5 C :   -0.945858
   6 C :    1.824246
   7 O :   -1.249604
   8 N :   -1.054014
   9 C :    0.614879
  10 C :    0.643944
  11 C :    0.804913
  12 C :    0.474798
  13 O :   -1.238584
  14 H :    0.423402
  15 C :   -1.021144
  16 H :    0.245734
  17 H :    0.233498
  18 H :    0.256010
  19 H :    0.251265
  20 O :   -1.099630
  21 H :    0.134374
  22 O :   -1.205725
  23 H :    0.056224
  24 H :    0.285594
  25 H :    0.326769
  26 H :    0.282008
  27 H :    0.218298
  28 H :    0.207968
  29 H :    0.084394
  30 H :    0.304027
  31 H :   -0.427703
  32 C :    1.620215
  33 N :   -0.768600
  34 C :    1.061799
  35 N :   -0.997774
  36 C :    1.265853
  37 C :   -0.686194
  38 N :   -1.086264
  39 C :    3.014864
  40 C :   -0.879924
  41 N :   -0.488647
  42 H :    0.134068
  43 H :    0.564813
  44 C :   -0.746115
  45 N :   -0.460414
  46 H :    0.233957
  47 H :    0.206620
  48 O :   -1.072701
  49 H :   -0.012214
  50 N :   -0.945565
  51 H :    0.270399
  52 H :    0.302891
  53 H :   -0.063126
  54 H :    0.025652
  55 H :    0.324655
  56 H :   -0.074690
  57 H :    0.427586
Sum of atomic charges:    1.0000000

LOEWDIN ATOMIC CHARGES
----------------------
   0 C :    0.389948
   1 C :    0.444968
   2 C :    0.265918
   3 N :    0.480871
   4 C :    0.236930
   5 C :   -0.053284
   6 C :   -0.837234
   7 O :    0.769092
   8 N :    1.264939
   9 C :   -0.370189
  10 C :   -0.243938
  11 C :   -0.242377
  12 C :   -0.191231
  13 O :    0.953329
  14 H :   -0.298104
  15 C :    0.946115
  16 H :   -0.288623
  17 H :   -0.272214
  18 H :   -0.269064
  19 H :   -0.276992
  20 O :    1.325643
  21 H :   -0.275897
  22 O :    1.345487
  23 H :   -0.313285
  24 H :   -0.923736
  25 H :   -0.750580
  26 H :   -0.499368
  27 H :   -0.482927
  28 H :   -0.277484
  29 H :   -0.282450
  30 H :   -0.312917
  31 H :   -0.524699
  32 C :   -0.847882
  33 N :    0.848295
  34 C :   -0.604208
  35 N :    0.634507
  36 C :   -0.544402
  37 C :   -0.266474
  38 N :    0.907588
  39 C :   -0.088326
  40 C :    0.438145
  41 N :    0.893711
  42 H :   -0.220836
  43 H :   -0.323510
  44 C :    0.457042
  45 N :    1.330896
  46 H :   -0.257016
  47 H :   -0.242156
  48 O :    0.720547
  49 H :   -0.477327
  50 N :    1.289389
  51 H :   -0.463737
  52 H :   -0.481501
  53 H :   -0.456781
  54 H :   -0.435404
  55 H :   -0.519187
  56 H :   -0.464385
  57 H :   -0.263635

  Mayer bond orders larger than 0.100000
B(  0-C ,  1-C ) :   0.5605 B(  0-C ,  2-C ) :  -0.2797 B(  0-C ,  5-C ) :   0.5432
B(  0-C ,  6-C ) :  -0.1905 B(  0-C ,  7-O ) :  -0.2176 B(  0-C , 29-H ) :  -0.1276
B(  0-C , 57-H ) :   1.1703 B(  1-C ,  2-C ) :   1.1495 B(  1-C ,  4-C ) :  -0.2263
B(  1-C ,  5-C ) :   0.4777 B(  1-C , 28-H ) :  -0.2295 B(  1-C , 29-H ) :   1.4342
B(  1-C , 57-H ) :  -0.2860 B(  2-C ,  3-N ) :   1.0714 B(  2-C ,  4-C ) :   0.1375
B(  2-C ,  5-C ) :  -0.1464 B(  2-C ,  9-C ) :   0.1045 B(  2-C , 28-H ) :   1.0510
B(  2-C , 29-H ) :  -0.2187 B(  3-N ,  4-C ) :   1.0454 B(  3-N ,  9-C ) :   1.3527
B(  3-N , 13-O ) :  -0.1988 B(  3-N , 22-O ) :   0.1342 B(  3-N , 23-H ) :  -0.1038
B(  4-C ,  5-C ) :   0.6107 B(  4-C ,  6-C ) :  -0.5506 B(  4-C ,  8-N ) :  -0.1439
B(  4-C , 13-O ) :   0.1691 B(  4-C , 30-H ) :   0.9843 B(  4-C , 31-H ) :   0.1194
B(  5-C ,  6-C ) :   1.5357 B(  5-C ,  7-O ) :   0.6764 B(  5-C ,  8-N ) :  -0.3669
B(  5-C , 30-H ) :  -0.2291 B(  5-C , 31-H ) :   0.1599 B(  5-C , 39-C ) :  -0.1571
B(  5-C , 43-H ) :   0.1376 B(  5-C , 57-H ) :  -0.2808 B(  6-C ,  7-O ) :   0.4160
B(  6-C ,  8-N ) :   0.9464 B(  7-O ,  8-N ) :   0.2423 B(  7-O , 36-C ) :   0.1701
B(  7-O , 37-C ) :  -0.2088 B(  8-N , 26-H ) :   0.9704 B(  8-N , 27-H ) :   1.0807
B(  8-N , 41-N ) :   0.1318 B(  9-C , 10-C ) :   0.9205 B(  9-C , 13-O ) :   0.1380
B(  9-C , 14-H ) :   0.6596 B(  9-C , 22-O ) :   0.2184 B( 10-C , 11-C ) :   0.5917
B( 10-C , 13-O ) :   0.2047 B( 10-C , 20-O ) :   0.2739 B( 10-C , 21-H ) :  -0.1774
B( 10-C , 22-O ) :  -0.3248 B( 10-C , 23-H ) :   1.1029 B( 11-C , 12-C ) :   1.0123
B( 11-C , 20-O ) :  -0.2073 B( 11-C , 21-H ) :   1.2229 B( 11-C , 23-H ) :  -0.1374
B( 12-C , 13-O ) :   0.6394 B( 12-C , 15-C ) :   0.2446 B( 12-C , 16-H ) :   0.9741
B( 12-C , 17-H ) :  -0.1641 B( 12-C , 18-H ) :  -0.1621 B( 12-C , 20-O ) :   0.1010
B( 13-O , 15-C ) :   0.1050 B( 13-O , 30-H ) :  -0.1462 B( 15-C , 17-H ) :   1.0787
B( 15-C , 18-H ) :   1.0795 B( 15-C , 19-H ) :   0.9930 B( 20-O , 23-H ) :   0.1066
B( 20-O , 25-H ) :   0.9658 B( 22-O , 23-H ) :   0.1978 B( 22-O , 24-H ) :   0.9272
B( 24-H , 45-N ) :   0.1573 B( 31-H , 37-C ) :   0.1689 B( 31-H , 38-N ) :   0.6428
B( 31-H , 39-C ) :  -0.2561 B( 31-H , 56-H ) :   0.1461 B( 31-H , 57-H ) :  -0.1535
B( 32-C , 33-N ) :   0.9692 B( 32-C , 34-C ) :   0.1243 B( 32-C , 36-C ) :  -0.2467
B( 32-C , 37-C ) :   1.7995 B( 32-C , 38-N ) :  -0.1192 B( 32-C , 39-C ) :  -0.1347
B( 32-C , 49-H ) :  -0.2242 B( 33-N , 34-C ) :   0.9942 B( 33-N , 37-C ) :  -0.3172
B( 33-N , 48-O ) :   0.3684 B( 33-N , 49-H ) :   1.3568 B( 34-C , 35-N ) :   1.6456
B( 34-C , 49-H ) :  -0.1201 B( 34-C , 50-N ) :   0.8096 B( 35-N , 36-C ) :   0.1727
B( 36-C , 37-C ) :   1.4626 B( 36-C , 40-C ) :  -0.1213 B( 36-C , 41-N ) :   0.6002
B( 36-C , 43-H ) :   0.1049 B( 36-C , 53-H ) :  -0.1716 B( 37-C , 38-N ) :   1.0437
B( 37-C , 39-C ) :  -0.2749 B( 37-C , 48-O ) :   1.0323 B( 37-C , 56-H ) :  -0.1649
B( 38-N , 39-C ) :  -1.3192 B( 38-N , 40-C ) :   0.1501 B( 38-N , 43-H ) :   0.1401
B( 38-N , 56-H ) :   1.7197 B( 39-C , 40-C ) :   0.5270 B( 39-C , 41-N ) :  -0.1383
B( 39-C , 43-H ) :   0.1768 B( 39-C , 44-C ) :  -0.4473 B( 39-C , 45-N ) :  -0.2209
B( 39-C , 46-H ) :  -0.2465 B( 39-C , 47-H ) :  -0.4549 B( 39-C , 56-H ) :  -0.6005
B( 40-C , 41-N ) :   1.0157 B( 40-C , 42-H ) :   1.2801 B( 40-C , 43-H ) :   0.3760
B( 40-C , 53-H ) :  -0.2322 B( 41-N , 53-H ) :   1.4210 B( 42-H , 43-H ) :  -0.1753
B( 43-H , 44-C ) :  -0.1270 B( 44-C , 45-N ) :   1.2472 B( 44-C , 46-H ) :   1.1602
B( 44-C , 47-H ) :   1.3119 B( 45-N , 54-H ) :   1.1910 B( 45-N , 55-H ) :   0.9791
B( 50-N , 51-H ) :   0.9851 B( 50-N , 52-H ) :   0.9422

MP2 TOTAL ENERGY:    -1513.848079624 Eh
FINAL SINGLE POINT ENERGY     -1513.848079624415

DIPOLE MOMENT
-------------
                                X             Y             Z
Electronic contribution:     22.93836      -3.10880       3.34200
Nuclear contribution   :    -23.60334       3.17678      -3.60399
                        -----------------------------------------
Total Dipole Moment    :     -0.66498       0.06798      -0.26199
                        -----------------------------------------
Magnitude (a.u.)       :      0.71796
Magnitude (Debye)      :      1.82491

Rotational constants in cm-1:     0.008821     0.003026     0.002807
Rotational constants in MHz :   264.457969    90.723297    84.161390

                             ****ORCA TERMINATED NORMALLY****
TOTAL RUN TIME: 1 days 4 hours 19 minutes 5 seconds 467 msec
