                         Program Version 4.2.1 -  RELEASE  -
|  1> %pal
|  2>  nprocs 32
|  3> end
|  4> !RI-MP2 aug-cc-pVQZ aug-cc-pVQZ/C TightSCF
|  5> %maxcore 4500
|  6> *xyzfile 0 1  10_86R.xyz
|  7>
|  8>
|  9>                          ****END OF INPUT****

CARTESIAN COORDINATES (ANGSTROEM)
---------------------------------
  O      0.526225   -0.763402   -0.113583
  C      1.843292   -0.477764   -0.185635
  C      2.440431    0.690039    0.028864
  C     -2.770539    0.299339   -0.306149
  C     -1.736372   -0.243920    0.315775
  C     -0.348162    0.297447    0.248319
  H     -1.865355   -1.125771    0.936371
  H     -2.656679    1.173014   -0.939424
  H     -3.769490   -0.106373   -0.204951
  H     -0.040575    0.691331    1.225333
  H     -0.277409    1.107964   -0.484897
  H      3.514692    0.748925   -0.070924
  H      1.912724    1.593527    0.298205
  H      2.400388   -1.366248   -0.458088

 Total Charge           Charge          ....    0
 Multiplicity           Mult            ....    1
 Number of Electrons    NEL             ....   46
 Basis Dimension        Dim             ....  848

ORBITAL ENERGIES
----------------

  NO   OCC          E(Eh)            E(eV)
   0   2.0000     -20.584700      -560.1382
   1   2.0000     -11.293575      -307.3138
   2   2.0000     -11.290292      -307.2245
   3   2.0000     -11.238574      -305.8171
   4   2.0000     -11.230686      -305.6025
   5   2.0000     -11.211000      -305.0668
   6   2.0000      -1.414699       -38.4959
   7   2.0000      -1.082499       -29.4563
   8   2.0000      -1.022229       -27.8163
   9   2.0000      -0.943061       -25.6620
  10   2.0000      -0.793490       -21.5919
  11   2.0000      -0.771320       -20.9887
  12   2.0000      -0.690974       -18.8024
  13   2.0000      -0.675512       -18.3816
  14   2.0000      -0.657672       -17.8962
  15   2.0000      -0.615809       -16.7570
  16   2.0000      -0.584335       -15.9006
  17   2.0000      -0.542585       -14.7645
  18   2.0000      -0.521409       -14.1883
  19   2.0000      -0.504028       -13.7153
  20   2.0000      -0.492690       -13.4068
  21   2.0000      -0.378624       -10.3029
  22   2.0000      -0.348098        -9.4722
  23   0.0000       0.025531         0.6947
  24   0.0000       0.030241         0.8229
  25   0.0000       0.032840         0.8936
  26   0.0000       0.038817         1.0563
  27   0.0000       0.043333         1.1791

MULLIKEN ATOMIC CHARGES
-----------------------
   0 O :   -0.754942
   1 C :   -0.122990
   2 C :   -0.964178
   3 C :   -0.834940
   4 C :   -0.528610
   5 C :    0.193118
   6 H :    0.489518
   7 H :    0.351434
   8 H :    0.342848
   9 H :    0.266170
  10 H :    0.261194
  11 H :    0.383455
  12 H :    0.343127
  13 H :    0.574796
Sum of atomic charges:   -0.0000000

LOEWDIN ATOMIC CHARGES
----------------------
   0 O :    0.860981
   1 C :   -0.028952
   2 C :    0.756374
   3 C :    0.794966
   4 C :    0.347410
   5 C :    0.083223
   6 H :   -0.328251
   7 H :   -0.352176
   8 H :   -0.353785
   9 H :   -0.310425
  10 H :   -0.329404
  11 H :   -0.377630
  12 H :   -0.388015
  13 H :   -0.374316

  Mayer bond orders larger than 0.100000
B(  0-O ,  1-C ) :   0.9187 B(  0-O ,  2-C ) :   0.1320 B(  0-O ,  5-C ) :   0.6960
B(  1-C ,  2-C ) :   1.7352 B(  1-C , 13-H ) :   0.6844 B(  2-C , 11-H ) :   0.9079
B(  2-C , 12-H ) :   0.9223 B(  3-C ,  4-C ) :   1.8934 B(  3-C ,  5-C ) :  -0.1226
B(  3-C ,  7-H ) :   0.8790 B(  3-C ,  8-H ) :   0.9506 B(  4-C ,  5-C ) :   0.8652
B(  4-C ,  6-H ) :   0.7239 B(  5-C ,  9-H ) :   0.8540 B(  5-C , 10-H ) :   0.9253

MP2 TOTAL ENERGY:     -270.049193950 Eh
FINAL SINGLE POINT ENERGY      -270.049193949717

DIPOLE MOMENT
-------------
                                X             Y             Z
Electronic contribution:      0.64511      -2.47091      -0.19579
Nuclear contribution   :     -0.79431       2.77742       0.30794
                        -----------------------------------------
Total Dipole Moment    :     -0.14920       0.30651       0.11214
                        -----------------------------------------
Magnitude (a.u.)       :      0.35887
Magnitude (Debye)      :      0.91217

Rotational constants in cm-1:     0.449421     0.055977     0.052097
Rotational constants in MHz : 13473.295223  1678.162727  1561.815873

                             ****ORCA TERMINATED NORMALLY****
TOTAL RUN TIME: 0 days 0 hours 12 minutes 38 seconds 334 msec
