                         Program Version 4.2.1 -  RELEASE  -
|  1> %pal
|  2>  nprocs 32
|  3> end
|  4> !RI-MP2 aug-cc-pVQZ aug-cc-pVQZ/C TightSCF
|  5> %maxcore 4500
|  6> *xyzfile -1 1  05_11P2.xyz
|  7>
|  8>
|  9>                          ****END OF INPUT****

CARTESIAN COORDINATES (ANGSTROEM)
---------------------------------
  C      1.431395   -1.067462    0.068260
  N      1.618570    0.256136   -0.456377
  C      0.941459    1.381205   -0.069438
  N     -0.146468    1.157037    0.731137
  C     -0.777680   -0.154251    0.859306
  C      0.187869   -1.287515    0.666762
  O      1.294747    2.509665   -0.393104
  C     -1.970984   -0.224434   -0.131541
  H     -1.236443   -0.197796    1.852787
  O     -2.881790    0.570609   -0.130471
  O     -1.887655   -1.245679   -0.965819
  H      2.509076    0.415879   -0.901504
  H     -0.753991    1.959248    0.803003
  O      2.375786   -1.851741   -0.093056
  H     -1.007521   -1.668954   -0.693615
  H      0.103100   -2.148673    1.315513

 Total Charge           Charge          ....   -1
 Multiplicity           Mult            ....    1
 Number of Electrons    NEL             ....   82
 Basis Dimension        Dim             .... 1110

ORBITAL ENERGIES
----------------

  NO   OCC          E(Eh)            E(eV)
   0   2.0000     -20.462953      -556.8253
   1   2.0000     -20.407829      -555.3253
   2   2.0000     -20.384297      -554.6849
   3   2.0000     -20.347562      -553.6853
   4   2.0000     -15.455876      -420.5758
   5   2.0000     -15.448958      -420.3875
   6   2.0000     -11.249998      -306.1280
   7   2.0000     -11.239709      -305.8480
   8   2.0000     -11.192237      -304.5563
   9   2.0000     -11.160671      -303.6973
  10   2.0000     -11.040608      -300.4302
  11   2.0000      -1.324041       -36.0290
  12   2.0000      -1.267830       -34.4994
  13   2.0000      -1.226189       -33.3663
  14   2.0000      -1.207395       -32.8549
  15   2.0000      -1.123447       -30.5705
  16   2.0000      -1.063493       -28.9391
  17   2.0000      -0.904967       -24.6254
  18   2.0000      -0.794192       -21.6111
  19   2.0000      -0.717170       -19.5152
  20   2.0000      -0.677414       -18.4334
  21   2.0000      -0.620279       -16.8786
  22   2.0000      -0.612373       -16.6635
  23   2.0000      -0.575673       -15.6649
  24   2.0000      -0.544092       -14.8055
  25   2.0000      -0.521661       -14.1951
  26   2.0000      -0.503532       -13.7018
  27   2.0000      -0.490990       -13.3605
  28   2.0000      -0.478300       -13.0152
  29   2.0000      -0.464205       -12.6317
  30   2.0000      -0.442089       -12.0299
  31   2.0000      -0.424595       -11.5538
  32   2.0000      -0.401500       -10.9254
  33   2.0000      -0.388169       -10.5626
  34   2.0000      -0.345303        -9.3962
  35   2.0000      -0.335157        -9.1201
  36   2.0000      -0.319306        -8.6888
  37   2.0000      -0.279028        -7.5927
  38   2.0000      -0.271507        -7.3881
  39   2.0000      -0.262609        -7.1460
  40   2.0000      -0.158845        -4.3224
  41   0.0000       0.106906         2.9091
  42   0.0000       0.116525         3.1708
  43   0.0000       0.122088         3.3222
  44   0.0000       0.129063         3.5120
  45   0.0000       0.131053         3.5661

MULLIKEN ATOMIC CHARGES
-----------------------
   0 C :    1.056881
   1 N :   -0.752383
   2 C :    1.360212
   3 N :   -0.655057
   4 C :   -0.074426
   5 C :   -0.586257
   6 O :   -0.898134
   7 C :    1.189745
   8 H :    0.323264
   9 O :   -0.885618
  10 O :   -0.955828
  11 H :    0.031764
  12 H :    0.176842
  13 O :   -0.995264
  14 H :    0.446469
  15 H :    0.217791
Sum of atomic charges:   -1.0000000

LOEWDIN ATOMIC CHARGES
----------------------
   0 C :   -0.926009
   1 N :    0.750971
   2 C :   -1.044422
   3 N :    0.809994
   4 C :   -0.141473
   5 C :    0.236783
   6 O :    0.646052
   7 C :   -1.064951
   8 H :   -0.317314
   9 O :    0.633653
  10 O :    1.222790
  11 H :   -0.560217
  12 H :   -0.533509
  13 O :    0.597794
  14 H :   -0.955753
  15 H :   -0.354389

  Mayer bond orders larger than 0.100000
B(  0-C ,  1-N ) :   0.8886 B(  0-C ,  4-C ) :  -0.1475 B(  0-C ,  5-C ) :   1.4896
B(  0-C , 13-O ) :   0.7957 B(  1-N ,  2-C ) :   1.0984 B(  1-N ,  6-O ) :   0.1874
B(  1-N , 11-H ) :   1.1998 B(  1-N , 13-O ) :   0.1453 B(  2-C ,  3-N ) :   1.2048
B(  2-C ,  6-O ) :   1.0528 B(  3-N ,  4-C ) :   0.6853 B(  3-N ,  6-O ) :   0.1813
B(  3-N , 12-H ) :   1.0595 B(  4-C ,  5-C ) :   0.9763 B(  4-C ,  7-C ) :   1.0997
B(  4-C ,  8-H ) :   0.8222 B(  4-C ,  9-O ) :   0.1766 B(  4-C , 10-O ) :   0.1358
B(  5-C , 13-O ) :   0.2775 B(  5-C , 14-H ) :   0.1377 B(  5-C , 15-H ) :   0.9652
B(  7-C ,  9-O ) :   1.2615 B(  7-C , 10-O ) :   0.7777 B(  9-O , 10-O ) :   0.1155
B( 10-O , 14-H ) :   0.6210

MP2 TOTAL ENERGY:     -603.255285040 Eh
FINAL SINGLE POINT ENERGY      -603.255285040134

DIPOLE MOMENT
-------------
                                X             Y             Z
Electronic contribution:     -0.26077       1.75654      -1.55283
Nuclear contribution   :     -0.38195      -1.58052       2.27825
                        -----------------------------------------
Total Dipole Moment    :     -0.64272       0.17602       0.72542
                        -----------------------------------------
Magnitude (a.u.)       :      0.98505
Magnitude (Debye)      :      2.50379

Rotational constants in cm-1:     0.052018     0.034196     0.023498
Rotational constants in MHz :  1559.459078  1025.185259   704.455626

                             ****ORCA TERMINATED NORMALLY****
TOTAL RUN TIME: 0 days 0 hours 39 minutes 8 seconds 73 msec
