                         Program Version 4.2.1 -  RELEASE  -
|  1> %pal
|  2>  nprocs 32
|  3> end
|  4> !RI-MP2 aug-cc-pVQZ aug-cc-pVQZ/C TightSCF
|  5> %maxcore 4500
|  6> *xyzfile -1 1  09_10P.xyz
|  7>
|  8>
|  9>                          ****END OF INPUT****

CARTESIAN COORDINATES (ANGSTROEM)
---------------------------------
  C      0.925359   -0.017711    0.314155
  C      0.024476   -1.242976   -0.002875
  C     -1.359078   -0.993447    0.573992
  H      0.461668   -2.119930    0.471243
  H     -0.029783   -1.457493   -1.081752
  C     -1.988807    0.249931   -0.049063
  C     -1.063427    1.464810    0.035154
  C      0.341077    1.230983   -0.440583
  O      1.027781    0.212364    1.625788
  C      2.335691   -0.313058   -0.225153
  O      2.818049   -1.402728   -0.437883
  O      3.105168    0.798847   -0.361522
  O     -1.478691    2.523487    0.445930
  O     -2.321584   -0.009249   -1.427310
  H     -2.934741    0.495120    0.430638
  O     -2.246523   -2.098615    0.406824
  H     -1.244458   -0.829755    1.644485
  H      3.994931    0.472711   -0.548819
  H     -2.550256   -2.064403   -0.506888
  H     -1.501224   -0.148842   -1.910408
  H      0.946176    2.105328   -0.214916
  H      0.332335    1.083223   -1.531963

 Total Charge           Charge          ....   -1
 Multiplicity           Mult            ....    1
 Number of Electrons    NEL             ....  100
 Basis Dimension        Dim             .... 1454

ORBITAL ENERGIES
----------------

  NO   OCC          E(Eh)            E(eV)
   0   2.0000     -20.470486      -557.0302
   1   2.0000     -20.464674      -556.8721
   2   2.0000     -20.434724      -556.0571
   3   2.0000     -20.421142      -555.6875
   4   2.0000     -20.404610      -555.2377
   5   2.0000     -20.272709      -551.6485
   6   2.0000     -11.231506      -305.6248
   7   2.0000     -11.201011      -304.7950
   8   2.0000     -11.167163      -303.8739
   9   2.0000     -11.148923      -303.3776
  10   2.0000     -11.136262      -303.0331
  11   2.0000     -11.092512      -301.8426
  12   2.0000     -11.079232      -301.4812
  13   2.0000      -1.324416       -36.0392
  14   2.0000      -1.278740       -34.7963
  15   2.0000      -1.258213       -34.2377
  16   2.0000      -1.233481       -33.5647
  17   2.0000      -1.215919       -33.0868
  18   2.0000      -1.105853       -30.0918
  19   2.0000      -0.942484       -25.6463
  20   2.0000      -0.869258       -23.6537
  21   2.0000      -0.845319       -23.0023
  22   2.0000      -0.757957       -20.6251
  23   2.0000      -0.703428       -19.1413
  24   2.0000      -0.647591       -17.6218
  25   2.0000      -0.609485       -16.5849
  26   2.0000      -0.594241       -16.1701
  27   2.0000      -0.567061       -15.4305
  28   2.0000      -0.549333       -14.9481
  29   2.0000      -0.537852       -14.6357
  30   2.0000      -0.524362       -14.2686
  31   2.0000      -0.503464       -13.6999
  32   2.0000      -0.489683       -13.3249
  33   2.0000      -0.484173       -13.1750
  34   2.0000      -0.470866       -12.8129
  35   2.0000      -0.455643       -12.3987
  36   2.0000      -0.443661       -12.0726
  37   2.0000      -0.421892       -11.4803
  38   2.0000      -0.413602       -11.2547
  39   2.0000      -0.404776       -11.0145
  40   2.0000      -0.381898       -10.3920
  41   2.0000      -0.373549       -10.1648
  42   2.0000      -0.351445        -9.5633
  43   2.0000      -0.340751        -9.2723
  44   2.0000      -0.332569        -9.0497
  45   2.0000      -0.323832        -8.8119
  46   2.0000      -0.310924        -8.4607
  47   2.0000      -0.274587        -7.4719
  48   2.0000      -0.190491        -5.1835
  49   2.0000      -0.188377        -5.1260
  50   0.0000       0.103391         2.8134
  51   0.0000       0.106130         2.8879
  52   0.0000       0.112435         3.0595
  53   0.0000       0.114818         3.1243
  54   0.0000       0.126129         3.4322

MULLIKEN ATOMIC CHARGES
-----------------------
   0 C :    1.325237
   1 C :   -0.629820
   2 C :    0.530556
   3 H :    0.240735
   4 H :    0.163740
   5 C :    0.300354
   6 C :    1.104010
   7 C :   -0.915297
   8 O :   -1.344628
   9 C :    1.064602
  10 O :   -0.982495
  11 O :   -0.784540
  12 O :   -1.043273
  13 O :   -1.103113
  14 H :    0.325115
  15 O :   -1.193456
  16 H :    0.376280
  17 H :    0.283002
  18 H :    0.369848
  19 H :    0.376759
  20 H :    0.275092
  21 H :    0.261290
Sum of atomic charges:   -1.0000000

LOEWDIN ATOMIC CHARGES
----------------------
   0 C :   -1.039856
   1 C :    0.402799
   2 C :   -0.238377
   3 H :   -0.296920
   4 H :   -0.285969
   5 C :   -0.230464
   6 C :   -0.657341
   7 C :    0.406838
   8 O :    0.603295
   9 C :   -1.100272
  10 O :    0.692864
  11 O :    1.238949
  12 O :    0.743848
  13 O :    1.304659
  14 H :   -0.337569
  15 O :    1.292112
  16 H :   -0.327536
  17 H :   -0.849858
  18 H :   -0.860023
  19 H :   -0.843417
  20 H :   -0.334381
  21 H :   -0.283381

  Mayer bond orders larger than 0.100000
B(  0-C ,  1-C ) :   0.7982 B(  0-C ,  7-C ) :   0.7926 B(  0-C ,  8-O ) :   0.1260
B(  0-C ,  9-C ) :   1.0368 B(  0-C , 10-O ) :   0.2992 B(  1-C ,  2-C ) :   0.9920
B(  1-C ,  3-H ) :   0.8923 B(  1-C ,  4-H ) :   0.9761 B(  1-C ,  8-O ) :   0.1837
B(  1-C ,  9-C ) :  -0.1005 B(  1-C , 10-O ) :  -0.1222 B(  1-C , 15-O ) :   0.2436
B(  2-C ,  5-C ) :   0.9973 B(  2-C ,  6-C ) :   0.1089 B(  2-C , 13-O ) :   0.1247
B(  2-C , 15-O ) :  -0.1430 B(  2-C , 16-H ) :   0.8828 B(  5-C ,  6-C ) :   0.9002
B(  5-C , 12-O ) :   0.2956 B(  5-C , 13-O ) :   0.2087 B(  5-C , 14-H ) :   0.8715
B(  5-C , 15-O ) :   0.2378 B(  6-C ,  7-C ) :   1.0531 B(  6-C , 12-O ) :   0.3787
B(  6-C , 13-O ) :   0.1679 B(  7-C ,  8-O ) :   0.2327 B(  7-C , 12-O ) :   0.3714
B(  7-C , 20-H ) :   0.9477 B(  7-C , 21-H ) :   0.9336 B(  8-O ,  9-C ) :   0.2585
B(  9-C , 10-O ) :   1.0050 B(  9-C , 11-O ) :   0.7481 B( 11-O , 17-H ) :   0.9631
B( 13-O , 19-H ) :   0.8637 B( 15-O , 18-H ) :   0.8438

MP2 TOTAL ENERGY:     -722.602029234 Eh
FINAL SINGLE POINT ENERGY      -722.602029233880

DIPOLE MOMENT
-------------
                                X             Y             Z
Electronic contribution:      2.15053       2.17487       0.87595
Nuclear contribution   :     -2.46843      -2.42180      -3.18928
                        -----------------------------------------
Total Dipole Moment    :     -0.31790      -0.24693      -2.31334
                        -----------------------------------------
Magnitude (a.u.)       :      2.34810
Magnitude (Debye)      :      5.96839

Rotational constants in cm-1:     0.040761     0.021017     0.016759
Rotational constants in MHz :  1221.982292   630.070670   502.423154

                             ****ORCA TERMINATED NORMALLY****
TOTAL RUN TIME: 0 days 1 hours 30 minutes 56 seconds 335 msec
