                         Program Version 4.2.1 -  RELEASE  -
|  1> %pal
|  2>  nprocs 32
|  3> end
|  4> !RI-MP2 aug-cc-pVQZ aug-cc-pVQZ/C TightSCF
|  5> %maxcore 4500
|  6> *xyzfile 0 2  04_89P1.xyz
|  7>
|  8>
|  9>                          ****END OF INPUT****

CARTESIAN COORDINATES (ANGSTROEM)
---------------------------------
  C      1.041118   -0.578917    0.338243
  C     -0.020913   -0.898082   -0.665864
  C     -1.282738   -1.579558   -0.279090
  H      0.158294   -0.660911   -1.710237
  C     -2.539675   -0.692194   -0.344448
  H     -1.181133   -1.981221    0.733884
  H     -1.454325   -2.441025   -0.934927
  C     -2.548488    0.500502    0.605338
  H     -3.408077   -1.314766   -0.110973
  H     -2.688352   -0.335635   -1.370374
  N     -1.690226    1.602775    0.136132
  H     -2.187702    0.191241    1.590264
  H     -3.582731    0.838962    0.736796
  C      1.806022    0.689067   -0.069261
  N      1.894487   -1.734924    0.579748
  H      0.548285   -0.342652    1.291074
  H      2.367584   -1.991585   -0.280170
  H     -2.004944    1.916279   -0.777973
  H     -1.781534    2.401799    0.756762
  O      2.995716    0.716121   -0.228067
  O      1.047296    1.772865   -0.223045
  H      2.625702   -1.489625    1.239642
  H      0.083055    1.577378   -0.075544

 Total Charge           Charge          ....    0
 Multiplicity           Mult            ....    2
 Number of Electrons    NEL             ....   79
 Basis Dimension        Dim             .... 1398

ORBITAL ENERGIES
----------------
                 SPIN UP ORBITALS
  NO   OCC          E(Eh)            E(eV)
   0   1.0000     -20.571869      -559.7890
   1   1.0000     -20.519816      -558.3726
   2   1.0000     -15.579989      -423.9530
   3   1.0000     -15.540672      -422.8832
   4   1.0000     -11.355648      -309.0029
   5   1.0000     -11.274969      -306.8075
   6   1.0000     -11.271814      -306.7216
   7   1.0000     -11.242335      -305.9195
   8   1.0000     -11.240920      -305.8810
   9   1.0000     -11.233593      -305.6816
  10   1.0000      -1.434611       -39.0377
  11   1.0000      -1.338995       -36.4359
  12   1.0000      -1.217827       -33.1388
  13   1.0000      -1.195386       -32.5281
  14   1.0000      -1.090364       -29.6703
  15   1.0000      -1.013691       -27.5839
  16   1.0000      -0.938428       -25.5359
  17   1.0000      -0.856645       -23.3105
  18   1.0000      -0.809898       -22.0385
  19   1.0000      -0.789800       -21.4916
  20   1.0000      -0.722149       -19.6507
  21   1.0000      -0.695732       -18.9318
  22   1.0000      -0.676215       -18.4007
  23   1.0000      -0.661627       -18.0038
  24   1.0000      -0.647170       -17.6104
  25   1.0000      -0.634125       -17.2554
  26   1.0000      -0.609028       -16.5725
  27   1.0000      -0.596622       -16.2349
  28   1.0000      -0.574042       -15.6205
  29   1.0000      -0.571545       -15.5525
  30   1.0000      -0.558397       -15.1947
  31   1.0000      -0.527471       -14.3532
  32   1.0000      -0.516242       -14.0476
  33   1.0000      -0.506843       -13.7919
  34   1.0000      -0.488458       -13.2916
  35   1.0000      -0.454882       -12.3780
  36   1.0000      -0.451432       -12.2841
  37   1.0000      -0.430674       -11.7192
  38   1.0000      -0.395487       -10.7617
  39   1.0000      -0.349397        -9.5076
  40   0.0000       0.015482         0.4213
  41   0.0000       0.024917         0.6780
  42   0.0000       0.026496         0.7210
  43   0.0000       0.031626         0.8606
  44   0.0000       0.043117         1.1733

                 SPIN DOWN ORBITALS
  NO   OCC          E(Eh)            E(eV)
   0   1.0000     -20.571574      -559.7810
   1   1.0000     -20.520040      -558.3787
   2   1.0000     -15.579520      -423.9403
   3   1.0000     -15.538202      -422.8160
   4   1.0000     -11.355162      -308.9897
   5   1.0000     -11.275127      -306.8118
   6   1.0000     -11.275006      -306.8085
   7   1.0000     -11.240083      -305.8582
   8   1.0000     -11.236846      -305.7701
   9   1.0000     -11.216112      -305.2059
  10   1.0000      -1.434105       -39.0240
  11   1.0000      -1.338972       -36.4353
  12   1.0000      -1.216734       -33.1090
  13   1.0000      -1.186122       -32.2760
  14   1.0000      -1.072994       -29.1976
  15   1.0000      -0.989044       -26.9133
  16   1.0000      -0.937675       -25.5154
  17   1.0000      -0.838987       -22.8300
  18   1.0000      -0.806084       -21.9347
  19   1.0000      -0.768747       -20.9187
  20   1.0000      -0.718233       -19.5441
  21   1.0000      -0.693188       -18.8626
  22   1.0000      -0.666328       -18.1317
  23   1.0000      -0.657275       -17.8854
  24   1.0000      -0.644300       -17.5323
  25   1.0000      -0.629391       -17.1266
  26   1.0000      -0.605765       -16.4837
  27   1.0000      -0.590884       -16.0788
  28   1.0000      -0.570108       -15.5134
  29   1.0000      -0.566982       -15.4284
  30   1.0000      -0.550698       -14.9853
  31   1.0000      -0.512242       -13.9388
  32   1.0000      -0.510972       -13.9043
  33   1.0000      -0.500030       -13.6065
  34   1.0000      -0.485372       -13.2076
  35   1.0000      -0.455054       -12.3826
  36   1.0000      -0.446028       -12.1370
  37   1.0000      -0.426675       -11.6104
  38   1.0000      -0.392652       -10.6846
  39   0.0000       0.015372         0.4183
  40   0.0000       0.024963         0.6793
  41   0.0000       0.026542         0.7223
  42   0.0000       0.031402         0.8545
  43   0.0000       0.042885         1.1670

MULLIKEN ATOMIC CHARGES AND SPIN POPULATIONS
--------------------------------------------
   0 C :    0.115390   -0.176780
   1 C :   -0.154028    1.281059
   2 C :   -0.520442   -0.175227
   3 H :    0.270052   -0.151178
   4 C :   -0.464892    0.074414
   5 H :    0.209380    0.011321
   6 H :    0.278317    0.050136
   7 C :   -0.466444   -0.000377
   8 H :    0.256604   -0.000410
   9 H :    0.276103   -0.007836
  10 N :   -0.276722    0.004918
  11 H :    0.239057    0.002521
  12 H :    0.301007   -0.000112
  13 C :    1.311993    0.018280
  14 N :   -0.887044    0.045207
  15 H :    0.291776    0.025422
  16 H :    0.222555   -0.000559
  17 H :    0.170394    0.002025
  18 H :    0.114009    0.001180
  19 O :   -0.911457   -0.005612
  20 O :   -0.922841    0.001146
  21 H :    0.179310    0.005509
  22 H :    0.367926   -0.005049
Sum of atomic charges         :    0.0000000

LOEWDIN ATOMIC CHARGES AND SPIN POPULATIONS
-------------------------------------------
   0 C :   -0.142658    0.116417
   1 C :    0.408474    0.448479
   2 C :    0.515580    0.119547
   3 H :   -0.274080    0.135490
   4 C :    0.529988    0.026245
   5 H :   -0.291106    0.006170
   6 H :   -0.274274    0.020508
   7 C :    0.413235    0.007113
   8 H :   -0.271501    0.005984
   9 H :   -0.269770    0.005846
  10 N :    1.309158    0.010119
  11 H :   -0.278324    0.000040
  12 H :   -0.266192    0.000439
  13 C :   -1.047894    0.012557
  14 N :    1.280848    0.030685
  15 H :   -0.323958    0.010520
  16 H :   -0.510899    0.012473
  17 H :   -0.446525    0.001582
  18 H :   -0.437513    0.001372
  19 O :    0.670913   -0.002744
  20 O :    1.251560    0.009072
  21 H :   -0.512513    0.006988
  22 H :   -1.032548    0.015098

  Mayer bond orders larger than 0.100000
B(  0-C ,  1-C ) :   0.8460 B(  0-C , 13-C ) :   1.1971 B(  0-C , 14-N ) :   0.4575
B(  0-C , 15-H ) :   0.8279 B(  0-C , 19-O ) :   0.2408 B(  1-C ,  2-C ) :   0.7439
B(  1-C ,  3-H ) :   0.9608 B(  2-C ,  4-C ) :   0.9144 B(  2-C ,  5-H ) :   0.9599
B(  2-C ,  6-H ) :   0.9284 B(  4-C ,  7-C ) :   0.8907 B(  4-C ,  8-H ) :   0.9443
B(  4-C ,  9-H ) :   0.8848 B(  7-C , 10-N ) :   1.1011 B(  7-C , 11-H ) :   0.9329
B(  7-C , 12-H ) :   0.9233 B( 10-N , 17-H ) :   1.0043 B( 10-N , 18-H ) :   1.0877
B( 10-N , 22-H ) :   0.1560 B( 13-C , 19-O ) :   1.0234 B( 13-C , 20-O ) :   0.7991
B( 14-N , 16-H ) :   0.9156 B( 14-N , 21-H ) :   1.0205 B( 19-O , 20-O ) :   0.1547
B( 20-O , 22-H ) :   0.6973

MP2 TOTAL ENERGY:     -495.620928536 Eh
FINAL SINGLE POINT ENERGY      -495.620928536098

DIPOLE MOMENT
-------------
                                X             Y             Z
Electronic contribution:     10.16395       3.55151      -0.89502
Nuclear contribution   :    -12.71394      -3.67215       1.10913
                        -----------------------------------------
Total Dipole Moment    :     -2.54999      -0.12064       0.21411
                        -----------------------------------------
Magnitude (a.u.)       :      2.56180
Magnitude (Debye)      :      6.51159

Rotational constants in cm-1:     0.064884     0.029446     0.022054
Rotational constants in MHz :  1945.175343   882.771851   661.157386

                             ****ORCA TERMINATED NORMALLY****
TOTAL RUN TIME: 0 days 1 hours 38 minutes 44 seconds 774 msec
