                         Program Version 4.2.1 -  RELEASE  -
|  1> %pal
|  2>  nprocs 32
|  3> end
|  4> !RI-MP2 aug-cc-pVQZ aug-cc-pVQZ/C TightSCF
|  5> %maxcore 4500
|  6> *xyzfile 0 2  01_32R.xyz
|  7>
|  8>
|  9>                          ****END OF INPUT****

CARTESIAN COORDINATES (ANGSTROEM)
---------------------------------
  C      0.501988    2.618673    0.116305
  C      0.882398    1.220784   -0.259321
  O     -0.146872    0.474675   -0.767577
  C      2.115901    0.729215   -0.178614
  Si    -1.372299   -0.360107    0.016611
  C     -2.016944   -1.547901   -1.264031
  H     -2.373501   -1.011097   -2.145900
  H     -2.847619   -2.140336   -0.871847
  H     -1.233632   -2.237256   -1.586351
  C     -2.717338    0.823643    0.555162
  H     -2.376269    1.499925    1.342103
  H     -3.578210    0.273750    0.945781
  H     -3.063377    1.431506   -0.284028
  C     -0.658934   -1.243091    1.499650
  H      0.110398   -1.960279    1.205900
  H     -1.439706   -1.786562    2.038528
  H     -0.203234   -0.537617    2.198854
  H      1.370705    3.186421    0.447720
  H      0.052723    3.126065   -0.741121
  H     -0.240260    2.621772    0.919216
  C      2.521547   -0.658639   -0.575342
  C      3.035736   -1.479598    0.556509
  H      3.288169   -0.607109   -1.359105
  H      1.663562   -1.153870   -1.050304
  H      2.733796   -1.268513    1.574135
  H      3.644995   -2.355669    0.372522
  H      2.892499    1.384448    0.200054

 Total Charge           Charge          ....    0
 Multiplicity           Mult            ....    2
 Number of Electrons    NEL             ....   87
 Basis Dimension        Dim             .... 1586

ORBITAL ENERGIES
----------------
                 SPIN UP ORBITALS
  NO   OCC          E(Eh)            E(eV)
   0   1.0000     -68.771712     -1871.3734
   1   1.0000     -20.543319      -559.0121
   2   1.0000     -11.283272      -307.0334
   3   1.0000     -11.223338      -305.4025
   4   1.0000     -11.220518      -305.3258
   5   1.0000     -11.218446      -305.2694
   6   1.0000     -11.205310      -304.9120
   7   1.0000     -11.197421      -304.6973
   8   1.0000     -11.195193      -304.6367
   9   1.0000     -11.195184      -304.6365
  10   1.0000      -6.116551      -166.4398
  11   1.0000      -4.223885      -114.9378
  12   1.0000      -4.223115      -114.9168
  13   1.0000      -4.222981      -114.9131
  14   1.0000      -1.360628       -37.0246
  15   1.0000      -1.076798       -29.3012
  16   1.0000      -1.019397       -27.7392
  17   1.0000      -0.967146       -26.3174
  18   1.0000      -0.933247       -25.3949
  19   1.0000      -0.926274       -25.2052
  20   1.0000      -0.925996       -25.1976
  21   1.0000      -0.827669       -22.5220
  22   1.0000      -0.763846       -20.7853
  23   1.0000      -0.659817       -17.9545
  24   1.0000      -0.647098       -17.6084
  25   1.0000      -0.626127       -17.0378
  26   1.0000      -0.591524       -16.0962
  27   1.0000      -0.588546       -16.0152
  28   1.0000      -0.567508       -15.4427
  29   1.0000      -0.563134       -15.3237
  30   1.0000      -0.559640       -15.2286
  31   1.0000      -0.552382       -15.0311
  32   1.0000      -0.543137       -14.7795
  33   1.0000      -0.540609       -14.7107
  34   1.0000      -0.536714       -14.6047
  35   1.0000      -0.531514       -14.4632
  36   1.0000      -0.522902       -14.2289
  37   1.0000      -0.520879       -14.1738
  38   1.0000      -0.495993       -13.4966
  39   1.0000      -0.473595       -12.8872
  40   1.0000      -0.430715       -11.7204
  41   1.0000      -0.418427       -11.3860
  42   1.0000      -0.350043        -9.5251
  43   1.0000      -0.324464        -8.8291
  44   0.0000       0.020406         0.5553
  45   0.0000       0.028818         0.7842
  46   0.0000       0.029763         0.8099
  47   0.0000       0.032576         0.8864
  48   0.0000       0.041007         1.1159

                 SPIN DOWN ORBITALS
  NO   OCC          E(Eh)            E(eV)
   0   1.0000     -68.771724     -1871.3738
   1   1.0000     -20.543340      -559.0127
   2   1.0000     -11.284599      -307.0696
   3   1.0000     -11.221663      -305.3570
   4   1.0000     -11.220343      -305.3210
   5   1.0000     -11.203579      -304.8649
   6   1.0000     -11.199680      -304.7588
   7   1.0000     -11.197424      -304.6974
   8   1.0000     -11.195185      -304.6365
   9   1.0000     -11.195124      -304.6348
  10   1.0000      -6.116573      -166.4404
  11   1.0000      -4.223914      -114.9386
  12   1.0000      -4.223127      -114.9171
  13   1.0000      -4.222992      -114.9134
  14   1.0000      -1.361163       -37.0391
  15   1.0000      -1.068190       -29.0669
  16   1.0000      -1.004882       -27.3442
  17   1.0000      -0.967087       -26.3158
  18   1.0000      -0.926655       -25.2156
  19   1.0000      -0.926151       -25.2019
  20   1.0000      -0.909067       -24.7370
  21   1.0000      -0.789354       -21.4794
  22   1.0000      -0.758011       -20.6265
  23   1.0000      -0.654173       -17.8010
  24   1.0000      -0.645501       -17.5650
  25   1.0000      -0.623717       -16.9722
  26   1.0000      -0.588855       -16.0236
  27   1.0000      -0.583231       -15.8705
  28   1.0000      -0.565429       -15.3861
  29   1.0000      -0.563001       -15.3200
  30   1.0000      -0.558965       -15.2102
  31   1.0000      -0.551802       -15.0153
  32   1.0000      -0.542474       -14.7615
  33   1.0000      -0.536498       -14.5989
  34   1.0000      -0.531329       -14.4582
  35   1.0000      -0.528450       -14.3799
  36   1.0000      -0.519933       -14.1481
  37   1.0000      -0.505718       -13.7613
  38   1.0000      -0.492534       -13.4025
  39   1.0000      -0.471948       -12.8424
  40   1.0000      -0.430661       -11.7189
  41   1.0000      -0.418153       -11.3785
  42   1.0000      -0.326146        -8.8749
  43   0.0000       0.020469         0.5570
  44   0.0000       0.028749         0.7823
  45   0.0000       0.029922         0.8142
  46   0.0000       0.032629         0.8879
  47   0.0000       0.040913         1.1133

MULLIKEN ATOMIC CHARGES AND SPIN POPULATIONS
--------------------------------------------
   0 C :   -0.873618    0.009015
   1 C :    0.587366   -0.071100
   2 O :   -1.460139   -0.003033
   3 C :   -0.061752    0.089766
   4 Si:    1.886188   -0.000489
   5 C :   -1.230664   -0.000031
   6 H :    0.300093   -0.000036
   7 H :    0.303544    0.000022
   8 H :    0.300757    0.000088
   9 C :   -1.256543   -0.000032
  10 H :    0.263989    0.000061
  11 H :    0.316105    0.000110
  12 H :    0.290417    0.000001
  13 C :   -1.179394    0.010862
  14 H :    0.381519   -0.008510
  15 H :    0.274921    0.000776
  16 H :    0.251941   -0.000558
  17 H :    0.278343   -0.000011
  18 H :    0.242603   -0.002776
  19 H :    0.256316   -0.002666
  20 C :   -0.434906   -0.232223
  21 C :   -0.918504    1.277879
  22 H :    0.366265    0.035678
  23 H :    0.170837    0.084701
  24 H :    0.318509   -0.088942
  25 H :    0.368579   -0.088134
  26 H :    0.257231   -0.010418
Sum of atomic charges         :   -0.0000000

LOEWDIN ATOMIC CHARGES AND SPIN POPULATIONS
-------------------------------------------
   0 C :    0.880199   -0.005348
   1 C :   -0.490722   -0.013096
   2 O :    0.763615   -0.005000
   3 C :    0.326771    0.028120
   4 Si:   -0.124513    0.000532
   5 C :    0.991153    0.000080
   6 H :   -0.337959   -0.000004
   7 H :   -0.339318    0.000013
   8 H :   -0.339736    0.000127
   9 C :    0.994799   -0.000009
  10 H :   -0.349845   -0.000032
  11 H :   -0.336969    0.000003
  12 H :   -0.334456    0.000002
  13 C :    0.994403    0.002614
  14 H :   -0.351414    0.006810
  15 H :   -0.331129    0.000298
  16 H :   -0.332850    0.000342
  17 H :   -0.306280   -0.000277
  18 H :   -0.281195   -0.001074
  19 H :   -0.305115   -0.001056
  20 C :    0.413533    0.152630
  21 C :    0.848082    0.465807
  22 H :   -0.299268    0.019171
  23 H :   -0.338396    0.031079
  24 H :   -0.345146    0.155956
  25 H :   -0.334747    0.152121
  26 H :   -0.333498    0.010192

  Mayer bond orders larger than 0.100000
B(  0-C ,  1-C ) :   0.5879 B(  0-C ,  3-C ) :  -0.1206 B(  0-C , 17-H ) :   1.0108
B(  0-C , 18-H ) :   1.0473 B(  0-C , 19-H ) :   1.0001 B(  1-C ,  2-O ) :   0.3974
B(  1-C ,  3-C ) :   1.1734 B(  1-C , 18-H ) :  -0.1435 B(  1-C , 20-C ) :  -0.2057
B(  1-C , 26-H ) :  -0.1031 B(  2-O ,  3-C ) :   0.1135 B(  2-O ,  4-Si) :   0.1670
B(  3-C , 20-C ) :   0.7811 B(  3-C , 21-C ) :  -0.2236 B(  3-C , 22-H ) :  -0.1138
B(  3-C , 26-H ) :   1.0644 B(  4-Si,  5-C ) :   0.7064 B(  4-Si,  9-C ) :   0.6932
B(  4-Si, 13-C ) :   0.7845 B(  5-C ,  6-H ) :   0.9461 B(  5-C ,  7-H ) :   0.9304
B(  5-C ,  8-H ) :   0.9475 B(  9-C , 10-H ) :   0.9891 B(  9-C , 11-H ) :   0.9399
B(  9-C , 12-H ) :   0.9233 B( 13-C , 14-H ) :   0.8536 B( 13-C , 15-H ) :   1.0280
B( 13-C , 16-H ) :   0.9375 B( 20-C , 21-C ) :   1.0731 B( 20-C , 22-H ) :   0.8798
B( 20-C , 23-H ) :   0.9114 B( 21-C , 24-H ) :   0.9101 B( 21-C , 25-H ) :   0.8882

MP2 TOTAL ENERGY:     -678.672626927 Eh
FINAL SINGLE POINT ENERGY      -678.672626927179

DIPOLE MOMENT
-------------
                                X             Y             Z
Electronic contribution:      1.24736       1.59452      -3.01391
Nuclear contribution   :     -1.57667      -1.56328       3.31653
                        -----------------------------------------
Total Dipole Moment    :     -0.32931       0.03124       0.30261
                        -----------------------------------------
Magnitude (a.u.)       :      0.44833
Magnitude (Debye)      :      1.13955

Rotational constants in cm-1:     0.047082     0.026480     0.021044
Rotational constants in MHz :  1411.477478   793.848867   630.868611

                             ****ORCA TERMINATED NORMALLY****
TOTAL RUN TIME: 0 days 3 hours 53 minutes 37 seconds 0 msec
