                         Program Version 4.2.1 -  RELEASE  -
|  1> %pal
|  2>  nprocs 32
|  3> end
|  4> !RI-MP2 aug-cc-pVQZ aug-cc-pVQZ/C TightSCF
|  5> %maxcore 4500
|  6> *xyzfile -1 1  05_17R1.xyz
|  7>
|  8>
|  9>                          ****END OF INPUT****

CARTESIAN COORDINATES (ANGSTROEM)
---------------------------------
  N      1.876473   -1.331038   -0.027182
  C      3.065767   -0.702625   -0.197296
  N      3.052487    0.699730   -0.197280
  C      1.948026    1.515967    0.000154
  C      0.761850    0.788771    0.213903
  C      0.792533   -0.585751    0.167493
  N     -0.433870   -1.259625    0.346111
  N     -0.443962    1.482052    0.501372
  C     -1.625479    0.853149    0.166885
  C     -1.628550   -0.562992    0.098165
  C     -2.821461   -1.213259   -0.183420
  C     -2.807075    1.547483   -0.052410
  C     -4.001220    0.876246   -0.312527
  C     -4.010220   -0.501631   -0.377671
  H     -4.927486   -1.040691   -0.582388
  H     -2.838414   -2.291905   -0.246938
  H     -2.787316    2.630878   -0.000746
  H     -4.912804    1.442389   -0.465610
  O      4.143784   -1.274005   -0.359699
  O      2.043505    2.754645   -0.011053
  H     -0.371557    2.472380    0.312533
  H      3.940680    1.156393   -0.338667
  C     -0.446591   -2.703339    0.312437
  H      0.557623   -3.048154    0.538206
  H     -0.726110   -3.090280   -0.676796
  H     -1.156304   -3.086090    1.051016

 Total Charge           Charge          ....   -1
 Multiplicity           Mult            ....    1
 Number of Electrons    NEL             ....  120
 Basis Dimension        Dim             .... 1774

ORBITAL ENERGIES
----------------

  NO   OCC          E(Eh)            E(eV)
   0   2.0000     -20.367009      -554.2145
   1   2.0000     -20.351898      -553.8033
   2   2.0000     -15.471665      -421.0054
   3   2.0000     -15.450357      -420.4256
   4   2.0000     -15.449181      -420.3936
   5   2.0000     -15.382309      -418.5739
   6   2.0000     -11.218276      -305.2648
   7   2.0000     -11.203666      -304.8673
   8   2.0000     -11.191984      -304.5494
   9   2.0000     -11.172476      -304.0185
  10   2.0000     -11.171353      -303.9880
  11   2.0000     -11.142405      -303.2003
  12   2.0000     -11.131376      -302.9001
  13   2.0000     -11.129477      -302.8485
  14   2.0000     -11.125522      -302.7409
  15   2.0000     -11.123664      -302.6903
  16   2.0000     -11.096088      -301.9399
  17   2.0000      -1.243838       -33.8465
  18   2.0000      -1.214704       -33.0538
  19   2.0000      -1.188285       -32.3349
  20   2.0000      -1.119357       -30.4592
  21   2.0000      -1.098445       -29.8902
  22   2.0000      -1.048085       -28.5198
  23   2.0000      -1.022374       -27.8202
  24   2.0000      -0.913443       -24.8560
  25   2.0000      -0.908822       -24.7303
  26   2.0000      -0.876353       -23.8468
  27   2.0000      -0.813985       -22.1497
  28   2.0000      -0.758997       -20.6533
  29   2.0000      -0.724807       -19.7230
  30   2.0000      -0.699622       -19.0377
  31   2.0000      -0.677961       -18.4483
  32   2.0000      -0.631431       -17.1821
  33   2.0000      -0.600697       -16.3458
  34   2.0000      -0.579317       -15.7640
  35   2.0000      -0.561688       -15.2843
  36   2.0000      -0.540056       -14.6957
  37   2.0000      -0.529707       -14.4140
  38   2.0000      -0.522162       -14.2088
  39   2.0000      -0.506001       -13.7690
  40   2.0000      -0.494251       -13.4493
  41   2.0000      -0.483952       -13.1690
  42   2.0000      -0.473707       -12.8902
  43   2.0000      -0.460064       -12.5190
  44   2.0000      -0.453850       -12.3499
  45   2.0000      -0.445246       -12.1157
  46   2.0000      -0.433602       -11.7989
  47   2.0000      -0.410743       -11.1769
  48   2.0000      -0.397714       -10.8224
  49   2.0000      -0.394991       -10.7483
  50   2.0000      -0.371215       -10.1013
  51   2.0000      -0.352414        -9.5897
  52   2.0000      -0.308229        -8.3873
  53   2.0000      -0.289481        -7.8772
  54   2.0000      -0.283817        -7.7231
  55   2.0000      -0.272628        -7.4186
  56   2.0000      -0.269220        -7.3259
  57   2.0000      -0.225512        -6.1365
  58   2.0000      -0.189819        -5.1652
  59   2.0000      -0.119107        -3.2411
  60   0.0000       0.083402         2.2695
  61   0.0000       0.089821         2.4442
  62   0.0000       0.101409         2.7595
  63   0.0000       0.107298         2.9197
  64   0.0000       0.111058         3.0220

MULLIKEN ATOMIC CHARGES
-----------------------
   0 N :   -0.929138
   1 C :    1.124859
   2 N :   -0.804926
   3 C :    1.640231
   4 C :   -0.612232
   5 C :    1.047431
   6 N :   -0.242782
   7 N :   -0.704439
   8 C :    0.830844
   9 C :    0.631891
  10 C :   -0.463235
  11 C :   -0.652510
  12 C :   -0.394381
  13 C :   -0.551788
  14 H :    0.218687
  15 H :    0.185344
  16 H :    0.224650
  17 H :    0.228414
  18 O :   -0.985192
  19 O :   -0.993932
  20 H :    0.245551
  21 H :   -0.017645
  22 C :   -0.989139
  23 H :    0.392057
  24 H :    0.296849
  25 H :    0.274534
Sum of atomic charges:   -1.0000000

LOEWDIN ATOMIC CHARGES
----------------------
   0 N :    0.529226
   1 C :   -1.175577
   2 N :    0.733019
   3 C :   -0.923254
   4 C :   -0.316045
   5 C :   -0.542492
   6 N :    0.453079
   7 N :    0.836838
   8 C :   -0.231103
   9 C :   -0.216694
  10 C :    0.329354
  11 C :    0.338822
  12 C :    0.307310
  13 C :    0.318636
  14 H :   -0.338591
  15 H :   -0.365540
  16 H :   -0.325299
  17 H :   -0.335515
  18 O :    0.572789
  19 O :    0.636748
  20 H :   -0.548340
  21 H :   -0.542009
  22 C :    0.730401
  23 H :   -0.370988
  24 H :   -0.267335
  25 H :   -0.287440

  Mayer bond orders larger than 0.100000
B(  0-N ,  1-C ) :   1.5434 B(  0-N ,  4-C ) :   0.1323 B(  0-N ,  5-C ) :   0.6250
B(  0-N ,  6-N ) :   0.1402 B(  0-N , 23-H ) :   0.1042 B(  1-C ,  2-N ) :   1.0528
B(  1-C , 18-O ) :   1.0268 B(  2-N ,  3-C ) :   0.9577 B(  2-N ,  4-C ) :  -0.1080
B(  2-N , 18-O ) :   0.1763 B(  2-N , 19-O ) :   0.2798 B(  2-N , 21-H ) :   1.2997
B(  3-C ,  4-C ) :   1.6991 B(  3-C ,  5-C ) :  -0.3858 B(  3-C , 19-O ) :   0.3247
B(  3-C , 21-H ) :  -0.1198 B(  4-C ,  5-C ) :   1.1986 B(  4-C ,  7-N ) :   0.5332
B(  4-C ,  8-C ) :  -0.1253 B(  4-C , 19-O ) :   0.7703 B(  5-C ,  6-N ) :   1.0764
B(  5-C ,  7-N ) :   0.1001 B(  6-N ,  7-N ) :  -0.1141 B(  6-N ,  9-C ) :   0.5622
B(  6-N , 10-C ) :  -0.1671 B(  6-N , 22-C ) :   0.8843 B(  7-N ,  8-C ) :   0.4322
B(  7-N , 20-H ) :   1.0317 B(  8-C ,  9-C ) :   1.2467 B(  8-C , 10-C ) :  -0.2788
B(  8-C , 11-C ) :   1.0083 B(  8-C , 12-C ) :  -0.3100 B(  8-C , 16-H ) :  -0.1331
B(  8-C , 20-H ) :  -0.1343 B(  9-C , 10-C ) :   1.2713 B(  9-C , 11-C ) :  -0.2547
B(  9-C , 13-C ) :  -0.3142 B(  9-C , 22-C ) :  -0.1315 B( 10-C , 11-C ) :   0.1245
B( 10-C , 13-C ) :   1.0300 B( 10-C , 14-H ) :  -0.1621 B( 10-C , 15-H ) :   1.0703
B( 11-C , 12-C ) :   1.2747 B( 11-C , 13-C ) :   0.1710 B( 11-C , 16-H ) :   1.0249
B( 11-C , 17-H ) :  -0.1782 B( 12-C , 13-C ) :   1.3400 B( 12-C , 17-H ) :   1.1713
B( 13-C , 14-H ) :   1.1640 B( 13-C , 17-H ) :  -0.1293 B( 22-C , 23-H ) :   0.7886
B( 22-C , 24-H ) :   0.9921 B( 22-C , 25-H ) :   0.9897

MP2 TOTAL ENERGY:     -792.950230789 Eh
FINAL SINGLE POINT ENERGY      -792.950230788720

DIPOLE MOMENT
-------------
                                X             Y             Z
Electronic contribution:      9.24581       4.50705       0.50540
Nuclear contribution   :    -12.77299      -4.71333      -0.40129
                        -----------------------------------------
Total Dipole Moment    :     -3.52718      -0.20628       0.10410
                        -----------------------------------------
Magnitude (a.u.)       :      3.53474
Magnitude (Debye)      :      8.98459

Rotational constants in cm-1:     0.033420     0.011704     0.008821
Rotational constants in MHz :  1001.894473   350.886592   264.444853

                             ****ORCA TERMINATED NORMALLY****
TOTAL RUN TIME: 0 days 3 hours 15 minutes 25 seconds 768 msec
