                         Program Version 4.2.1 -  RELEASE  -
|  1> %pal
|  2>  nprocs 32
|  3> end
|  4> !RI-MP2 aug-cc-pVQZ aug-cc-pVQZ/C TightSCF
|  5> %maxcore 4500
|  6> *xyzfile 0 1  08_2P1.xyz
|  7>
|  8>
|  9>                          ****END OF INPUT****

CARTESIAN COORDINATES (ANGSTROEM)
---------------------------------
  Cl     0.659402    0.000000    0.000000
  C     -1.130674    0.000000    0.000000
  H     -1.475263   -0.580448    0.850841
  H     -1.475264   -0.446627   -0.928102
  H     -1.475262    1.027075    0.077262

 Total Charge           Charge          ....    0
 Multiplicity           Mult            ....    1
 Number of Electrons    NEL             ....   26
 Basis Dimension        Dim             ....  302

ORBITAL ENERGIES
----------------

  NO   OCC          E(Eh)            E(eV)
   0   2.0000    -104.824395     -2852.4168
   1   2.0000     -11.290482      -307.2296
   2   2.0000     -10.549713      -287.0723
   3   2.0000      -8.016829      -218.1490
   4   2.0000      -8.015127      -218.1027
   5   2.0000      -8.015127      -218.1027
   6   2.0000      -1.125584       -30.6287
   7   2.0000      -0.915711       -24.9178
   8   2.0000      -0.617639       -16.8068
   9   2.0000      -0.617639       -16.8068
  10   2.0000      -0.544437       -14.8149
  11   2.0000      -0.435934       -11.8624
  12   2.0000      -0.435934       -11.8624
  13   0.0000       0.025056         0.6818
  14   0.0000       0.041663         1.1337
  15   0.0000       0.041663         1.1337
  16   0.0000       0.055712         1.5160
  17   0.0000       0.097560         2.6547

MULLIKEN ATOMIC CHARGES
-----------------------
   0 Cl:   -0.187238
   1 C :   -0.685390
   2 H :    0.290876
   3 H :    0.290876
   4 H :    0.290876
Sum of atomic charges:    0.0000000

LOEWDIN ATOMIC CHARGES
----------------------
   0 Cl:    1.036195
   1 C :    0.231976
   2 H :   -0.422724
   3 H :   -0.422724
   4 H :   -0.422723

  Mayer bond orders larger than 0.100000
B(  0-Cl,  1-C ) :   0.9324 B(  1-C ,  2-H ) :   0.8934 B(  1-C ,  3-H ) :   0.8934
B(  1-C ,  4-H ) :   0.8934

MP2 TOTAL ENERGY:     -499.561891629 Eh
FINAL SINGLE POINT ENERGY      -499.561891629230

DIPOLE MOMENT
-------------
                                X             Y             Z
Electronic contribution:      4.34940      -0.00000      -0.00000
Nuclear contribution   :     -5.19283       0.00000       0.00000
                        -----------------------------------------
Total Dipole Moment    :     -0.84344      -0.00000       0.00000
                        -----------------------------------------
Magnitude (a.u.)       :      0.84344
Magnitude (Debye)      :      2.14385

Rotational constants in cm-1:     5.254857     0.439093     0.439093
Rotational constants in MHz : 157536.646465 13163.674983 13163.673081

                             ****ORCA TERMINATED NORMALLY****
TOTAL RUN TIME: 0 days 0 hours 0 minutes 29 seconds 522 msec
