                         Program Version 4.2.1 -  RELEASE  -
|  1> %pal
|  2>  nprocs 32
|  3> end
|  4> !RI-MP2 aug-cc-pVQZ aug-cc-pVQZ/C TightSCF
|  5> %maxcore 4500
|  6> *xyzfile 0 1  10_81TS.xyz
|  7>
|  8>
|  9>                          ****END OF INPUT****

CARTESIAN COORDINATES (ANGSTROEM)
---------------------------------
  C      2.663683   -1.294692    0.042394
  C      2.226563   -0.297431    1.108985
  C      0.816423    0.190604    0.904386
  C     -0.138170   -0.620621    0.319251
  C      0.265892   -1.806644   -0.518859
  C      1.615802   -2.390777   -0.112061
  H      3.633368   -1.722527    0.306134
  H      2.791598   -0.779549   -0.915970
  H      2.917875    0.543711    1.170235
  H      2.266247   -0.776585    2.095107
  H     -0.509039   -2.573829   -0.477273
  H      0.307575   -1.476823   -1.565918
  H      1.931330   -3.127943   -0.853207
  H      1.509108   -2.924151    0.838249
  C     -1.476179   -0.173211    0.250312
  C     -1.943006    0.773613    1.223820
  C     -2.489337   -1.035465   -0.287204
  H      0.473073    0.953677    1.594194
  N     -2.294114    1.550406    1.993673
  N     -3.290419   -1.715680   -0.751314
  C     -1.413751    1.302680   -1.414734
  H     -2.254041    1.895023   -1.070766
  C     -0.149937    1.746429   -1.211368
  H     -1.616930    0.642258   -2.251501
  C      0.976130    1.760952   -0.698393
  C      2.318596    2.342087   -0.585758
  H      2.398774    3.184703   -1.274708
  H      2.509224    2.712209    0.423259
  H      3.097308    1.621602   -0.838975

 Total Charge           Charge          ....    0
 Multiplicity           Mult            ....    1
 Number of Electrons    NEL             ....  106
 Basis Dimension        Dim             .... 1844

ORBITAL ENERGIES
----------------

  NO   OCC          E(Eh)            E(eV)
   0   2.0000     -15.575233      -423.8236
   1   2.0000     -15.573493      -423.7763
   2   2.0000     -11.322341      -308.0966
   3   2.0000     -11.293418      -307.3095
   4   2.0000     -11.284239      -307.0598
   5   2.0000     -11.282686      -307.0175
   6   2.0000     -11.279477      -306.9302
   7   2.0000     -11.274975      -306.8077
   8   2.0000     -11.269134      -306.6487
   9   2.0000     -11.265757      -306.5568
  10   2.0000     -11.246970      -306.0456
  11   2.0000     -11.246470      -306.0320
  12   2.0000     -11.246331      -306.0282
  13   2.0000     -11.239044      -305.8299
  14   2.0000     -11.238105      -305.8044
  15   2.0000      -1.243642       -33.8412
  16   2.0000      -1.226047       -33.3624
  17   2.0000      -1.173935       -31.9444
  18   2.0000      -1.111382       -30.2422
  19   2.0000      -1.096577       -29.8394
  20   2.0000      -1.039498       -28.2862
  21   2.0000      -1.027000       -27.9461
  22   2.0000      -0.998812       -27.1790
  23   2.0000      -0.927690       -25.2437
  24   2.0000      -0.880373       -23.9562
  25   2.0000      -0.849952       -23.1284
  26   2.0000      -0.776028       -21.1168
  27   2.0000      -0.751972       -20.4622
  28   2.0000      -0.711108       -19.3502
  29   2.0000      -0.700006       -19.0481
  30   2.0000      -0.656806       -17.8726
  31   2.0000      -0.641761       -17.4632
  32   2.0000      -0.637002       -17.3337
  33   2.0000      -0.621829       -16.9208
  34   2.0000      -0.612971       -16.6798
  35   2.0000      -0.607066       -16.5191
  36   2.0000      -0.596938       -16.2435
  37   2.0000      -0.581632       -15.8270
  38   2.0000      -0.574937       -15.6448
  39   2.0000      -0.570384       -15.5209
  40   2.0000      -0.563125       -15.3234
  41   2.0000      -0.555699       -15.1213
  42   2.0000      -0.539027       -14.6677
  43   2.0000      -0.492345       -13.3974
  44   2.0000      -0.489864       -13.3299
  45   2.0000      -0.484258       -13.1773
  46   2.0000      -0.481699       -13.1077
  47   2.0000      -0.477002       -12.9799
  48   2.0000      -0.469344       -12.7715
  49   2.0000      -0.465794       -12.6749
  50   2.0000      -0.396004       -10.7758
  51   2.0000      -0.347063        -9.4441
  52   2.0000      -0.336755        -9.1636
  53   0.0000       0.014544         0.3958
  54   0.0000       0.022552         0.6137
  55   0.0000       0.024059         0.6547
  56   0.0000       0.030322         0.8251
  57   0.0000       0.036692         0.9984

MULLIKEN ATOMIC CHARGES
-----------------------
   0 C :   -0.496695
   1 C :   -0.603204
   2 C :    0.194239
   3 C :    1.019178
   4 C :   -0.465761
   5 C :   -0.605039
   6 H :    0.269288
   7 H :    0.167167
   8 H :    0.229566
   9 H :    0.197432
  10 H :    0.306669
  11 H :    0.163930
  12 H :    0.234085
  13 H :    0.189006
  14 C :   -0.588580
  15 C :    0.780471
  16 C :    0.832537
  17 H :    0.242811
  18 N :   -1.003428
  19 N :   -1.024104
  20 C :   -0.573538
  21 H :    0.346448
  22 C :   -0.038765
  23 H :    0.338485
  24 C :   -0.170932
  25 C :   -0.619649
  26 H :    0.250997
  27 H :    0.230498
  28 H :    0.196889
Sum of atomic charges:    0.0000000

LOEWDIN ATOMIC CHARGES
----------------------
   0 C :    0.538539
   1 C :    0.525219
   2 C :    0.297742
   3 C :   -0.114176
   4 C :    0.518232
   5 C :    0.554611
   6 H :   -0.247235
   7 H :   -0.268573
   8 H :   -0.313689
   9 H :   -0.250641
  10 H :   -0.296537
  11 H :   -0.246921
  12 H :   -0.250816
  13 H :   -0.254178
  14 C :   -0.353926
  15 C :   -0.378458
  16 C :   -0.362187
  17 H :   -0.322853
  18 N :    0.483599
  19 N :    0.469063
  20 C :    0.632524
  21 H :   -0.329631
  22 C :    0.167968
  23 H :   -0.314078
  24 C :    0.131169
  25 C :    0.878555
  26 H :   -0.289370
  27 H :   -0.289669
  28 H :   -0.314284

  Mayer bond orders larger than 0.100000
B(  0-C ,  1-C ) :   0.8058 B(  0-C ,  5-C ) :   0.9490 B(  0-C ,  6-H ) :   0.9442
B(  0-C ,  7-H ) :   1.0122 B(  1-C ,  2-C ) :   0.4895 B(  1-C ,  3-C ) :  -0.1355
B(  1-C ,  8-H ) :   1.1166 B(  1-C ,  9-H ) :   1.0581 B(  2-C ,  3-C ) :   1.1868
B(  2-C ,  8-H ) :  -0.1866 B(  2-C ,  9-H ) :  -0.1207 B(  2-C , 14-C ) :  -0.4371
B(  2-C , 17-H ) :   1.0541 B(  2-C , 20-C ) :   0.1501 B(  2-C , 24-C ) :   0.2845
B(  3-C ,  4-C ) :   0.6711 B(  3-C ,  5-C ) :  -0.1650 B(  3-C , 10-H ) :  -0.1014
B(  3-C , 14-C ) :   0.3400 B(  3-C , 15-C ) :  -0.3849 B(  3-C , 16-C ) :  -0.4544
B(  4-C ,  5-C ) :   0.8338 B(  4-C , 10-H ) :   0.9410 B(  4-C , 11-H ) :   0.9420
B(  4-C , 12-H ) :  -0.1049 B(  5-C , 12-H ) :   1.0125 B(  5-C , 13-H ) :   1.0276
B( 14-C , 15-C ) :   1.5306 B( 14-C , 16-C ) :   1.5976 B( 14-C , 18-N ) :   0.2052
B( 14-C , 19-N ) :   0.2591 B( 14-C , 20-C ) :   0.3169 B( 15-C , 18-N ) :   1.8924
B( 16-C , 19-N ) :   1.8019 B( 20-C , 21-H ) :   0.9531 B( 20-C , 22-C ) :   1.3333
B( 20-C , 23-H ) :   0.9144 B( 20-C , 24-C ) :  -0.1965 B( 22-C , 24-C ) :   2.2553
B( 24-C , 25-C ) :   0.3233 B( 24-C , 26-H ) :  -0.1049 B( 24-C , 27-H ) :  -0.1459
B( 24-C , 28-H ) :  -0.1550 B( 25-C , 26-H ) :   1.0412 B( 25-C , 27-H ) :   1.0640
B( 25-C , 28-H ) :   1.0661

MP2 TOTAL ENERGY:     -612.094698796 Eh
FINAL SINGLE POINT ENERGY      -612.094698796332

DIPOLE MOMENT
-------------
                                X             Y             Z
Electronic contribution:    -16.78793       1.95727       2.17550
Nuclear contribution   :     19.50172      -1.83664      -2.82530
                        -----------------------------------------
Total Dipole Moment    :      2.71379       0.12063      -0.64980
                        -----------------------------------------
Magnitude (a.u.)       :      2.79310
Magnitude (Debye)      :      7.09951

Rotational constants in cm-1:     0.026636     0.018475     0.014373
Rotational constants in MHz :   798.513830   553.860935   430.877337

                             ****ORCA TERMINATED NORMALLY****
TOTAL RUN TIME: 0 days 4 hours 0 minutes 51 seconds 314 msec
