                         Program Version 4.2.1 -  RELEASE  -
|  1> %pal
|  2>  nprocs 32
|  3> end
|  4> !RI-MP2 aug-cc-pVQZ aug-cc-pVQZ/C TightSCF
|  5> %maxcore 4500
|  6> *xyzfile 1 1  10_28TS.xyz
|  7>
|  8>
|  9>                          ****END OF INPUT****

CARTESIAN COORDINATES (ANGSTROEM)
---------------------------------
  C     -1.640327    3.206491   -0.428363
  C     -1.199830    2.068530    0.508816
  C      0.703688    3.132876    0.123798
  C     -0.300801    3.946180   -0.710578
  H     -2.119481    2.821796   -1.327120
  H     -2.356699    3.847788    0.085593
  H     -0.033819    3.956317   -1.768144
  H     -0.325965    4.981915   -0.371608
  C     -0.119201    2.744809    1.354224
  H      0.396700    2.073605    2.038919
  H     -0.497728    3.609282    1.896061
  H     -1.994362    1.527489    1.005149
  H      1.680056    3.582133    0.284497
  N      0.864047    1.790581   -0.489534
  N     -0.367132    1.170134   -0.326390
  C     -0.435275   -0.147731   -0.552651
  C     -1.645729   -0.928836   -0.233220
  C     -2.180900   -0.995635    1.054386
  C     -2.241653   -1.662524   -1.257585
  C     -3.309224   -1.758033    1.301932
  H     -1.700225   -0.477047    1.875306
  C     -3.376546   -2.419863   -1.009382
  H     -1.820426   -1.634533   -2.255973
  C     -3.912848   -2.465448    0.268760
  H     -3.714309   -1.810984    2.304518
  H     -3.837618   -2.978652   -1.813731
  H     -4.794587   -3.062178    0.465531
  H      0.076552   -0.462513   -1.452595
  H      1.161861    1.803570   -1.461606
  C      2.118967    0.052873    0.616611
  H      2.224055    0.783467    1.405827
  C      1.156931   -0.939930    0.569152
  H      0.537645   -1.169992    1.427182
  C      1.757975   -2.043813   -0.300931
  C      3.274306   -0.374330   -0.243065
  C      2.565488   -1.215501   -1.315133
  H      1.046188   -2.765959   -0.698051
  H      3.259512   -1.822216   -1.897038
  H      1.966687   -0.626354   -2.011789
  H      3.955565    0.407757   -0.570343
  C      2.910110   -2.660545    0.535217
  C      3.950154   -1.508705    0.595454
  H      3.319019   -3.535649    0.029185
  H      2.572136   -2.978697    1.521318
  H      4.891656   -1.790841    0.122852
  H      4.177469   -1.189699    1.612866

 Total Charge           Charge          ....    1
 Multiplicity           Mult            ....    1
 Number of Electrons    NEL             ....  152
 Basis Dimension        Dim             .... 2830

ORBITAL ENERGIES
----------------

  NO   OCC          E(Eh)            E(eV)
   0   2.0000     -15.767124      -429.0453
   1   2.0000     -15.749762      -428.5728
   2   2.0000     -11.461404      -311.8807
   3   2.0000     -11.407592      -310.4164
   4   2.0000     -11.401382      -310.2474
   5   2.0000     -11.397213      -310.1339
   6   2.0000     -11.371976      -309.4472
   7   2.0000     -11.360274      -309.1288
   8   2.0000     -11.359722      -309.1138
   9   2.0000     -11.359089      -309.0965
  10   2.0000     -11.353310      -308.9393
  11   2.0000     -11.350334      -308.8583
  12   2.0000     -11.348301      -308.8030
  13   2.0000     -11.348287      -308.8026
  14   2.0000     -11.347714      -308.7870
  15   2.0000     -11.346508      -308.7542
  16   2.0000     -11.345580      -308.7289
  17   2.0000     -11.343024      -308.6594
  18   2.0000     -11.338421      -308.5341
  19   2.0000     -11.332657      -308.3773
  20   2.0000     -11.323872      -308.1382
  21   2.0000      -1.512846       -41.1666
  22   2.0000      -1.312640       -35.7187
  23   2.0000      -1.302254       -35.4361
  24   2.0000      -1.270181       -34.5634
  25   2.0000      -1.246368       -33.9154
  26   2.0000      -1.164936       -31.6995
  27   2.0000      -1.139321       -31.0025
  28   2.0000      -1.131200       -30.7815
  29   2.0000      -1.110875       -30.2284
  30   2.0000      -1.100734       -29.9525
  31   2.0000      -1.082345       -29.4521
  32   2.0000      -1.070124       -29.1196
  33   2.0000      -1.003427       -27.3046
  34   2.0000      -0.964487       -26.2450
  35   2.0000      -0.952521       -25.9194
  36   2.0000      -0.922876       -25.1127
  37   2.0000      -0.921201       -25.0672
  38   2.0000      -0.902556       -24.5598
  39   2.0000      -0.890917       -24.2431
  40   2.0000      -0.864077       -23.5127
  41   2.0000      -0.842517       -22.9260
  42   2.0000      -0.833887       -22.6912
  43   2.0000      -0.819562       -22.3014
  44   2.0000      -0.806372       -21.9425
  45   2.0000      -0.795522       -21.6473
  46   2.0000      -0.783344       -21.3159
  47   2.0000      -0.763438       -20.7742
  48   2.0000      -0.753712       -20.5096
  49   2.0000      -0.738179       -20.0869
  50   2.0000      -0.727829       -19.8052
  51   2.0000      -0.721408       -19.6305
  52   2.0000      -0.709284       -19.3006
  53   2.0000      -0.699810       -19.0428
  54   2.0000      -0.687890       -18.7184
  55   2.0000      -0.667624       -18.1670
  56   2.0000      -0.662004       -18.0140
  57   2.0000      -0.660079       -17.9617
  58   2.0000      -0.648561       -17.6482
  59   2.0000      -0.638997       -17.3880
  60   2.0000      -0.631506       -17.1841
  61   2.0000      -0.623324       -16.9615
  62   2.0000      -0.622477       -16.9384
  63   2.0000      -0.615756       -16.7556
  64   2.0000      -0.613697       -16.6995
  65   2.0000      -0.608378       -16.5548
  66   2.0000      -0.604613       -16.4524
  67   2.0000      -0.597632       -16.2624
  68   2.0000      -0.593691       -16.1551
  69   2.0000      -0.582536       -15.8516
  70   2.0000      -0.577437       -15.7129
  71   2.0000      -0.556469       -15.1423
  72   2.0000      -0.514285       -13.9944
  73   2.0000      -0.458695       -12.4817
  74   2.0000      -0.455737       -12.4012
  75   2.0000      -0.444017       -12.0823
  76   0.0000      -0.069955        -1.9036
  77   0.0000      -0.061929        -1.6852
  78   0.0000      -0.055377        -1.5069
  79   0.0000      -0.050934        -1.3860
  80   0.0000      -0.046951        -1.2776

MULLIKEN ATOMIC CHARGES
-----------------------
   0 C :   -0.775783
   1 C :   -0.025943
   2 C :    0.017674
   3 C :   -0.710056
   4 H :    0.251633
   5 H :    0.218862
   6 H :    0.249284
   7 H :    0.224890
   8 C :   -0.793450
   9 H :    0.306022
  10 H :    0.154717
  11 H :    0.467676
  12 H :    0.399674
  13 N :   -0.545733
  14 N :    0.012791
  15 C :    1.479290
  16 C :    0.807646
  17 C :   -0.789588
  18 C :   -0.646723
  19 C :   -0.299193
  20 H :    0.232313
  21 C :   -0.488440
  22 H :    0.233762
  23 C :   -0.421047
  24 H :    0.237444
  25 H :    0.220858
  26 H :    0.365359
  27 H :    0.280802
  28 H :    0.082518
  29 C :   -0.007862
  30 H :    0.281285
  31 C :    0.107837
  32 H :    0.326808
  33 C :    0.216766
  34 C :   -0.119706
  35 C :   -0.852063
  36 H :    0.392094
  37 H :    0.091959
  38 H :    0.252892
  39 H :    0.325707
  40 C :   -0.899018
  41 C :   -0.775723
  42 H :    0.202380
  43 H :    0.241342
  44 H :    0.215727
  45 H :    0.252316
Sum of atomic charges:    1.0000000

LOEWDIN ATOMIC CHARGES
----------------------
   0 C :    0.594515
   1 C :    0.053914
   2 C :    0.050046
   3 C :    0.593283
   4 H :   -0.243368
   5 H :   -0.242089
   6 H :   -0.247832
   7 H :   -0.243603
   8 C :    0.566461
   9 H :   -0.247838
  10 H :   -0.229546
  11 H :   -0.280141
  12 H :   -0.221695
  13 N :    0.785470
  14 N :    0.400713
  15 C :    0.152476
  16 C :   -0.060316
  17 C :    0.345103
  18 C :    0.373565
  19 C :    0.388770
  20 H :   -0.312849
  21 C :    0.381185
  22 H :   -0.297582
  23 C :    0.374483
  24 H :   -0.304400
  25 H :   -0.306556
  26 H :   -0.303535
  27 H :   -0.367397
  28 H :   -0.433054
  29 C :    0.377504
  30 H :   -0.243428
  31 C :    0.301488
  32 H :   -0.278971
  33 C :    0.151596
  34 C :    0.184083
  35 C :    0.540723
  36 H :   -0.221618
  37 H :   -0.228346
  38 H :   -0.262835
  39 H :   -0.224327
  40 C :    0.581531
  41 C :    0.581002
  42 H :   -0.245649
  43 H :   -0.245329
  44 H :   -0.243480
  45 H :   -0.242125

  Mayer bond orders larger than 0.100000
B(  0-C ,  1-C ) :   0.3643 B(  0-C ,  2-C ) :  -0.2002 B(  0-C ,  3-C ) :   1.1719
B(  0-C ,  4-H ) :   1.0350 B(  0-C ,  5-H ) :   1.0615 B(  0-C ,  8-C ) :   0.1047
B(  1-C ,  3-C ) :  -0.2148 B(  1-C ,  8-C ) :   0.8654 B(  1-C , 11-H ) :   0.8638
B(  1-C , 14-N ) :   0.5842 B(  2-C ,  3-C ) :   0.6838 B(  2-C ,  8-C ) :   0.9180
B(  2-C , 12-H ) :   0.8978 B(  2-C , 13-N ) :   0.9348 B(  2-C , 14-N ) :  -0.1564
B(  3-C ,  6-H ) :   1.0070 B(  3-C ,  7-H ) :   1.0410 B(  3-C , 14-N ) :   0.1197
B(  8-C ,  9-H ) :   0.9583 B(  8-C , 10-H ) :   1.1051 B(  8-C , 14-N ) :  -0.1573
B( 13-N , 14-N ) :   0.9218 B( 13-N , 16-C ) :   0.1632 B( 13-N , 28-H ) :   1.1534
B( 13-N , 29-C ) :   0.3566 B( 14-N , 15-C ) :   0.7529 B( 14-N , 16-C ) :   0.2061
B( 14-N , 17-C ) :   0.1691 B( 14-N , 18-C ) :  -0.1959 B( 14-N , 31-C ) :   0.1211
B( 15-C , 16-C ) :  -0.3566 B( 15-C , 17-C ) :  -0.4429 B( 15-C , 18-C ) :  -0.1229
B( 15-C , 23-C ) :  -0.1496 B( 15-C , 27-H ) :   1.0452 B( 15-C , 31-C ) :   0.3988
B( 15-C , 33-C ) :   0.1167 B( 15-C , 38-H ) :  -0.1110 B( 16-C , 17-C ) :   0.5531
B( 16-C , 18-C ) :   0.9330 B( 16-C , 19-C ) :  -0.4834 B( 16-C , 20-H ) :  -0.1404
B( 16-C , 21-C ) :  -0.4010 B( 16-C , 26-H ) :   0.1186 B( 16-C , 27-H ) :  -0.1348
B( 17-C , 19-C ) :   1.6320 B( 17-C , 20-H ) :   1.1168 B( 17-C , 21-C ) :   0.1867
B( 17-C , 23-C ) :   0.1122 B( 17-C , 24-H ) :  -0.1019 B( 17-C , 32-H ) :  -0.1170
B( 18-C , 19-C ) :   0.2284 B( 18-C , 21-C ) :   1.4853 B( 18-C , 22-H ) :   1.0676
B( 18-C , 23-C ) :   0.1264 B( 18-C , 25-H ) :  -0.1251 B( 18-C , 26-H ) :  -0.1294
B( 19-C , 23-C ) :   1.1051 B( 19-C , 24-H ) :   1.1267 B( 19-C , 26-H ) :  -0.1037
B( 21-C , 23-C ) :   1.1103 B( 21-C , 25-H ) :   1.1832 B( 23-C , 24-H ) :  -0.1134
B( 23-C , 26-H ) :   1.0163 B( 29-C , 30-H ) :   1.0543 B( 29-C , 31-C ) :   1.3799
B( 29-C , 34-C ) :   0.6287 B( 29-C , 39-H ) :  -0.1107 B( 29-C , 41-C ) :  -0.1352
B( 30-H , 31-C ) :  -0.1515 B( 31-C , 32-H ) :   1.0070 B( 31-C , 33-C ) :   0.5588
B( 31-C , 35-C ) :  -0.1249 B( 33-C , 35-C ) :   0.8146 B( 33-C , 36-H ) :   0.9256
B( 33-C , 37-H ) :  -0.1010 B( 33-C , 40-C ) :   0.4308 B( 33-C , 41-C ) :  -0.2212
B( 33-C , 42-H ) :  -0.1043 B( 34-C , 35-C ) :   0.8328 B( 34-C , 39-H ) :   1.0180
B( 34-C , 40-C ) :  -0.1240 B( 34-C , 41-C ) :   0.7875 B( 35-C , 37-H ) :   1.1668
B( 35-C , 38-H ) :   1.0526 B( 40-C , 41-C ) :   1.1481 B( 40-C , 42-H ) :   1.1109
B( 40-C , 43-H ) :   1.0269 B( 41-C , 44-H ) :   1.0598 B( 41-C , 45-H ) :   1.0015

MP2 TOTAL ENERGY:     -846.743008251 Eh
FINAL SINGLE POINT ENERGY      -846.743008250665

DIPOLE MOMENT
-------------
                                X             Y             Z
Electronic contribution:     -8.07241      -2.13219      -0.55428
Nuclear contribution   :      8.24268       3.17257       0.45132
                        -----------------------------------------
Total Dipole Moment    :      0.17027       1.04038      -0.10296
                        -----------------------------------------
Magnitude (a.u.)       :      1.05924
Magnitude (Debye)      :      2.69237

Rotational constants in cm-1:     0.011813     0.010199     0.006294
Rotational constants in MHz :   354.138341   305.767608   188.676567

                             ****ORCA TERMINATED NORMALLY****
TOTAL RUN TIME: 0 days 17 hours 47 minutes 45 seconds 355 msec
