                         Program Version 4.2.1 -  RELEASE  -
|  1> %pal
|  2>  nprocs 32
|  3> end
|  4> !RI-MP2 aug-cc-pVQZ aug-cc-pVQZ/C TightSCF
|  5> %maxcore 4500
|  6> *xyzfile 0 1  02_40R2.xyz
|  7>
|  8>
|  9>                          ****END OF INPUT****

CARTESIAN COORDINATES (ANGSTROEM)
---------------------------------
  C      0.000000    1.090368    0.345844
  O      0.000000    0.000000    1.151915
  C      0.000000    0.716453   -0.953011
  C      0.000000   -0.716453   -0.953011
  C      0.000000   -1.090368    0.345844
  H      0.000000    2.044825    0.843241
  H      0.000000    1.372556   -1.807898
  H      0.000000   -2.044825    0.843241
  H      0.000000   -1.372556   -1.807898

 Total Charge           Charge          ....    0
 Multiplicity           Mult            ....    1
 Number of Electrons    NEL             ....   36
 Basis Dimension        Dim             ....  584

ORBITAL ENERGIES
----------------

  NO   OCC          E(Eh)            E(eV)
   0   2.0000     -20.620898      -561.1232
   1   2.0000     -11.285845      -307.1034
   2   2.0000     -11.285800      -307.1022
   3   2.0000     -11.229014      -305.5570
   4   2.0000     -11.228034      -305.5303
   5   2.0000      -1.461952       -39.7817
   6   2.0000      -1.085493       -29.5378
   7   2.0000      -1.007079       -27.4040
   8   2.0000      -0.808922       -22.0119
   9   2.0000      -0.780726       -21.2446
  10   2.0000      -0.741380       -20.1740
  11   2.0000      -0.636658       -17.3243
  12   2.0000      -0.610725       -16.6187
  13   2.0000      -0.577918       -15.7260
  14   2.0000      -0.565188       -15.3796
  15   2.0000      -0.540518       -14.7082
  16   2.0000      -0.399063       -10.8591
  17   2.0000      -0.322123        -8.7654
  18   0.0000       0.026406         0.7186
  19   0.0000       0.030729         0.8362
  20   0.0000       0.033461         0.9105
  21   0.0000       0.043438         1.1820
  22   0.0000       0.068462         1.8629

MULLIKEN ATOMIC CHARGES
-----------------------
   0 C :   -0.198511
   1 O :   -0.642108
   2 C :   -0.505123
   3 C :   -0.505124
   4 C :   -0.198511
   5 H :    0.571831
   6 H :    0.452857
   7 H :    0.571831
   8 H :    0.452857
Sum of atomic charges:   -0.0000000

LOEWDIN ATOMIC CHARGES
----------------------
   0 C :   -0.024253
   1 O :    0.826168
   2 C :    0.279152
   3 C :    0.279152
   4 C :   -0.024253
   5 H :   -0.335626
   6 H :   -0.332357
   7 H :   -0.335626
   8 H :   -0.332357

  Mayer bond orders larger than 0.100000
B(  0-C ,  1-O ) :   0.8977 B(  0-C ,  2-C ) :   1.6136 B(  0-C ,  3-C ) :  -0.1610
B(  0-C ,  5-H ) :   0.7306 B(  1-O ,  4-C ) :   0.8977 B(  2-C ,  3-C ) :   1.0771
B(  2-C ,  4-C ) :  -0.1610 B(  2-C ,  6-H ) :   0.8287 B(  3-C ,  4-C ) :   1.6136
B(  3-C ,  8-H ) :   0.8287 B(  4-C ,  7-H ) :   0.7306

MP2 TOTAL ENERGY:     -229.656879193 Eh
FINAL SINGLE POINT ENERGY      -229.656879193324

DIPOLE MOMENT
-------------
                                X             Y             Z
Electronic contribution:      0.00000      -0.00000       1.60195
Nuclear contribution   :      0.00000       0.00000      -1.89812
                        -----------------------------------------
Total Dipole Moment    :      0.00000      -0.00000      -0.29617
                        -----------------------------------------
Magnitude (a.u.)       :      0.29617
Magnitude (Debye)      :      0.75280

Rotational constants in cm-1:     0.317363     0.312818     0.157537
Rotational constants in MHz :  9514.296124  9378.033321  4722.836659

                             ****ORCA TERMINATED NORMALLY****
TOTAL RUN TIME: 0 days 0 hours 4 minutes 32 seconds 572 msec
