                         Program Version 4.2.1 -  RELEASE  -
|  1> %pal
|  2>  nprocs 32
|  3> end
|  4> !RI-MP2 aug-cc-pVQZ aug-cc-pVQZ/C TightSCF
|  5> %maxcore 4500
|  6> *xyzfile 0 1  10_85TS.xyz
|  7>
|  8>
|  9>                          ****END OF INPUT****

CARTESIAN COORDINATES (ANGSTROEM)
---------------------------------
  C      0.260416   -0.531762    0.445674
  C      1.458700    0.104545    0.179963
  C      2.598608   -0.622720   -0.500273
  C      2.403942   -2.151626   -0.511465
  C      0.966636   -2.449053   -0.960512
  C      0.209023   -2.043832    0.312876
  C      1.543971    1.510074    0.327651
  H      3.537645   -0.358264   -0.006407
  H      2.688079   -0.259565   -1.531380
  H      3.167306   -2.615417   -1.136897
  C      2.372197   -2.677197    0.911388
  H      0.668875   -1.878571   -1.842315
  H      0.837995   -3.513859   -1.159826
  C      1.132610   -2.616420    1.384610
  H     -0.814625   -2.407169    0.376903
  H      0.814195   -2.838359    2.394687
  H      3.254335   -2.964268    1.469267
  C      0.667651    2.143732    1.276035
  C      2.814871    2.156281    0.151051
  N     -0.063996    2.627030    2.017414
  N      3.827607    2.665709   -0.032698
  C      0.519860    2.281623   -1.422713
  H     -0.440114   -0.064635    1.126708
  C     -0.448400    1.332788   -1.527187
  H      0.267894    3.247747   -0.999921
  H      1.325563    2.290817   -2.150054
  C     -0.986138    0.260735   -1.227534
  C     -2.092300   -0.696492   -1.356583
  O     -2.803271   -0.824436   -0.118471
  H     -2.770636   -0.350759   -2.136673
  H     -1.740582   -1.697543   -1.595599
  C     -3.790834    0.080881    0.104287
  C     -4.333516   -0.053163    1.492801
  O     -4.143019    0.876483   -0.718791
  H     -3.635571    0.424665    2.184317
  H     -5.294728    0.450372    1.556468
  H     -4.424369   -1.101123    1.775381

 Total Charge           Charge          ....    0
 Multiplicity           Mult            ....    1
 Number of Electrons    NEL             ....  148
 Basis Dimension        Dim             .... 2416

ORBITAL ENERGIES
----------------

  NO   OCC          E(Eh)            E(eV)
   0   2.0000     -20.618649      -561.0620
   1   2.0000     -20.554862      -559.3262
   2   2.0000     -15.580725      -423.9731
   3   2.0000     -15.578480      -423.9120
   4   2.0000     -11.392249      -309.9988
   5   2.0000     -11.330442      -308.3170
   6   2.0000     -11.330169      -308.3096
   7   2.0000     -11.299165      -307.4659
   8   2.0000     -11.288613      -307.1788
   9   2.0000     -11.287412      -307.1461
  10   2.0000     -11.278573      -306.9056
  11   2.0000     -11.277138      -306.8665
  12   2.0000     -11.271475      -306.7124
  13   2.0000     -11.256913      -306.3162
  14   2.0000     -11.255547      -306.2790
  15   2.0000     -11.253675      -306.2281
  16   2.0000     -11.252204      -306.1880
  17   2.0000     -11.248593      -306.0898
  18   2.0000     -11.242942      -305.9360
  19   2.0000     -11.239828      -305.8513
  20   2.0000     -11.238331      -305.8105
  21   2.0000      -1.478838       -40.2412
  22   2.0000      -1.378406       -37.5083
  23   2.0000      -1.249099       -33.9897
  24   2.0000      -1.231145       -33.5012
  25   2.0000      -1.203458       -32.7478
  26   2.0000      -1.144032       -31.1307
  27   2.0000      -1.107422       -30.1345
  28   2.0000      -1.059434       -28.8287
  29   2.0000      -1.044425       -28.4202
  30   2.0000      -1.031948       -28.0807
  31   2.0000      -1.001841       -27.2615
  32   2.0000      -0.982470       -26.7344
  33   2.0000      -0.934001       -25.4155
  34   2.0000      -0.896891       -24.4056
  35   2.0000      -0.846305       -23.0291
  36   2.0000      -0.805070       -21.9071
  37   2.0000      -0.786643       -21.4056
  38   2.0000      -0.751797       -20.4574
  39   2.0000      -0.742462       -20.2034
  40   2.0000      -0.736198       -20.0330
  41   2.0000      -0.724265       -19.7083
  42   2.0000      -0.713523       -19.4160
  43   2.0000      -0.700905       -19.0726
  44   2.0000      -0.679737       -18.4966
  45   2.0000      -0.669504       -18.2181
  46   2.0000      -0.647014       -17.6061
  47   2.0000      -0.635768       -17.3001
  48   2.0000      -0.627670       -17.0798
  49   2.0000      -0.618117       -16.8198
  50   2.0000      -0.613719       -16.7002
  51   2.0000      -0.585470       -15.9315
  52   2.0000      -0.579836       -15.7781
  53   2.0000      -0.576911       -15.6985
  54   2.0000      -0.576436       -15.6856
  55   2.0000      -0.571713       -15.5571
  56   2.0000      -0.560442       -15.2504
  57   2.0000      -0.556541       -15.1443
  58   2.0000      -0.551715       -15.0129
  59   2.0000      -0.549975       -14.9656
  60   2.0000      -0.526574       -14.3288
  61   2.0000      -0.502776       -13.6812
  62   2.0000      -0.493291       -13.4231
  63   2.0000      -0.491652       -13.3785
  64   2.0000      -0.489517       -13.3204
  65   2.0000      -0.487660       -13.2699
  66   2.0000      -0.481341       -13.0980
  67   2.0000      -0.471404       -12.8276
  68   2.0000      -0.468609       -12.7515
  69   2.0000      -0.464645       -12.6436
  70   2.0000      -0.408866       -11.1258
  71   2.0000      -0.375129       -10.2078
  72   2.0000      -0.354385        -9.6433
  73   2.0000      -0.331900        -9.0314
  74   0.0000       0.014665         0.3991
  75   0.0000       0.021648         0.5891
  76   0.0000       0.023544         0.6407
  77   0.0000       0.028631         0.7791
  78   0.0000       0.032791         0.8923

MULLIKEN ATOMIC CHARGES
-----------------------
   0 C :    0.144802
   1 C :    1.589419
   2 C :   -0.668991
   3 C :   -0.173902
   4 C :   -0.623460
   5 C :    0.374577
   6 C :   -0.612280
   7 H :    0.240367
   8 H :    0.117843
   9 H :    0.268851
  10 C :   -0.548700
  11 H :    0.243591
  12 H :    0.218437
  13 C :   -0.795448
  14 H :    0.264328
  15 H :    0.251380
  16 H :    0.252524
  17 C :    0.754894
  18 C :    0.838459
  19 N :   -1.084294
  20 N :   -1.080006
  21 C :   -0.722522
  22 H :    0.172600
  23 C :   -0.032344
  24 H :    0.403960
  25 H :    0.327589
  26 C :   -0.530848
  27 C :    0.247727
  28 O :   -0.868574
  29 H :    0.390370
  30 H :    0.308899
  31 C :    1.053672
  32 C :   -0.793647
  33 O :   -0.857006
  34 H :    0.302366
  35 H :    0.352332
  36 H :    0.273034
Sum of atomic charges:   -0.0000000

LOEWDIN ATOMIC CHARGES
----------------------
   0 C :    0.275395
   1 C :   -0.111256
   2 C :    0.527499
   3 C :    0.134129
   4 C :    0.510535
   5 C :    0.098867
   6 C :   -0.354351
   7 H :   -0.274325
   8 H :   -0.245493
   9 H :   -0.242707
  10 C :    0.422329
  11 H :   -0.265226
  12 H :   -0.235996
  13 C :    0.431864
  14 H :   -0.291048
  15 H :   -0.273096
  16 H :   -0.275862
  17 C :   -0.373384
  18 C :   -0.354097
  19 N :    0.490614
  20 N :    0.470508
  21 C :    0.632819
  22 H :   -0.320031
  23 C :    0.188034
  24 H :   -0.325091
  25 H :   -0.306824
  26 C :    0.104978
  27 C :    0.116632
  28 O :    0.870808
  29 H :   -0.353610
  30 H :   -0.344419
  31 C :   -1.041871
  32 C :    0.880562
  33 O :    0.741638
  34 H :   -0.291152
  35 H :   -0.313096
  36 H :   -0.304277

  Mayer bond orders larger than 0.100000
B(  0-C ,  1-C ) :   1.0988 B(  0-C ,  5-C ) :   0.6855 B(  0-C ,  6-C ) :  -0.4989
B(  0-C , 10-C ) :  -0.1010 B(  0-C , 14-H ) :  -0.1030 B(  0-C , 19-N ) :   0.1217
B(  0-C , 21-C ) :   0.2038 B(  0-C , 22-H ) :   0.9309 B(  0-C , 26-C ) :   0.1292
B(  0-C , 28-O ) :  -0.1851 B(  1-C ,  2-C ) :   0.3672 B(  1-C ,  3-C ) :  -0.1641
B(  1-C ,  4-C ) :  -0.1758 B(  1-C ,  6-C ) :   0.3094 B(  1-C ,  7-H ) :  -0.1701
B(  1-C , 17-C ) :  -0.6752 B(  1-C , 18-C ) :  -0.6134 B(  1-C , 19-N ) :  -0.1305
B(  1-C , 22-H ) :  -0.1788 B(  1-C , 26-C ) :  -0.1140 B(  2-C ,  3-C ) :   0.9765
B(  2-C ,  6-C ) :  -0.1112 B(  2-C ,  7-H ) :   1.0396 B(  2-C ,  8-H ) :   1.0750
B(  3-C ,  4-C ) :   0.9460 B(  3-C ,  9-H ) :   0.9991 B(  3-C , 10-C ) :   0.9865
B(  3-C , 13-C ) :  -0.1095 B(  4-C ,  5-C ) :   0.4831 B(  4-C , 10-C ) :  -0.1067
B(  4-C , 11-H ) :   1.0598 B(  4-C , 12-H ) :   0.9886 B(  5-C , 10-C ) :  -0.1934
B(  5-C , 13-C ) :   0.5262 B(  5-C , 14-H ) :   1.1500 B(  6-C , 17-C ) :   1.5628
B(  6-C , 18-C ) :   1.6762 B(  6-C , 19-N ) :   0.1344 B(  6-C , 20-N ) :   0.3464
B(  6-C , 21-C ) :   0.2586 B( 10-C , 13-C ) :   1.5854 B( 10-C , 16-H ) :   1.1395
B( 13-C , 14-H ) :  -0.2475 B( 13-C , 15-H ) :   1.1761 B( 17-C , 18-C ) :   0.1330
B( 17-C , 19-N ) :   1.8242 B( 18-C , 20-N ) :   1.6162 B( 21-C , 23-C ) :   1.3928
B( 21-C , 24-H ) :   0.9015 B( 21-C , 25-H ) :   0.9870 B( 21-C , 26-C ) :  -0.2689
B( 22-H , 28-O ) :   0.1034 B( 23-C , 25-H ) :  -0.1203 B( 23-C , 26-C ) :   2.0958
B( 23-C , 27-C ) :  -0.2298 B( 26-C , 27-C ) :   0.5554 B( 26-C , 29-H ) :  -0.1224
B( 27-C , 28-O ) :   0.4095 B( 27-C , 29-H ) :   0.8971 B( 27-C , 30-H ) :   0.8897
B( 27-C , 33-O ) :   0.1002 B( 28-O , 30-H ) :   0.1182 B( 28-O , 31-C ) :   0.9257
B( 31-C , 32-C ) :   0.8171 B( 31-C , 33-O ) :   1.2458 B( 32-C , 34-H ) :   0.8818
B( 32-C , 35-H ) :   0.9398 B( 32-C , 36-H ) :   0.9651

MP2 TOTAL ENERGY:     -915.729170086 Eh
FINAL SINGLE POINT ENERGY      -915.729170085930

DIPOLE MOMENT
-------------
                                X             Y             Z
Electronic contribution:      2.17161      11.06620       1.09282
Nuclear contribution   :     -2.62376     -13.48892      -1.66270
                        -----------------------------------------
Total Dipole Moment    :     -0.45214      -2.42272      -0.56988
                        -----------------------------------------
Magnitude (a.u.)       :      2.52958
Magnitude (Debye)      :      6.42968

Rotational constants in cm-1:     0.014419     0.008903     0.006851
Rotational constants in MHz :   432.258975   266.919830   205.373230

                             ****ORCA TERMINATED NORMALLY****
TOTAL RUN TIME: 0 days 9 hours 29 minutes 42 seconds 772 msec
