                         Program Version 4.2.1 -  RELEASE  -
|  1> %pal
|  2>  nprocs 32
|  3> end
|  4> !RI-MP2 aug-cc-pVQZ aug-cc-pVQZ/C TightSCF
|  5> %maxcore 4500
|  6> *xyzfile 0 1  08_12P2.xyz
|  7>
|  8>
|  9>                          ****END OF INPUT****

CARTESIAN COORDINATES (ANGSTROEM)
---------------------------------
  S      2.821847   -0.565397   -0.380131
  C      3.703227    0.472403    0.817254
  H      3.975928    1.430055    0.373009
  H      4.614440   -0.059670    1.088038
  H      3.119057    0.638669    1.721986
  C      1.399951    0.503726   -0.742326
  C      0.319240    0.438930    0.317705
  H      0.995440    0.172709   -1.696818
  H      1.740743    1.534020   -0.852132
  C     -0.484159   -0.851755    0.359974
  C     -1.808919   -0.361590    0.948916
  C     -1.966400    1.028638    0.294900
  O     -0.637515    1.482740    0.068902
  N     -2.758953    0.922457   -0.902246
  H     -2.460521    1.737326    0.961677
  O     -2.881752   -1.221927    0.668889
  H     -1.706974   -0.250915    2.032053
  O     -0.695272   -1.330471   -0.955910
  H      0.003538   -1.612618    0.973488
  H     -1.401458   -1.985123   -0.898092
  H     -3.427126   -0.753882    0.014065
  H      0.758522    0.604328    1.308252
  H     -3.089827    1.824239   -1.217892
  H     -2.219968    0.485175   -1.643417

 Total Charge           Charge          ....    0
 Multiplicity           Mult            ....    1
 Number of Electrons    NEL             ....   96
 Basis Dimension        Dim             .... 1482

ORBITAL ENERGIES
----------------

  NO   OCC          E(Eh)            E(eV)
   0   2.0000     -91.942424     -2501.8806
   1   2.0000     -20.563079      -559.5498
   2   2.0000     -20.559686      -559.4575
   3   2.0000     -20.559045      -559.4401
   4   2.0000     -15.557772      -423.3485
   5   2.0000     -11.317555      -307.9663
   6   2.0000     -11.289105      -307.1922
   7   2.0000     -11.286052      -307.1091
   8   2.0000     -11.282971      -307.0252
   9   2.0000     -11.250830      -306.1506
  10   2.0000     -11.250294      -306.1361
  11   2.0000      -8.944142      -243.3825
  12   2.0000      -6.625742      -180.2956
  13   2.0000      -6.624796      -180.2699
  14   2.0000      -6.623952      -180.2469
  15   2.0000      -1.409357       -38.3506
  16   2.0000      -1.373659       -37.3792
  17   2.0000      -1.359340       -36.9895
  18   2.0000      -1.193888       -32.4873
  19   2.0000      -1.083431       -29.4817
  20   2.0000      -1.036284       -28.1987
  21   2.0000      -0.997280       -27.1374
  22   2.0000      -0.921793       -25.0833
  23   2.0000      -0.831506       -22.6264
  24   2.0000      -0.820199       -22.3187
  25   2.0000      -0.783111       -21.3095
  26   2.0000      -0.752149       -20.4670
  27   2.0000      -0.705736       -19.2041
  28   2.0000      -0.681245       -18.5376
  29   2.0000      -0.671537       -18.2734
  30   2.0000      -0.656421       -17.8621
  31   2.0000      -0.633206       -17.2304
  32   2.0000      -0.601061       -16.3557
  33   2.0000      -0.595469       -16.2035
  34   2.0000      -0.586911       -15.9707
  35   2.0000      -0.578818       -15.7504
  36   2.0000      -0.572869       -15.5886
  37   2.0000      -0.569960       -15.5094
  38   2.0000      -0.539831       -14.6895
  39   2.0000      -0.519496       -14.1362
  40   2.0000      -0.488174       -13.2839
  41   2.0000      -0.474839       -12.9210
  42   2.0000      -0.465405       -12.6643
  43   2.0000      -0.460793       -12.5388
  44   2.0000      -0.437171       -11.8960
  45   2.0000      -0.427188       -11.6244
  46   2.0000      -0.413532       -11.2528
  47   2.0000      -0.338846        -9.2205
  48   0.0000       0.022573         0.6142
  49   0.0000       0.026858         0.7308
  50   0.0000       0.031454         0.8559
  51   0.0000       0.033311         0.9064
  52   0.0000       0.041737         1.1357

MULLIKEN ATOMIC CHARGES
-----------------------
   0 S :   -0.048504
   1 C :   -1.109916
   2 H :    0.300504
   3 H :    0.413181
   4 H :    0.312290
   5 C :   -0.707342
   6 C :    0.644440
   7 H :    0.297075
   8 H :    0.239188
   9 C :    0.394080
  10 C :    0.207375
  11 C :    0.307962
  12 O :   -1.035788
  13 N :   -0.735088
  14 H :    0.449453
  15 O :   -1.122573
  16 H :    0.335889
  17 O :   -0.937961
  18 H :    0.398108
  19 H :    0.295435
  20 H :    0.400192
  21 H :    0.265538
  22 H :    0.160357
  23 H :    0.276105
Sum of atomic charges:   -0.0000000

LOEWDIN ATOMIC CHARGES
----------------------
   0 S :    1.342963
   1 C :    0.554205
   2 H :   -0.365952
   3 H :   -0.390791
   4 H :   -0.370400
   5 C :    0.135733
   6 C :   -0.325802
   7 H :   -0.400671
   8 H :   -0.353631
   9 C :   -0.246630
  10 C :   -0.229130
  11 C :   -0.356261
  12 O :    0.934144
  13 N :    1.293050
  14 H :   -0.299239
  15 O :    1.313108
  16 H :   -0.282906
  17 O :    1.312084
  18 H :   -0.272233
  19 H :   -0.803046
  20 H :   -0.892819
  21 H :   -0.318410
  22 H :   -0.469055
  23 H :   -0.508309

  Mayer bond orders larger than 0.100000
B(  0-S ,  1-C ) :   1.0735 B(  0-S ,  5-C ) :   0.9839 B(  0-S ,  6-C ) :  -0.1662
B(  1-C ,  2-H ) :   0.9013 B(  1-C ,  3-H ) :   0.8370 B(  1-C ,  4-H ) :   0.8841
B(  1-C ,  5-C ) :  -0.1286 B(  5-C ,  6-C ) :   0.6131 B(  5-C ,  7-H ) :   0.8843
B(  5-C ,  8-H ) :   0.9881 B(  6-C ,  9-C ) :   0.7792 B(  6-C , 10-C ) :  -0.1157
B(  6-C , 12-O ) :   0.3629 B(  6-C , 21-H ) :   0.9450 B(  9-C , 10-C ) :   1.0434
B(  9-C , 15-O ) :   0.1735 B(  9-C , 17-O ) :   0.3066 B(  9-C , 18-H ) :   0.8103
B( 10-C , 11-C ) :   1.0764 B( 10-C , 12-O ) :   0.1978 B( 10-C , 15-O ) :   0.1749
B( 10-C , 16-H ) :   0.9381 B( 11-C , 12-O ) :   0.5820 B( 11-C , 13-N ) :   0.7476
B( 11-C , 14-H ) :   0.7968 B( 11-C , 15-O ) :   0.1450 B( 13-N , 22-H ) :   1.0593
B( 13-N , 23-H ) :   0.8991 B( 15-O , 20-H ) :   0.7819 B( 17-O , 19-H ) :   0.9029

MP2 TOTAL ENERGY:     -913.874657981 Eh
FINAL SINGLE POINT ENERGY      -913.874657980742

DIPOLE MOMENT
-------------
                                X             Y             Z
Electronic contribution:     -0.91805      -3.02340      -1.80637
Nuclear contribution   :      0.73642       3.79263       2.18004
                        -----------------------------------------
Total Dipole Moment    :     -0.18163       0.76923       0.37368
                        -----------------------------------------
Magnitude (a.u.)       :      0.87426
Magnitude (Debye)      :      2.22220

Rotational constants in cm-1:     0.068174     0.017482     0.016269
Rotational constants in MHz :  2043.816603   524.109414   487.744609

                             ****ORCA TERMINATED NORMALLY****
TOTAL RUN TIME: 0 days 1 hours 25 minutes 14 seconds 434 msec
