                         Program Version 4.2.1 -  RELEASE  -
|  1> %pal
|  2>  nprocs 32
|  3> end
|  4> !RI-MP2 aug-cc-pVQZ aug-cc-pVQZ/C TightSCF
|  5> %maxcore 4500
|  6> *xyzfile -1 1  08_3R2.xyz
|  7>
|  8>
|  9>                          ****END OF INPUT****

CARTESIAN COORDINATES (ANGSTROEM)
---------------------------------
  O      0.000000    0.000000    0.107075
  H      0.000000    0.000000   -0.856597

 Total Charge           Charge          ....   -1
 Multiplicity           Mult            ....    1
 Number of Electrons    NEL             ....   10
 Basis Dimension        Dim             ....  126

ORBITAL ENERGIES
----------------

  NO   OCC          E(Eh)            E(eV)
   0   2.0000     -20.184767      -549.2554
   1   2.0000      -0.902503       -24.5583
   2   2.0000      -0.251937        -6.8555
   3   2.0000      -0.109158        -2.9703
   4   2.0000      -0.109158        -2.9703
   5   0.0000       0.170542         4.6407
   6   0.0000       0.289818         7.8864
   7   0.0000       0.327945         8.9238
   8   0.0000       0.327945         8.9238
   9   0.0000       0.356553         9.7023

MULLIKEN ATOMIC CHARGES
-----------------------
   0 O :   -1.171726
   1 H :    0.171726
Sum of atomic charges:   -1.0000000

LOEWDIN ATOMIC CHARGES
----------------------
   0 O :    0.437815
   1 H :   -1.437815

  Mayer bond orders larger than 0.100000
B(  0-O ,  1-H ) :   1.1306

MP2 TOTAL ENERGY:      -75.724958593 Eh
FINAL SINGLE POINT ENERGY       -75.724958592892

DIPOLE MOMENT
-------------
                                X             Y             Z
Electronic contribution:     -0.00000       0.00000       0.35653
Nuclear contribution   :      0.00000       0.00000      -0.84966
                        -----------------------------------------
Total Dipole Moment    :     -0.00000       0.00000      -0.49314
                        -----------------------------------------
Magnitude (a.u.)       :      0.49314
Magnitude (Debye)      :      1.25345

Rotational constants in cm-1:     0.000000    19.143122    19.143122
Rotational constants in MHz :     0.000000 573896.351978 573896.351978

                             ****ORCA TERMINATED NORMALLY****
TOTAL RUN TIME: 0 days 0 hours 0 minutes 10 seconds 705 msec
