                         Program Version 4.2.1 -  RELEASE  -
|  1> %pal
|  2>  nprocs 32
|  3> end
|  4> !RI-MP2 aug-cc-pVQZ aug-cc-pVQZ/C TightSCF
|  5> %maxcore 4500
|  6> *xyzfile 0 1  02_28P.xyz
|  7>
|  8>
|  9>                          ****END OF INPUT****

CARTESIAN COORDINATES (ANGSTROEM)
---------------------------------
  C     -1.186560    2.125575   -0.356004
  C      0.935885    0.754070   -0.130400
  C     -0.047583    2.604897   -1.236224
  C     -0.674565    2.018053    1.067873
  C      0.436337    1.306624    1.192560
  C      1.063523    1.890703   -1.128082
  N      2.021258   -0.198491   -0.070506
  C      3.301871    0.197734    0.368637
  C      1.600685   -1.463716   -0.475788
  O      2.297448   -2.460178   -0.520070
  C      0.168861   -1.359965   -0.835306
  C     -0.218153   -0.099298   -0.648214
  C     -1.500620    0.648748   -0.834502
  H     -0.167047    3.450262   -1.900700
  H     -1.201380    2.475883    1.893624
  H      0.961484    1.087608    2.111127
  H      1.984058    2.043756   -1.672335
  C     -2.710878    0.057548   -0.145433
  C     -2.618931   -0.668546    1.038419
  C     -3.971068    0.277846   -0.696095
  C     -3.760754   -1.156359    1.658193
  H     -1.647718   -0.858260    1.476117
  C     -5.114606   -0.207476   -0.078789
  H     -4.056670    0.834097   -1.623829
  C     -5.012141   -0.926956    1.103679
  H     -3.670712   -1.722239    2.577755
  H     -6.085542   -0.028310   -0.524838
  H     -5.901943   -1.311665    1.586962
  O      3.497453    1.353345    0.695153
  N      4.228687   -0.775276    0.387963
  H      3.945661   -1.703042    0.092920
  C      5.580099   -0.485963    0.819150
  H      6.042514    0.271397    0.183478
  H      5.595205   -0.118908    1.847021
  H      6.163098   -1.403429    0.760619
  C     -0.592837   -2.546589   -1.313783
  H     -0.130624   -2.961794   -2.212122
  H     -0.585742   -3.337209   -0.559901
  H     -1.627748   -2.288362   -1.533853
  H     -1.718199    0.698246   -1.904610
  H     -2.078904    2.741436   -0.439657

 Total Charge           Charge          ....    0
 Multiplicity           Mult            ....    1
 Number of Electrons    NEL             ....  162
 Basis Dimension        Dim             .... 2668

ORBITAL ENERGIES
----------------

  NO   OCC          E(Eh)            E(eV)
   0   2.0000     -20.539218      -558.9005
   1   2.0000     -20.512533      -558.1744
   2   2.0000     -15.605678      -424.6521
   3   2.0000     -15.571446      -423.7206
   4   2.0000     -11.378654      -309.6289
   5   2.0000     -11.366637      -309.3019
   6   2.0000     -11.298861      -307.4576
   7   2.0000     -11.270067      -306.6741
   8   2.0000     -11.264573      -306.5246
   9   2.0000     -11.255921      -306.2892
  10   2.0000     -11.254382      -306.2473
  11   2.0000     -11.250259      -306.1351
  12   2.0000     -11.244793      -305.9864
  13   2.0000     -11.241268      -305.8904
  14   2.0000     -11.240010      -305.8562
  15   2.0000     -11.239715      -305.8482
  16   2.0000     -11.237959      -305.8004
  17   2.0000     -11.237790      -305.7958
  18   2.0000     -11.236719      -305.7667
  19   2.0000     -11.236416      -305.7584
  20   2.0000     -11.234093      -305.6952
  21   2.0000     -11.233698      -305.6845
  22   2.0000     -11.227337      -305.5114
  23   2.0000      -1.417135       -38.5622
  24   2.0000      -1.388946       -37.7951
  25   2.0000      -1.284845       -34.9624
  26   2.0000      -1.231194       -33.5025
  27   2.0000      -1.189685       -32.3730
  28   2.0000      -1.160813       -31.5873
  29   2.0000      -1.109150       -30.1815
  30   2.0000      -1.063647       -28.9433
  31   2.0000      -1.035809       -28.1858
  32   2.0000      -1.023966       -27.8635
  33   2.0000      -1.009305       -27.4646
  34   2.0000      -0.985950       -26.8291
  35   2.0000      -0.958925       -26.0937
  36   2.0000      -0.931315       -25.3424
  37   2.0000      -0.859545       -23.3894
  38   2.0000      -0.847077       -23.0501
  39   2.0000      -0.833524       -22.6813
  40   2.0000      -0.811796       -22.0901
  41   2.0000      -0.799677       -21.7603
  42   2.0000      -0.785382       -21.3713
  43   2.0000      -0.767476       -20.8841
  44   2.0000      -0.737214       -20.0606
  45   2.0000      -0.706235       -19.2176
  46   2.0000      -0.696349       -18.9486
  47   2.0000      -0.669587       -18.2204
  48   2.0000      -0.661489       -18.0000
  49   2.0000      -0.649726       -17.6799
  50   2.0000      -0.648093       -17.6355
  51   2.0000      -0.643928       -17.5222
  52   2.0000      -0.634395       -17.2628
  53   2.0000      -0.628591       -17.1048
  54   2.0000      -0.613488       -16.6939
  55   2.0000      -0.610595       -16.6151
  56   2.0000      -0.595010       -16.1911
  57   2.0000      -0.591867       -16.1055
  58   2.0000      -0.586333       -15.9549
  59   2.0000      -0.579407       -15.7665
  60   2.0000      -0.575993       -15.6736
  61   2.0000      -0.569427       -15.4949
  62   2.0000      -0.554097       -15.0778
  63   2.0000      -0.551034       -14.9944
  64   2.0000      -0.543502       -14.7894
  65   2.0000      -0.534543       -14.5456
  66   2.0000      -0.525176       -14.2908
  67   2.0000      -0.520023       -14.1506
  68   2.0000      -0.504067       -13.7164
  69   2.0000      -0.499306       -13.5868
  70   2.0000      -0.489201       -13.3118
  71   2.0000      -0.474369       -12.9082
  72   2.0000      -0.454545       -12.3688
  73   2.0000      -0.433459       -11.7950
  74   2.0000      -0.409698       -11.1485
  75   2.0000      -0.390891       -10.6367
  76   2.0000      -0.381847       -10.3906
  77   2.0000      -0.377652       -10.2764
  78   2.0000      -0.351808        -9.5732
  79   2.0000      -0.341834        -9.3018
  80   2.0000      -0.330072        -8.9817
  81   0.0000       0.017335         0.4717
  82   0.0000       0.023472         0.6387
  83   0.0000       0.026070         0.7094
  84   0.0000       0.027887         0.7588
  85   0.0000       0.031820         0.8659

MULLIKEN ATOMIC CHARGES
-----------------------
   0 C :    0.198266
   1 C :    0.811679
   2 C :   -0.753108
   3 C :   -0.561955
   4 C :   -0.451259
   5 C :   -0.453506
   6 N :   -0.670929
   7 C :    1.335839
   8 C :    1.652229
   9 O :   -1.087003
  10 C :   -0.245317
  11 C :    0.584057
  12 C :    0.657158
  13 H :    0.207995
  14 H :    0.247355
  15 H :    0.241779
  16 H :    0.313089
  17 C :    0.808736
  18 C :   -0.635755
  19 C :   -0.827662
  20 C :   -0.271407
  21 H :    0.295868
  22 C :   -0.436727
  23 H :    0.165445
  24 C :   -0.386235
  25 H :    0.186891
  26 H :    0.212821
  27 H :    0.360359
  28 O :   -0.915052
  29 N :   -0.847400
  30 H :    0.456460
  31 C :   -1.189306
  32 H :    0.346942
  33 H :    0.343068
  34 H :    0.349551
  35 C :   -1.178279
  36 H :    0.301276
  37 H :    0.210850
  38 H :    0.203254
  39 H :    0.207545
  40 H :    0.212385
Sum of atomic charges:   -0.0000000

LOEWDIN ATOMIC CHARGES
----------------------
   0 C :    0.114728
   1 C :   -0.542711
   2 C :    0.421055
   3 C :    0.410639
   4 C :    0.409903
   5 C :    0.418725
   6 N :    0.401646
   7 C :   -1.005760
   8 C :   -0.781657
   9 O :    0.807865
  10 C :   -0.015336
  11 C :   -0.084400
  12 C :    0.124902
  13 H :   -0.278717
  14 H :   -0.271280
  15 H :   -0.271747
  16 H :   -0.276225
  17 C :   -0.066989
  18 C :    0.348629
  19 C :    0.358755
  20 C :    0.363961
  21 H :   -0.321601
  22 C :    0.353802
  23 H :   -0.305235
  24 C :    0.343609
  25 H :   -0.314176
  26 H :   -0.317939
  27 H :   -0.320487
  28 O :    0.739202
  29 N :    0.815140
  30 H :   -0.704691
  31 C :    0.785959
  32 H :   -0.290362
  33 H :   -0.290550
  34 H :   -0.293287
  35 C :    0.930033
  36 H :   -0.276129
  37 H :   -0.275073
  38 H :   -0.296191
  39 H :   -0.282871
  40 H :   -0.265141

  Mayer bond orders larger than 0.100000
B(  0-C ,  1-C ) :   0.5996 B(  0-C ,  2-C ) :   0.9690 B(  0-C ,  3-C ) :   0.8860
B(  0-C ,  4-C ) :  -0.2382 B(  0-C ,  5-C ) :  -0.2140 B(  0-C , 10-C ) :  -0.1412
B(  0-C , 11-C ) :  -0.2505 B(  0-C , 12-C ) :   0.8824 B(  0-C , 18-C ) :  -0.1706
B(  0-C , 40-H ) :   1.0983 B(  1-C ,  3-C ) :  -0.1247 B(  1-C ,  4-C ) :   1.6363
B(  1-C ,  5-C ) :   1.1600 B(  1-C ,  6-N ) :  -0.2640 B(  1-C ,  8-C ) :  -0.1034
B(  1-C ,  9-O ) :   0.1020 B(  1-C , 10-C ) :  -0.2494 B(  1-C , 11-C ) :   0.4473
B(  1-C , 12-C ) :  -0.3201 B(  1-C , 14-H ) :  -0.1033 B(  1-C , 15-H ) :   0.1021
B(  1-C , 28-O ) :   0.4268 B(  1-C , 39-H ) :   0.1399 B(  2-C ,  3-C ) :   0.4103
B(  2-C ,  4-C ) :  -0.2272 B(  2-C ,  5-C ) :   1.3963 B(  2-C , 10-C ) :   0.1501
B(  2-C , 11-C ) :  -0.3746 B(  2-C , 13-H ) :   1.2448 B(  2-C , 16-H ) :  -0.1045
B(  2-C , 40-H ) :  -0.1368 B(  3-C ,  4-C ) :   1.3645 B(  3-C ,  5-C ) :  -0.1961
B(  3-C , 10-C ) :   0.1001 B(  3-C , 11-C ) :  -0.1297 B(  3-C , 14-H ) :   1.1488
B(  3-C , 15-H ) :  -0.1427 B(  3-C , 17-C ) :   0.1271 B(  3-C , 40-H ) :  -0.1673
B(  4-C ,  5-C ) :  -0.1367 B(  4-C , 11-C ) :  -0.1078 B(  4-C , 15-H ) :   1.1398
B(  5-C ,  7-C ) :  -0.1052 B(  5-C , 10-C ) :  -0.1562 B(  5-C , 11-C ) :  -0.2037
B(  5-C , 12-C ) :   0.1563 B(  5-C , 13-H ) :  -0.1495 B(  5-C , 16-H ) :   1.1041
B(  6-N ,  7-C ) :   1.5471 B(  6-N ,  8-C ) :   1.5678 B(  6-N ,  9-O ) :   0.5451
B(  6-N , 28-O ) :   0.1672 B(  7-C , 28-O ) :   0.7760 B(  7-C , 29-N ) :   1.1523
B(  7-C , 31-C ) :  -0.1324 B(  8-C ,  9-O ) :  -0.4565 B(  8-C , 10-C ) :   1.3990
B(  8-C , 11-C ) :  -0.2627 B(  9-O , 10-C ) :   0.7884 B(  9-O , 11-C ) :   0.2207
B( 10-C , 11-C ) :   0.9117 B( 10-C , 12-C ) :  -0.2490 B( 10-C , 36-H ) :  -0.2757
B( 10-C , 37-H ) :  -0.3555 B( 10-C , 38-H ) :  -0.1558 B( 11-C , 12-C ) :   0.5468
B( 11-C , 18-C ) :  -0.1676 B( 11-C , 35-C ) :   0.2108 B( 11-C , 38-H ) :   0.1088
B( 11-C , 39-H ) :  -0.1208 B( 12-C , 17-C ) :   0.2609 B( 12-C , 19-C ) :  -0.3597
B( 12-C , 39-H ) :   0.9630 B( 17-C , 18-C ) :   0.6503 B( 17-C , 19-C ) :   0.8384
B( 17-C , 20-C ) :  -0.4779 B( 17-C , 22-C ) :  -0.4598 B( 17-C , 23-H ) :  -0.1013
B( 17-C , 27-H ) :   0.1089 B( 18-C , 20-C ) :   1.4366 B( 18-C , 21-H ) :   0.9153
B( 18-C , 22-C ) :   0.1881 B( 19-C , 20-C ) :   0.1398 B( 19-C , 22-C ) :   1.4756
B( 19-C , 23-H ) :   1.1526 B( 19-C , 26-H ) :  -0.1529 B( 19-C , 27-H ) :  -0.1048
B( 20-C , 24-C ) :   1.1419 B( 20-C , 25-H ) :   1.1542 B( 20-C , 27-H ) :  -0.1362
B( 22-C , 24-C ) :   1.1073 B( 22-C , 26-H ) :   1.1998 B( 24-C , 26-H ) :  -0.1078
B( 24-C , 27-H ) :   1.0201 B( 28-O , 29-N ) :   0.2947 B( 29-N , 30-H ) :   0.7316
B( 29-N , 31-C ) :   0.9526 B( 31-C , 32-H ) :   0.9513 B( 31-C , 33-H ) :   0.9552
B( 31-C , 34-H ) :   0.9351 B( 35-C , 36-H ) :   1.0717 B( 35-C , 37-H ) :   1.1763
B( 35-C , 38-H ) :   1.1094

MP2 TOTAL ENERGY:     -993.173319815 Eh
FINAL SINGLE POINT ENERGY      -993.173319814890

DIPOLE MOMENT
-------------
                                X             Y             Z
Electronic contribution:      2.71656       2.17652      -0.43507
Nuclear contribution   :     -4.02417      -2.13881       0.16128
                        -----------------------------------------
Total Dipole Moment    :     -1.30761       0.03770      -0.27379
                        -----------------------------------------
Magnitude (a.u.)       :      1.33650
Magnitude (Debye)      :      3.39711

Rotational constants in cm-1:     0.019326     0.005933     0.005234
Rotational constants in MHz :   579.384023   177.869821   156.919621

                             ****ORCA TERMINATED NORMALLY****
TOTAL RUN TIME: 0 days 10 hours 44 minutes 41 seconds 164 msec
