                         Program Version 4.2.1 -  RELEASE  -
|  1> %pal
|  2>  nprocs 32
|  3> end
|  4> !RI-MP2 aug-cc-pVQZ aug-cc-pVQZ/C TightSCF
|  5> %maxcore 4500
|  6> *xyzfile 0 1  06_10R1.xyz
|  7>
|  8>
|  9>                          ****END OF INPUT****

CARTESIAN COORDINATES (ANGSTROEM)
---------------------------------
  C      1.853657    0.133499    0.000001
  C      0.860877    0.979882    0.000005
  H      1.037810    2.048773    0.000005
  C      2.847403   -0.695407    0.000003
  C     -0.563828    0.585194    0.000012
  O     -1.470734    1.377616    0.000004
  O     -0.740395   -0.742194   -0.000004
  C     -2.099080   -1.186132   -0.000015
  H     -2.618120   -0.824605   -0.887606
  H     -2.051199   -2.271719   -0.000021
  H     -2.618130   -0.824615    0.887575
  H      3.272240   -1.056720   -0.929542
  H      3.272251   -1.056705    0.929549

 Total Charge           Charge          ....    0
 Multiplicity           Mult            ....    1
 Number of Electrons    NEL             ....   52
 Basis Dimension        Dim             ....  836

ORBITAL ENERGIES
----------------

  NO   OCC          E(Eh)            E(eV)
   0   2.0000     -20.599877      -560.5512
   1   2.0000     -20.539890      -558.9188
   2   2.0000     -11.382285      -309.7277
   3   2.0000     -11.286253      -307.1145
   4   2.0000     -11.283640      -307.0434
   5   2.0000     -11.255930      -306.2894
   6   2.0000     -11.254147      -306.2409
   7   2.0000      -1.463927       -39.8355
   8   2.0000      -1.360038       -37.0085
   9   2.0000      -1.110390       -30.2153
  10   2.0000      -1.016145       -27.6507
  11   2.0000      -0.956757       -26.0347
  12   2.0000      -0.808250       -21.9936
  13   2.0000      -0.755761       -20.5653
  14   2.0000      -0.690865       -18.7994
  15   2.0000      -0.681482       -18.5441
  16   2.0000      -0.674452       -18.3528
  17   2.0000      -0.634579       -17.2678
  18   2.0000      -0.629304       -17.1242
  19   2.0000      -0.584720       -15.9111
  20   2.0000      -0.555472       -15.1152
  21   2.0000      -0.529943       -14.4205
  22   2.0000      -0.467453       -12.7200
  23   2.0000      -0.463802       -12.6207
  24   2.0000      -0.400051       -10.8859
  25   2.0000      -0.395979       -10.7751
  26   0.0000       0.022638         0.6160
  27   0.0000       0.031041         0.8447
  28   0.0000       0.035357         0.9621
  29   0.0000       0.035700         0.9714
  30   0.0000       0.048210         1.3119

MULLIKEN ATOMIC CHARGES
-----------------------
   0 C :   -0.095346
   1 C :   -0.392947
   2 H :    0.393622
   3 C :   -0.603640
   4 C :    1.067690
   5 O :   -0.776190
   6 O :   -0.687978
   7 C :   -0.642181
   8 H :    0.301178
   9 H :    0.395183
  10 H :    0.301178
  11 H :    0.369716
  12 H :    0.369716
Sum of atomic charges:    0.0000000

LOEWDIN ATOMIC CHARGES
----------------------
   0 C :    0.183279
   1 C :    0.235042
   2 H :   -0.392274
   3 C :    0.752836
   4 C :   -1.162051
   5 O :    0.697038
   6 O :    0.822690
   7 C :    0.571903
   8 H :   -0.316134
   9 H :   -0.323227
  10 H :   -0.316134
  11 H :   -0.376484
  12 H :   -0.376483

  Mayer bond orders larger than 0.100000
B(  0-C ,  1-C ) :   1.8773 B(  0-C ,  3-C ) :   1.9479 B(  0-C ,  4-C ) :  -0.1315
B(  1-C ,  2-H ) :   0.7828 B(  1-C ,  3-C ) :  -0.2239 B(  1-C ,  4-C ) :   1.0568
B(  1-C ,  5-O ) :   0.2048 B(  3-C , 11-H ) :   0.8754 B(  3-C , 12-H ) :   0.8754
B(  4-C ,  5-O ) :   1.2907 B(  4-C ,  6-O ) :   0.9499 B(  6-O ,  7-C ) :   0.8343
B(  7-C ,  8-H ) :   0.9115 B(  7-C ,  9-H ) :   0.8618 B(  7-C , 10-H ) :   0.9115

MP2 TOTAL ENERGY:     -344.008365435 Eh
FINAL SINGLE POINT ENERGY      -344.008365434509

DIPOLE MOMENT
-------------
                                X             Y             Z
Electronic contribution:      0.45872       3.03579       0.00004
Nuclear contribution   :      0.25883      -3.95769      -0.00004
                        -----------------------------------------
Total Dipole Moment    :      0.71755      -0.92190       0.00000
                        -----------------------------------------
Magnitude (a.u.)       :      1.16823
Magnitude (Debye)      :      2.96942

Rotational constants in cm-1:     0.179560     0.057768     0.044474
Rotational constants in MHz :  5383.080851  1731.826536  1333.309582

                             ****ORCA TERMINATED NORMALLY****
TOTAL RUN TIME: 0 days 0 hours 12 minutes 38 seconds 300 msec
