                         Program Version 4.2.1 -  RELEASE  -
|  1> %pal
|  2>  nprocs 32
|  3> end
|  4> !RI-MP2 aug-cc-pVQZ aug-cc-pVQZ/C TightSCF
|  5> %maxcore 4500
|  6> *xyzfile 0 2  01_1R.xyz
|  7>
|  8>
|  9>                          ****END OF INPUT****

CARTESIAN COORDINATES (ANGSTROEM)
---------------------------------
  C      0.615889    0.544785    0.145402
  C      1.748652   -0.348056   -0.226713
  C     -0.661464   -0.199398    0.410807
  C     -1.787248   -0.038736   -0.268849
  H      0.436275    1.283902   -0.650716
  H      0.889557    1.129167    1.031913
  H      1.567569   -1.258807   -0.783198
  H      2.773583   -0.043031   -0.060232
  H     -2.678019   -0.609096   -0.035092
  H     -1.858779    0.672744   -1.085366
  H     -0.625168   -0.926451    1.218808

 Total Charge           Charge          ....    0
 Multiplicity           Mult            ....    2
 Number of Electrons    NEL             ....   31
 Basis Dimension        Dim             ....  642

ORBITAL ENERGIES
----------------
                 SPIN UP ORBITALS
  NO   OCC          E(Eh)            E(eV)
   0   1.0000     -11.232277      -305.6458
   1   1.0000     -11.231797      -305.6327
   2   1.0000     -11.229732      -305.5765
   3   1.0000     -11.218301      -305.2655
   4   1.0000      -1.088155       -29.6102
   5   1.0000      -0.996024       -27.1032
   6   1.0000      -0.853372       -23.2214
   7   1.0000      -0.758219       -20.6322
   8   1.0000      -0.647865       -17.6293
   9   1.0000      -0.613386       -16.6911
  10   1.0000      -0.588000       -16.0003
  11   1.0000      -0.545318       -14.8389
  12   1.0000      -0.524559       -14.2740
  13   1.0000      -0.485401       -13.2084
  14   1.0000      -0.371694       -10.1143
  15   1.0000      -0.350000        -9.5240
  16   0.0000       0.028273         0.7694
  17   0.0000       0.032344         0.8801
  18   0.0000       0.036481         0.9927
  19   0.0000       0.038323         1.0428
  20   0.0000       0.048553         1.3212

                 SPIN DOWN ORBITALS
  NO   OCC          E(Eh)            E(eV)
   0   1.0000     -11.233003      -305.6655
   1   1.0000     -11.231278      -305.6186
   2   1.0000     -11.218545      -305.2721
   3   1.0000     -11.208172      -304.9899
   4   1.0000      -1.077837       -29.3294
   5   1.0000      -0.968947       -26.3664
   6   1.0000      -0.806745       -21.9526
   7   1.0000      -0.750440       -20.4205
   8   1.0000      -0.643147       -17.5009
   9   1.0000      -0.604749       -16.4561
  10   1.0000      -0.575169       -15.6511
  11   1.0000      -0.533732       -14.5236
  12   1.0000      -0.510150       -13.8819
  13   1.0000      -0.482703       -13.1350
  14   1.0000      -0.364585        -9.9209
  15   0.0000       0.028612         0.7786
  16   0.0000       0.032478         0.8838
  17   0.0000       0.035889         0.9766
  18   0.0000       0.038492         1.0474
  19   0.0000       0.048517         1.3202

MULLIKEN ATOMIC CHARGES AND SPIN POPULATIONS
--------------------------------------------
   0 C :   -0.229933   -0.181192
   1 C :   -0.893461    1.215912
   2 C :   -0.394775    0.026268
   3 C :   -0.899673   -0.013565
   4 H :    0.231770    0.074585
   5 H :    0.251666    0.018997
   6 H :    0.365738   -0.066466
   7 H :    0.413276   -0.069133
   8 H :    0.357748    0.000675
   9 H :    0.328503   -0.000749
  10 H :    0.469140   -0.005333
Sum of atomic charges         :    0.0000000

LOEWDIN ATOMIC CHARGES AND SPIN POPULATIONS
-------------------------------------------
   0 C :    0.400770    0.149823
   1 C :    0.847291    0.469276
   2 C :    0.321437    0.019631
   3 C :    0.786937   -0.001096
   4 H :   -0.323443    0.032790
   5 H :   -0.308252    0.015284
   6 H :   -0.342418    0.154987
   7 H :   -0.340614    0.153908
   8 H :   -0.358264   -0.001660
   9 H :   -0.355728   -0.000506
  10 H :   -0.327717    0.007564

  Mayer bond orders larger than 0.100000
B(  0-C ,  1-C ) :   1.0466 B(  0-C ,  2-C ) :   0.8022 B(  0-C ,  4-H ) :   0.8875
B(  0-C ,  5-H ) :   0.9039 B(  1-C ,  6-H ) :   0.8728 B(  1-C ,  7-H ) :   0.8238
B(  2-C ,  3-C ) :   1.8511 B(  2-C , 10-H ) :   0.7486 B(  3-C ,  8-H ) :   0.9529
B(  3-C ,  9-H ) :   0.9039

MP2 TOTAL ENERGY:     -156.230587165 Eh
FINAL SINGLE POINT ENERGY      -156.230587165461

DIPOLE MOMENT
-------------
                                X             Y             Z
Electronic contribution:     -0.44196      -0.18373       0.39789
Nuclear contribution   :      0.53362       0.26250      -0.38449
                        -----------------------------------------
Total Dipole Moment    :      0.09166       0.07876       0.01340
                        -----------------------------------------
Magnitude (a.u.)       :      0.12159
Magnitude (Debye)      :      0.30906

Rotational constants in cm-1:     0.829509     0.145677     0.141581
Rotational constants in MHz : 24868.059694  4367.286826  4244.502042

                             ****ORCA TERMINATED NORMALLY****
TOTAL RUN TIME: 0 days 0 hours 6 minutes 19 seconds 215 msec
