                         Program Version 4.2.1 -  RELEASE  -
|  1> %pal
|  2>  nprocs 32
|  3> end
|  4> !RI-MP2 aug-cc-pVQZ aug-cc-pVQZ/C TightSCF
|  5> %maxcore 4500
|  6> *xyzfile 0 1  02_43TS.xyz
|  7>
|  8>
|  9>                          ****END OF INPUT****

CARTESIAN COORDINATES (ANGSTROEM)
---------------------------------
  C      0.759371   -1.174278    0.472785
  C      0.500566   -0.462347    1.613797
  C      1.107667    1.239166    0.163792
  C      0.715334    0.917159    1.444358
  H      1.476047    2.209984   -0.139796
  H      0.504345    1.654274    2.208504
  H      0.077339   -0.902050    2.507436
  H      0.719815   -2.248872    0.365421
  S      1.857157   -0.225319   -0.639042
  C     -2.467681    0.547166    0.467290
  C     -0.844192   -0.452945   -1.016072
  C     -0.641352    0.923569   -1.062520
  C     -1.761011    1.648386   -0.332240
  H     -2.135821    0.529652    1.509222
  H     -0.501374   -1.157061   -1.760276
  H     -0.154951    1.395400   -1.906405
  H     -2.436864    2.077251   -1.077645
  H     -1.406168    2.470786    0.288308
  H     -3.554490    0.619955    0.474545
  O      3.268425   -0.368785   -0.159778
  C     -2.027563   -0.758601   -0.180026
  O     -2.562077   -1.832197   -0.049175

 Total Charge           Charge          ....    0
 Multiplicity           Mult            ....    1
 Number of Electrons    NEL             ....   96
 Basis Dimension        Dim             .... 1424

ORBITAL ENERGIES
----------------

  NO   OCC          E(Eh)            E(eV)
   0   2.0000     -92.081996     -2505.6785
   1   2.0000     -20.541183      -558.9540
   2   2.0000     -20.515051      -558.2429
   3   2.0000     -11.333458      -308.3991
   4   2.0000     -11.295121      -307.3559
   5   2.0000     -11.287663      -307.1529
   6   2.0000     -11.286343      -307.1170
   7   2.0000     -11.272245      -306.7334
   8   2.0000     -11.263494      -306.4952
   9   2.0000     -11.259806      -306.3949
  10   2.0000     -11.256656      -306.3092
  11   2.0000     -11.245866      -306.0156
  12   2.0000      -9.068102      -246.7556
  13   2.0000      -6.749787      -183.6710
  14   2.0000      -6.749578      -183.6654
  15   2.0000      -6.748316      -183.6310
  16   2.0000      -1.388786       -37.7908
  17   2.0000      -1.344723       -36.5918
  18   2.0000      -1.187336       -32.3090
  19   2.0000      -1.146162       -31.1887
  20   2.0000      -1.016962       -27.6730
  21   2.0000      -1.013316       -27.5737
  22   2.0000      -0.965681       -26.2775
  23   2.0000      -0.945344       -25.7241
  24   2.0000      -0.812339       -22.1049
  25   2.0000      -0.800237       -21.7756
  26   2.0000      -0.769040       -20.9266
  27   2.0000      -0.741413       -20.1749
  28   2.0000      -0.726608       -19.7720
  29   2.0000      -0.689338       -18.7578
  30   2.0000      -0.667465       -18.1626
  31   2.0000      -0.615604       -16.7514
  32   2.0000      -0.602624       -16.3982
  33   2.0000      -0.597926       -16.2704
  34   2.0000      -0.593098       -16.1390
  35   2.0000      -0.582836       -15.8598
  36   2.0000      -0.577491       -15.7143
  37   2.0000      -0.569152       -15.4874
  38   2.0000      -0.558468       -15.1967
  39   2.0000      -0.550813       -14.9884
  40   2.0000      -0.529557       -14.4100
  41   2.0000      -0.509206       -13.8562
  42   2.0000      -0.481005       -13.0888
  43   2.0000      -0.433006       -11.7827
  44   2.0000      -0.413806       -11.2602
  45   2.0000      -0.388166       -10.5625
  46   2.0000      -0.354333        -9.6419
  47   2.0000      -0.345199        -9.3934
  48   0.0000       0.015487         0.4214
  49   0.0000       0.022609         0.6152
  50   0.0000       0.027375         0.7449
  51   0.0000       0.030164         0.8208
  52   0.0000       0.037052         1.0082

MULLIKEN ATOMIC CHARGES
-----------------------
   0 C :   -0.303781
   1 C :   -0.402960
   2 C :   -0.272392
   3 C :   -0.321513
   4 H :    0.394774
   5 H :    0.310029
   6 H :    0.317226
   7 H :    0.346196
   8 S :    1.072047
   9 C :   -0.623514
  10 C :   -0.430429
  11 C :    0.067662
  12 C :   -0.720873
  13 H :    0.218256
  14 H :    0.290253
  15 H :    0.344172
  16 H :    0.284565
  17 H :    0.212255
  18 H :    0.309022
  19 O :   -1.291981
  20 C :    1.197486
  21 O :   -0.996499
Sum of atomic charges:   -0.0000000

LOEWDIN ATOMIC CHARGES
----------------------
   0 C :    0.105524
   1 C :    0.262943
   2 C :    0.065374
   3 C :    0.256902
   4 H :   -0.322777
   5 H :   -0.280216
   6 H :   -0.287152
   7 H :   -0.317630
   8 S :    0.668875
   9 C :    0.498215
  10 C :    0.197163
  11 C :    0.213673
  12 C :    0.517968
  13 H :   -0.288037
  14 H :   -0.313287
  15 H :   -0.281910
  16 H :   -0.258322
  17 H :   -0.275789
  18 H :   -0.264539
  19 O :    0.081054
  20 C :   -0.696744
  21 O :    0.718712

  Mayer bond orders larger than 0.100000
B(  0-C ,  1-C ) :   1.5406 B(  0-C ,  3-C ) :  -0.1310 B(  0-C ,  7-H ) :   0.9624
B(  0-C ,  8-S ) :   0.8354 B(  0-C , 10-C ) :   0.2239 B(  1-C ,  2-C ) :  -0.1493
B(  1-C ,  3-C ) :   0.8255 B(  1-C ,  5-H ) :  -0.1354 B(  1-C ,  6-H ) :   1.0309
B(  2-C ,  3-C ) :   1.4936 B(  2-C ,  4-H ) :   0.9095 B(  2-C ,  8-S ) :   0.8114
B(  2-C , 11-C ) :   0.2920 B(  2-C , 19-O ) :  -0.1050 B(  3-C ,  5-H ) :   1.0327
B(  3-C ,  6-H ) :  -0.1209 B(  8-S , 10-C ) :   0.1159 B(  8-S , 19-O ) :   1.1527
B(  9-C , 12-C ) :   1.0514 B(  9-C , 13-H ) :   0.9232 B(  9-C , 18-H ) :   0.8839
B(  9-C , 20-C ) :   1.0756 B(  9-C , 21-O ) :   0.2105 B( 10-C , 11-C ) :   1.4204
B( 10-C , 14-H ) :   0.9075 B( 10-C , 20-C ) :   1.0020 B( 10-C , 21-O ) :   0.3757
B( 11-C , 12-C ) :   0.5885 B( 11-C , 15-H ) :   0.9334 B( 12-C , 16-H ) :   0.9422
B( 12-C , 17-H ) :   1.0827 B( 14-H , 21-O ) :   0.1201 B( 20-C , 21-O ) :   0.4143

MP2 TOTAL ENERGY:     -896.247403376 Eh
FINAL SINGLE POINT ENERGY      -896.247403376281

DIPOLE MOMENT
-------------
                                X             Y             Z
Electronic contribution:      6.29128      -4.84832      -2.34280
Nuclear contribution   :     -7.37881       6.55101       2.45925
                        -----------------------------------------
Total Dipole Moment    :     -1.08754       1.70269       0.11645
                        -----------------------------------------
Magnitude (a.u.)       :      2.02372
Magnitude (Debye)      :      5.14389

Rotational constants in cm-1:     0.053719     0.022653     0.020870
Rotational constants in MHz :  1610.457001   679.114465   625.656520

                             ****ORCA TERMINATED NORMALLY****
TOTAL RUN TIME: 0 days 1 hours 51 minutes 14 seconds 447 msec
