                         Program Version 4.2.1 -  RELEASE  -
|  1> %pal
|  2>  nprocs 32
|  3> end
|  4> !RI-MP2 aug-cc-pVQZ aug-cc-pVQZ/C TightSCF
|  5> %maxcore 4500
|  6> *xyzfile 0 1  05_41R1.xyz
|  7>
|  8>
|  9>                          ****END OF INPUT****

CARTESIAN COORDINATES (ANGSTROEM)
---------------------------------
  C      0.772835    0.355119   -0.449429
  C     -0.704163    0.104399   -0.214855
  C     -1.476705   -0.524553   -1.185434
  C     -1.314950    0.502333    0.971302
  C     -2.824603   -0.777215   -0.969870
  H     -1.018759   -0.819461   -2.123339
  C     -2.662803    0.256802    1.188831
  H     -0.726562    1.020535    1.717845
  C     -3.421266   -0.389314    0.221301
  H     -3.410678   -1.269760   -1.736641
  H     -3.124316    0.573593    2.116687
  H     -4.474006   -0.580309    0.391277
  O      1.174466    1.598904    0.097332
  C      0.689796    2.716915   -0.609960
  H     -0.404626    2.761277   -0.600870
  H      1.087243    3.603935   -0.118486
  H      1.033221    2.700441   -1.652188
  C      1.719092   -0.731004    0.120727
  C      3.148724   -0.380114   -0.305728
  H      3.450204    0.586586    0.096634
  H      3.847450   -1.139274    0.054049
  H      3.233316   -0.338212   -1.395655
  C      1.643374   -0.786187    1.648188
  H      0.655574   -1.099754    1.990013
  H      2.370782   -1.507834    2.028089
  H      1.868859    0.187493    2.085094
  C      1.346264   -2.097043   -0.460448
  H      0.350546   -2.413981   -0.147227
  H      1.371841   -2.087294   -1.553995
  H      2.061369   -2.849647   -0.120483
  H      0.939242    0.379603   -1.537209

 Total Charge           Charge          ....    0
 Multiplicity           Mult            ....    1
 Number of Electrons    NEL             ....   98
 Basis Dimension        Dim             .... 1868

ORBITAL ENERGIES
----------------

  NO   OCC          E(Eh)            E(eV)
   0   2.0000     -20.550972      -559.2204
   1   2.0000     -11.279733      -306.9371
   2   2.0000     -11.265585      -306.5522
   3   2.0000     -11.232908      -305.6630
   4   2.0000     -11.232446      -305.6504
   5   2.0000     -11.231628      -305.6281
   6   2.0000     -11.230223      -305.5899
   7   2.0000     -11.230130      -305.5874
   8   2.0000     -11.229835      -305.5793
   9   2.0000     -11.226530      -305.4894
  10   2.0000     -11.206224      -304.9369
  11   2.0000     -11.201660      -304.8127
  12   2.0000     -11.199656      -304.7581
  13   2.0000      -1.377721       -37.4897
  14   2.0000      -1.157288       -31.4914
  15   2.0000      -1.103456       -30.0266
  16   2.0000      -1.029680       -28.0190
  17   2.0000      -1.015084       -27.6218
  18   2.0000      -0.952120       -25.9085
  19   2.0000      -0.927616       -25.2417
  20   2.0000      -0.924038       -25.1443
  21   2.0000      -0.881211       -23.9790
  22   2.0000      -0.827344       -22.5132
  23   2.0000      -0.802892       -21.8478
  24   2.0000      -0.738763       -20.1028
  25   2.0000      -0.701596       -19.0914
  26   2.0000      -0.667324       -18.1588
  27   2.0000      -0.653401       -17.7800
  28   2.0000      -0.645274       -17.5588
  29   2.0000      -0.621401       -16.9092
  30   2.0000      -0.614133       -16.7114
  31   2.0000      -0.597285       -16.2530
  32   2.0000      -0.586657       -15.9637
  33   2.0000      -0.581852       -15.8330
  34   2.0000      -0.572129       -15.5684
  35   2.0000      -0.554643       -15.0926
  36   2.0000      -0.531161       -14.4536
  37   2.0000      -0.524916       -14.2837
  38   2.0000      -0.507840       -13.8190
  39   2.0000      -0.506061       -13.7706
  40   2.0000      -0.501915       -13.6578
  41   2.0000      -0.494541       -13.4572
  42   2.0000      -0.483895       -13.1675
  43   2.0000      -0.457892       -12.4599
  44   2.0000      -0.452917       -12.3245
  45   2.0000      -0.445795       -12.1307
  46   2.0000      -0.420012       -11.4291
  47   2.0000      -0.337112        -9.1733
  48   2.0000      -0.329360        -8.9623
  49   0.0000       0.022112         0.6017
  50   0.0000       0.027223         0.7408
  51   0.0000       0.028828         0.7845
  52   0.0000       0.030672         0.8346
  53   0.0000       0.038555         1.0491

MULLIKEN ATOMIC CHARGES
-----------------------
   0 C :    1.541615
   1 C :    1.501884
   2 C :   -0.989046
   3 C :   -0.696835
   4 C :   -0.409152
   5 H :    0.173772
   6 C :   -0.263012
   7 H :    0.261791
   8 C :   -0.479427
   9 H :    0.224525
  10 H :    0.184592
  11 H :    0.339828
  12 O :   -1.100822
  13 C :   -0.918443
  14 H :    0.238826
  15 H :    0.375082
  16 H :    0.200583
  17 C :    1.412373
  18 C :   -1.177173
  19 H :    0.215021
  20 H :    0.231321
  21 H :    0.148610
  22 C :   -1.184123
  23 H :    0.208914
  24 H :    0.189944
  25 H :    0.251789
  26 C :   -1.159097
  27 H :    0.214707
  28 H :    0.154698
  29 H :    0.188160
  30 H :    0.119094
Sum of atomic charges:   -0.0000000

LOEWDIN ATOMIC CHARGES
----------------------
   0 C :   -0.282154
   1 C :   -0.107801
   2 C :    0.345104
   3 C :    0.330434
   4 C :    0.354472
   5 H :   -0.305631
   6 C :    0.360301
   7 H :   -0.317498
   8 C :    0.340917
   9 H :   -0.318021
  10 H :   -0.316523
  11 H :   -0.321980
  12 O :    0.909412
  13 C :    0.594303
  14 H :   -0.307318
  15 H :   -0.310813
  16 H :   -0.293806
  17 C :   -0.303071
  18 C :    0.908615
  19 H :   -0.281849
  20 H :   -0.269654
  21 H :   -0.263834
  22 C :    0.910479
  23 H :   -0.285498
  24 H :   -0.265226
  25 H :   -0.274455
  26 C :    0.909234
  27 H :   -0.279313
  28 H :   -0.260757
  29 H :   -0.264670
  30 H :   -0.333397

  Mayer bond orders larger than 0.100000
B(  0-C ,  1-C ) :   0.6450 B(  0-C ,  3-C ) :  -0.1082 B(  0-C , 13-C ) :  -0.5454
B(  0-C , 16-H ) :  -0.1461 B(  0-C , 17-C ) :   0.7030 B(  0-C , 30-H ) :   1.0605
B(  1-C ,  2-C ) :   0.3073 B(  1-C ,  3-C ) :   0.5003 B(  1-C ,  4-C ) :  -0.4392
B(  1-C ,  5-H ) :  -0.1272 B(  1-C ,  6-C ) :  -0.5274 B(  1-C ,  8-C ) :  -0.1233
B(  1-C , 17-C ) :   0.1961 B(  2-C ,  4-C ) :   1.5598 B(  2-C ,  5-H ) :   1.1385
B(  2-C ,  6-C ) :   0.2389 B(  2-C ,  8-C ) :   0.1875 B(  2-C ,  9-H ) :  -0.1539
B(  2-C , 11-H ) :  -0.1035 B(  3-C ,  4-C ) :   0.1202 B(  3-C ,  6-C ) :   1.4532
B(  3-C ,  7-H ) :   0.9932 B(  3-C ,  8-C ) :   0.1325 B(  3-C , 10-H ) :  -0.1553
B(  4-C ,  8-C ) :   1.1088 B(  4-C ,  9-H ) :   1.1707 B(  6-C ,  8-C ) :   1.0967
B(  6-C , 10-H ) :   1.2026 B(  6-C , 11-H ) :  -0.1062 B(  8-C ,  9-H ) :  -0.1070
B(  8-C , 11-H ) :   1.0368 B( 12-O , 13-C ) :   1.2243 B( 13-C , 14-H ) :   0.9525
B( 13-C , 15-H ) :   0.9397 B( 13-C , 16-H ) :   1.0405 B( 17-C , 19-H ) :  -0.1919
B( 17-C , 20-H ) :  -0.1763 B( 17-C , 21-H ) :  -0.1940 B( 17-C , 22-C ) :   0.2570
B( 17-C , 23-H ) :  -0.1389 B( 17-C , 24-H ) :  -0.1021 B( 17-C , 25-H ) :  -0.1120
B( 17-C , 26-C ) :   0.1973 B( 17-C , 27-H ) :  -0.1309 B( 17-C , 28-H ) :  -0.1849
B( 17-C , 29-H ) :  -0.1496 B( 18-C , 19-H ) :   1.1215 B( 18-C , 20-H ) :   1.1036
B( 18-C , 21-H ) :   1.1732 B( 18-C , 22-C ) :   0.1318 B( 18-C , 26-C ) :   0.1720
B( 22-C , 23-H ) :   1.1047 B( 22-C , 24-H ) :   1.1139 B( 22-C , 25-H ) :   1.0662
B( 22-C , 26-C ) :   0.1445 B( 26-C , 27-H ) :   1.0656 B( 26-C , 28-H ) :   1.1655
B( 26-C , 29-H ) :   1.1376

MP2 TOTAL ENERGY:     -542.374877585 Eh
FINAL SINGLE POINT ENERGY      -542.374877585017

DIPOLE MOMENT
-------------
                                X             Y             Z
Electronic contribution:     -9.65882       2.37461       0.18758
Nuclear contribution   :      9.42500      -2.34030      -0.52123
                        -----------------------------------------
Total Dipole Moment    :     -0.23381       0.03431      -0.33365
                        -----------------------------------------
Magnitude (a.u.)       :      0.40886
Magnitude (Debye)      :      1.03925

Rotational constants in cm-1:     0.041054     0.019677     0.017034
Rotational constants in MHz :  1230.778591   589.896423   510.662373

                             ****ORCA TERMINATED NORMALLY****
TOTAL RUN TIME: 0 days 3 hours 28 minutes 26 seconds 919 msec
