                         Program Version 4.2.1 -  RELEASE  -
|  1> %pal
|  2>  nprocs 32
|  3> end
|  4> !RI-MP2 aug-cc-pVQZ aug-cc-pVQZ/C TightSCF
|  5> %maxcore 4500
|  6> *xyzfile 0 1  10_42R.xyz
|  7>
|  8>
|  9>                          ****END OF INPUT****

CARTESIAN COORDINATES (ANGSTROEM)
---------------------------------
  C     -0.456918    2.060901   -0.341823
  H     -0.444960    3.132828   -0.139748
  H     -0.698086    1.924127   -1.414299
  C     -1.526080    1.395355    0.486033
  C     -0.096378   -0.605530    0.665271
  H      0.227215   -0.389768    1.688581
  H     -0.046012   -1.679153    0.523672
  C      0.900192    0.080714   -0.282885
  H      0.567140   -0.124578   -1.320316
  N      0.857173    1.516969   -0.037591
  C     -2.575259   -0.856399    0.193967
  C     -2.357482    2.103378    1.242735
  C     -3.867795   -0.264045   -0.175421
  C     -5.021053   -0.919805   -0.309136
  C     -1.496549   -0.085766    0.444736
  C     -6.305864   -0.278439   -0.728201
  H     -7.078561   -0.406039    0.036100
  H     -6.177722    0.790625   -0.906942
  H     -6.693192   -0.732432   -1.645505
  C      2.305580   -0.479264   -0.145150
  C      1.923543    2.231389   -0.712125
  H      1.743709    3.302895   -0.604869
  H      1.939882    2.008448   -1.794839
  C      3.247776    1.854359   -0.076872
  H      3.275659    2.255729    0.940612
  C      3.416298    0.358577   -0.039635
  H      4.076855    2.305362   -0.628370
  C      4.687913   -0.200233    0.073809
  H      5.544900    0.460138    0.155779
  C      2.505752   -1.859625   -0.173967
  H      1.658454   -2.523706   -0.293655
  C      4.873492   -1.571220    0.070931
  H      5.870015   -1.986894    0.158871
  C      3.772468   -2.406766   -0.063957
  H      3.900631   -3.482211   -0.087062
  C     -2.540361   -2.361196    0.237104
  H     -2.818803   -2.783959   -0.731779
  H     -3.265911   -2.731250    0.966532
  H     -1.571868   -2.762672    0.518993
  H     -3.109063    1.624620    1.857762
  H     -2.302853    3.185805    1.274999
  H     -5.068316   -1.985368   -0.105093
  H     -3.864972    0.800352   -0.378761

 Total Charge           Charge          ....    0
 Multiplicity           Mult            ....    1
 Number of Electrons    NEL             ....  144
 Basis Dimension        Dim             .... 2658

ORBITAL ENERGIES
----------------

  NO   OCC          E(Eh)            E(eV)
   0   2.0000     -15.545595      -423.0172
   1   2.0000     -11.261205      -306.4330
   2   2.0000     -11.251892      -306.1796
   3   2.0000     -11.248385      -306.0841
   4   2.0000     -11.234958      -305.7187
   5   2.0000     -11.234231      -305.6990
   6   2.0000     -11.234202      -305.6982
   7   2.0000     -11.232928      -305.6635
   8   2.0000     -11.230551      -305.5988
   9   2.0000     -11.227865      -305.5258
  10   2.0000     -11.227269      -305.5095
  11   2.0000     -11.225985      -305.4746
  12   2.0000     -11.225047      -305.4491
  13   2.0000     -11.223367      -305.4033
  14   2.0000     -11.222682      -305.3847
  15   2.0000     -11.220600      -305.3280
  16   2.0000     -11.217167      -305.2346
  17   2.0000     -11.215878      -305.1996
  18   2.0000     -11.215832      -305.1983
  19   2.0000     -11.214815      -305.1706
  20   2.0000      -1.253522       -34.1101
  21   2.0000      -1.155979       -31.4558
  22   2.0000      -1.130864       -30.7724
  23   2.0000      -1.080527       -29.4026
  24   2.0000      -1.062145       -28.9024
  25   2.0000      -1.052385       -28.6368
  26   2.0000      -1.025250       -27.8985
  27   2.0000      -0.999566       -27.1996
  28   2.0000      -0.973225       -26.4828
  29   2.0000      -0.931864       -25.3573
  30   2.0000      -0.925108       -25.1735
  31   2.0000      -0.896040       -24.3825
  32   2.0000      -0.857145       -23.3241
  33   2.0000      -0.834134       -22.6979
  34   2.0000      -0.809743       -22.0342
  35   2.0000      -0.790642       -21.5145
  36   2.0000      -0.754721       -20.5370
  37   2.0000      -0.741578       -20.1794
  38   2.0000      -0.696283       -18.9468
  39   2.0000      -0.691215       -18.8089
  40   2.0000      -0.660130       -17.9631
  41   2.0000      -0.657865       -17.9014
  42   2.0000      -0.639040       -17.3892
  43   2.0000      -0.631854       -17.1936
  44   2.0000      -0.619749       -16.8642
  45   2.0000      -0.607207       -16.5230
  46   2.0000      -0.599197       -16.3050
  47   2.0000      -0.590200       -16.0602
  48   2.0000      -0.587742       -15.9933
  49   2.0000      -0.572488       -15.5782
  50   2.0000      -0.570982       -15.5372
  51   2.0000      -0.562023       -15.2934
  52   2.0000      -0.558432       -15.1957
  53   2.0000      -0.546948       -14.8832
  54   2.0000      -0.546224       -14.8635
  55   2.0000      -0.540401       -14.7051
  56   2.0000      -0.527347       -14.3499
  57   2.0000      -0.518013       -14.0959
  58   2.0000      -0.515059       -14.0155
  59   2.0000      -0.509984       -13.8774
  60   2.0000      -0.499753       -13.5990
  61   2.0000      -0.491033       -13.3617
  62   2.0000      -0.477849       -13.0029
  63   2.0000      -0.461506       -12.5582
  64   2.0000      -0.455014       -12.3816
  65   2.0000      -0.446757       -12.1569
  66   2.0000      -0.403946       -10.9919
  67   2.0000      -0.367361        -9.9964
  68   2.0000      -0.359610        -9.7855
  69   2.0000      -0.327964        -8.9244
  70   2.0000      -0.320982        -8.7344
  71   2.0000      -0.291899        -7.9430
  72   0.0000       0.021308         0.5798
  73   0.0000       0.024205         0.6587
  74   0.0000       0.024876         0.6769
  75   0.0000       0.030747         0.8367
  76   0.0000       0.031695         0.8625

MULLIKEN ATOMIC CHARGES
-----------------------
   0 C :   -0.220905
   1 H :    0.239861
   2 H :    0.256542
   3 C :   -0.019814
   4 C :   -0.453997
   5 H :    0.355586
   6 H :    0.336750
   7 C :    1.792710
   8 H :    0.172169
   9 N :   -0.234584
  10 C :    0.407596
  11 C :   -1.176349
  12 C :   -0.637979
  13 C :   -0.433694
  14 C :    0.486672
  15 C :   -0.797861
  16 H :    0.249329
  17 H :    0.245354
  18 H :    0.249407
  19 C :    0.326758
  20 C :   -0.737976
  21 H :    0.187715
  22 H :    0.250111
  23 C :   -0.688872
  24 H :    0.198586
  25 C :    0.402902
  26 H :    0.199865
  27 C :   -0.693608
  28 H :    0.231006
  29 C :   -0.821540
  30 H :    0.144044
  31 C :   -0.405027
  32 H :    0.255926
  33 C :   -0.529690
  34 H :    0.194873
  35 C :   -1.076613
  36 H :    0.170472
  37 H :    0.252480
  38 H :    0.350825
  39 H :    0.271332
  40 H :    0.189126
  41 H :    0.244990
  42 H :    0.265523
Sum of atomic charges:    0.0000000

LOEWDIN ATOMIC CHARGES
----------------------
   0 C :    0.336455
   1 H :   -0.310207
   2 H :   -0.241224
   3 C :   -0.063819
   4 C :    0.520593
   5 H :   -0.233416
   6 H :   -0.371496
   7 C :   -0.040945
   8 H :   -0.252968
   9 N :    0.536020
  10 C :   -0.008600
  11 C :    0.820994
  12 C :    0.352358
  13 C :    0.395245
  14 C :   -0.008467
  15 C :    0.900780
  16 H :   -0.292730
  17 H :   -0.313278
  18 H :   -0.292346
  19 C :   -0.016913
  20 C :    0.355031
  21 H :   -0.278425
  22 H :   -0.237456
  23 C :    0.523797
  24 H :   -0.256236
  25 C :   -0.037865
  26 H :   -0.273568
  27 C :    0.356975
  28 H :   -0.312708
  29 C :    0.362822
  30 H :   -0.323993
  31 C :    0.349684
  32 H :   -0.320286
  33 C :    0.358068
  34 H :   -0.319404
  35 C :    0.901627
  36 H :   -0.267509
  37 H :   -0.283717
  38 H :   -0.326695
  39 H :   -0.328643
  40 H :   -0.326171
  41 H :   -0.345592
  42 H :   -0.385770

  Mayer bond orders larger than 0.100000
B(  0-C ,  1-H ) :   1.0502 B(  0-C ,  2-H ) :   0.9085 B(  0-C ,  3-C ) :   0.6483
B(  0-C ,  9-N ) :   1.0149 B(  0-C , 10-C ) :   0.1117 B(  0-C , 11-C ) :  -0.2246
B(  0-C , 14-C ) :  -0.2478 B(  1-H ,  3-C ) :  -0.1202 B(  2-H ,  3-C ) :   0.1433
B(  3-C , 10-C ) :  -0.3380 B(  3-C , 11-C ) :   1.6986 B(  3-C , 14-C ) :   0.5660
B(  3-C , 39-H ) :  -0.1932 B(  3-C , 40-H ) :  -0.1170 B(  4-C ,  5-H ) :   0.9180
B(  4-C ,  6-H ) :   0.9268 B(  4-C ,  7-C ) :   0.6518 B(  4-C , 10-C ) :  -0.3388
B(  4-C , 14-C ) :   0.6533 B(  4-C , 29-C ) :   0.1423 B(  6-H , 29-C ) :  -0.1167
B(  7-C ,  8-H ) :   0.9697 B(  7-C ,  9-N ) :   0.4248 B(  7-C , 19-C ) :  -0.3139
B(  7-C , 20-C ) :  -0.2043 B(  7-C , 25-C ) :  -0.4724 B(  7-C , 29-C ) :  -0.7431
B(  9-N , 14-C ) :   0.1545 B(  9-N , 20-C ) :   0.7672 B(  9-N , 22-H ) :  -0.1073
B( 10-C , 11-C ) :   0.2163 B( 10-C , 12-C ) :   0.8901 B( 10-C , 13-C ) :  -0.4334
B( 10-C , 14-C ) :   1.0989 B( 10-C , 35-C ) :   0.4666 B( 10-C , 36-H ) :  -0.2027
B( 10-C , 37-H ) :  -0.1778 B( 10-C , 38-H ) :  -0.1514 B( 11-C , 14-C ) :  -0.5217
B( 11-C , 39-H ) :   1.0968 B( 11-C , 40-H ) :   1.1752 B( 12-C , 13-C ) :   1.5080
B( 12-C , 14-C ) :  -0.2324 B( 12-C , 15-C ) :  -0.2230 B( 12-C , 17-H ) :   0.1021
B( 12-C , 42-H ) :   0.8910 B( 13-C , 15-C ) :   0.8470 B( 13-C , 16-H ) :  -0.1172
B( 13-C , 41-H ) :   0.9439 B( 14-C , 38-H ) :   0.1281 B( 15-C , 16-H ) :   1.0192
B( 15-C , 17-H ) :   0.9919 B( 15-C , 18-H ) :   0.9922 B( 19-C , 20-C ) :   0.1373
B( 19-C , 23-C ) :  -0.1169 B( 19-C , 25-C ) :   1.1073 B( 19-C , 27-C ) :  -0.5129
B( 19-C , 29-C ) :   1.0635 B( 19-C , 30-H ) :  -0.1063 B( 19-C , 33-C ) :  -0.3673
B( 20-C , 21-H ) :   1.0393 B( 20-C , 22-H ) :   0.9973 B( 20-C , 23-C ) :   1.1525
B( 23-C , 24-H ) :   1.0631 B( 23-C , 25-C ) :   0.3634 B( 23-C , 26-H ) :   1.1383
B( 25-C , 26-H ) :  -0.1768 B( 25-C , 27-C ) :   1.0234 B( 25-C , 28-H ) :  -0.1035
B( 25-C , 31-C ) :  -0.2675 B( 27-C , 28-H ) :   1.0604 B( 27-C , 29-C ) :   0.1405
B( 27-C , 31-C ) :   1.2705 B( 27-C , 32-H ) :  -0.2091 B( 27-C , 33-C ) :   0.1667
B( 29-C , 30-H ) :   1.2141 B( 29-C , 33-C ) :   1.1767 B( 29-C , 34-H ) :  -0.1755
B( 31-C , 32-H ) :   1.1657 B( 31-C , 33-C ) :   1.2308 B( 32-H , 33-C ) :  -0.1367
B( 33-C , 34-H ) :   1.2032 B( 35-C , 36-H ) :   1.1469 B( 35-C , 37-H ) :   1.0773
B( 35-C , 38-H ) :   0.9447

MP2 TOTAL ENERGY:     -791.124744074 Eh
FINAL SINGLE POINT ENERGY      -791.124744074374

DIPOLE MOMENT
-------------
                                X             Y             Z
Electronic contribution:     14.53466      -0.15414       1.67458
Nuclear contribution   :    -14.60311       0.21583      -1.96622
                        -----------------------------------------
Total Dipole Moment    :     -0.06845       0.06169      -0.29164
                        -----------------------------------------
Magnitude (a.u.)       :      0.30585
Magnitude (Debye)      :      0.77741

Rotational constants in cm-1:     0.024956     0.005952     0.005005
Rotational constants in MHz :   748.169355   178.429639   150.058121

                             ****ORCA TERMINATED NORMALLY****
TOTAL RUN TIME: 0 days 8 hours 23 minutes 23 seconds 428 msec
