                         Program Version 4.2.1 -  RELEASE  -
|  1> %pal
|  2>  nprocs 32
|  3> end
|  4> !RI-MP2 aug-cc-pVQZ aug-cc-pVQZ/C TightSCF
|  5> %maxcore 4500
|  6> *xyzfile 0 1  10_40P.xyz
|  7>
|  8>
|  9>                          ****END OF INPUT****

CARTESIAN COORDINATES (ANGSTROEM)
---------------------------------
  C     -0.093461   -2.397850   -0.507160
  H     -0.184047   -3.043679   -1.388325
  H     -0.029459   -3.078831    0.367265
  C     -1.336256   -1.575740   -0.375088
  C      0.017980    0.451032    0.015114
  H      0.298087    1.001794   -0.883962
  H     -0.081509    1.190035    0.812664
  C      1.131928   -0.537606    0.357938
  H      0.916621   -0.968270    1.356069
  N      1.104067   -1.598417   -0.642387
  C     -2.583522    0.470340   -0.047762
  C     -2.646759   -2.304034   -0.492667
  C     -3.713534   -0.191215    0.225785
  C     -3.726504   -1.682497    0.395062
  C     -1.299006   -0.255244   -0.176305
  C     -3.539107   -2.037919    1.876612
  H     -3.598453   -3.119479    2.021377
  H     -2.566194   -1.695122    2.234556
  H     -4.309023   -1.569632    2.492716
  C      2.482760    0.146657    0.443502
  C      2.303989   -2.410406   -0.661571
  H      2.146612   -3.238847   -1.355978
  H      2.510547   -2.851165    0.331332
  C      3.476938   -1.561014   -1.110333
  H      3.328277   -1.280892   -2.157610
  C      3.590807   -0.323763   -0.260244
  H      4.405350   -2.135138   -1.054662
  C      4.807849    0.346315   -0.148212
  H      5.665300   -0.028137   -0.697571
  C      2.630752    1.262172    1.268090
  H      1.783805    1.619858    1.841539
  C      4.940065    1.465020    0.655045
  H      5.894558    1.971790    0.730846
  C      3.843017    1.921206    1.375079
  H      3.933579    2.786094    2.021130
  C     -2.709052    1.945180   -0.217089
  O     -3.619792    2.613939    0.203399
  O     -1.703873    2.467205   -0.936528
  C     -1.765830    3.876435   -1.164947
  H     -1.776539    4.415673   -0.217874
  H     -2.663643    4.131198   -1.727804
  H     -0.873468    4.119971   -1.735587
  H     -2.516154   -3.359788   -0.235244
  H     -2.971358   -2.278768   -1.541221
  H     -4.700896   -2.062768    0.077020
  H     -4.629477    0.371460    0.365955

 Total Charge           Charge          ....    0
 Multiplicity           Mult            ....    1
 Number of Electrons    NEL             ....  166
 Basis Dimension        Dim             .... 2898

ORBITAL ENERGIES
----------------

  NO   OCC          E(Eh)            E(eV)
   0   2.0000     -20.594913      -560.4161
   1   2.0000     -20.529853      -558.6457
   2   2.0000     -15.545013      -423.0013
   3   2.0000     -11.372412      -309.4591
   4   2.0000     -11.279790      -306.9387
   5   2.0000     -11.258587      -306.3617
   6   2.0000     -11.254809      -306.2589
   7   2.0000     -11.249060      -306.1025
   8   2.0000     -11.244575      -305.9804
   9   2.0000     -11.239806      -305.8507
  10   2.0000     -11.239276      -305.8362
  11   2.0000     -11.233653      -305.6832
  12   2.0000     -11.232416      -305.6496
  13   2.0000     -11.230005      -305.5840
  14   2.0000     -11.229560      -305.5719
  15   2.0000     -11.227651      -305.5199
  16   2.0000     -11.227527      -305.5165
  17   2.0000     -11.226947      -305.5008
  18   2.0000     -11.225882      -305.4718
  19   2.0000     -11.225196      -305.4531
  20   2.0000     -11.223193      -305.3986
  21   2.0000     -11.219808      -305.3065
  22   2.0000     -11.218450      -305.2695
  23   2.0000      -1.458304       -39.6825
  24   2.0000      -1.352056       -36.7913
  25   2.0000      -1.254968       -34.1494
  26   2.0000      -1.161219       -31.5984
  27   2.0000      -1.152377       -31.3578
  28   2.0000      -1.081965       -29.4418
  29   2.0000      -1.064267       -28.9602
  30   2.0000      -1.046229       -28.4693
  31   2.0000      -1.040334       -28.3089
  32   2.0000      -0.995332       -27.0844
  33   2.0000      -0.977110       -26.5885
  34   2.0000      -0.970625       -26.4120
  35   2.0000      -0.934806       -25.4374
  36   2.0000      -0.887651       -24.1542
  37   2.0000      -0.863412       -23.4946
  38   2.0000      -0.856300       -23.3011
  39   2.0000      -0.841956       -22.9108
  40   2.0000      -0.811244       -22.0751
  41   2.0000      -0.786319       -21.3968
  42   2.0000      -0.761405       -20.7189
  43   2.0000      -0.742593       -20.2070
  44   2.0000      -0.720274       -19.5997
  45   2.0000      -0.693573       -18.8731
  46   2.0000      -0.673256       -18.3202
  47   2.0000      -0.670642       -18.2491
  48   2.0000      -0.666472       -18.1356
  49   2.0000      -0.659205       -17.9379
  50   2.0000      -0.649045       -17.6614
  51   2.0000      -0.639503       -17.4018
  52   2.0000      -0.626091       -17.0368
  53   2.0000      -0.614755       -16.7283
  54   2.0000      -0.614504       -16.7215
  55   2.0000      -0.600469       -16.3396
  56   2.0000      -0.586915       -15.9708
  57   2.0000      -0.586742       -15.9661
  58   2.0000      -0.576501       -15.6874
  59   2.0000      -0.573815       -15.6143
  60   2.0000      -0.562770       -15.3137
  61   2.0000      -0.553396       -15.0587
  62   2.0000      -0.548613       -14.9285
  63   2.0000      -0.540826       -14.7166
  64   2.0000      -0.538881       -14.6637
  65   2.0000      -0.525611       -14.3026
  66   2.0000      -0.521915       -14.2020
  67   2.0000      -0.517140       -14.0721
  68   2.0000      -0.512224       -13.9383
  69   2.0000      -0.502403       -13.6711
  70   2.0000      -0.495853       -13.4928
  71   2.0000      -0.480748       -13.0818
  72   2.0000      -0.477964       -13.0061
  73   2.0000      -0.475300       -12.9336
  74   2.0000      -0.459488       -12.5033
  75   2.0000      -0.454171       -12.3586
  76   2.0000      -0.445141       -12.1129
  77   2.0000      -0.432256       -11.7623
  78   2.0000      -0.408616       -11.1190
  79   2.0000      -0.361547        -9.8382
  80   2.0000      -0.327721        -8.9177
  81   2.0000      -0.320736        -8.7277
  82   2.0000      -0.303653        -8.2628
  83   0.0000       0.020145         0.5482
  84   0.0000       0.023561         0.6411
  85   0.0000       0.025699         0.6993
  86   0.0000       0.027922         0.7598
  87   0.0000       0.032024         0.8714

MULLIKEN ATOMIC CHARGES
-----------------------
   0 C :   -0.372495
   1 H :    0.139916
   2 H :    0.118603
   3 C :    0.575154
   4 C :   -0.242898
   5 H :    0.349359
   6 H :    0.042537
   7 C :    1.542488
   8 H :    0.134724
   9 N :   -0.190178
  10 C :   -1.216599
  11 C :   -0.941726
  12 C :   -0.153628
  13 C :    0.111981
  14 C :    0.920015
  15 C :   -1.050483
  16 H :    0.239446
  17 H :    0.141838
  18 H :    0.278471
  19 C :    0.459943
  20 C :   -0.822647
  21 H :    0.220535
  22 H :    0.227398
  23 C :   -0.704690
  24 H :    0.202645
  25 C :    0.195521
  26 H :    0.194962
  27 C :   -0.690120
  28 H :    0.227434
  29 C :   -0.834930
  30 H :    0.107164
  31 C :   -0.410685
  32 H :    0.267959
  33 C :   -0.483533
  34 H :    0.210982
  35 C :    1.873671
  36 O :   -1.049273
  37 O :   -0.812315
  38 C :   -0.956275
  39 H :    0.385621
  40 H :    0.391453
  41 H :    0.400988
  42 H :    0.182800
  43 H :    0.262126
  44 H :    0.218690
  45 H :    0.308049
Sum of atomic charges:    0.0000000

LOEWDIN ATOMIC CHARGES
----------------------
   0 C :    0.345467
   1 H :   -0.272433
   2 H :   -0.245411
   3 C :    0.002024
   4 C :    0.494968
   5 H :   -0.275467
   6 H :   -0.298750
   7 C :   -0.050106
   8 H :   -0.252059
   9 N :    0.536918
  10 C :   -0.076122
  11 C :    0.512652
  12 C :    0.371677
  13 C :    0.115701
  14 C :   -0.001110
  15 C :    0.942862
  16 H :   -0.267086
  17 H :   -0.275153
  18 H :   -0.264622
  19 C :   -0.024603
  20 C :    0.353937
  21 H :   -0.274602
  22 H :   -0.238798
  23 C :    0.524317
  24 H :   -0.255680
  25 C :   -0.037870
  26 H :   -0.274174
  27 C :    0.357372
  28 H :   -0.312969
  29 C :    0.361060
  30 H :   -0.320473
  31 C :    0.348989
  32 H :   -0.320680
  33 C :    0.356944
  34 H :   -0.319717
  35 C :   -1.091249
  36 O :    0.729615
  37 O :    0.849246
  38 C :    0.587133
  39 H :   -0.314401
  40 H :   -0.311992
  41 H :   -0.317913
  42 H :   -0.271847
  43 H :   -0.243845
  44 H :   -0.271595
  45 H :   -0.310153

  Mayer bond orders larger than 0.100000
B(  0-C ,  1-H ) :   1.2428 B(  0-C ,  2-H ) :   1.1355 B(  0-C ,  3-C ) :   0.3682
B(  0-C ,  4-C ) :   0.1018 B(  0-C ,  9-N ) :   1.0994 B(  0-C , 14-C ) :  -0.3034
B(  1-H ,  2-H ) :   0.1077 B(  1-H ,  3-C ) :  -0.2997 B(  2-H ,  3-C ) :  -0.1470
B(  2-H ,  9-N ) :  -0.1106 B(  3-C ,  4-C ) :  -0.3623 B(  3-C ,  7-C ) :   0.1041
B(  3-C , 10-C ) :  -0.3542 B(  3-C , 11-C ) :   0.2254 B(  3-C , 13-C ) :  -0.2239
B(  3-C , 14-C ) :   1.2866 B(  3-C , 42-H ) :  -0.2014 B(  3-C , 43-H ) :  -0.1433
B(  4-C ,  5-H ) :   0.8998 B(  4-C ,  6-H ) :   1.1030 B(  4-C ,  7-C ) :   0.9910
B(  4-C , 10-C ) :   0.1333 B(  4-C , 19-C ) :  -0.2151 B(  4-C , 35-C ) :   0.1615
B(  4-C , 37-O ) :  -0.1663 B(  5-H , 19-C ) :  -0.1293 B(  6-H , 37-O ) :   0.1218
B(  7-C ,  8-H ) :   0.9545 B(  7-C ,  9-N ) :   0.4306 B(  7-C , 14-C ) :  -0.1199
B(  7-C , 19-C ) :  -0.2468 B(  7-C , 20-C ) :  -0.1260 B(  7-C , 25-C ) :  -0.5738
B(  7-C , 29-C ) :  -0.8286 B(  9-N , 20-C ) :   0.7263 B(  9-N , 22-H ) :  -0.1370
B( 10-C , 12-C ) :   1.2803 B( 10-C , 13-C ) :  -0.4503 B( 10-C , 14-C ) :   0.4710
B( 10-C , 35-C ) :   1.5867 B( 10-C , 36-O ) :   0.7485 B( 11-C , 13-C ) :   1.0824
B( 11-C , 42-H ) :   1.1459 B( 11-C , 43-H ) :   1.0249 B( 12-C , 13-C ) :   0.8972
B( 12-C , 14-C ) :  -0.2785 B( 12-C , 35-C ) :  -0.4252 B( 12-C , 36-O ) :  -0.1126
B( 12-C , 45-H ) :   0.9568 B( 13-C , 15-C ) :   0.7075 B( 13-C , 44-H ) :   1.0328
B( 14-C , 35-C ) :  -0.5183 B( 15-C , 16-H ) :   1.0182 B( 15-C , 17-H ) :   1.0326
B( 15-C , 18-H ) :   1.0185 B( 19-C , 23-C ) :  -0.1538 B( 19-C , 25-C ) :   1.0734
B( 19-C , 27-C ) :  -0.6065 B( 19-C , 29-C ) :   1.1074 B( 19-C , 30-H ) :  -0.1236
B( 19-C , 33-C ) :  -0.3101 B( 20-C , 21-H ) :   1.0188 B( 20-C , 22-H ) :   1.0369
B( 20-C , 23-C ) :   1.1417 B( 20-C , 26-H ) :  -0.1092 B( 23-C , 24-H ) :   1.0589
B( 23-C , 25-C ) :   0.3956 B( 23-C , 26-H ) :   1.1620 B( 25-C , 26-H ) :  -0.1879
B( 25-C , 27-C ) :   1.1190 B( 25-C , 31-C ) :  -0.2541 B( 27-C , 28-H ) :   1.0597
B( 27-C , 29-C ) :   0.1651 B( 27-C , 31-C ) :   1.2701 B( 27-C , 32-H ) :  -0.1938
B( 27-C , 33-C ) :   0.1440 B( 29-C , 30-H ) :   1.2808 B( 29-C , 33-C ) :   1.2221
B( 29-C , 34-H ) :  -0.1827 B( 31-C , 32-H ) :   1.1441 B( 31-C , 33-C ) :   1.2059
B( 32-H , 33-C ) :  -0.1379 B( 33-C , 34-H ) :   1.1957 B( 35-C , 36-O ) :   0.3553
B( 35-C , 37-O ) :   0.8921 B( 35-C , 38-C ) :  -0.1729 B( 36-O , 37-O ) :   0.1716
B( 37-O , 38-C ) :   0.9515 B( 38-C , 39-H ) :   0.8577 B( 38-C , 40-H ) :   0.8759
B( 38-C , 41-H ) :   0.8721

MP2 TOTAL ENERGY:     -979.509663235 Eh
FINAL SINGLE POINT ENERGY      -979.509663234731

DIPOLE MOMENT
-------------
                                X             Y             Z
Electronic contribution:      0.50061       8.25328      -1.82920
Nuclear contribution   :     -0.09565      -9.10056       1.65378
                        -----------------------------------------
Total Dipole Moment    :      0.40497      -0.84728      -0.17542
                        -----------------------------------------
Magnitude (a.u.)       :      0.95533
Magnitude (Debye)      :      2.42825

Rotational constants in cm-1:     0.013216     0.005981     0.004584
Rotational constants in MHz :   396.212305   179.317689   137.421530

                             ****ORCA TERMINATED NORMALLY****
TOTAL RUN TIME: 0 days 13 hours 0 minutes 56 seconds 998 msec
