                         Program Version 4.2.1 -  RELEASE  -
|  1> %pal
|  2>  nprocs 32
|  3> end
|  4> !RI-MP2 aug-cc-pVQZ aug-cc-pVQZ/C TightSCF
|  5> %maxcore 4500
|  6> *xyzfile 0 1  02_49R1.xyz
|  7>
|  8>
|  9>                          ****END OF INPUT****

CARTESIAN COORDINATES (ANGSTROEM)
---------------------------------
  C      1.406019   -1.615945    0.000122
  C      0.302905    1.043134   -0.000086
  C     -0.502168   -0.030667    0.000006
  C      0.091155   -1.381791    0.000111
  C      2.366733   -0.504169    0.000025
  C      1.765500    0.924494   -0.000086
  O      2.498409    1.882331   -0.000164
  O      3.560708   -0.663583    0.000030
  C     -2.022061    0.058186    0.000008
  C     -2.513933    1.506305   -0.000112
  H     -3.605384    1.519275   -0.000106
  H     -2.176231    2.048164    0.885475
  H     -2.176242    2.048015   -0.885794
  C     -2.564002   -0.641148    1.258909
  H     -3.654743   -0.586667    1.269915
  H     -2.287637   -1.695856    1.302038
  H     -2.190703   -0.157064    2.163748
  C     -2.564015   -0.641360   -1.258770
  H     -3.654757   -0.586882   -1.269773
  H     -2.190727   -0.157429   -2.163694
  H     -2.287650   -1.696075   -1.301725
  H     -0.074990    2.055987   -0.000165
  H      1.816581   -2.618198    0.000200
  H     -0.587248   -2.225488    0.000183

 Total Charge           Charge          ....    0
 Multiplicity           Mult            ....    1
 Number of Electrons    NEL             ....   88
 Basis Dimension        Dim             .... 1512

ORBITAL ENERGIES
----------------

  NO   OCC          E(Eh)            E(eV)
   0   2.0000     -20.569513      -559.7249
   1   2.0000     -20.564847      -559.5979
   2   2.0000     -11.343780      -308.6800
   3   2.0000     -11.341511      -308.6182
   4   2.0000     -11.286934      -307.1331
   5   2.0000     -11.282426      -307.0104
   6   2.0000     -11.270289      -306.6802
   7   2.0000     -11.262213      -306.4604
   8   2.0000     -11.251071      -306.1572
   9   2.0000     -11.238038      -305.8026
  10   2.0000     -11.238023      -305.8021
  11   2.0000     -11.232616      -305.6550
  12   2.0000      -1.421944       -38.6931
  13   2.0000      -1.391244       -37.8577
  14   2.0000      -1.181209       -32.1423
  15   2.0000      -1.113739       -30.3064
  16   2.0000      -1.043002       -28.3815
  17   2.0000      -0.970236       -26.4015
  18   2.0000      -0.959547       -26.1106
  19   2.0000      -0.952376       -25.9155
  20   2.0000      -0.851252       -23.1638
  21   2.0000      -0.839137       -22.8341
  22   2.0000      -0.768329       -20.9073
  23   2.0000      -0.710669       -19.3383
  24   2.0000      -0.706664       -19.2293
  25   2.0000      -0.671311       -18.2673
  26   2.0000      -0.649701       -17.6793
  27   2.0000      -0.636012       -17.3068
  28   2.0000      -0.628826       -17.1112
  29   2.0000      -0.616005       -16.7624
  30   2.0000      -0.598260       -16.2795
  31   2.0000      -0.593695       -16.1553
  32   2.0000      -0.569256       -15.4902
  33   2.0000      -0.568443       -15.4681
  34   2.0000      -0.552798       -15.0424
  35   2.0000      -0.539844       -14.6899
  36   2.0000      -0.520821       -14.1723
  37   2.0000      -0.512209       -13.9379
  38   2.0000      -0.501545       -13.6477
  39   2.0000      -0.490112       -13.3366
  40   2.0000      -0.477457       -12.9923
  41   2.0000      -0.452360       -12.3093
  42   2.0000      -0.408495       -11.1157
  43   2.0000      -0.355963        -9.6862
  44   0.0000       0.007848         0.2136
  45   0.0000       0.016178         0.4402
  46   0.0000       0.023039         0.6269
  47   0.0000       0.026345         0.7169
  48   0.0000       0.030196         0.8217

MULLIKEN ATOMIC CHARGES
-----------------------
   0 C :   -0.653331
   1 C :   -1.135004
   2 C :    0.634302
   3 C :   -0.479387
   4 C :    0.954144
   5 C :    1.154515
   6 O :   -0.824832
   7 O :   -0.726054
   8 C :    1.826133
   9 C :   -1.116853
  10 H :    0.242047
  11 H :    0.190804
  12 H :    0.190798
  13 C :   -1.107190
  14 H :    0.247275
  15 H :    0.222912
  16 H :    0.243448
  17 C :   -1.107285
  18 H :    0.247276
  19 H :    0.243507
  20 H :    0.222835
  21 H :    0.184734
  22 H :    0.215288
  23 H :    0.129916
Sum of atomic charges:   -0.0000000

LOEWDIN ATOMIC CHARGES
----------------------
   0 C :    0.356316
   1 C :    0.336972
   2 C :   -0.051670
   3 C :    0.362786
   4 C :   -0.716857
   5 C :   -0.700241
   6 O :    0.719386
   7 O :    0.716242
   8 C :   -0.306762
   9 C :    0.890314
  10 H :   -0.265798
  11 H :   -0.266969
  12 H :   -0.266969
  13 C :    0.920818
  14 H :   -0.264762
  15 H :   -0.284294
  16 H :   -0.253382
  17 C :    0.920817
  18 H :   -0.264761
  19 H :   -0.253383
  20 H :   -0.284295
  21 H :   -0.368912
  22 H :   -0.332823
  23 H :   -0.341773

  Mayer bond orders larger than 0.100000
B(  0-C ,  2-C ) :  -0.3282 B(  0-C ,  3-C ) :   1.5713 B(  0-C ,  4-C ) :   1.1553
B(  0-C ,  7-O ) :   0.3677 B(  0-C , 22-H ) :   1.0423 B(  1-C ,  2-C ) :   1.1219
B(  1-C ,  3-C ) :   0.2001 B(  1-C ,  5-C ) :   1.2757 B(  1-C ,  6-O ) :   0.4825
B(  1-C ,  8-C ) :  -0.3532 B(  1-C , 21-H ) :   1.0489 B(  2-C ,  3-C ) :   0.6750
B(  2-C ,  4-C ) :  -0.1024 B(  2-C ,  5-C ) :  -0.5769 B(  2-C ,  8-C ) :   0.2869
B(  3-C ,  4-C ) :  -0.1794 B(  3-C ,  8-C ) :  -0.1790 B(  3-C , 23-H ) :   1.1145
B(  4-C ,  5-C ) :   1.1794 B(  4-C ,  6-O ) :   0.3962 B(  4-C ,  7-O ) :   0.4926
B(  5-C ,  6-O ) :   0.3873 B(  5-C ,  7-O ) :   0.3876 B(  7-O , 22-H ) :   0.1233
B(  8-C ,  9-C ) :   0.1705 B(  8-C , 10-H ) :  -0.1312 B(  8-C , 11-H ) :  -0.1661
B(  8-C , 12-H ) :  -0.1661 B(  8-C , 13-C ) :   0.3565 B(  8-C , 15-H ) :  -0.1433
B(  8-C , 16-H ) :  -0.1151 B(  8-C , 17-C ) :   0.3563 B(  8-C , 19-H ) :  -0.1151
B(  8-C , 20-H ) :  -0.1434 B(  9-C , 10-H ) :   1.0600 B(  9-C , 11-H ) :   1.1186
B(  9-C , 12-H ) :   1.1186 B(  9-C , 13-C ) :   0.1300 B(  9-C , 17-C ) :   0.1300
B( 13-C , 14-H ) :   1.0203 B( 13-C , 15-H ) :   1.0749 B( 13-C , 16-H ) :   1.0633
B( 13-C , 17-C ) :   0.1851 B( 17-C , 18-H ) :   1.0203 B( 17-C , 19-H ) :   1.0633
B( 17-C , 20-H ) :   1.0750

MP2 TOTAL ENERGY:     -537.816884086 Eh
FINAL SINGLE POINT ENERGY      -537.816884085851

DIPOLE MOMENT
-------------
                                X             Y             Z
Electronic contribution:     20.41389       1.08851      -0.00021
Nuclear contribution   :    -23.12342      -2.04621       0.00030
                        -----------------------------------------
Total Dipole Moment    :     -2.70953      -0.95770       0.00009
                        -----------------------------------------
Magnitude (a.u.)       :      2.87380
Magnitude (Debye)      :      7.30462

Rotational constants in cm-1:     0.062257     0.019963     0.016795
Rotational constants in MHz :  1866.409122   598.471008   503.507079

                             ****ORCA TERMINATED NORMALLY****
TOTAL RUN TIME: 0 days 1 hours 46 minutes 31 seconds 651 msec
