                         Program Version 4.2.1 -  RELEASE  -
|  1> %pal
|  2>  nprocs 32
|  3> end
|  4> !RI-MP2 aug-cc-pVQZ aug-cc-pVQZ/C TightSCF
|  5> %maxcore 4500
|  6> *xyzfile -1 1  05_4TS.xyz
|  7>
|  8>
|  9>                          ****END OF INPUT****

CARTESIAN COORDINATES (ANGSTROEM)
---------------------------------
  O     -2.809502   -1.405303    0.072114
  C     -1.547197   -1.082511   -0.492248
  C     -1.254121    0.396769   -0.282410
  H     -1.594998   -1.323112   -1.557097
  H     -0.759208   -1.691370   -0.034512
  C      0.131421    0.820451   -0.788324
  O      0.246897    2.232690   -0.734898
  C      1.204048    0.196337    0.104660
  H      0.239583    0.515480   -1.831655
  C      1.941219   -0.956510   -0.414547
  O      2.716842   -1.716982    0.209083
  H      1.533497   -1.255753   -1.409853
  O      1.293294    0.709929    1.249435
  H      2.397716    0.251569   -0.840923
  O     -1.435098    0.692443    1.098851
  H     -2.001459    0.985162   -0.824535
  H     -0.545675    0.703743    1.507707
  H      0.599154    2.407027    0.151287
  H     -2.820299   -0.942164    0.920124

 Total Charge           Charge          ....   -1
 Multiplicity           Mult            ....    1
 Number of Electrons    NEL             ....   80
 Basis Dimension        Dim             .... 1214

ORBITAL ENERGIES
----------------

  NO   OCC          E(Eh)            E(eV)
   0   2.0000     -20.440175      -556.2054
   1   2.0000     -20.431128      -555.9593
   2   2.0000     -20.426738      -555.8398
   3   2.0000     -20.363218      -554.1113
   4   2.0000     -20.309892      -552.6603
   5   2.0000     -11.177761      -304.1623
   6   2.0000     -11.163529      -303.7751
   7   2.0000     -11.161444      -303.7183
   8   2.0000     -11.158698      -303.6436
   9   2.0000     -11.152317      -303.4700
  10   2.0000      -1.266587       -34.4656
  11   2.0000      -1.247851       -33.9557
  12   2.0000      -1.220105       -33.2007
  13   2.0000      -1.197495       -32.5855
  14   2.0000      -1.146092       -31.1868
  15   2.0000      -0.925523       -25.1847
  16   2.0000      -0.850389       -23.1403
  17   2.0000      -0.775418       -21.1002
  18   2.0000      -0.701836       -19.0979
  19   2.0000      -0.615827       -16.7575
  20   2.0000      -0.581586       -15.8258
  21   2.0000      -0.577924       -15.7261
  22   2.0000      -0.539110       -14.6699
  23   2.0000      -0.531432       -14.4610
  24   2.0000      -0.495430       -13.4813
  25   2.0000      -0.487196       -13.2573
  26   2.0000      -0.469376       -12.7724
  27   2.0000      -0.456288       -12.4162
  28   2.0000      -0.433353       -11.7921
  29   2.0000      -0.430263       -11.7080
  30   2.0000      -0.410759       -11.1773
  31   2.0000      -0.399372       -10.8675
  32   2.0000      -0.386425       -10.5152
  33   2.0000      -0.355827        -9.6825
  34   2.0000      -0.335480        -9.1289
  35   2.0000      -0.326924        -8.8961
  36   2.0000      -0.305935        -8.3249
  37   2.0000      -0.277712        -7.5569
  38   2.0000      -0.218255        -5.9390
  39   2.0000      -0.173962        -4.7338
  40   0.0000       0.104741         2.8501
  41   0.0000       0.112221         3.0537
  42   0.0000       0.114977         3.1287
  43   0.0000       0.121423         3.3041
  44   0.0000       0.126943         3.4543

MULLIKEN ATOMIC CHARGES
-----------------------
   0 O :   -0.988544
   1 C :    0.003076
   2 C :    0.297028
   3 H :    0.319156
   4 H :    0.142322
   5 C :    0.461125
   6 O :   -1.149028
   7 C :    0.744386
   8 H :    0.284871
   9 C :    0.499780
  10 O :   -1.067941
  11 H :    0.077161
  12 O :   -1.109956
  13 H :    0.057661
  14 O :   -1.083845
  15 H :    0.385643
  16 H :    0.350056
  17 H :    0.423771
  18 H :    0.353277
Sum of atomic charges:   -1.0000000

LOEWDIN ATOMIC CHARGES
----------------------
   0 O :    1.269237
   1 C :    0.161434
   2 C :   -0.241153
   3 H :   -0.301899
   4 H :   -0.309487
   5 C :   -0.298604
   6 O :    1.288006
   7 C :   -0.708841
   8 H :   -0.329157
   9 C :   -0.378115
  10 O :    0.574333
  11 H :   -0.374568
  12 O :    0.793329
  13 H :   -0.322325
  14 O :    1.303207
  15 H :   -0.311734
  16 H :   -1.023887
  17 H :   -0.901487
  18 H :   -0.888288

  Mayer bond orders larger than 0.100000
B(  0-O ,  1-C ) :   0.5346 B(  0-O , 18-H ) :   0.8219 B(  1-C ,  2-C ) :   0.9116
B(  1-C ,  3-H ) :   0.8852 B(  1-C ,  4-H ) :   0.9910 B(  2-C ,  5-C ) :   0.9627
B(  2-C ,  6-O ) :   0.2154 B(  2-C , 14-O ) :   0.3248 B(  2-C , 15-H ) :   0.7669
B(  5-C ,  7-C ) :   0.9925 B(  5-C ,  8-H ) :   0.9457 B(  5-C , 12-O ) :   0.1281
B(  6-O ,  7-C ) :   0.1279 B(  6-O , 17-H ) :   0.8122 B(  7-C ,  9-C ) :   1.0312
B(  7-C , 10-O ) :   0.2968 B(  7-C , 11-H ) :  -0.1674 B(  7-C , 12-O ) :   0.6653
B(  7-C , 13-H ) :   0.4380 B(  9-C , 10-O ) :   0.8094 B(  9-C , 11-H ) :   1.1298
B(  9-C , 12-O ) :   0.1967 B(  9-C , 13-H ) :   0.5881 B( 14-O , 16-H ) :   0.8002

MP2 TOTAL ENERGY:     -571.315285206 Eh
FINAL SINGLE POINT ENERGY      -571.315285205873

DIPOLE MOMENT
-------------
                                X             Y             Z
Electronic contribution:      0.74565       1.25590       2.76642
Nuclear contribution   :     -2.93656      -0.33961      -3.86992
                        -----------------------------------------
Total Dipole Moment    :     -2.19092       0.91629      -1.10350
                        -----------------------------------------
Magnitude (a.u.)       :      2.61867
Magnitude (Debye)      :      6.65612

Rotational constants in cm-1:     0.055459     0.032469     0.025379
Rotational constants in MHz :  1662.620421   973.400262   760.852609

                             ****ORCA TERMINATED NORMALLY****
TOTAL RUN TIME: 0 days 0 hours 48 minutes 47 seconds 718 msec
