                         Program Version 4.2.1 -  RELEASE  -
|  1> %pal
|  2>  nprocs 32
|  3> end
|  4> !RI-MP2 aug-cc-pVQZ aug-cc-pVQZ/C TightSCF
|  5> %maxcore 4500
|  6> *xyzfile 0 2  04_90P1.xyz
|  7>
|  8>
|  9>                          ****END OF INPUT****

CARTESIAN COORDINATES (ANGSTROEM)
---------------------------------
  C     -1.911264   -0.178165    0.079621
  C     -3.248721    0.265794   -0.110000
  O     -3.574527    1.423684   -0.315779
  O     -4.170932   -0.736615   -0.034280
  H     -5.029809   -0.322435   -0.186029
  N     -0.937948    0.763004    0.068003
  C      0.407723    0.419459    0.069736
  C      0.782588   -0.902557   -0.047678
  N     -0.180422   -1.859472   -0.128420
  C     -1.509137   -1.580945    0.413858
  H     -2.227611   -2.276922   -0.013358
  H     -1.512201   -1.723575    1.505130
  C      1.392689    1.443648    0.104560
  N      2.704238    0.932067    0.040274
  C      2.991643   -0.391343   -0.076238
  N      2.078042   -1.312738   -0.125310
  O      1.201244    2.645590    0.172761
  N      4.311416   -0.744401   -0.095784
  H      4.988098   -0.084335   -0.443039
  H      4.479757   -1.709626   -0.331972
  H      3.435473    1.624938    0.122044
  H     -1.197588    1.735234   -0.057181
  H      0.157190   -2.809114   -0.091721

 Total Charge           Charge          ....    0
 Multiplicity           Mult            ....    2
 Number of Electrons    NEL             ....  109
 Basis Dimension        Dim             .... 1568

ORBITAL ENERGIES
----------------
                 SPIN UP ORBITALS
  NO   OCC          E(Eh)            E(eV)
   0   1.0000     -20.595652      -560.4362
   1   1.0000     -20.530416      -558.6610
   2   1.0000     -20.518898      -558.3476
   3   1.0000     -15.631562      -425.3564
   4   1.0000     -15.612598      -424.8404
   5   1.0000     -15.602005      -424.5521
   6   1.0000     -15.591269      -424.2600
   7   1.0000     -15.560892      -423.4334
   8   1.0000     -11.397419      -310.1395
   9   1.0000     -11.364953      -309.2561
  10   1.0000     -11.362266      -309.1830
  11   1.0000     -11.337782      -308.5167
  12   1.0000     -11.286031      -307.1085
  13   1.0000     -11.279773      -306.9382
  14   1.0000     -11.255068      -306.2660
  15   1.0000      -1.448782       -39.4234
  16   1.0000      -1.401854       -38.1464
  17   1.0000      -1.353492       -36.8304
  18   1.0000      -1.348642       -36.6984
  19   1.0000      -1.313797       -35.7502
  20   1.0000      -1.256725       -34.1972
  21   1.0000      -1.229162       -33.4472
  22   1.0000      -1.198927       -32.6245
  23   1.0000      -1.080221       -29.3943
  24   1.0000      -0.992781       -27.0150
  25   1.0000      -0.951763       -25.8988
  26   1.0000      -0.892400       -24.2834
  27   1.0000      -0.876737       -23.8572
  28   1.0000      -0.814918       -22.1750
  29   1.0000      -0.798926       -21.7399
  30   1.0000      -0.748445       -20.3662
  31   1.0000      -0.727221       -19.7887
  32   1.0000      -0.715429       -19.4678
  33   1.0000      -0.703062       -19.1313
  34   1.0000      -0.697395       -18.9771
  35   1.0000      -0.685549       -18.6547
  36   1.0000      -0.675088       -18.3701
  37   1.0000      -0.657395       -17.8886
  38   1.0000      -0.648512       -17.6469
  39   1.0000      -0.625888       -17.0313
  40   1.0000      -0.620241       -16.8776
  41   1.0000      -0.608122       -16.5478
  42   1.0000      -0.588014       -16.0007
  43   1.0000      -0.576594       -15.6899
  44   1.0000      -0.554907       -15.0998
  45   1.0000      -0.539472       -14.6798
  46   1.0000      -0.520532       -14.1644
  47   1.0000      -0.497341       -13.5333
  48   1.0000      -0.466695       -12.6994
  49   1.0000      -0.453362       -12.3366
  50   1.0000      -0.448183       -12.1957
  51   1.0000      -0.442610       -12.0440
  52   1.0000      -0.398194       -10.8354
  53   1.0000      -0.338588        -9.2134
  54   1.0000      -0.258923        -7.0457
  55   0.0000       0.011162         0.3037
  56   0.0000       0.023044         0.6270
  57   0.0000       0.030630         0.8335
  58   0.0000       0.036141         0.9835
  59   0.0000       0.038669         1.0522

                 SPIN DOWN ORBITALS
  NO   OCC          E(Eh)            E(eV)
   0   1.0000     -20.595009      -560.4187
   1   1.0000     -20.521180      -558.4097
   2   1.0000     -20.519605      -558.3668
   3   1.0000     -15.632177      -425.3732
   4   1.0000     -15.612221      -424.8301
   5   1.0000     -15.591282      -424.2604
   6   1.0000     -15.589610      -424.2148
   7   1.0000     -15.562253      -423.4704
   8   1.0000     -11.396119      -310.1042
   9   1.0000     -11.367334      -309.3209
  10   1.0000     -11.361666      -309.1666
  11   1.0000     -11.334879      -308.4377
  12   1.0000     -11.287849      -307.1580
  13   1.0000     -11.265729      -306.5561
  14   1.0000     -11.258593      -306.3619
  15   1.0000      -1.442759       -39.2595
  16   1.0000      -1.402022       -38.1510
  17   1.0000      -1.352991       -36.8168
  18   1.0000      -1.333174       -36.2775
  19   1.0000      -1.302926       -35.4544
  20   1.0000      -1.240317       -33.7507
  21   1.0000      -1.229087       -33.4452
  22   1.0000      -1.197860       -32.5954
  23   1.0000      -1.065287       -28.9879
  24   1.0000      -0.981261       -26.7015
  25   1.0000      -0.938341       -25.5336
  26   1.0000      -0.889427       -24.2026
  27   1.0000      -0.872684       -23.7469
  28   1.0000      -0.811033       -22.0693
  29   1.0000      -0.796722       -21.6799
  30   1.0000      -0.746011       -20.3000
  31   1.0000      -0.721414       -19.6307
  32   1.0000      -0.712582       -19.3903
  33   1.0000      -0.699273       -19.0282
  34   1.0000      -0.690105       -18.7787
  35   1.0000      -0.681898       -18.5554
  36   1.0000      -0.661938       -18.0122
  37   1.0000      -0.649456       -17.6726
  38   1.0000      -0.636433       -17.3182
  39   1.0000      -0.622104       -16.9283
  40   1.0000      -0.605933       -16.4883
  41   1.0000      -0.603733       -16.4284
  42   1.0000      -0.582279       -15.8446
  43   1.0000      -0.560460       -15.2509
  44   1.0000      -0.548638       -14.9292
  45   1.0000      -0.521763       -14.1979
  46   1.0000      -0.480522       -13.0757
  47   1.0000      -0.467091       -12.7102
  48   1.0000      -0.449882       -12.2419
  49   1.0000      -0.445301       -12.1173
  50   1.0000      -0.442870       -12.0511
  51   1.0000      -0.436430       -11.8759
  52   1.0000      -0.396124       -10.7791
  53   1.0000      -0.293209        -7.9786
  54   0.0000       0.011168         0.3039
  55   0.0000       0.023023         0.6265
  56   0.0000       0.030640         0.8337
  57   0.0000       0.036152         0.9837
  58   0.0000       0.038710         1.0533

MULLIKEN ATOMIC CHARGES AND SPIN POPULATIONS
--------------------------------------------
   0 C :   -0.587083    0.749406
   1 C :    1.678018   -0.129588
   2 O :   -0.873646    0.208953
   3 O :   -0.757712    0.014149
   4 H :    0.315766   -0.003148
   5 N :   -0.435282    0.241403
   6 C :   -0.392345   -0.167487
   7 C :    1.033970    0.161519
   8 N :   -0.683641    0.028645
   9 C :   -0.132439   -0.123193
  10 H :    0.274474    0.007944
  11 H :    0.305350    0.040047
  12 C :    1.593064    0.021806
  13 N :   -0.658835   -0.015955
  14 C :    0.819003    0.049194
  15 N :   -0.743140   -0.048375
  16 O :   -0.942280   -0.015281
  17 N :   -0.817807    0.007196
  18 H :    0.284232    0.000642
  19 H :    0.296041   -0.000291
  20 H :    0.047170    0.000938
  21 H :    0.207257   -0.026225
  22 H :    0.169866   -0.002300
Sum of atomic charges         :    0.0000000

LOEWDIN ATOMIC CHARGES AND SPIN POPULATIONS
-------------------------------------------
   0 C :   -0.238948    0.296503
   1 C :   -1.053752    0.114818
   2 O :    0.697635    0.146586
   3 O :    1.240062    0.017373
   4 H :   -0.824592   -0.002080
   5 N :    0.808250    0.203456
   6 C :   -0.270920   -0.003307
   7 C :   -0.505863    0.037218
   8 N :    0.874837    0.035186
   9 C :    0.377742    0.075414
  10 H :   -0.312470    0.009621
  11 H :   -0.255604    0.016099
  12 C :   -0.857771   -0.007241
  13 N :    0.824683   -0.000097
  14 C :   -0.622734    0.020155
  15 N :    0.622691    0.001913
  16 O :    0.697158   -0.009770
  17 N :    1.277026    0.011980
  18 H :   -0.480993    0.001700
  19 H :   -0.501467    0.001781
  20 H :   -0.490431   -0.001163
  21 H :   -0.517243    0.028237
  22 H :   -0.487296    0.005619

  Mayer bond orders larger than 0.100000
B(  0-C ,  1-C ) :   1.5155 B(  0-C ,  2-O ) :   0.5483 B(  0-C ,  3-O ) :   0.2151
B(  0-C ,  5-N ) :   0.7930 B(  0-C ,  6-C ) :  -0.1448 B(  0-C ,  8-N ) :  -0.1511
B(  0-C ,  9-C ) :   0.8054 B(  0-C , 21-H ) :  -0.1098 B(  1-C ,  2-O ) :   0.8662
B(  1-C ,  3-O ) :   0.5450 B(  1-C ,  9-C ) :  -0.1063 B(  2-O ,  3-O ) :   0.1283
B(  3-O ,  4-H ) :   0.9377 B(  5-N ,  6-C ) :   0.4782 B(  5-N ,  7-C ) :   0.2160
B(  5-N , 12-C ) :  -0.1012 B(  5-N , 21-H ) :   1.1534 B(  6-C ,  7-C ) :   1.4613
B(  6-C ,  8-N ) :   0.1875 B(  6-C , 12-C ) :   1.5676 B(  6-C , 13-N ) :  -0.1435
B(  6-C , 16-O ) :   0.8019 B(  6-C , 21-H ) :  -0.1243 B(  7-C ,  8-N ) :   0.7417
B(  7-C , 12-C ) :  -0.2975 B(  7-C , 15-N ) :   0.6187 B(  8-N ,  9-C ) :   0.9529
B(  8-N , 22-H ) :   1.0376 B(  9-C , 10-H ) :   0.9430 B(  9-C , 11-H ) :   0.8093
B( 12-C , 13-N ) :   0.9462 B( 12-C , 16-O ) :   0.3510 B( 12-C , 20-H ) :  -0.1451
B( 13-N , 14-C ) :   1.0764 B( 13-N , 16-O ) :   0.2871 B( 13-N , 20-H ) :   1.2560
B( 14-C , 15-N ) :   1.6877 B( 14-C , 17-N ) :   0.9963 B( 17-N , 18-H ) :   0.9370
B( 17-N , 19-H ) :   0.9064

MP2 TOTAL ENERGY:     -769.933796602 Eh
FINAL SINGLE POINT ENERGY      -769.933796601758

DIPOLE MOMENT
-------------
                                X             Y             Z
Electronic contribution:     -0.88106       3.36876      -0.55951
Nuclear contribution   :      2.95802      -5.38269       0.48668
                        -----------------------------------------
Total Dipole Moment    :      2.07696      -2.01393      -0.07283
                        -----------------------------------------
Magnitude (a.u.)       :      2.89396
Magnitude (Debye)      :      7.35585

Rotational constants in cm-1:     0.047287     0.012220     0.009801
Rotational constants in MHz :  1417.641323   366.356779   293.815760

                             ****ORCA TERMINATED NORMALLY****
TOTAL RUN TIME: 0 days 3 hours 31 minutes 23 seconds 112 msec
