                         Program Version 4.2.1 -  RELEASE  -
|  1> %pal
|  2>  nprocs 32
|  3> end
|  4> !RI-MP2 aug-cc-pVQZ aug-cc-pVQZ/C TightSCF
|  5> %maxcore 4500
|  6> *xyzfile 0 1  03_24R1.xyz
|  7>
|  8>
|  9>                          ****END OF INPUT****

CARTESIAN COORDINATES (ANGSTROEM)
---------------------------------
  C      2.282669    0.501780   -0.067957
  C      2.666425   -0.968414   -0.282045
  O      3.432548   -1.466427    0.683492
  O      2.325169   -1.597322   -1.243890
  C      0.874373    0.768781   -0.590944
  H      2.968706    1.071376   -0.701446
  N      2.540900    0.891493    1.314488
  H      3.531195   -0.746696    1.343051
  C     -0.243060    0.102129    0.180035
  H      1.736331    0.735067    1.911133
  H      2.787925    1.869714    1.385072
  H     -0.040593   -0.973007    0.208786
  C     -1.615731    0.348597   -0.437287
  H     -0.244161    0.463894    1.214035
  H     -1.617632   -0.033904   -1.463830
  H     -1.789997    1.426165   -0.504826
  C     -2.738627   -0.305664    0.357902
  H     -2.556879   -1.385342    0.425945
  C     -4.111772   -0.069987   -0.252149
  H     -2.746878    0.072510    1.384642
  H     -4.106934   -0.421398   -1.295097
  H     -4.310463    1.005204   -0.282935
  N     -5.150324   -0.692918    0.563484
  H     -5.056771   -1.702129    0.565564
  H     -6.076425   -0.472901    0.218895
  F      0.689686    2.162849   -0.541635
  H      0.833974    0.482450   -1.642222

 Total Charge           Charge          ....    0
 Multiplicity           Mult            ....    1
 Number of Electrons    NEL             ....   96
 Basis Dimension        Dim             .... 1650

ORBITAL ENERGIES
----------------

  NO   OCC          E(Eh)            E(eV)
   0   2.0000     -26.283052      -715.1982
   1   2.0000     -20.603240      -560.6427
   2   2.0000     -20.542374      -558.9864
   3   2.0000     -15.586087      -424.1190
   4   2.0000     -15.539256      -422.8447
   5   2.0000     -11.383356      -309.7569
   6   2.0000     -11.324485      -308.1549
   7   2.0000     -11.298528      -307.4486
   8   2.0000     -11.249011      -306.1012
   9   2.0000     -11.239521      -305.8429
  10   2.0000     -11.227664      -305.5203
  11   2.0000     -11.220989      -305.3386
  12   2.0000      -1.593925       -43.3729
  13   2.0000      -1.465043       -39.8658
  14   2.0000      -1.368262       -37.2323
  15   2.0000      -1.231837       -33.5200
  16   2.0000      -1.181038       -32.1377
  17   2.0000      -1.099027       -29.9060
  18   2.0000      -1.038928       -28.2707
  19   2.0000      -0.978226       -26.6189
  20   2.0000      -0.896674       -24.3997
  21   2.0000      -0.841228       -22.8910
  22   2.0000      -0.811521       -22.0826
  23   2.0000      -0.805490       -21.9185
  24   2.0000      -0.754243       -20.5240
  25   2.0000      -0.724882       -19.7251
  26   2.0000      -0.711620       -19.3642
  27   2.0000      -0.681759       -18.5516
  28   2.0000      -0.675933       -18.3931
  29   2.0000      -0.666399       -18.1336
  30   2.0000      -0.651234       -17.7210
  31   2.0000      -0.641702       -17.4616
  32   2.0000      -0.635700       -17.2983
  33   2.0000      -0.618820       -16.8390
  34   2.0000      -0.603267       -16.4157
  35   2.0000      -0.576629       -15.6909
  36   2.0000      -0.568002       -15.4561
  37   2.0000      -0.560896       -15.2628
  38   2.0000      -0.542400       -14.7595
  39   2.0000      -0.518435       -14.1073
  40   2.0000      -0.513573       -13.9750
  41   2.0000      -0.485309       -13.2059
  42   2.0000      -0.481371       -13.0988
  43   2.0000      -0.479772       -13.0553
  44   2.0000      -0.474262       -12.9053
  45   2.0000      -0.462505       -12.5854
  46   2.0000      -0.427533       -11.6338
  47   2.0000      -0.391033       -10.6406
  48   0.0000       0.019538         0.5316
  49   0.0000       0.023895         0.6502
  50   0.0000       0.028697         0.7809
  51   0.0000       0.034504         0.9389
  52   0.0000       0.039124         1.0646

MULLIKEN ATOMIC CHARGES
-----------------------
   0 C :   -0.108591
   1 C :    1.262944
   2 O :   -0.944715
   3 O :   -0.859115
   4 C :    0.576710
   5 H :    0.356228
   6 N :   -0.741558
   7 H :    0.391325
   8 C :   -0.344127
   9 H :    0.235669
  10 H :    0.197284
  11 H :    0.206851
  12 C :   -0.263988
  13 H :    0.158731
  14 H :    0.260098
  15 H :    0.296715
  16 C :   -0.494883
  17 H :    0.251156
  18 C :   -0.211717
  19 H :    0.278280
  20 H :    0.207262
  21 H :    0.258224
  22 N :   -0.817484
  23 H :    0.272565
  24 H :    0.184473
  25 F :   -0.832585
  26 H :    0.224250
Sum of atomic charges:   -0.0000000

LOEWDIN ATOMIC CHARGES
----------------------
   0 C :   -0.089076
   1 C :   -1.032565
   2 O :    1.267932
   3 O :    0.703652
   4 C :   -0.424324
   5 H :   -0.296548
   6 N :    1.304877
   7 H :   -0.938878
   8 C :    0.491941
   9 H :   -0.492118
  10 H :   -0.451944
  11 H :   -0.271268
  12 C :    0.526113
  13 H :   -0.281017
  14 H :   -0.258776
  15 H :   -0.268648
  16 C :    0.505854
  17 H :   -0.264718
  18 C :    0.350437
  19 H :   -0.267322
  20 H :   -0.267655
  21 H :   -0.286885
  22 N :    1.283178
  23 H :   -0.510868
  24 H :   -0.506829
  25 F :    0.807920
  26 H :   -0.332468

  Mayer bond orders larger than 0.100000
B(  0-C ,  1-C ) :   1.2157 B(  0-C ,  2-O ) :   0.1441 B(  0-C ,  3-O ) :   0.1581
B(  0-C ,  4-C ) :   1.0091 B(  0-C ,  5-H ) :   0.8324 B(  0-C ,  6-N ) :   0.6658
B(  0-C ,  8-C ) :  -0.1896 B(  0-C , 25-F ) :   0.1582 B(  1-C ,  2-O ) :   0.5386
B(  1-C ,  3-O ) :   1.3445 B(  2-O ,  3-O ) :   0.1745 B(  2-O ,  7-H ) :   0.7677
B(  4-C ,  8-C ) :   0.9435 B(  4-C , 26-H ) :   0.9155 B(  6-N ,  7-H ) :   0.1111
B(  6-N ,  9-H ) :   0.9728 B(  6-N , 10-H ) :   1.0286 B(  8-C , 11-H ) :   0.8875
B(  8-C , 12-C ) :   1.0749 B(  8-C , 13-H ) :   0.8913 B(  8-C , 25-F ) :   0.1454
B( 12-C , 14-H ) :   0.8298 B( 12-C , 15-H ) :   0.7896 B( 12-C , 16-C ) :   1.0201
B( 12-C , 18-C ) :  -0.1149 B( 16-C , 17-H ) :   0.8139 B( 16-C , 18-C ) :   1.1880
B( 16-C , 19-H ) :   0.8100 B( 18-C , 20-H ) :   0.9225 B( 18-C , 21-H ) :   0.8746
B( 18-C , 22-N ) :   0.9635 B( 22-N , 23-H ) :   0.8806 B( 22-N , 24-H ) :   1.0082

MP2 TOTAL ENERGY:     -634.690891327 Eh
FINAL SINGLE POINT ENERGY      -634.690891327073

DIPOLE MOMENT
-------------
                                X             Y             Z
Electronic contribution:     17.07096       1.71127      -2.75953
Nuclear contribution   :    -17.49691      -0.80142       3.34258
                        -----------------------------------------
Total Dipole Moment    :     -0.42595       0.90985       0.58305
                        -----------------------------------------
Magnitude (a.u.)       :      1.16156
Magnitude (Debye)      :      2.95244

Rotational constants in cm-1:     0.053212     0.011435     0.010534
Rotational constants in MHz :  1595.266529   342.804297   315.799374

                             ****ORCA TERMINATED NORMALLY****
TOTAL RUN TIME: 0 days 1 hours 35 minutes 28 seconds 155 msec
