                         Program Version 4.2.1 -  RELEASE  -
|  1> %pal
|  2>  nprocs 32
|  3> end
|  4> !RI-MP2 aug-cc-pVQZ aug-cc-pVQZ/C TightSCF
|  5> %maxcore 4500
|  6> *xyzfile 1 1  05_33P1.xyz
|  7>
|  8>
|  9>                          ****END OF INPUT****

CARTESIAN COORDINATES (ANGSTROEM)
---------------------------------
  C     -3.953564   -0.727408   -0.000019
  O     -5.177763   -0.317970    0.000039
  C     -5.478434    1.092475    0.000179
  H     -5.071917    1.555084   -0.899110
  H     -5.071913    1.554907    0.899557
  C     -2.809951    0.036583    0.000042
  H     -2.854048    1.117575    0.000152
  C     -1.578224   -0.610316   -0.000039
  H     -1.582165   -1.698407   -0.000149
  H     -6.561370    1.154492    0.000187
  C     -0.336494    0.022230    0.000007
  H     -0.301669    1.104832    0.000116
  C      0.815332   -0.722515   -0.000083
  H      0.698595   -1.803990   -0.000189
  C      2.164814   -0.253588   -0.000055
  C      3.198212   -1.207189   -0.000157
  C      2.498202    1.114245    0.000071
  C      4.520839   -0.810365   -0.000134
  H      2.948555   -2.261884   -0.000254
  C      3.818894    1.504822    0.000092
  H      1.721617    1.867823    0.000150
  C      4.830192    0.544356   -0.000010
  H      5.311155   -1.549488   -0.000213
  H      4.073485    2.556686    0.000188
  H      5.866679    0.858773    0.000008
  H     -3.893810   -1.812623   -0.000126

 Total Charge           Charge          ....    1
 Multiplicity           Mult            ....    1
 Number of Electrons    NEL             ....   92
 Basis Dimension        Dim             .... 1638

ORBITAL ENERGIES
----------------

  NO   OCC          E(Eh)            E(eV)
   0   2.0000     -20.767740      -565.1189
   1   2.0000     -11.503038      -313.0136
   2   2.0000     -11.451066      -311.5993
   3   2.0000     -11.436648      -311.2070
   4   2.0000     -11.424765      -310.8837
   5   2.0000     -11.385237      -309.8081
   6   2.0000     -11.381678      -309.7112
   7   2.0000     -11.376648      -309.5743
   8   2.0000     -11.375534      -309.5440
   9   2.0000     -11.374348      -309.5118
  10   2.0000     -11.370105      -309.3963
  11   2.0000     -11.354790      -308.9795
  12   2.0000     -11.353292      -308.9388
  13   2.0000      -1.605007       -43.6745
  14   2.0000      -1.305735       -35.5309
  15   2.0000      -1.279743       -34.8236
  16   2.0000      -1.223201       -33.2850
  17   2.0000      -1.164146       -31.6780
  18   2.0000      -1.150418       -31.3045
  19   2.0000      -1.127191       -30.6724
  20   2.0000      -1.054806       -28.7027
  21   2.0000      -0.980710       -26.6865
  22   2.0000      -0.959515       -26.1097
  23   2.0000      -0.938134       -25.5279
  24   2.0000      -0.915887       -24.9226
  25   2.0000      -0.871517       -23.7152
  26   2.0000      -0.855137       -23.2695
  27   2.0000      -0.827082       -22.5060
  28   2.0000      -0.812622       -22.1126
  29   2.0000      -0.794745       -21.6261
  30   2.0000      -0.775984       -21.1156
  31   2.0000      -0.753083       -20.4924
  32   2.0000      -0.731342       -19.9008
  33   2.0000      -0.719313       -19.5735
  34   2.0000      -0.716146       -19.4873
  35   2.0000      -0.708708       -19.2849
  36   2.0000      -0.682642       -18.5756
  37   2.0000      -0.673631       -18.3304
  38   2.0000      -0.656456       -17.8631
  39   2.0000      -0.653509       -17.7829
  40   2.0000      -0.634914       -17.2769
  41   2.0000      -0.619418       -16.8552
  42   2.0000      -0.606916       -16.5150
  43   2.0000      -0.523588       -14.2476
  44   2.0000      -0.467267       -12.7150
  45   2.0000      -0.440024       -11.9737
  46   0.0000      -0.137069        -3.7298
  47   0.0000      -0.068299        -1.8585
  48   0.0000      -0.062701        -1.7062
  49   0.0000      -0.051297        -1.3958
  50   0.0000      -0.046705        -1.2709

MULLIKEN ATOMIC CHARGES
-----------------------
   0 C :    0.446935
   1 O :   -0.893162
   2 C :   -0.693453
   3 H :    0.286466
   4 H :    0.286467
   5 C :   -0.943414
   6 H :    0.423910
   7 C :   -0.026222
   8 H :    0.374871
   9 H :    0.565769
  10 C :   -0.218687
  11 H :    0.333963
  12 C :    0.009674
  13 H :    0.268553
  14 C :    0.496987
  15 C :   -0.444507
  16 C :   -0.373519
  17 C :   -0.274396
  18 H :    0.218176
  19 C :   -0.244662
  20 H :    0.159914
  21 C :   -0.360161
  22 H :    0.297275
  23 H :    0.277579
  24 H :    0.335099
  25 H :    0.690546
Sum of atomic charges:    1.0000000

LOEWDIN ATOMIC CHARGES
----------------------
   0 C :    0.035771
   1 O :    0.924684
   2 C :    0.667198
   3 H :   -0.291503
   4 H :   -0.291501
   5 C :    0.394812
   6 H :   -0.350720
   7 C :    0.389084
   8 H :   -0.316053
   9 H :   -0.296514
  10 C :    0.421006
  11 H :   -0.340861
  12 C :    0.411147
  13 H :   -0.318735
  14 C :   -0.060896
  15 C :    0.361427
  16 C :    0.362607
  17 C :    0.388146
  18 H :   -0.303967
  19 C :    0.389062
  20 H :   -0.322406
  21 C :    0.383558
  22 H :   -0.307499
  23 H :   -0.307163
  24 H :   -0.295788
  25 H :   -0.324895

  Mayer bond orders larger than 0.100000
B(  0-C ,  1-O ) :   0.6387 B(  0-C ,  5-C ) :   1.9189 B(  0-C ,  7-C ) :  -0.4837
B(  0-C , 25-H ) :   0.5213 B(  1-O ,  2-C ) :   0.8255 B(  1-O ,  5-C ) :   0.3135
B(  2-C ,  3-H ) :   0.9115 B(  2-C ,  4-H ) :   0.9115 B(  2-C ,  9-H ) :   0.6705
B(  5-C ,  6-H ) :   0.7802 B(  5-C ,  7-C ) :   0.9738 B(  5-C , 10-C ) :  -0.8417
B(  7-C ,  8-H ) :   0.8608 B(  7-C , 10-C ) :   1.0001 B(  7-C , 12-C ) :  -0.8230
B( 10-C , 11-H ) :   0.9650 B( 10-C , 12-C ) :   1.0081 B( 10-C , 14-C ) :  -0.5785
B( 10-C , 16-C ) :  -0.1940 B( 11-H , 16-C ) :  -0.1331 B( 12-C , 13-H ) :   0.9864
B( 12-C , 14-C ) :   0.8703 B( 12-C , 15-C ) :  -0.4911 B( 12-C , 16-C ) :  -0.3554
B( 13-H , 14-C ) :  -0.2323 B( 14-C , 15-C ) :   0.9246 B( 14-C , 16-C ) :   1.1392
B( 14-C , 17-C ) :  -0.4444 B( 14-C , 18-H ) :  -0.1232 B( 14-C , 19-C ) :  -0.3790
B( 15-C , 16-C ) :   0.1414 B( 15-C , 17-C ) :   1.2366 B( 15-C , 18-H ) :   1.0615
B( 15-C , 21-C ) :   0.1078 B( 15-C , 22-H ) :  -0.1442 B( 16-C , 17-C ) :   0.1235
B( 16-C , 19-C ) :   1.1868 B( 16-C , 20-H ) :   1.0731 B( 16-C , 23-H ) :  -0.1157
B( 17-C , 21-C ) :   1.1547 B( 17-C , 22-H ) :   1.1026 B( 19-C , 21-C ) :   1.1390
B( 19-C , 23-H ) :   1.0792 B( 21-C , 22-H ) :  -0.1001 B( 21-C , 24-H ) :   1.0024

MP2 TOTAL ENERGY:     -539.081287294 Eh
FINAL SINGLE POINT ENERGY      -539.081287294046

DIPOLE MOMENT
-------------
                                X             Y             Z
Electronic contribution:      3.24663      -2.70291      -0.00031
Nuclear contribution   :     -4.83792       2.66049       0.00032
                        -----------------------------------------
Total Dipole Moment    :     -1.59129      -0.04243       0.00002
                        -----------------------------------------
Magnitude (a.u.)       :      1.59186
Magnitude (Debye)      :      4.04618

Rotational constants in cm-1:     0.117858     0.007390     0.006963
Rotational constants in MHz :  3533.307598   221.532630   208.743170

                             ****ORCA TERMINATED NORMALLY****
TOTAL RUN TIME: 0 days 1 hours 44 minutes 4 seconds 436 msec
