                         Program Version 4.2.1 -  RELEASE  -
|  1> %pal
|  2>  nprocs 32
|  3> end
|  4> !RI-MP2 aug-cc-pVQZ aug-cc-pVQZ/C TightSCF
|  5> %maxcore 4500
|  6> *xyzfile 0 1  04_70P2.xyz
|  7>
|  8>
|  9>                          ****END OF INPUT****

CARTESIAN COORDINATES (ANGSTROEM)
---------------------------------
  O      0.032088   -0.000009    1.446068
  C     -0.006034    0.000000    0.012723
  C     -1.485089   -0.000063   -0.340696
  C      0.680664   -1.256887   -0.515102
  C      0.680551    1.256957   -0.515082
  H      0.202809   -2.147655   -0.104060
  H      1.736728   -1.271137   -0.229577
  H      0.629918   -1.304919   -1.605253
  H      0.202620    2.147675   -0.104019
  H      0.629794    1.305007   -1.605232
  H      1.736616    1.271295   -0.229563
  H     -1.970700   -0.884339    0.075005
  H     -1.624419   -0.000063   -1.423532
  H     -1.970779    0.884164    0.075014
  H      0.950157    0.000001    1.731615

 Total Charge           Charge          ....    0
 Multiplicity           Mult            ....    1
 Number of Electrons    NEL             ....   42
 Basis Dimension        Dim             ....  860

ORBITAL ENERGIES
----------------

  NO   OCC          E(Eh)            E(eV)
   0   2.0000     -20.546425      -559.0966
   1   2.0000     -11.282723      -307.0185
   2   2.0000     -11.213441      -305.1332
   3   2.0000     -11.213425      -305.1328
   4   2.0000     -11.207445      -304.9701
   5   2.0000      -1.355749       -36.8918
   6   2.0000      -1.065538       -28.9948
   7   2.0000      -0.940597       -25.5950
   8   2.0000      -0.938943       -25.5499
   9   2.0000      -0.771796       -21.0016
  10   2.0000      -0.669609       -18.2210
  11   2.0000      -0.623290       -16.9606
  12   2.0000      -0.621428       -16.9099
  13   2.0000      -0.575870       -15.6702
  14   2.0000      -0.556269       -15.1369
  15   2.0000      -0.531006       -14.4494
  16   2.0000      -0.516172       -14.0457
  17   2.0000      -0.509336       -13.8597
  18   2.0000      -0.503529       -13.7017
  19   2.0000      -0.462149       -12.5757
  20   2.0000      -0.432518       -11.7694
  21   0.0000       0.025267         0.6876
  22   0.0000       0.033046         0.8992
  23   0.0000       0.033675         0.9164
  24   0.0000       0.037345         1.0162
  25   0.0000       0.053421         1.4537

MULLIKEN ATOMIC CHARGES
-----------------------
   0 O :   -1.037179
   1 C :    1.608863
   2 C :   -1.048068
   3 C :   -1.003958
   4 C :   -1.003958
   5 H :    0.272871
   6 H :    0.227896
   7 H :    0.234483
   8 H :    0.272877
   9 H :    0.234482
  10 H :    0.227897
  11 H :    0.240420
  12 H :    0.230090
  13 H :    0.240417
  14 H :    0.302867
Sum of atomic charges:   -0.0000000

LOEWDIN ATOMIC CHARGES
----------------------
   0 O :    1.294025
   1 C :   -0.656895
   2 C :    0.879093
   3 C :    0.892469
   4 C :    0.892468
   5 H :   -0.280191
   6 H :   -0.280490
   7 H :   -0.274956
   8 H :   -0.280191
   9 H :   -0.274957
  10 H :   -0.280490
  11 H :   -0.280828
  12 H :   -0.276669
  13 H :   -0.280829
  14 H :   -0.791559

  Mayer bond orders larger than 0.100000
B(  0-O ,  1-C ) :  -0.1470 B(  0-O ,  2-C ) :   0.1876 B(  0-O ,  3-C ) :   0.1249
B(  0-O ,  4-C ) :   0.1249 B(  0-O , 14-H ) :   0.9361 B(  1-C ,  2-C ) :   0.5158
B(  1-C ,  3-C ) :   0.6177 B(  1-C ,  4-C ) :   0.6177 B(  2-C , 11-H ) :   1.0091
B(  2-C , 12-H ) :   1.0166 B(  2-C , 13-H ) :   1.0091 B(  3-C ,  5-H ) :   0.9755
B(  3-C ,  6-H ) :   0.9964 B(  3-C ,  7-H ) :   0.9921 B(  4-C ,  8-H ) :   0.9755
B(  4-C ,  9-H ) :   0.9921 B(  4-C , 10-H ) :   0.9964

MP2 TOTAL ENERGY:     -233.288728540 Eh
FINAL SINGLE POINT ENERGY      -233.288728540070

DIPOLE MOMENT
-------------
                                X             Y             Z
Electronic contribution:     -0.07185      -0.00002       3.15291
Nuclear contribution   :      0.55682       0.00003      -3.61476
                        -----------------------------------------
Total Dipole Moment    :      0.48497       0.00001      -0.46185
                        -----------------------------------------
Magnitude (a.u.)       :      0.66970
Magnitude (Debye)      :      1.70225

Rotational constants in cm-1:     0.157755     0.156867     0.151001
Rotational constants in MHz :  4729.366563  4702.754606  4526.903338

                             ****ORCA TERMINATED NORMALLY****
TOTAL RUN TIME: 0 days 0 hours 13 minutes 51 seconds 208 msec
