                         Program Version 4.2.1 -  RELEASE  -
|  1> %pal
|  2>  nprocs 32
|  3> end
|  4> !RI-MP2 aug-cc-pVQZ aug-cc-pVQZ/C TightSCF
|  5> %maxcore 4500
|  6> *xyzfile 0 1  10_3TS.xyz
|  7>
|  8>
|  9>                          ****END OF INPUT****

CARTESIAN COORDINATES (ANGSTROEM)
---------------------------------
  C     -1.086380    2.422865   -0.956908
  N     -0.192176    1.265578   -0.875992
  C      0.762693    1.237440    0.078087
  H      0.986815    2.221422    0.477854
  O     -0.699881    0.129382   -1.200216
  C     -1.118558   -0.593047    0.740688
  C     -2.557507   -0.374908    0.532573
  C     -0.365097    0.295783    1.495939
  H     -0.890898    1.129138    1.950272
  H      0.477067   -0.089981    2.054072
  H     -0.760203   -1.590951    0.534890
  C      1.948766    0.353021   -0.012231
  H     -1.807296    2.395620   -0.138488
  H     -0.495792    3.336991   -0.928038
  H     -1.615587    2.356815   -1.904279
  C      3.077029    0.724257    0.721201
  C      4.227608   -0.047542    0.697926
  C      4.271125   -1.202828   -0.070074
  C      3.156096   -1.575181   -0.808203
  C      1.997421   -0.812925   -0.777651
  H      3.053781    1.632101    1.314611
  H      5.092447    0.257548    1.274541
  H      5.168952   -1.808344   -0.093904
  H      3.183586   -2.474068   -1.412465
  H      1.127249   -1.109306   -1.344691
  O     -3.152676   -1.474524    0.044664
  O     -3.162354    0.646023    0.770566
  C     -4.544863   -1.349319   -0.243559
  H     -4.856462   -2.321511   -0.616579
  H     -5.101135   -1.086881    0.656328
  H     -4.707985   -0.580388   -0.999033

 Total Charge           Charge          ....    0
 Multiplicity           Mult            ....    1
 Number of Electrons    NEL             ....  118
 Basis Dimension        Dim             .... 1970

ORBITAL ENERGIES
----------------

  NO   OCC          E(Eh)            E(eV)
   0   2.0000     -20.590564      -560.2977
   1   2.0000     -20.562678      -559.5389
   2   2.0000     -20.524910      -558.5112
   3   2.0000     -15.662146      -426.1887
   4   2.0000     -11.369454      -309.3786
   5   2.0000     -11.306549      -307.6668
   6   2.0000     -11.275077      -306.8105
   7   2.0000     -11.260403      -306.4112
   8   2.0000     -11.257798      -306.3403
   9   2.0000     -11.253343      -306.2190
  10   2.0000     -11.242672      -305.9287
  11   2.0000     -11.240026      -305.8567
  12   2.0000     -11.238556      -305.8167
  13   2.0000     -11.236925      -305.7723
  14   2.0000     -11.232736      -305.6583
  15   2.0000     -11.231592      -305.6271
  16   2.0000      -1.453723       -39.5578
  17   2.0000      -1.444787       -39.3146
  18   2.0000      -1.346574       -36.6422
  19   2.0000      -1.173569       -31.9344
  20   2.0000      -1.140400       -31.0319
  21   2.0000      -1.072778       -29.1918
  22   2.0000      -1.044800       -28.4305
  23   2.0000      -1.023282       -27.8449
  24   2.0000      -0.977456       -26.5979
  25   2.0000      -0.964148       -26.2358
  26   2.0000      -0.861557       -23.4442
  27   2.0000      -0.849995       -23.1295
  28   2.0000      -0.834988       -22.7212
  29   2.0000      -0.787288       -21.4232
  30   2.0000      -0.754471       -20.5302
  31   2.0000      -0.714033       -19.4298
  32   2.0000      -0.708912       -19.2905
  33   2.0000      -0.692645       -18.8478
  34   2.0000      -0.673798       -18.3350
  35   2.0000      -0.669176       -18.2092
  36   2.0000      -0.664787       -18.0898
  37   2.0000      -0.654603       -17.8127
  38   2.0000      -0.628857       -17.1121
  39   2.0000      -0.617689       -16.8082
  40   2.0000      -0.613233       -16.6869
  41   2.0000      -0.592843       -16.1321
  42   2.0000      -0.573641       -15.6096
  43   2.0000      -0.570268       -15.5178
  44   2.0000      -0.563482       -15.3331
  45   2.0000      -0.552345       -15.0301
  46   2.0000      -0.537474       -14.6254
  47   2.0000      -0.536893       -14.6096
  48   2.0000      -0.519407       -14.1338
  49   2.0000      -0.511512       -13.9190
  50   2.0000      -0.507716       -13.8157
  51   2.0000      -0.499948       -13.6043
  52   2.0000      -0.454718       -12.3735
  53   2.0000      -0.452148       -12.3036
  54   2.0000      -0.441506       -12.0140
  55   2.0000      -0.404427       -11.0050
  56   2.0000      -0.344750        -9.3811
  57   2.0000      -0.327156        -8.9024
  58   2.0000      -0.313612        -8.5338
  59   0.0000       0.019711         0.5364
  60   0.0000       0.025667         0.6984
  61   0.0000       0.028363         0.7718
  62   0.0000       0.033048         0.8993
  63   0.0000       0.036283         0.9873

MULLIKEN ATOMIC CHARGES
-----------------------
   0 C :   -1.098762
   1 N :    0.131244
   2 C :    0.862705
   3 H :    0.350091
   4 O :   -0.925396
   5 C :   -0.340711
   6 C :    1.490759
   7 C :   -0.568359
   8 H :    0.347244
   9 H :    0.308013
  10 H :    0.304069
  11 C :    0.528960
  12 H :    0.351483
  13 H :    0.408081
  14 H :    0.314972
  15 C :   -0.648544
  16 C :   -0.380102
  17 C :   -0.358435
  18 C :   -0.461663
  19 C :   -0.432840
  20 H :    0.209990
  21 H :    0.233370
  22 H :    0.343855
  23 H :    0.204701
  24 H :    0.364166
  25 O :   -0.830991
  26 O :   -1.003283
  27 C :   -0.807799
  28 H :    0.431997
  29 H :    0.340317
  30 H :    0.330866
Sum of atomic charges:   -0.0000000

LOEWDIN ATOMIC CHARGES
----------------------
   0 C :    0.784491
   1 N :   -0.091347
   2 C :    0.024292
   3 H :   -0.319679
   4 O :    0.649288
   5 C :    0.131220
   6 C :   -1.128578
   7 C :    0.631365
   8 H :   -0.312305
   9 H :   -0.314840
  10 H :   -0.326674
  11 C :   -0.095470
  12 H :   -0.341931
  13 H :   -0.286012
  14 H :   -0.289929
  15 C :    0.339637
  16 C :    0.350433
  17 C :    0.342445
  18 C :    0.359398
  19 C :    0.347387
  20 H :   -0.312076
  21 H :   -0.318993
  22 H :   -0.320049
  23 H :   -0.317094
  24 H :   -0.393809
  25 O :    0.851535
  26 O :    0.740977
  27 C :    0.572529
  28 H :   -0.323606
  29 H :   -0.318888
  30 H :   -0.313719

  Mayer bond orders larger than 0.100000
B(  0-C ,  1-N ) :   0.7356 B(  0-C ,  2-C ) :  -0.1232 B(  0-C , 12-H ) :   0.8838
B(  0-C , 13-H ) :   0.8808 B(  0-C , 14-H ) :   1.0056 B(  1-N ,  2-C ) :   1.0735
B(  1-N ,  3-H ) :  -0.1006 B(  1-N ,  4-O ) :   0.5639 B(  1-N ,  5-C ) :   0.1454
B(  2-C ,  3-H ) :   0.9818 B(  2-C ,  7-C ) :   0.4570 B(  2-C , 11-C ) :   0.4252
B(  2-C , 15-C ) :  -0.3725 B(  2-C , 19-C ) :  -0.3131 B(  3-H , 11-C ) :  -0.1397
B(  4-O ,  5-C ) :   0.2902 B(  4-O , 19-C ) :  -0.1177 B(  5-C ,  6-C ) :   1.1004
B(  5-C ,  7-C ) :   1.3876 B(  5-C ,  8-H ) :   0.1091 B(  5-C ,  9-H ) :  -0.1768
B(  5-C , 10-H ) :   0.9378 B(  5-C , 26-O ) :   0.1441 B(  6-C , 25-O ) :   0.6679
B(  6-C , 26-O ) :   1.0143 B(  6-C , 27-C ) :  -0.1931 B(  7-C ,  8-H ) :   0.8666
B(  7-C ,  9-H ) :   0.9576 B( 11-C , 15-C ) :   0.8363 B( 11-C , 16-C ) :  -0.3873
B( 11-C , 18-C ) :  -0.4527 B( 11-C , 19-C ) :   1.0927 B( 11-C , 20-H ) :  -0.1191
B( 12-H , 14-H ) :   0.1040 B( 15-C , 16-C ) :   1.3755 B( 15-C , 17-C ) :   0.1167
B( 15-C , 18-C ) :   0.1826 B( 15-C , 20-H ) :   1.0806 B( 15-C , 21-H ) :  -0.1582
B( 16-C , 17-C ) :   1.1409 B( 16-C , 21-H ) :   1.1665 B( 17-C , 18-C ) :   1.2042
B( 17-C , 22-H ) :   1.0083 B( 18-C , 19-C ) :   1.3092 B( 18-C , 22-H ) :  -0.1041
B( 18-C , 23-H ) :   1.1711 B( 19-C , 23-H ) :  -0.1299 B( 19-C , 24-H ) :   0.8113
B( 25-O , 26-O ) :   0.1680 B( 25-O , 27-C ) :   0.9538 B( 27-C , 28-H ) :   0.8425
B( 27-C , 29-H ) :   0.8944 B( 27-C , 30-H ) :   0.9065

MP2 TOTAL ENERGY:     -745.461538035 Eh
FINAL SINGLE POINT ENERGY      -745.461538035133

DIPOLE MOMENT
-------------
                                X             Y             Z
Electronic contribution:      2.00466      -1.97060      -0.56434
Nuclear contribution   :     -1.25920       2.26826       0.81519
                        -----------------------------------------
Total Dipole Moment    :      0.74546       0.29766       0.25085
                        -----------------------------------------
Magnitude (a.u.)       :      0.84098
Magnitude (Debye)      :      2.13759

Rotational constants in cm-1:     0.038486     0.009639     0.008852
Rotational constants in MHz :  1153.783374   288.961918   265.376186

                             ****ORCA TERMINATED NORMALLY****
TOTAL RUN TIME: 0 days 3 hours 37 minutes 17 seconds 454 msec
