                         Program Version 4.2.1 -  RELEASE  -
|  1> %pal
|  2>  nprocs 32
|  3> end
|  4> !RI-MP2 aug-cc-pVQZ aug-cc-pVQZ/C TightSCF
|  5> %maxcore 4500
|  6> *xyzfile 1 1  04_7R1.xyz
|  7>
|  8>
|  9>                          ****END OF INPUT****

CARTESIAN COORDINATES (ANGSTROEM)
---------------------------------
  N     -1.768298    0.057398   -0.208546
  H     -1.604608    1.029275    0.088965
  C     -0.622765   -0.788159    0.287124
  H     -2.670693   -0.264017    0.151036
  H     -1.817525    0.063766   -1.231631
  C      0.682742   -0.063658    0.029832
  O      0.461930    1.267870    0.121375
  N      1.812323   -0.539790   -0.191436
  H      1.299568    1.745065    0.015400
  H      1.855244   -1.552837   -0.248232
  H     -0.660625   -1.755290   -0.208620
  H     -0.764844   -0.921283    1.360226

 Total Charge           Charge          ....    1
 Multiplicity           Mult            ....    1
 Number of Electrons    NEL             ....   40
 Basis Dimension        Dim             ....  722

ORBITAL ENERGIES
----------------

  NO   OCC          E(Eh)            E(eV)
   0   2.0000     -20.772707      -565.2541
   1   2.0000     -15.903298      -432.7507
   2   2.0000     -15.711732      -427.5380
   3   2.0000     -11.524240      -313.5905
   4   2.0000     -11.506208      -313.0998
   5   2.0000      -1.609159       -43.7874
   6   2.0000      -1.519348       -41.3436
   7   2.0000      -1.377503       -37.4838
   8   2.0000      -1.201093       -32.6834
   9   2.0000      -1.028731       -27.9932
  10   2.0000      -0.982733       -26.7415
  11   2.0000      -0.967902       -26.3380
  12   2.0000      -0.891774       -24.2664
  13   2.0000      -0.882714       -24.0199
  14   2.0000      -0.822969       -22.3941
  15   2.0000      -0.797976       -21.7140
  16   2.0000      -0.763808       -20.7843
  17   2.0000      -0.755772       -20.5656
  18   2.0000      -0.608140       -16.5483
  19   2.0000      -0.587295       -15.9811
  20   0.0000      -0.119356        -3.2479
  21   0.0000      -0.084550        -2.3007
  22   0.0000      -0.082827        -2.2538
  23   0.0000      -0.074788        -2.0351
  24   0.0000      -0.052358        -1.4247

MULLIKEN ATOMIC CHARGES
-----------------------
   0 N :   -0.127570
   1 H :    0.362431
   2 C :   -0.440320
   3 H :    0.256068
   4 H :    0.315763
   5 C :    0.654257
   6 O :   -0.676648
   7 N :   -0.737677
   8 H :    0.345328
   9 H :    0.336118
  10 H :    0.335311
  11 H :    0.376940
Sum of atomic charges:    1.0000000

LOEWDIN ATOMIC CHARGES
----------------------
   0 N :    1.585204
   1 H :   -0.405263
   2 C :    0.538494
   3 H :   -0.281064
   4 H :   -0.284925
   5 C :   -0.597604
   6 O :    1.293162
   7 N :    1.021493
   8 H :   -0.743922
   9 H :   -0.638756
  10 H :   -0.250540
  11 H :   -0.236278

  Mayer bond orders larger than 0.100000
B(  0-N ,  1-H ) :   0.8427 B(  0-N ,  2-C ) :   0.9015 B(  0-N ,  3-H ) :   0.9596
B(  0-N ,  4-H ) :   0.8859 B(  2-C ,  5-C ) :   1.0274 B(  2-C , 10-H ) :   0.8947
B(  2-C , 11-H ) :   0.7953 B(  5-C ,  6-O ) :   0.8957 B(  5-C ,  7-N ) :   1.7358
B(  6-O ,  8-H ) :   0.9014 B(  7-N ,  9-H ) :   0.7967

MP2 TOTAL ENERGY:     -264.516759271 Eh
FINAL SINGLE POINT ENERGY      -264.516759270925

DIPOLE MOMENT
-------------
                                X             Y             Z
Electronic contribution:      1.55725       1.23234      -0.11762
Nuclear contribution   :     -4.46674      -1.67983      -0.07516
                        -----------------------------------------
Total Dipole Moment    :     -2.90949      -0.44749      -0.19278
                        -----------------------------------------
Magnitude (a.u.)       :      2.95001
Magnitude (Debye)      :      7.49832

Rotational constants in cm-1:     0.313269     0.131262     0.098888
Rotational constants in MHz :  9391.564532  3935.131421  2964.575321

                             ****ORCA TERMINATED NORMALLY****
TOTAL RUN TIME: 0 days 0 hours 7 minutes 23 seconds 302 msec
