                         Program Version 4.2.1 -  RELEASE  -
|  1> %pal
|  2>  nprocs 32
|  3> end
|  4> !RI-MP2 aug-cc-pVQZ aug-cc-pVQZ/C TightSCF
|  5> %maxcore 4500
|  6> *xyzfile 0 1  02_15P.xyz
|  7>
|  8>
|  9>                          ****END OF INPUT****

CARTESIAN COORDINATES (ANGSTROEM)
---------------------------------
  C      1.962075   -1.182307   -0.348862
  C      0.481549   -0.877082   -0.570867
  C      0.037856    0.241854    0.381190
  C      2.801403    0.076200   -0.544638
  H      2.098929   -1.565616    0.675830
  C      2.327942    1.224742    0.329472
  H      3.854147   -0.114335   -0.329173
  H      2.728483    0.380620   -1.592823
  C      0.845135    1.513781    0.112327
  H      2.481573    0.960790    1.388929
  C     -0.373973   -2.100976   -0.448887
  C     -1.545768   -2.120836    0.177041
  C     -1.501400    0.396480    0.409923
  C     -2.145688   -0.937207    0.885841
  H      0.529700    2.309937    0.787916
  H      0.693271    1.861398   -0.910968
  C     -2.124732   -1.193653    2.400276
  H     -2.759196   -2.067225    2.596482
  H     -2.554498   -0.355325    2.946175
  C     -2.041547    0.730538   -0.981419
  C     -3.981866    1.016557   -2.277895
  H     -3.633640    0.344273   -3.061566
  H     -3.729812    2.041048   -2.551005
  H     -5.053529    0.911539   -2.130567
  O     -3.383872    0.672228   -1.025257
  O      2.326406   -2.203752   -1.261722
  O      3.157242    2.332220    0.021494
  O     -1.387986    1.061425   -1.935620
  O     -0.834183   -1.396310    2.948957
  H     -0.415375   -2.113254    2.460135
  C      3.560191   -2.825222   -0.992714
  H      4.408594   -2.151851   -1.154165
  H      3.598199   -3.198977    0.038968
  H      3.649326   -3.667603   -1.677620
  C      3.065146    3.406953    0.924577
  H      3.854640    4.111130    0.664688
  H      2.101372    3.923864    0.859916
  H      3.215176    3.070075    1.958961
  C     -1.925157    1.557647    1.324880
  H     -1.678909    2.522473    0.880278
  H     -3.001426    1.537732    1.500654
  H     -1.410407    1.488676    2.284398
  H     -2.116864   -3.045027    0.213327
  H     -0.003341   -2.993733   -0.939682
  H     -3.207509   -0.886435    0.630750
  H      0.286661   -0.079356    1.397656
  H      0.396584   -0.516136   -1.601790

 Total Charge           Charge          ....    0
 Multiplicity           Mult            ....    1
 Number of Electrons    NEL             ....  162
 Basis Dimension        Dim             .... 2876

ORBITAL ENERGIES
----------------

  NO   OCC          E(Eh)            E(eV)
   0   2.0000     -20.599505      -560.5410
   1   2.0000     -20.555291      -559.3379
   2   2.0000     -20.549527      -559.1811
   3   2.0000     -20.545679      -559.0764
   4   2.0000     -20.539092      -558.8971
   5   2.0000     -11.372990      -309.4748
   6   2.0000     -11.284540      -307.0679
   7   2.0000     -11.278153      -306.8941
   8   2.0000     -11.275865      -306.8319
   9   2.0000     -11.271660      -306.7175
  10   2.0000     -11.267042      -306.5918
  11   2.0000     -11.263829      -306.5044
  12   2.0000     -11.256380      -306.3017
  13   2.0000     -11.238141      -305.8054
  14   2.0000     -11.226395      -305.4857
  15   2.0000     -11.225680      -305.4663
  16   2.0000     -11.225660      -305.4657
  17   2.0000     -11.224609      -305.4371
  18   2.0000     -11.219665      -305.3026
  19   2.0000     -11.209293      -305.0204
  20   2.0000     -11.207200      -304.9634
  21   2.0000      -1.464466       -39.8501
  22   2.0000      -1.374886       -37.4126
  23   2.0000      -1.369338       -37.2616
  24   2.0000      -1.363726       -37.1089
  25   2.0000      -1.359987       -37.0071
  26   2.0000      -1.160215       -31.5711
  27   2.0000      -1.097861       -29.8743
  28   2.0000      -1.065603       -28.9965
  29   2.0000      -1.019697       -27.7474
  30   2.0000      -0.999728       -27.2040
  31   2.0000      -0.977330       -26.5945
  32   2.0000      -0.956954       -26.0401
  33   2.0000      -0.919333       -25.0163
  34   2.0000      -0.915011       -24.8987
  35   2.0000      -0.903393       -24.5826
  36   2.0000      -0.835696       -22.7405
  37   2.0000      -0.827748       -22.5242
  38   2.0000      -0.809209       -22.0197
  39   2.0000      -0.779269       -21.2050
  40   2.0000      -0.764389       -20.8001
  41   2.0000      -0.735240       -20.0069
  42   2.0000      -0.698415       -19.0048
  43   2.0000      -0.687497       -18.7077
  44   2.0000      -0.676570       -18.4104
  45   2.0000      -0.671014       -18.2592
  46   2.0000      -0.667534       -18.1645
  47   2.0000      -0.662546       -18.0288
  48   2.0000      -0.652103       -17.7446
  49   2.0000      -0.644306       -17.5325
  50   2.0000      -0.633122       -17.2281
  51   2.0000      -0.628383       -17.0992
  52   2.0000      -0.617547       -16.8043
  53   2.0000      -0.610358       -16.6087
  54   2.0000      -0.606926       -16.5153
  55   2.0000      -0.594769       -16.1845
  56   2.0000      -0.583347       -15.8737
  57   2.0000      -0.578068       -15.7300
  58   2.0000      -0.574950       -15.6452
  59   2.0000      -0.562386       -15.3033
  60   2.0000      -0.557815       -15.1789
  61   2.0000      -0.540869       -14.7178
  62   2.0000      -0.532284       -14.4842
  63   2.0000      -0.524885       -14.2828
  64   2.0000      -0.519588       -14.1387
  65   2.0000      -0.516602       -14.0574
  66   2.0000      -0.505061       -13.7434
  67   2.0000      -0.499729       -13.5983
  68   2.0000      -0.498724       -13.5710
  69   2.0000      -0.485957       -13.2236
  70   2.0000      -0.483020       -13.1436
  71   2.0000      -0.477425       -12.9914
  72   2.0000      -0.462356       -12.5813
  73   2.0000      -0.460740       -12.5374
  74   2.0000      -0.456553       -12.4234
  75   2.0000      -0.439700       -11.9648
  76   2.0000      -0.430105       -11.7038
  77   2.0000      -0.413919       -11.2633
  78   2.0000      -0.411785       -11.2052
  79   2.0000      -0.403957       -10.9922
  80   2.0000      -0.354988        -9.6597
  81   0.0000       0.019606         0.5335
  82   0.0000       0.025080         0.6825
  83   0.0000       0.025614         0.6970
  84   0.0000       0.029362         0.7990
  85   0.0000       0.034623         0.9421

MULLIKEN ATOMIC CHARGES
-----------------------
   0 C :    1.679132
   1 C :    0.103327
   2 C :    1.924466
   3 C :   -0.977041
   4 H :    0.045500
   5 C :    1.906512
   6 H :    0.180382
   7 H :    0.207115
   8 C :   -1.092330
   9 H :    0.095360
  10 C :   -0.551979
  11 C :   -0.643317
  12 C :    0.186444
  13 C :   -0.000405
  14 H :    0.026019
  15 H :    0.003564
  16 C :   -0.030757
  17 H :    0.170297
  18 H :    0.201912
  19 C :    2.180990
  20 C :   -1.104766
  21 H :    0.383612
  22 H :    0.390947
  23 H :    0.414960
  24 O :   -1.033338
  25 O :   -1.240860
  26 O :   -1.216438
  27 O :   -1.241677
  28 O :   -1.211021
  29 H :    0.371108
  30 C :   -0.855195
  31 H :    0.274842
  32 H :    0.233356
  33 H :    0.387989
  34 C :   -0.812898
  35 H :    0.426533
  36 H :    0.262268
  37 H :    0.202904
  38 C :   -1.194021
  39 H :    0.089150
  40 H :    0.132185
  41 H :    0.174673
  42 H :   -0.000494
  43 H :    0.023517
  44 H :    0.284999
  45 H :    0.056641
  46 H :    0.185832
Sum of atomic charges:    0.0000000

LOEWDIN ATOMIC CHARGES
----------------------
   0 C :   -0.220802
   1 C :    0.096824
   2 C :    0.109801
   3 C :    0.519081
   4 H :   -0.279221
   5 C :   -0.207373
   6 H :   -0.276682
   7 H :   -0.255118
   8 C :    0.544404
   9 H :   -0.279318
  10 C :    0.446038
  11 C :    0.419600
  12 C :   -0.265136
  13 C :    0.097189
  14 H :   -0.302340
  15 H :   -0.280309
  16 C :    0.220041
  17 H :   -0.277415
  18 H :   -0.327766
  19 C :   -1.040069
  20 C :    0.597900
  21 H :   -0.310777
  22 H :   -0.311847
  23 H :   -0.317837
  24 O :    0.884553
  25 O :    0.921124
  26 O :    0.921418
  27 O :    0.811422
  28 O :    1.320558
  29 H :   -0.799179
  30 C :    0.585129
  31 H :   -0.312948
  32 H :   -0.300116
  33 H :   -0.317792
  34 C :    0.578616
  35 H :   -0.320047
  36 H :   -0.312709
  37 H :   -0.301575
  38 C :    0.927312
  39 H :   -0.265125
  40 H :   -0.260359
  41 H :   -0.262744
  42 H :   -0.292060
  43 H :   -0.307738
  44 H :   -0.339754
  45 H :   -0.340532
  46 H :   -0.316325

  Mayer bond orders larger than 0.100000
B(  0-C ,  1-C ) :   1.4270 B(  0-C ,  3-C ) :   0.7792 B(  0-C ,  4-H ) :   0.9020
B(  0-C ,  5-C ) :   0.1398 B(  0-C ,  6-H ) :  -0.1613 B(  0-C , 10-C ) :  -0.2199
B(  0-C , 25-O ) :  -0.6737 B(  0-C , 30-C ) :  -0.6576 B(  0-C , 31-H ) :  -0.1348
B(  0-C , 32-H ) :  -0.1194 B(  1-C ,  2-C ) :   0.4784 B(  1-C ,  3-C ) :  -0.1894
B(  1-C ,  4-H ) :   0.1586 B(  1-C , 10-C ) :   0.6198 B(  1-C , 12-C ) :   0.3393
B(  1-C , 15-H ) :   0.1169 B(  1-C , 25-O ) :   0.4199 B(  1-C , 27-O ) :  -0.1983
B(  1-C , 30-C ) :   0.1310 B(  1-C , 43-H ) :  -0.1916 B(  1-C , 46-H ) :   0.8175
B(  2-C ,  5-C ) :  -0.2002 B(  2-C , 10-C ) :  -0.1699 B(  2-C , 11-C ) :  -0.2549
B(  2-C , 12-C ) :   0.3026 B(  2-C , 13-C ) :  -0.2199 B(  2-C , 15-H ) :  -0.1942
B(  2-C , 19-C ) :   0.4176 B(  2-C , 24-O ) :   0.2011 B(  2-C , 25-O ) :   0.1765
B(  2-C , 27-O ) :  -0.6727 B(  2-C , 28-O ) :  -0.3206 B(  2-C , 38-C ) :  -0.4275
B(  2-C , 45-H ) :   1.1752 B(  3-C ,  5-C ) :   0.6423 B(  3-C ,  6-H ) :   1.1230
B(  3-C ,  7-H ) :   1.0517 B(  3-C , 25-O ) :   0.3017 B(  3-C , 26-O ) :   0.4871
B(  3-C , 46-H ) :   0.1041 B(  5-C ,  6-H ) :  -0.1318 B(  5-C ,  8-C ) :   0.7999
B(  5-C ,  9-H ) :   1.1766 B(  5-C , 26-O ) :  -0.9592 B(  5-C , 34-C ) :  -0.5580
B(  5-C , 36-H ) :  -0.1693 B(  8-C ,  9-H ) :  -0.1022 B(  8-C , 12-C ) :   0.1085
B(  8-C , 14-H ) :   1.1931 B(  8-C , 15-H ) :   1.2653 B(  8-C , 26-O ) :   0.4034
B(  8-C , 34-C ) :   0.1603 B( 10-C , 11-C ) :   1.3844 B( 10-C , 12-C ) :   0.2362
B( 10-C , 19-C ) :  -0.1065 B( 10-C , 28-O ) :  -0.1070 B( 10-C , 42-H ) :  -0.3035
B( 10-C , 43-H ) :   1.4031 B( 10-C , 46-H ) :  -0.1025 B( 11-C , 12-C ) :   0.4866
B( 11-C , 13-C ) :   0.7698 B( 11-C , 19-C ) :  -0.1470 B( 11-C , 28-O ) :   0.1233
B( 11-C , 42-H ) :   1.4141 B( 11-C , 43-H ) :  -0.2529 B( 11-C , 44-H ) :  -0.1307
B( 12-C , 13-C ) :   0.5756 B( 12-C , 19-C ) :   1.0300 B( 12-C , 24-O ) :  -0.6350
B( 12-C , 27-O ) :   1.1947 B( 12-C , 28-O ) :   0.3843 B( 12-C , 38-C ) :  -0.1009
B( 12-C , 39-H ) :  -0.2548 B( 12-C , 40-H ) :  -0.3119 B( 12-C , 41-H ) :  -0.2976
B( 12-C , 44-H ) :  -0.1751 B( 12-C , 45-H ) :  -0.2442 B( 13-C , 16-C ) :   0.6036
B( 13-C , 17-H ) :  -0.1666 B( 13-C , 44-H ) :   1.0938 B( 15-H , 26-O ) :   0.1279
B( 16-C , 17-H ) :   1.1848 B( 16-C , 18-H ) :   1.0615 B( 16-C , 28-O ) :   0.4925
B( 19-C , 20-C ) :  -0.5584 B( 19-C , 21-H ) :  -0.1079 B( 19-C , 24-O ) :   0.6232
B( 19-C , 27-O ) :   0.3148 B( 19-C , 45-H ) :   0.1838 B( 20-C , 21-H ) :   0.9168
B( 20-C , 22-H ) :   0.8941 B( 20-C , 23-H ) :   0.8785 B( 20-C , 24-O ) :   1.1424
B( 24-O , 27-O ) :   0.2771 B( 24-O , 38-C ) :   0.1711 B( 25-O , 30-C ) :   1.1918
B( 25-O , 43-H ) :   0.1004 B( 25-O , 46-H ) :  -0.1981 B( 26-O , 34-C ) :   1.1429
B( 26-O , 37-H ) :   0.1159 B( 27-O , 46-H ) :   0.1186 B( 28-O , 29-H ) :   0.8124
B( 28-O , 45-H ) :  -0.3193 B( 30-C , 31-H ) :   0.9327 B( 30-C , 32-H ) :   0.9618
B( 30-C , 33-H ) :   0.9305 B( 34-C , 35-H ) :   0.8699 B( 34-C , 36-H ) :   0.9299
B( 34-C , 37-H ) :   0.9613 B( 38-C , 39-H ) :   1.2585 B( 38-C , 40-H ) :   1.3211
B( 38-C , 41-H ) :   1.2257 B( 45-H , 46-H ) :   0.1021

MP2 TOTAL ENERGY:     -999.896911773 Eh
FINAL SINGLE POINT ENERGY      -999.896911772699

DIPOLE MOMENT
-------------
                                X             Y             Z
Electronic contribution:     -5.23965      -2.96952      -4.86027
Nuclear contribution   :      4.41539       2.76945       5.42053
                        -----------------------------------------
Total Dipole Moment    :     -0.82426      -0.20007       0.56025
                        -----------------------------------------
Magnitude (a.u.)       :      1.01652
Magnitude (Debye)      :      2.58379

Rotational constants in cm-1:     0.012332     0.007887     0.006873
Rotational constants in MHz :   369.694271   236.447321   206.035250

                             ****ORCA TERMINATED NORMALLY****
TOTAL RUN TIME: 0 days 12 hours 2 minutes 2 seconds 171 msec
