                         Program Version 4.2.1 -  RELEASE  -
|  1> %pal
|  2>  nprocs 32
|  3> end
|  4> !RI-MP2 aug-cc-pVQZ aug-cc-pVQZ/C TightSCF
|  5> %maxcore 4500
|  6> *xyzfile -2 1  10_91P.xyz
|  7>
|  8>
|  9>                          ****END OF INPUT****

CARTESIAN COORDINATES (ANGSTROEM)
---------------------------------
  O      1.291646   -0.187776    1.752359
  C      1.327328   -0.294530    0.539512
  C      0.073257   -0.498705   -0.292155
  C      2.657599   -0.233928   -0.234409
  O      2.861448    0.871561   -0.784629
  O      3.355799   -1.266272   -0.235969
  C     -0.433334    2.402970   -0.345600
  C     -1.358681    1.556187    0.099416
  C     -1.209297    0.076582    0.295028
  C     -2.525406   -0.675738   -0.143414
  O     -3.594102   -0.116841    0.199139
  O     -2.385437   -1.761213   -0.742539
  H     -1.172293   -0.087148    1.380400
  H     -0.062789   -1.579795   -0.397060
  H      0.253423   -0.121486   -1.301058
  H     -0.667415    3.460146   -0.447847
  H      0.576027    2.097065   -0.606084
  H     -2.350579    1.918517    0.354495

 Total Charge           Charge          ....   -2
 Multiplicity           Mult            ....    1
 Number of Electrons    NEL             ....   90
 Basis Dimension        Dim             .... 1236

ORBITAL ENERGIES
----------------

  NO   OCC          E(Eh)            E(eV)
   0   2.0000     -20.284609      -551.9723
   1   2.0000     -20.227089      -550.4071
   2   2.0000     -20.226554      -550.3925
   3   2.0000     -20.214435      -550.0627
   4   2.0000     -20.212268      -550.0038
   5   2.0000     -11.065183      -301.0989
   6   2.0000     -11.064602      -301.0831
   7   2.0000     -11.057396      -300.8870
   8   2.0000     -10.992219      -299.1135
   9   2.0000     -10.976504      -298.6859
  10   2.0000     -10.974895      -298.6421
  11   2.0000     -10.969394      -298.4924
  12   2.0000      -1.132413       -30.8145
  13   2.0000      -1.098356       -29.8878
  14   2.0000      -1.096031       -29.8245
  15   2.0000      -1.007382       -27.4122
  16   2.0000      -0.993926       -27.0461
  17   2.0000      -0.842977       -22.9386
  18   2.0000      -0.759499       -20.6670
  19   2.0000      -0.673390       -18.3239
  20   2.0000      -0.574350       -15.6289
  21   2.0000      -0.508871       -13.8471
  22   2.0000      -0.445444       -12.1212
  23   2.0000      -0.434392       -11.8204
  24   2.0000      -0.406783       -11.0691
  25   2.0000      -0.388935       -10.5835
  26   2.0000      -0.379082       -10.3153
  27   2.0000      -0.356272        -9.6946
  28   2.0000      -0.342236        -9.3127
  29   2.0000      -0.328173        -8.9301
  30   2.0000      -0.321713        -8.7543
  31   2.0000      -0.300151        -8.1675
  32   2.0000      -0.291293        -7.9265
  33   2.0000      -0.281606        -7.6629
  34   2.0000      -0.253511        -6.8984
  35   2.0000      -0.236627        -6.4389
  36   2.0000      -0.221151        -6.0178
  37   2.0000      -0.213167        -5.8006
  38   2.0000      -0.149815        -4.0767
  39   2.0000      -0.146229        -3.9791
  40   2.0000      -0.135918        -3.6985
  41   2.0000      -0.130964        -3.5637
  42   2.0000      -0.121079        -3.2947
  43   2.0000      -0.103510        -2.8166
  44   2.0000      -0.096181        -2.6172
  45   0.0000       0.167336         4.5534
  46   0.0000       0.187949         5.1144
  47   0.0000       0.203400         5.5348
  48   0.0000       0.206313         5.6141
  49   0.0000       0.209952         5.7131

MULLIKEN ATOMIC CHARGES
-----------------------
   0 O :   -1.016473
   1 C :    0.774611
   2 C :   -0.377405
   3 C :    1.194983
   4 O :   -1.030801
   5 O :   -1.001319
   6 C :   -1.066749
   7 C :   -0.503732
   8 C :   -0.163651
   9 C :    1.255962
  10 O :   -1.042216
  11 O :   -1.049047
  12 H :    0.219765
  13 H :    0.325083
  14 H :    0.299633
  15 H :    0.218567
  16 H :    0.570589
  17 H :    0.392201
Sum of atomic charges:   -2.0000000

LOEWDIN ATOMIC CHARGES
----------------------
   0 O :    0.675486
   1 C :   -0.825538
   2 C :    0.370576
   3 C :   -1.564162
   4 O :    0.494096
   5 O :    0.463953
   6 C :    0.774009
   7 C :    0.308580
   8 C :   -0.060602
   9 C :   -1.464724
  10 O :    0.503176
  11 O :    0.520134
  12 H :   -0.353450
  13 H :   -0.346452
  14 H :   -0.321768
  15 H :   -0.372570
  16 H :   -0.414650
  17 H :   -0.386095

  Mayer bond orders larger than 0.100000
B(  0-O ,  1-C ) :   0.9547 B(  0-O ,  2-C ) :   0.2688 B(  1-C ,  2-C ) :   1.0167
B(  1-C ,  3-C ) :   1.1239 B(  1-C ,  4-O ) :   0.1117 B(  1-C ,  5-O ) :   0.1050
B(  2-C ,  8-C ) :   0.7427 B(  2-C ,  9-C ) :  -0.1140 B(  2-C , 11-O ) :  -0.1370
B(  2-C , 13-H ) :   0.8626 B(  2-C , 14-H ) :   0.8854 B(  3-C ,  4-O ) :   1.2144
B(  3-C ,  5-O ) :   1.1551 B(  4-O ,  5-O ) :   0.1524 B(  6-C ,  7-C ) :   1.7962
B(  6-C , 15-H ) :   1.1317 B(  6-C , 16-H ) :   0.5961 B(  7-C ,  8-C ) :   0.7323
B(  7-C , 15-H ) :  -0.1013 B(  7-C , 17-H ) :   0.8552 B(  8-C ,  9-C ) :   1.2180
B(  8-C , 10-O ) :   0.1580 B(  8-C , 11-O ) :   0.2382 B(  8-C , 12-H ) :   0.8187
B(  9-C , 10-O ) :   1.0857 B(  9-C , 11-O ) :   1.1338 B( 10-O , 11-O ) :   0.1421

MP2 TOTAL ENERGY:     -645.633714087 Eh
FINAL SINGLE POINT ENERGY      -645.633714086627

DIPOLE MOMENT
-------------
                                X             Y             Z
Electronic contribution:      3.02663      -4.15084       1.39868
Nuclear contribution   :     -3.30261       5.48749      -0.98527
                        -----------------------------------------
Total Dipole Moment    :     -0.27598       1.33665       0.41340
                        -----------------------------------------
Magnitude (a.u.)       :      1.42608
Magnitude (Debye)      :      3.62481

Rotational constants in cm-1:     0.055961     0.017748     0.015502
Rotational constants in MHz :  1677.668465   532.077923   464.738403

                             ****ORCA TERMINATED NORMALLY****
TOTAL RUN TIME: 0 days 0 hours 51 minutes 38 seconds 543 msec
