                         Program Version 4.2.1 -  RELEASE  -
|  1> %pal
|  2>  nprocs 32
|  3> end
|  4> !RI-MP2 aug-cc-pVQZ aug-cc-pVQZ/C TightSCF
|  5> %maxcore 4500
|  6> *xyzfile 0 1  02_19R.xyz
|  7>
|  8>
|  9>                          ****END OF INPUT****

CARTESIAN COORDINATES (ANGSTROEM)
---------------------------------
  C     -1.318626   -1.939251    0.907596
  C      0.813161    1.599720    0.462998
  C     -2.248540   -1.496549    1.751621
  C      0.104635   -1.867661    1.285852
  C      0.333204    1.452292   -0.781595
  C      2.204522    1.780465    0.909681
  C     -1.106753    1.266502   -1.027033
  C     -2.136123    1.984581   -0.570988
  C     -3.547298    1.578867   -0.960622
  C     -2.012473    3.212788    0.282605
  C     -3.713184   -1.400693    1.478350
  H     -2.608759    4.025229   -0.144281
  H     -2.408084    3.034055    1.288601
  H     -0.981503    3.547999    0.380481
  C     -3.912959    0.145625   -0.554157
  H     -4.269973    2.270540   -0.514130
  H     -3.662405    1.679616   -2.044862
  C     -4.066955    0.011779    0.967315
  H     -4.018686   -2.147565    0.741291
  H     -4.261515   -1.611130    2.399985
  C     -5.176267   -0.325601   -1.270202
  H     -3.086926   -0.498319   -0.867252
  H     -5.095583    0.261986    1.245467
  H     -3.424888    0.736214    1.475819
  C      1.172323    1.381566   -2.029219
  H      1.159883    2.337872   -2.561790
  H      2.210327    1.130624   -1.817955
  H      0.754916    0.633052   -2.706265
  H     -6.017193    0.340127   -1.052227
  H     -5.033740   -0.342967   -2.353076
  H     -5.462589   -1.332874   -0.957266
  C      2.503442    1.124961    2.234270
  H      2.130198    0.099986    2.261996
  H      3.564273    1.118833    2.477740
  H      1.983804    1.660021    3.035854
  C      3.084978    2.520383    0.224735
  C      4.518715    2.791403    0.560171
  H      4.678571    3.858582    0.743540
  H      4.865201    2.249772    1.438872
  H      5.169061    2.520873   -0.278189
  H      2.729837    3.016205   -0.672453
  C      1.131457   -2.021685    0.217972
  O      0.476376   -1.680250    2.430484
  C      2.433101   -2.173478    0.460542
  C      0.925577   -1.975294   -1.265978
  H      2.882835   -2.228649    1.442248
  C      3.226185   -2.221524   -0.808315
  N      2.177575   -2.083403   -1.799400
  H      2.326825   -2.072303   -2.794912
  O     -0.108025   -1.858056   -1.893442
  C      4.288258   -1.126811   -0.884336
  H      4.783317   -1.140108   -1.857294
  H      5.048696   -1.286347   -0.117250
  H      3.837803   -0.145986   -0.728104
  H      3.708514   -3.203074   -0.901048
  H      0.091898    1.516572    1.272139
  H     -1.324560    0.439600   -1.699958
  H     -1.902695   -1.097732    2.702632
  H     -1.558971   -2.294760   -0.086477

 Total Charge           Charge          ....    0
 Multiplicity           Mult            ....    1
 Number of Electrons    NEL             ....  194
 Basis Dimension        Dim             .... 3598

ORBITAL ENERGIES
----------------

  NO   OCC          E(Eh)            E(eV)
   0   2.0000     -20.529533      -558.6370
   1   2.0000     -20.520426      -558.3892
   2   2.0000     -15.585847      -424.1125
   3   2.0000     -11.356330      -309.0214
   4   2.0000     -11.330441      -308.3170
   5   2.0000     -11.296895      -307.4042
   6   2.0000     -11.273462      -306.7665
   7   2.0000     -11.247254      -306.0533
   8   2.0000     -11.244311      -305.9732
   9   2.0000     -11.237574      -305.7899
  10   2.0000     -11.225986      -305.4746
  11   2.0000     -11.225603      -305.4642
  12   2.0000     -11.224810      -305.4426
  13   2.0000     -11.220948      -305.3375
  14   2.0000     -11.217822      -305.2524
  15   2.0000     -11.216501      -305.2165
  16   2.0000     -11.215840      -305.1985
  17   2.0000     -11.214181      -305.1534
  18   2.0000     -11.213852      -305.1444
  19   2.0000     -11.210826      -305.0621
  20   2.0000     -11.207894      -304.9823
  21   2.0000     -11.207136      -304.9617
  22   2.0000     -11.206147      -304.9348
  23   2.0000     -11.205123      -304.9069
  24   2.0000     -11.204164      -304.8808
  25   2.0000     -11.199598      -304.7565
  26   2.0000      -1.389553       -37.8116
  27   2.0000      -1.377470       -37.4829
  28   2.0000      -1.271209       -34.5914
  29   2.0000      -1.123177       -30.5632
  30   2.0000      -1.109154       -30.1816
  31   2.0000      -1.095386       -29.8070
  32   2.0000      -1.085568       -29.5398
  33   2.0000      -1.062352       -28.9081
  34   2.0000      -1.043810       -28.4035
  35   2.0000      -1.028952       -27.9992
  36   2.0000      -0.988595       -26.9010
  37   2.0000      -0.982990       -26.7485
  38   2.0000      -0.928762       -25.2729
  39   2.0000      -0.924312       -25.1518
  40   2.0000      -0.918853       -25.0033
  41   2.0000      -0.914110       -24.8742
  42   2.0000      -0.885644       -24.0996
  43   2.0000      -0.875441       -23.8219
  44   2.0000      -0.845187       -22.9987
  45   2.0000      -0.823379       -22.4053
  46   2.0000      -0.779935       -21.2231
  47   2.0000      -0.764449       -20.8017
  48   2.0000      -0.759420       -20.6649
  49   2.0000      -0.726284       -19.7632
  50   2.0000      -0.712355       -19.3842
  51   2.0000      -0.702471       -19.1152
  52   2.0000      -0.674693       -18.3593
  53   2.0000      -0.669067       -18.2062
  54   2.0000      -0.658509       -17.9189
  55   2.0000      -0.643616       -17.5137
  56   2.0000      -0.637172       -17.3383
  57   2.0000      -0.625545       -17.0220
  58   2.0000      -0.622930       -16.9508
  59   2.0000      -0.614522       -16.7220
  60   2.0000      -0.610612       -16.6156
  61   2.0000      -0.604118       -16.4389
  62   2.0000      -0.598566       -16.2878
  63   2.0000      -0.591617       -16.0987
  64   2.0000      -0.580090       -15.7850
  65   2.0000      -0.576632       -15.6909
  66   2.0000      -0.568911       -15.4809
  67   2.0000      -0.561904       -15.2902
  68   2.0000      -0.558882       -15.2080
  69   2.0000      -0.555629       -15.1194
  70   2.0000      -0.550840       -14.9891
  71   2.0000      -0.549461       -14.9516
  72   2.0000      -0.542770       -14.7695
  73   2.0000      -0.541373       -14.7315
  74   2.0000      -0.538012       -14.6401
  75   2.0000      -0.532998       -14.5036
  76   2.0000      -0.529682       -14.4134
  77   2.0000      -0.522185       -14.2094
  78   2.0000      -0.517477       -14.0813
  79   2.0000      -0.511837       -13.9278
  80   2.0000      -0.508451       -13.8356
  81   2.0000      -0.506390       -13.7796
  82   2.0000      -0.499638       -13.5959
  83   2.0000      -0.485284       -13.2052
  84   2.0000      -0.480723       -13.0812
  85   2.0000      -0.460372       -12.5273
  86   2.0000      -0.454365       -12.3639
  87   2.0000      -0.450794       -12.2667
  88   2.0000      -0.433988       -11.8094
  89   2.0000      -0.432166       -11.7598
  90   2.0000      -0.414689       -11.2843
  91   2.0000      -0.402548       -10.9539
  92   2.0000      -0.394220       -10.7273
  93   2.0000      -0.383339       -10.4312
  94   2.0000      -0.359489        -9.7822
  95   2.0000      -0.341943        -9.3047
  96   2.0000      -0.281826        -7.6689
  97   0.0000       0.016071         0.4373
  98   0.0000       0.023868         0.6495
  99   0.0000       0.025058         0.6819
 100   0.0000       0.026567         0.7229
 101   0.0000       0.032060         0.8724

MULLIKEN ATOMIC CHARGES
-----------------------
   0 C :   -0.293364
   1 C :   -0.052191
   2 C :   -0.254170
   3 C :    1.786403
   4 C :    1.607824
   5 C :    0.290667
   6 C :   -0.552078
   7 C :    0.692517
   8 C :   -0.824922
   9 C :   -1.209025
  10 C :   -0.480791
  11 H :    0.245999
  12 H :    0.201256
  13 H :    0.237267
  14 C :    0.579454
  15 H :    0.095594
  16 H :    0.120851
  17 C :   -0.642995
  18 H :    0.233987
  19 H :    0.251705
  20 C :   -1.235005
  21 H :    0.443206
  22 H :    0.150580
  23 H :    0.370320
  24 C :   -1.184009
  25 H :    0.143817
  26 H :    0.303717
  27 H :    0.280342
  28 H :    0.233878
  29 H :    0.258950
  30 H :    0.219065
  31 C :   -1.212212
  32 H :    0.391496
  33 H :    0.222629
  34 H :    0.296852
  35 C :   -0.526191
  36 C :   -0.965318
  37 H :    0.340995
  38 H :    0.203996
  39 H :    0.224180
  40 H :    0.230674
  41 C :   -0.611274
  42 O :   -1.207909
  43 C :   -0.124844
  44 C :    2.032419
  45 H :    0.139438
  46 C :    0.255853
  47 N :   -0.738518
  48 H :    0.006076
  49 O :   -1.253093
  50 C :   -1.064523
  51 H :    0.252891
  52 H :    0.312742
  53 H :    0.180709
  54 H :    0.435417
  55 H :    0.063960
  56 H :   -0.235917
  57 H :    0.087908
  58 H :    0.242718
Sum of atomic charges:    0.0000000

LOEWDIN ATOMIC CHARGES
----------------------
   0 C :    0.351519
   1 C :    0.330309
   2 C :    0.391540
   3 C :   -0.695450
   4 C :   -0.038047
   5 C :   -0.033150
   6 C :    0.352722
   7 C :    0.012784
   8 C :    0.506256
   9 C :    0.920813
  10 C :    0.543777
  11 H :   -0.275294
  12 H :   -0.270172
  13 H :   -0.318965
  14 C :    0.116873
  15 H :   -0.279849
  16 H :   -0.263698
  17 C :    0.537914
  18 H :   -0.293229
  19 H :   -0.266734
  20 C :    0.943472
  21 H :   -0.331822
  22 H :   -0.256811
  23 H :   -0.289143
  24 C :    0.898287
  25 H :   -0.252899
  26 H :   -0.341691
  27 H :   -0.311593
  28 H :   -0.268254
  29 H :   -0.264777
  30 H :   -0.274359
  31 C :    0.901427
  32 H :   -0.362905
  33 H :   -0.318642
  34 H :   -0.261397
  35 C :    0.373946
  36 C :    0.912959
  37 H :   -0.282093
  38 H :   -0.333610
  39 H :   -0.286139
  40 H :   -0.351411
  41 C :   -0.103257
  42 O :    0.761304
  43 C :    0.361201
  44 C :   -0.864626
  45 H :   -0.261941
  46 C :   -0.033718
  47 N :    0.841991
  48 H :   -0.444472
  49 O :    0.741683
  50 C :    0.949671
  51 H :   -0.262488
  52 H :   -0.265644
  53 H :   -0.316727
  54 H :   -0.260566
  55 H :   -0.339090
  56 H :   -0.365102
  57 H :   -0.317125
  58 H :   -0.393555

  Mayer bond orders larger than 0.100000
B(  0-C ,  2-C ) :   1.1394 B(  0-C ,  3-C ) :   0.7134 B(  0-C , 10-C ) :  -0.3093
B(  0-C , 41-C ) :  -0.6203 B(  0-C , 42-O ) :   0.2195 B(  0-C , 58-H ) :   1.0432
B(  1-C ,  4-C ) :   1.0156 B(  1-C ,  5-C ) :   0.4803 B(  1-C , 24-C ) :   0.1195
B(  1-C , 31-C ) :  -0.3259 B(  1-C , 32-H ) :   0.1441 B(  1-C , 55-H ) :   1.1540
B(  2-C ,  3-C ) :  -0.3451 B(  2-C , 10-C ) :   0.7570 B(  2-C , 19-H ) :  -0.1604
B(  2-C , 57-H ) :   1.2586 B(  3-C , 41-C ) :   1.0402 B(  3-C , 43-C ) :  -0.2025
B(  3-C , 44-C ) :  -0.1094 B(  3-C , 49-O ) :  -0.1486 B(  3-C , 58-H ) :  -0.1771
B(  4-C ,  5-C ) :  -0.1909 B(  4-C ,  6-C ) :  -0.3483 B(  4-C ,  7-C ) :  -0.6261
B(  4-C ,  8-C ) :   0.1283 B(  4-C , 24-C ) :   0.1278 B(  4-C , 25-H ) :  -0.2096
B(  4-C , 26-H ) :  -0.2178 B(  4-C , 27-H ) :  -0.2676 B(  4-C , 35-C ) :   0.1219
B(  4-C , 55-H ) :   0.1176 B(  4-C , 56-H ) :  -0.3817 B(  5-C ,  6-C ) :   0.1768
B(  5-C , 31-C ) :   0.5432 B(  5-C , 32-H ) :  -0.1770 B(  5-C , 34-H ) :  -0.1499
B(  5-C , 35-C ) :   0.9867 B(  5-C , 36-C ) :  -0.1079 B(  5-C , 38-H ) :   0.1055
B(  6-C ,  7-C ) :   1.0672 B(  6-C ,  8-C ) :  -0.5462 B(  6-C , 14-C ) :   0.1813
B(  6-C , 24-C ) :  -0.2660 B(  6-C , 27-H ) :   0.1026 B(  6-C , 41-C ) :   0.2026
B(  6-C , 49-O ) :  -0.1337 B(  6-C , 56-H ) :   1.7822 B(  7-C ,  8-C ) :   0.4796
B(  7-C ,  9-C ) :   0.1973 B(  7-C , 11-H ) :  -0.1874 B(  7-C , 12-H ) :  -0.1985
B(  7-C , 13-H ) :  -0.2023 B(  7-C , 15-H ) :  -0.1607 B(  8-C , 14-C ) :   0.6372
B(  8-C , 15-H ) :   1.3063 B(  8-C , 16-H ) :   1.1815 B(  8-C , 20-C ) :   0.2252
B(  9-C , 11-H ) :   1.1329 B(  9-C , 12-H ) :   1.1163 B(  9-C , 13-H ) :   1.0985
B( 10-C , 17-C ) :   0.7571 B( 10-C , 18-H ) :   1.1297 B( 10-C , 19-H ) :   1.0759
B( 14-C , 17-C ) :   0.6626 B( 14-C , 21-H ) :   0.7103 B( 14-C , 28-H ) :  -0.2213
B( 14-C , 29-H ) :  -0.1677 B( 14-C , 30-H ) :  -0.2134 B( 17-C , 22-H ) :   1.1327
B( 17-C , 23-H ) :   0.8620 B( 20-C , 21-H ) :  -0.1701 B( 20-C , 28-H ) :   1.1092
B( 20-C , 29-H ) :   1.0816 B( 20-C , 30-H ) :   1.1377 B( 24-C , 25-H ) :   1.2698
B( 24-C , 26-H ) :   0.9766 B( 24-C , 27-H ) :   1.1437 B( 31-C , 32-H ) :   0.8078
B( 31-C , 33-H ) :   1.1106 B( 31-C , 34-H ) :   1.0871 B( 35-C , 36-C ) :   0.5940
B( 35-C , 37-H ) :  -0.1788 B( 35-C , 39-H ) :  -0.1619 B( 35-C , 40-H ) :   1.1157
B( 36-C , 37-H ) :   1.0017 B( 36-C , 38-H ) :   1.0323 B( 36-C , 39-H ) :   1.0723
B( 41-C , 42-O ) :   0.5704 B( 41-C , 43-C ) :   1.1862 B( 41-C , 44-C ) :   1.1133
B( 41-C , 46-C ) :  -0.4244 B( 41-C , 47-N ) :  -0.3216 B( 41-C , 49-O ) :   0.5798
B( 43-C , 45-H ) :   1.2125 B( 43-C , 46-C ) :   1.0170 B( 43-C , 50-C ) :  -0.1871
B( 43-C , 54-H ) :  -0.1037 B( 44-C , 47-N ) :   0.9304 B( 44-C , 48-H ) :  -0.1484
B( 46-C , 47-N ) :   0.5925 B( 46-C , 48-H ) :  -0.1064 B( 46-C , 50-C ) :   1.0610
B( 46-C , 53-H ) :  -0.1235 B( 46-C , 54-H ) :   0.7910 B( 47-N , 48-H ) :   1.3377
B( 47-N , 49-O ) :   0.1685 B( 49-O , 56-H ) :   0.1323 B( 50-C , 51-H ) :   1.0225
B( 50-C , 52-H ) :   0.9374 B( 50-C , 53-H ) :   0.8910

MP2 TOTAL ENERGY:    -1099.552503732 Eh
FINAL SINGLE POINT ENERGY     -1099.552503732002

DIPOLE MOMENT
-------------
                                X             Y             Z
Electronic contribution:      4.34540     -17.58203       0.83703
Nuclear contribution   :     -3.25229      17.43008      -1.28125
                        -----------------------------------------
Total Dipole Moment    :      1.09311      -0.15195      -0.44422
                        -----------------------------------------
Magnitude (a.u.)       :      1.18966
Magnitude (Debye)      :      3.02388

Rotational constants in cm-1:     0.009348     0.005109     0.004362
Rotational constants in MHz :   280.260261   153.165352   130.755443

                             ****ORCA TERMINATED NORMALLY****
TOTAL RUN TIME: 1 days 0 hours 40 minutes 28 seconds 952 msec
