                         Program Version 4.2.1 -  RELEASE  -
|  1> %pal
|  2>  nprocs 32
|  3> end
|  4> !RI-MP2 aug-cc-pVQZ aug-cc-pVQZ/C TightSCF
|  5> %maxcore 4500
|  6> *xyzfile 1 1  04_63R1.xyz
|  7>
|  8>
|  9>                          ****END OF INPUT****

CARTESIAN COORDINATES (ANGSTROEM)
---------------------------------
  N      1.048613    1.176423   -0.529150
  H      1.631867    1.901412   -0.943867
  C      1.714166    0.191482   -0.075806
  C      1.063812   -1.021528    0.568825
  O      3.036266    0.058767   -0.051822
  N     -0.185434   -1.428782   -0.033382
  H      0.949731   -0.821568    1.637331
  H      1.761958   -1.852971    0.496711
  C     -1.343997   -0.737151   -0.054624
  C     -1.534528    0.423025    0.922576
  O     -2.245401   -0.947258   -0.836177
  N     -1.629292    1.621524    0.039018
  H     -0.729200    0.591946    1.631430
  H     -2.476521    0.277451    1.447050
  H     -2.315283    1.435461   -0.701126
  H     -0.658309    1.700887   -0.377665
  H     -1.888152    2.472858    0.537984
  H     -0.141396   -2.152959   -0.739718
  H      3.504460    0.836286   -0.385360

 Total Charge           Charge          ....    1
 Multiplicity           Mult            ....    1
 Number of Electrons    NEL             ....   70
 Basis Dimension        Dim             .... 1180

ORBITAL ENERGIES
----------------

  NO   OCC          E(Eh)            E(eV)
   0   2.0000     -20.767080      -565.1010
   1   2.0000     -20.680461      -562.7439
   2   2.0000     -15.848136      -431.2497
   3   2.0000     -15.746472      -428.4833
   4   2.0000     -15.713705      -427.5916
   5   2.0000     -11.524851      -313.6071
   6   2.0000     -11.517669      -313.4117
   7   2.0000     -11.468635      -312.0774
   8   2.0000     -11.445413      -311.4455
   9   2.0000      -1.603249       -43.6266
  10   2.0000      -1.556394       -42.3516
  11   2.0000      -1.472377       -40.0654
  12   2.0000      -1.408539       -38.3283
  13   2.0000      -1.364357       -37.1260
  14   2.0000      -1.174879       -31.9701
  15   2.0000      -1.155350       -31.4387
  16   2.0000      -1.006112       -27.3777
  17   2.0000      -0.969695       -26.3867
  18   2.0000      -0.945919       -25.7398
  19   2.0000      -0.932361       -25.3708
  20   2.0000      -0.905915       -24.6512
  21   2.0000      -0.844788       -22.9878
  22   2.0000      -0.836369       -22.7587
  23   2.0000      -0.824006       -22.4223
  24   2.0000      -0.820328       -22.3223
  25   2.0000      -0.779174       -21.2024
  26   2.0000      -0.757639       -20.6164
  27   2.0000      -0.749313       -20.3898
  28   2.0000      -0.741446       -20.1758
  29   2.0000      -0.712327       -19.3834
  30   2.0000      -0.692724       -18.8500
  31   2.0000      -0.631786       -17.1918
  32   2.0000      -0.593308       -16.1447
  33   2.0000      -0.589489       -16.0408
  34   2.0000      -0.558324       -15.1928
  35   0.0000      -0.094201        -2.5633
  36   0.0000      -0.074467        -2.0264
  37   0.0000      -0.071811        -1.9541
  38   0.0000      -0.060643        -1.6502
  39   0.0000      -0.051618        -1.4046

MULLIKEN ATOMIC CHARGES
-----------------------
   0 N :   -0.810239
   1 H :    0.093599
   2 C :    1.045136
   3 C :   -0.207082
   4 O :   -0.754092
   5 N :   -0.734299
   6 H :    0.290020
   7 H :    0.377002
   8 C :    1.243201
   9 C :   -0.627698
  10 O :   -0.862078
  11 N :   -0.109568
  12 H :    0.317407
  13 H :    0.385382
  14 H :    0.292453
  15 H :    0.309531
  16 H :    0.225424
  17 H :    0.156900
  18 H :    0.369003
Sum of atomic charges:    1.0000000

LOEWDIN ATOMIC CHARGES
----------------------
   0 N :    1.059903
   1 H :   -0.577788
   2 C :   -0.560301
   3 C :    0.375020
   4 O :    1.332557
   5 N :    0.866148
   6 H :   -0.280803
   7 H :   -0.299065
   8 C :   -0.796226
   9 C :    0.500877
  10 O :    0.773008
  11 N :    1.546090
  12 H :   -0.283997
  13 H :   -0.239598
  14 H :   -0.346615
  15 H :   -0.575959
  16 H :   -0.277815
  17 H :   -0.478351
  18 H :   -0.737085

  Mayer bond orders larger than 0.100000
B(  0-N ,  1-H ) :   1.1445 B(  0-N ,  2-C ) :   1.6296 B(  0-N ,  4-O ) :   0.1831
B(  0-N , 15-H ) :   0.1507 B(  2-C ,  3-C ) :   0.9776 B(  2-C ,  4-O ) :   0.5849
B(  3-C ,  5-N ) :   0.8032 B(  3-C ,  6-H ) :   0.8727 B(  3-C ,  7-H ) :   0.8896
B(  4-O , 18-H ) :   0.9056 B(  5-N ,  8-C ) :   1.0304 B(  5-N , 10-O ) :   0.2706
B(  5-N , 17-H ) :   1.1177 B(  8-C ,  9-C ) :   1.0027 B(  8-C , 10-O ) :   1.0035
B(  9-C , 10-O ) :   0.1409 B(  9-C , 11-N ) :   0.9078 B(  9-C , 12-H ) :   0.9068
B(  9-C , 13-H ) :   0.8341 B( 11-N , 14-H ) :   0.8852 B( 11-N , 15-H ) :   0.8091
B( 11-N , 16-H ) :   0.9898

MP2 TOTAL ENERGY:     -472.257271341 Eh
FINAL SINGLE POINT ENERGY      -472.257271341307

DIPOLE MOMENT
-------------
                                X             Y             Z
Electronic contribution:      0.62709      -2.09990      -1.74757
Nuclear contribution   :     -0.35608       4.42264       2.60918
                        -----------------------------------------
Total Dipole Moment    :      0.27101       2.32274       0.86161
                        -----------------------------------------
Magnitude (a.u.)       :      2.49218
Magnitude (Debye)      :      6.33461

Rotational constants in cm-1:     0.091208     0.037034     0.030054
Rotational constants in MHz :  2734.345266  1110.242739   900.999928

                             ****ORCA TERMINATED NORMALLY****
TOTAL RUN TIME: 0 days 0 hours 43 minutes 44 seconds 386 msec
