                         Program Version 4.2.1 -  RELEASE  -
|  1> %pal
|  2>  nprocs 32
|  3> end
|  4> !RI-MP2 aug-cc-pVQZ aug-cc-pVQZ/C TightSCF
|  5> %maxcore 4500
|  6> *xyzfile -1 1  09_20TS.xyz
|  7>
|  8>
|  9>                          ****END OF INPUT****

CARTESIAN COORDINATES (ANGSTROEM)
---------------------------------
  C      0.212408   -0.346665    1.750241
  N     -0.298956    0.989530    1.483324
  C      0.253278    1.770955    0.636110
  C      1.371054    1.371211   -0.307443
  O      1.279446    1.818204   -1.473283
  C      2.246873    0.375035    0.129798
  C      3.265154   -0.209449   -0.801681
  C     -0.370851    3.108136    0.382806
  H     -1.165238    3.293963    1.104299
  H     -0.768311    3.124246   -0.632690
  H      0.384967    3.895592    0.440383
  C      0.714276   -1.151692    0.551240
  H      1.015066   -0.317051    2.488582
  H     -0.605248   -0.922964    2.194337
  O      1.360805   -2.194009    0.767089
  C     -0.169627   -1.101985   -0.704482
  O     -1.521631   -1.486178   -0.401272
  H      0.213383   -1.868981   -1.376495
  H     -0.154659   -0.140266   -1.208410
  C     -2.541911   -0.542201   -0.324354
  O     -3.686920   -1.260001   -0.657651
  O     -2.749882   -0.002371    0.920816
  O     -2.340892    0.525674   -1.210181
  O      3.835402   -1.405005   -0.279790
  H      3.102825   -1.925770    0.088644
  H     -4.405394   -0.821452   -0.191697
  H     -2.233788    0.159190   -2.094227
  H     -1.985479    0.568391    1.185744
  H      4.101679    0.476463   -0.983566
  H      2.799043   -0.390375   -1.779104
  H      2.499305    0.331731    1.181700

 Total Charge           Charge          ....   -1
 Multiplicity           Mult            ....    1
 Number of Electrons    NEL             ....  132
 Basis Dimension        Dim             .... 2004

ORBITAL ENERGIES
----------------

  NO   OCC          E(Eh)            E(eV)
   0   2.0000     -20.467961      -556.9615
   1   2.0000     -20.465894      -556.9053
   2   2.0000     -20.455148      -556.6129
   3   2.0000     -20.448122      -556.4217
   4   2.0000     -20.399045      -555.0862
   5   2.0000     -20.374497      -554.4183
   6   2.0000     -20.365420      -554.1712
   7   2.0000     -15.444759      -420.2733
   8   2.0000     -11.337432      -308.5072
   9   2.0000     -11.204002      -304.8764
  10   2.0000     -11.175535      -304.1018
  11   2.0000     -11.169412      -303.9352
  12   2.0000     -11.159173      -303.6565
  13   2.0000     -11.136169      -303.0306
  14   2.0000     -11.132181      -302.9220
  15   2.0000     -11.111058      -302.3473
  16   2.0000     -11.060987      -300.9848
  17   2.0000      -1.385034       -37.6887
  18   2.0000      -1.252910       -34.0934
  19   2.0000      -1.248165       -33.9643
  20   2.0000      -1.236580       -33.6491
  21   2.0000      -1.222198       -33.2577
  22   2.0000      -1.207076       -32.8462
  23   2.0000      -1.201604       -32.6973
  24   2.0000      -1.124772       -30.6066
  25   2.0000      -0.920759       -25.0551
  26   2.0000      -0.895763       -24.3749
  27   2.0000      -0.869486       -23.6599
  28   2.0000      -0.822533       -22.3823
  29   2.0000      -0.772523       -21.0214
  30   2.0000      -0.749112       -20.3844
  31   2.0000      -0.671489       -18.2721
  32   2.0000      -0.665998       -18.1227
  33   2.0000      -0.644674       -17.5425
  34   2.0000      -0.634489       -17.2653
  35   2.0000      -0.608499       -16.5581
  36   2.0000      -0.583638       -15.8816
  37   2.0000      -0.545250       -14.8370
  38   2.0000      -0.543033       -14.7767
  39   2.0000      -0.531998       -14.4764
  40   2.0000      -0.522970       -14.2307
  41   2.0000      -0.515293       -14.0218
  42   2.0000      -0.490250       -13.3404
  43   2.0000      -0.477278       -12.9874
  44   2.0000      -0.468505       -12.7487
  45   2.0000      -0.463791       -12.6204
  46   2.0000      -0.459075       -12.4921
  47   2.0000      -0.453506       -12.3405
  48   2.0000      -0.449072       -12.2199
  49   2.0000      -0.434901       -11.8343
  50   2.0000      -0.431687       -11.7468
  51   2.0000      -0.426845       -11.6150
  52   2.0000      -0.412126       -11.2145
  53   2.0000      -0.398957       -10.8562
  54   2.0000      -0.395084       -10.7508
  55   2.0000      -0.381721       -10.3871
  56   2.0000      -0.373674       -10.1682
  57   2.0000      -0.371475       -10.1084
  58   2.0000      -0.348357        -9.4793
  59   2.0000      -0.342201        -9.3118
  60   2.0000      -0.335857        -9.1391
  61   2.0000      -0.306411        -8.3379
  62   2.0000      -0.297804        -8.1037
  63   2.0000      -0.266561        -7.2535
  64   2.0000      -0.240502        -6.5444
  65   2.0000      -0.152009        -4.1364
  66   0.0000       0.093879         2.5546
  67   0.0000       0.098933         2.6921
  68   0.0000       0.106250         2.8912
  69   0.0000       0.108799         2.9606
  70   0.0000       0.113521         3.0891

MULLIKEN ATOMIC CHARGES
-----------------------
   0 C :   -0.486492
   1 N :   -0.743792
   2 C :    0.235684
   3 C :    1.251233
   4 O :   -1.195104
   5 C :   -0.421814
   6 C :   -0.047267
   7 C :   -1.000055
   8 H :    0.275054
   9 H :    0.248145
  10 H :    0.256205
  11 C :    2.030274
  12 H :    0.239221
  13 H :    0.367361
  14 O :   -1.415873
  15 C :   -0.562285
  16 O :   -0.956622
  17 H :    0.349388
  18 H :    0.279249
  19 C :    2.296231
  20 O :   -0.963485
  21 O :   -1.122796
  22 O :   -0.914274
  23 O :   -1.127171
  24 H :    0.334645
  25 H :    0.328773
  26 H :    0.315073
  27 H :    0.455199
  28 H :    0.341155
  29 H :    0.102924
  30 H :    0.251219
Sum of atomic charges:   -1.0000000

LOEWDIN ATOMIC CHARGES
----------------------
   0 C :    0.260207
   1 N :    0.670996
   2 C :   -0.317775
   3 C :   -0.775946
   4 O :    0.692821
   5 C :    0.175383
   6 C :    0.121464
   7 C :    0.870640
   8 H :   -0.313907
   9 H :   -0.313853
  10 H :   -0.288466
  11 C :   -0.711432
  12 H :   -0.322688
  13 H :   -0.322853
  14 O :    0.805972
  15 C :    0.154377
  16 O :    0.878369
  17 H :   -0.325495
  18 H :   -0.459655
  19 C :   -1.721811
  20 O :    1.222826
  21 O :    1.263022
  22 O :    1.266789
  23 O :    1.257273
  24 H :   -1.059681
  25 H :   -0.851374
  26 H :   -0.789544
  27 H :   -1.042614
  28 H :   -0.317914
  29 H :   -0.322748
  30 H :   -0.382381

  Mayer bond orders larger than 0.100000
B(  0-C ,  1-N ) :   0.8085 B(  0-C , 11-C ) :   0.9368 B(  0-C , 12-H ) :   1.0566
B(  0-C , 13-H ) :   0.8298 B(  0-C , 14-O ) :   0.2680 B(  1-N ,  2-C ) :   1.2597
B(  1-N ,  3-C ) :   0.1413 B(  2-C ,  3-C ) :   0.8150 B(  2-C ,  4-O ) :   0.1652
B(  2-C ,  5-C ) :  -0.1647 B(  2-C ,  7-C ) :   0.5091 B(  2-C ,  8-H ) :  -0.1399
B(  2-C ,  9-H ) :  -0.1124 B(  2-C , 10-H ) :  -0.1474 B(  3-C ,  4-O ) :   0.4268
B(  3-C ,  5-C ) :   1.1963 B(  4-O ,  5-C ) :   0.1600 B(  5-C ,  6-C ) :   0.7514
B(  5-C , 11-C ) :   0.1914 B(  5-C , 14-O ) :   0.1666 B(  5-C , 23-O ) :  -0.1549
B(  5-C , 29-H ) :  -0.1367 B(  5-C , 30-H ) :   0.9488 B(  6-C , 23-O ) :   0.6471
B(  6-C , 28-H ) :   0.9176 B(  6-C , 29-H ) :   1.1172 B(  7-C ,  8-H ) :   1.0861
B(  7-C ,  9-H ) :   1.0066 B(  7-C , 10-H ) :   1.0589 B( 11-C , 14-O ) :  -0.4347
B( 11-C , 15-C ) :   0.8475 B( 14-O , 15-C ) :   0.4642 B( 14-O , 24-H ) :   0.1554
B( 15-C , 16-O ) :   0.4668 B( 15-C , 17-H ) :   0.8896 B( 15-C , 18-H ) :   1.0462
B( 16-O , 19-C ) :   0.5383 B( 19-C , 20-O ) :   0.2071 B( 19-C , 21-O ) :   0.4753
B( 19-C , 22-O ) :   0.5447 B( 20-O , 25-H ) :   0.9629 B( 21-O , 27-H ) :   0.6538
B( 22-O , 26-H ) :   0.8693 B( 23-O , 24-H ) :   0.7875

MP2 TOTAL ENERGY:     -931.483766896 Eh
FINAL SINGLE POINT ENERGY      -931.483766896219

DIPOLE MOMENT
-------------
                                X             Y             Z
Electronic contribution:     -4.71961      -4.21663      -0.12451
Nuclear contribution   :      2.71205       5.35786       0.38598
                        -----------------------------------------
Total Dipole Moment    :     -2.00756       1.14123       0.26147
                        -----------------------------------------
Magnitude (a.u.)       :      2.32402
Magnitude (Debye)      :      5.90719

Rotational constants in cm-1:     0.023617     0.012574     0.010361
Rotational constants in MHz :   708.006791   376.946771   310.614105

                             ****ORCA TERMINATED NORMALLY****
TOTAL RUN TIME: 0 days 4 hours 5 minutes 48 seconds 52 msec
