                         Program Version 4.2.1 -  RELEASE  -
|  1> %pal
|  2>  nprocs 32
|  3> end
|  4> !RI-MP2 aug-cc-pVQZ aug-cc-pVQZ/C TightSCF
|  5> %maxcore 4500
|  6> *xyzfile 0 2  06_15R2.xyz
|  7>
|  8>
|  9>                          ****END OF INPUT****

CARTESIAN COORDINATES (ANGSTROEM)
---------------------------------
  Si     0.000001   -0.444724   -0.476470
  C     -1.545247   -1.007366    0.462655
  C     -2.871963   -0.522323   -0.128219
  C      1.545250   -1.007359    0.462658
  C      2.871966   -0.522320   -0.128220
  C     -0.000003    1.438636   -0.679575
  C     -0.000005    2.197551    0.655608
  H     -1.536549   -2.100080    0.521229
  H     -1.447547   -0.655576    1.497966
  H     -3.003856   -0.874904   -1.154044
  H     -3.725251   -0.877713    0.454228
  H     -2.925240    0.568968   -0.150565
  H      1.536552   -2.100073    0.521239
  H      1.447551   -0.655562    1.497966
  H      3.725254   -0.877705    0.454230
  H      3.003859   -0.874909   -1.154043
  H      2.925242    0.568971   -0.150575
  H     -0.871673    1.727681   -1.273987
  H      0.871667    1.727684   -1.273986
  H     -0.880513    1.954450    1.255554
  H      0.880505    1.954455    1.255554
  H     -0.000008    3.279537    0.500369

 Total Charge           Charge          ....    0
 Multiplicity           Mult            ....    2
 Number of Electrons    NEL             ....   65
 Basis Dimension        Dim             .... 1254

ORBITAL ENERGIES
----------------
                 SPIN UP ORBITALS
  NO   OCC          E(Eh)            E(eV)
   0   1.0000     -68.749434     -1870.7672
   1   1.0000     -11.217376      -305.2403
   2   1.0000     -11.214347      -305.1579
   3   1.0000     -11.214347      -305.1579
   4   1.0000     -11.204045      -304.8776
   5   1.0000     -11.204038      -304.8774
   6   1.0000     -11.203348      -304.8586
   7   1.0000      -6.099917      -165.9872
   8   1.0000      -4.212510      -114.6282
   9   1.0000      -4.202776      -114.3633
  10   1.0000      -4.202705      -114.3614
  11   1.0000      -1.031400       -28.0658
  12   1.0000      -1.011180       -27.5156
  13   1.0000      -1.007882       -27.4259
  14   1.0000      -0.857765       -23.3410
  15   1.0000      -0.837113       -22.7790
  16   1.0000      -0.824994       -22.4492
  17   1.0000      -0.646549       -17.5935
  18   1.0000      -0.615167       -16.7395
  19   1.0000      -0.610502       -16.6126
  20   1.0000      -0.591546       -16.0968
  21   1.0000      -0.570788       -15.5319
  22   1.0000      -0.568244       -15.4627
  23   1.0000      -0.535981       -14.5848
  24   1.0000      -0.519131       -14.1263
  25   1.0000      -0.508367       -13.8334
  26   1.0000      -0.500412       -13.6169
  27   1.0000      -0.495544       -13.4844
  28   1.0000      -0.492452       -13.4003
  29   1.0000      -0.482301       -13.1241
  30   1.0000      -0.404914       -11.0183
  31   1.0000      -0.404650       -11.0111
  32   1.0000      -0.294481        -8.0132
  33   0.0000       0.022791         0.6202
  34   0.0000       0.029831         0.8117
  35   0.0000       0.031039         0.8446
  36   0.0000       0.033112         0.9010
  37   0.0000       0.044055         1.1988

                 SPIN DOWN ORBITALS
  NO   OCC          E(Eh)            E(eV)
   0   1.0000     -68.744139     -1870.6231
   1   1.0000     -11.216563      -305.2182
   2   1.0000     -11.214383      -305.1589
   3   1.0000     -11.214382      -305.1589
   4   1.0000     -11.203201      -304.8546
   5   1.0000     -11.203192      -304.8544
   6   1.0000     -11.202412      -304.8331
   7   1.0000      -6.091775      -165.7656
   8   1.0000      -4.199345      -114.2700
   9   1.0000      -4.199266      -114.2678
  10   1.0000      -4.191324      -114.0517
  11   1.0000      -1.026812       -27.9410
  12   1.0000      -1.009777       -27.4774
  13   1.0000      -1.005364       -27.3574
  14   1.0000      -0.851543       -23.1717
  15   1.0000      -0.834390       -22.7049
  16   1.0000      -0.822923       -22.3929
  17   1.0000      -0.627181       -17.0665
  18   1.0000      -0.614056       -16.7093
  19   1.0000      -0.601310       -16.3625
  20   1.0000      -0.588631       -16.0175
  21   1.0000      -0.569875       -15.5071
  22   1.0000      -0.566366       -15.4116
  23   1.0000      -0.528913       -14.3924
  24   1.0000      -0.508686       -13.8420
  25   1.0000      -0.503407       -13.6984
  26   1.0000      -0.499727       -13.5983
  27   1.0000      -0.492470       -13.4008
  28   1.0000      -0.491507       -13.3746
  29   1.0000      -0.480407       -13.0725
  30   1.0000      -0.397366       -10.8129
  31   1.0000      -0.397315       -10.8115
  32   0.0000       0.021637         0.5888
  33   0.0000       0.029943         0.8148
  34   0.0000       0.031096         0.8462
  35   0.0000       0.032054         0.8722
  36   0.0000       0.043994         1.1971

MULLIKEN ATOMIC CHARGES AND SPIN POPULATIONS
--------------------------------------------
   0 Si:    1.116526    1.035191
   1 C :   -0.730717   -0.006208
   2 C :   -0.938534    0.005605
   3 C :   -0.730744   -0.006206
   4 C :   -0.938490    0.005609
   5 C :   -0.597550   -0.061958
   6 C :   -1.005498    0.031823
   7 H :    0.224659   -0.006124
   8 H :    0.240168    0.020646
   9 H :    0.227591    0.000076
  10 H :    0.321669   -0.002338
  11 H :    0.227270    0.000752
  12 H :    0.224663   -0.006122
  13 H :    0.240154    0.020648
  14 H :    0.321670   -0.002343
  15 H :    0.227592    0.000077
  16 H :    0.227279    0.000752
  17 H :    0.243190   -0.015839
  18 H :    0.243205   -0.015840
  19 H :    0.243344   -0.002316
  20 H :    0.243343   -0.002317
  21 H :    0.369208    0.006432
Sum of atomic charges         :   -0.0000000

LOEWDIN ATOMIC CHARGES AND SPIN POPULATIONS
-------------------------------------------
   0 Si:    0.557830    0.478742
   1 C :    0.518096    0.115673
   2 C :    0.852183    0.020463
   3 C :    0.518096    0.115673
   4 C :    0.852183    0.020463
   5 C :    0.526989    0.112923
   6 C :    0.863260    0.017664
   7 H :   -0.343553    0.014058
   8 H :   -0.336452    0.015731
   9 H :   -0.293690    0.007904
  10 H :   -0.282734    0.000676
  11 H :   -0.304884    0.001417
  12 H :   -0.343553    0.014058
  13 H :   -0.336453    0.015731
  14 H :   -0.282734    0.000676
  15 H :   -0.293690    0.007905
  16 H :   -0.304884    0.001417
  17 H :   -0.348585    0.013508
  18 H :   -0.348585    0.013508
  19 H :   -0.295979    0.003580
  20 H :   -0.295978    0.003580
  21 H :   -0.276881    0.004652

  Mayer bond orders larger than 0.100000
B(  0-Si,  1-C ) :   0.7418 B(  0-Si,  3-C ) :   0.7418 B(  0-Si,  5-C ) :   0.5694
B(  1-C ,  2-C ) :   0.9477 B(  1-C ,  7-H ) :   0.9765 B(  1-C ,  8-H ) :   0.8888
B(  2-C ,  9-H ) :   0.9831 B(  2-C , 10-H ) :   0.9531 B(  2-C , 11-H ) :   0.9460
B(  3-C ,  4-C ) :   0.9477 B(  3-C , 12-H ) :   0.9765 B(  3-C , 13-H ) :   0.8888
B(  4-C , 14-H ) :   0.9531 B(  4-C , 15-H ) :   0.9830 B(  4-C , 16-H ) :   0.9460
B(  5-C ,  6-C ) :   0.9579 B(  5-C , 17-H ) :   0.9660 B(  5-C , 18-H ) :   0.9660
B(  6-C , 19-H ) :   0.9617 B(  6-C , 20-H ) :   0.9617 B(  6-C , 21-H ) :   0.8742

MP2 TOTAL ENERGY:     -526.221001161 Eh
FINAL SINGLE POINT ENERGY      -526.221001161131

DIPOLE MOMENT
-------------
                                X             Y             Z
Electronic contribution:      0.00001      -2.86757      -2.75660
Nuclear contribution   :     -0.00001       2.95700       2.99708
                        -----------------------------------------
Total Dipole Moment    :     -0.00000       0.08943       0.24048
                        -----------------------------------------
Magnitude (a.u.)       :      0.25657
Magnitude (Debye)      :      0.65214

Rotational constants in cm-1:     0.086528     0.045751     0.034520
Rotational constants in MHz :  2594.054260  1371.589307  1034.872762

                             ****ORCA TERMINATED NORMALLY****
TOTAL RUN TIME: 0 days 0 hours 56 minutes 48 seconds 11 msec
