                         Program Version 4.2.1 -  RELEASE  -
|  1> %pal
|  2>  nprocs 32
|  3> end
|  4> !RI-MP2 aug-cc-pVQZ aug-cc-pVQZ/C TightSCF
|  5> %maxcore 4500
|  6> *xyzfile 1 1  02_33R.xyz
|  7>
|  8>
|  9>                          ****END OF INPUT****

CARTESIAN COORDINATES (ANGSTROEM)
---------------------------------
  C      1.327491   -1.283738   -0.201192
  N      0.307281   -0.587807   -0.421915
  N     -0.525235    0.220506   -0.722463
  C     -1.851910    0.105031   -0.283061
  C     -2.305125   -0.933530    0.537269
  C     -2.702407    1.117998   -0.722720
  C     -3.630137   -0.945376    0.914052
  H     -1.630061   -1.712319    0.870638
  C     -4.031030    1.092281   -0.336204
  H     -2.307423    1.902131   -1.355680
  C     -4.489568    0.065312    0.477594
  H     -4.005795   -1.737490    1.548392
  H     -4.707075    1.869310   -0.667268
  H     -5.529281    0.045509    0.780024
  C      2.181090   -0.978170    1.002559
  C      1.665435   -2.410020   -1.129640
  H      2.637417   -2.207458   -1.584414
  H      1.753206   -3.336513   -0.559347
  H      0.922717   -2.531247   -1.914958
  C      2.891504    1.941542    0.477046
  C      1.856798    2.620838    0.004091
  C      3.565093    0.800858   -0.226055
  C      3.581502   -0.486841    0.603576
  H      1.681585   -0.229256    1.616816
  H      2.261427   -1.899970    1.584747
  H      4.119513   -1.271323    0.066828
  H      4.132856   -0.321889    1.532466
  H      3.083594    0.630664   -1.195439
  H      4.601796    1.072224   -0.445312
  H      3.311112    2.218778    1.442241
  H      1.421527    2.392245   -0.963840
  H      1.426145    3.450592    0.550858

 Total Charge           Charge          ....    1
 Multiplicity           Mult            ....    1
 Number of Electrons    NEL             ....  108
 Basis Dimension        Dim             .... 1982

ORBITAL ENERGIES
----------------

  NO   OCC          E(Eh)            E(eV)
   0   2.0000     -15.859331      -431.5543
   1   2.0000     -15.855687      -431.4552
   2   2.0000     -11.510747      -313.2233
   3   2.0000     -11.423298      -310.8437
   4   2.0000     -11.397178      -310.1330
   5   2.0000     -11.393053      -310.0207
   6   2.0000     -11.392130      -309.9956
   7   2.0000     -11.389906      -309.9351
   8   2.0000     -11.381945      -309.7185
   9   2.0000     -11.372629      -309.4650
  10   2.0000     -11.368413      -309.3502
  11   2.0000     -11.364068      -309.2320
  12   2.0000     -11.346979      -308.7670
  13   2.0000     -11.340097      -308.5797
  14   2.0000     -11.327343      -308.2327
  15   2.0000      -1.612252       -43.8716
  16   2.0000      -1.373783       -37.3825
  17   2.0000      -1.300603       -35.3912
  18   2.0000      -1.227215       -33.3942
  19   2.0000      -1.191847       -32.4318
  20   2.0000      -1.168634       -31.8001
  21   2.0000      -1.154070       -31.4038
  22   2.0000      -1.135812       -30.9070
  23   2.0000      -1.076388       -29.2900
  24   2.0000      -1.029935       -28.0260
  25   2.0000      -0.982571       -26.7371
  26   2.0000      -0.963294       -26.2126
  27   2.0000      -0.906528       -24.6679
  28   2.0000      -0.879511       -23.9327
  29   2.0000      -0.856465       -23.3056
  30   2.0000      -0.843289       -22.9471
  31   2.0000      -0.828353       -22.5406
  32   2.0000      -0.823817       -22.4172
  33   2.0000      -0.781093       -21.2546
  34   2.0000      -0.755724       -20.5643
  35   2.0000      -0.754827       -20.5399
  36   2.0000      -0.748902       -20.3787
  37   2.0000      -0.741222       -20.1697
  38   2.0000      -0.736230       -20.0338
  39   2.0000      -0.724880       -19.7250
  40   2.0000      -0.720092       -19.5947
  41   2.0000      -0.690893       -18.8002
  42   2.0000      -0.688148       -18.7254
  43   2.0000      -0.661425       -17.9983
  44   2.0000      -0.648015       -17.6334
  45   2.0000      -0.643777       -17.5181
  46   2.0000      -0.637195       -17.3390
  47   2.0000      -0.633328       -17.2337
  48   2.0000      -0.610954       -16.6249
  49   2.0000      -0.591092       -16.0844
  50   2.0000      -0.568942       -15.4817
  51   2.0000      -0.484026       -13.1710
  52   2.0000      -0.482941       -13.1415
  53   2.0000      -0.474381       -12.9086
  54   0.0000      -0.110462        -3.0058
  55   0.0000      -0.069838        -1.9004
  56   0.0000      -0.056692        -1.5427
  57   0.0000      -0.053655        -1.4600
  58   0.0000      -0.050778        -1.3817

MULLIKEN ATOMIC CHARGES
-----------------------
   0 C :    1.039693
   1 N :    0.313889
   2 N :   -0.957545
   3 C :    0.484819
   4 C :   -0.180804
   5 C :   -0.486790
   6 C :   -0.392893
   7 H :    0.365080
   8 C :   -0.408529
   9 H :    0.396225
  10 C :   -0.310458
  11 H :    0.287576
  12 H :    0.268101
  13 H :    0.345775
  14 C :   -0.434947
  15 C :   -0.970756
  16 H :    0.325050
  17 H :    0.317958
  18 H :    0.297949
  19 C :   -0.391031
  20 C :   -0.889317
  21 C :   -0.346339
  22 C :   -0.317816
  23 H :    0.287222
  24 H :    0.293762
  25 H :    0.273689
  26 H :    0.241116
  27 H :    0.175657
  28 H :    0.350112
  29 H :    0.333408
  30 H :    0.360964
  31 H :    0.329184
Sum of atomic charges:    1.0000000

LOEWDIN ATOMIC CHARGES
----------------------
   0 C :   -0.187472
   1 N :    0.405328
   2 N :    0.479211
   3 C :   -0.319640
   4 C :    0.343010
   5 C :    0.335057
   6 C :    0.382700
   7 H :   -0.312634
   8 C :    0.384192
   9 H :   -0.304886
  10 C :    0.383798
  11 H :   -0.305576
  12 H :   -0.305309
  13 H :   -0.295799
  14 C :    0.542981
  15 C :    0.978794
  16 H :   -0.270098
  17 H :   -0.257548
  18 H :   -0.270844
  19 C :    0.362838
  20 C :    0.805220
  21 C :    0.495859
  22 C :    0.544267
  23 H :   -0.288877
  24 H :   -0.252540
  25 H :   -0.264791
  26 H :   -0.252758
  27 H :   -0.299047
  28 H :   -0.259587
  29 H :   -0.305360
  30 H :   -0.353172
  31 H :   -0.337314

  Mayer bond orders larger than 0.100000
B(  0-C ,  1-N ) :   0.6662 B(  0-C ,  2-N ) :  -0.2961 B(  0-C ,  4-C ) :  -0.1034
B(  0-C , 14-C ) :   0.8011 B(  0-C , 15-C ) :   0.6305 B(  1-N ,  2-N ) :   0.6884
B(  2-N ,  3-C ) :   0.7832 B(  2-N ,  4-C ) :  -0.1462 B(  2-N ,  5-C ) :   0.1178
B(  3-C ,  4-C ) :   1.0233 B(  3-C ,  5-C ) :   1.0232 B(  3-C ,  6-C ) :  -0.3406
B(  3-C ,  8-C ) :  -0.3784 B(  4-C ,  6-C ) :   1.2099 B(  4-C ,  7-H ) :   0.8806
B(  4-C ,  8-C ) :   0.1163 B(  4-C , 11-H ) :  -0.1103 B(  5-C ,  6-C ) :   0.1476
B(  5-C ,  8-C ) :   1.3958 B(  5-C ,  9-H ) :   0.8374 B(  5-C , 12-H ) :  -0.1157
B(  6-C , 10-C ) :   1.1979 B(  6-C , 11-H ) :   1.0753 B(  6-C , 13-H ) :  -0.1204
B(  8-C , 10-C ) :   1.1606 B(  8-C , 12-H ) :   1.1106 B( 10-C , 13-H ) :   1.0079
B( 14-C , 22-C ) :   0.8530 B( 14-C , 23-H ) :   0.9236 B( 14-C , 24-H ) :   0.9035
B( 15-C , 16-H ) :   0.9097 B( 15-C , 17-H ) :   0.9372 B( 15-C , 18-H ) :   1.0072
B( 19-C , 20-C ) :   1.8633 B( 19-C , 21-C ) :   0.8704 B( 19-C , 22-C ) :  -0.1583
B( 19-C , 29-H ) :   0.9321 B( 20-C , 21-C ) :  -0.1582 B( 20-C , 30-H ) :   0.8230
B( 20-C , 31-H ) :   0.9944 B( 21-C , 22-C ) :   0.8744 B( 21-C , 27-H ) :   0.9628
B( 21-C , 28-H ) :   0.9033 B( 22-C , 25-H ) :   0.9177 B( 22-C , 26-H ) :   0.9295

MP2 TOTAL ENERGY:     -613.688484188 Eh
FINAL SINGLE POINT ENERGY      -613.688484187837

DIPOLE MOMENT
-------------
                                X             Y             Z
Electronic contribution:    -13.35296       0.24950      -1.27008
Nuclear contribution   :     13.39557      -1.69648       1.32210
                        -----------------------------------------
Total Dipole Moment    :      0.04262      -1.44699       0.05202
                        -----------------------------------------
Magnitude (a.u.)       :      1.44855
Magnitude (Debye)      :      3.68192

Rotational constants in cm-1:     0.036932     0.010374     0.008916
Rotational constants in MHz :  1107.194242   311.011242   267.309313

                             ****ORCA TERMINATED NORMALLY****
TOTAL RUN TIME: 0 days 3 hours 43 minutes 48 seconds 723 msec
