                         Program Version 4.2.1 -  RELEASE  -
|  1> %pal
|  2>  nprocs 32
|  3> end
|  4> !RI-MP2 aug-cc-pVQZ aug-cc-pVQZ/C TightSCF
|  5> %maxcore 4500
|  6> *xyzfile 0 1  06_11P.xyz
|  7>
|  8>
|  9>                          ****END OF INPUT****

CARTESIAN COORDINATES (ANGSTROEM)
---------------------------------
  C     -1.423375    0.176396   -1.235980
  C     -0.607186   -0.363417    1.172000
  C     -2.770900    0.660153   -0.665494
  H     -2.731945    1.754266   -0.626435
  H     -3.582184    0.409750   -1.358598
  H      0.160111   -0.204320    1.934458
  H     -1.231404    0.721039   -2.166082
  C     -1.949988    0.154924    1.725615
  H     -1.790510    1.186292    2.059114
  H     -2.226187   -0.412352    2.621550
  B     -0.275578    0.325582   -0.189059
  C      0.858447    2.347761    0.077894
  C      1.119960    0.997687   -0.535100
  C      0.166461    3.315266   -0.512536
  H     -0.221773    3.209130   -1.519883
  H     -0.020690    4.255413   -0.009088
  C      2.263197    0.282439    0.106291
  O      2.706517    0.487201    1.206798
  O      2.723417   -0.698098   -0.693271
  C      3.777221   -1.498329   -0.151690
  H      3.445883   -1.999938    0.757750
  H      4.019985   -2.225055   -0.922468
  H      4.644907   -0.881150    0.080166
  C     -0.595783   -1.879485    0.820837
  H      0.438499   -2.165868    0.597624
  H     -0.883186   -2.457473    1.705582
  C     -1.370605   -1.341078   -1.578345
  H     -0.422362   -1.539746   -2.091745
  H     -2.159653   -1.576262   -2.300549
  C     -3.121122    0.134973    0.734182
  H     -3.523428   -0.875045    0.660359
  H     -3.936046    0.740833    1.141264
  C     -1.481325   -2.281818   -0.369026
  H     -1.206715   -3.292504   -0.685210
  H     -2.520459   -2.349149   -0.050346
  H      1.226591    2.472015    1.090902
  H      1.268969    1.056571   -1.613180

 Total Charge           Charge          ....    0
 Multiplicity           Mult            ....    1
 Number of Electrons    NEL             ....  120
 Basis Dimension        Dim             .... 2246

ORBITAL ENERGIES
----------------

  NO   OCC          E(Eh)            E(eV)
   0   2.0000     -20.598735      -560.5201
   1   2.0000     -20.536120      -558.8162
   2   2.0000     -11.373596      -309.4913
   3   2.0000     -11.282974      -307.0253
   4   2.0000     -11.246269      -306.0265
   5   2.0000     -11.229538      -305.5713
   6   2.0000     -11.224202      -305.4261
   7   2.0000     -11.221526      -305.3533
   8   2.0000     -11.220283      -305.3194
   9   2.0000     -11.214397      -305.1593
  10   2.0000     -11.214110      -305.1514
  11   2.0000     -11.212751      -305.1145
  12   2.0000     -11.209761      -305.0331
  13   2.0000     -11.195637      -304.6488
  14   2.0000     -11.191508      -304.5364
  15   2.0000      -7.583256      -206.3509
  16   2.0000      -1.460566       -39.7440
  17   2.0000      -1.357307       -36.9342
  18   2.0000      -1.118120       -30.4256
  19   2.0000      -1.092604       -29.7313
  20   2.0000      -1.041335       -28.3362
  21   2.0000      -1.026554       -27.9339
  22   2.0000      -1.004882       -27.3442
  23   2.0000      -0.946528       -25.7563
  24   2.0000      -0.924328       -25.1522
  25   2.0000      -0.913469       -24.8568
  26   2.0000      -0.795592       -21.6491
  27   2.0000      -0.791479       -21.5372
  28   2.0000      -0.786271       -21.3955
  29   2.0000      -0.759794       -20.6751
  30   2.0000      -0.744634       -20.2625
  31   2.0000      -0.707257       -19.2454
  32   2.0000      -0.683027       -18.5861
  33   2.0000      -0.675445       -18.3798
  34   2.0000      -0.666120       -18.1261
  35   2.0000      -0.642714       -17.4891
  36   2.0000      -0.621486       -16.9115
  37   2.0000      -0.602928       -16.4065
  38   2.0000      -0.595159       -16.1951
  39   2.0000      -0.588940       -16.0259
  40   2.0000      -0.582590       -15.8531
  41   2.0000      -0.576308       -15.6821
  42   2.0000      -0.565210       -15.3801
  43   2.0000      -0.560134       -15.2420
  44   2.0000      -0.542692       -14.7674
  45   2.0000      -0.533406       -14.5147
  46   2.0000      -0.526645       -14.3307
  47   2.0000      -0.505496       -13.7553
  48   2.0000      -0.501670       -13.6511
  49   2.0000      -0.481546       -13.1035
  50   2.0000      -0.475650       -12.9431
  51   2.0000      -0.474399       -12.9090
  52   2.0000      -0.472062       -12.8455
  53   2.0000      -0.459498       -12.5036
  54   2.0000      -0.456073       -12.4104
  55   2.0000      -0.449428       -12.2296
  56   2.0000      -0.421005       -11.4561
  57   2.0000      -0.407147       -11.0790
  58   2.0000      -0.386709       -10.5229
  59   2.0000      -0.359041        -9.7700
  60   0.0000       0.019807         0.5390
  61   0.0000       0.025164         0.6847
  62   0.0000       0.027857         0.7580
  63   0.0000       0.029362         0.7990
  64   0.0000       0.036599         0.9959

MULLIKEN ATOMIC CHARGES
-----------------------
   0 C :   -0.115471
   1 C :    0.041289
   2 C :   -0.654136
   3 H :    0.102241
   4 H :    0.115345
   5 H :    0.345912
   6 H :    0.343225
   7 C :   -0.686322
   8 H :    0.083592
   9 H :    0.137014
  10 B :    2.302677
  11 C :   -0.246562
  12 C :   -1.063127
  13 C :   -0.871368
  14 H :    0.334131
  15 H :    0.222509
  16 C :    1.960661
  17 O :   -1.098519
  18 O :   -0.960414
  19 C :   -0.993220
  20 H :    0.375807
  21 H :    0.439883
  22 H :    0.356058
  23 C :   -0.779898
  24 H :    0.305238
  25 H :    0.108782
  26 C :   -0.662840
  27 H :    0.108238
  28 H :    0.155211
  29 C :   -0.455964
  30 H :    0.140958
  31 H :    0.169117
  32 C :   -0.485359
  33 H :    0.148449
  34 H :    0.197739
  35 H :    0.335435
  36 H :    0.243691
Sum of atomic charges:    0.0000000

LOEWDIN ATOMIC CHARGES
----------------------
   0 C :    0.322268
   1 C :    0.323930
   2 C :    0.573415
   3 H :   -0.261061
   4 H :   -0.247272
   5 H :   -0.282517
   6 H :   -0.269213
   7 C :    0.578653
   8 H :   -0.252750
   9 H :   -0.247353
  10 B :   -0.795116
  11 C :    0.357006
  12 C :    0.209917
  13 C :    0.840863
  14 H :   -0.325747
  15 H :   -0.331247
  16 C :   -1.079252
  17 O :    0.772647
  18 O :    0.874650
  19 C :    0.581864
  20 H :   -0.313964
  21 H :   -0.319943
  22 H :   -0.312316
  23 C :    0.583552
  24 H :   -0.258988
  25 H :   -0.240436
  26 C :    0.584366
  27 H :   -0.246534
  28 H :   -0.242696
  29 C :    0.574050
  30 H :   -0.304855
  31 H :   -0.252638
  32 C :    0.585888
  33 H :   -0.249483
  34 H :   -0.304062
  35 H :   -0.320820
  36 H :   -0.304804

  Mayer bond orders larger than 0.100000
B(  0-C ,  1-C ) :   0.1035 B(  0-C ,  2-C ) :   0.5384 B(  0-C ,  3-H ) :  -0.1722
B(  0-C ,  4-H ) :  -0.1038 B(  0-C ,  6-H ) :   0.8650 B(  0-C , 10-B ) :   0.6577
B(  0-C , 11-C ) :   0.1027 B(  0-C , 13-C ) :   0.1139 B(  0-C , 26-C ) :   0.5868
B(  0-C , 27-H ) :  -0.1282 B(  0-C , 29-C ) :  -0.1028 B(  0-C , 32-C ) :  -0.1046
B(  1-C ,  5-H ) :   0.7864 B(  1-C ,  7-C ) :   0.4763 B(  1-C ,  8-H ) :  -0.1554
B(  1-C ,  9-H ) :  -0.1033 B(  1-C , 10-B ) :   0.7854 B(  1-C , 23-C ) :   0.6508
B(  1-C , 24-H ) :  -0.1105 B(  1-C , 29-C ) :  -0.1324 B(  1-C , 32-C ) :  -0.1615
B(  2-C ,  3-H ) :   1.2268 B(  2-C ,  4-H ) :   1.1611 B(  2-C , 10-B ) :  -0.1783
B(  2-C , 29-C ) :   0.8030 B(  5-H ,  7-C ) :  -0.1369 B(  5-H , 17-O ) :   0.1318
B(  7-C ,  8-H ) :   1.2551 B(  7-C ,  9-H ) :   1.1622 B(  7-C , 10-B ) :  -0.1416
B(  7-C , 29-C ) :   0.8251 B( 10-B , 11-C ) :  -0.3075 B( 10-B , 12-C ) :  -0.1145
B( 10-B , 13-C ) :  -0.1691 B( 10-B , 16-C ) :  -0.1877 B( 10-B , 18-O ) :  -0.1292
B( 10-B , 26-C ) :  -0.1089 B( 10-B , 36-H ) :  -0.1447 B( 11-C , 12-C ) :   1.0145
B( 11-C , 13-C ) :   1.5994 B( 11-C , 15-H ) :  -0.1761 B( 11-C , 35-H ) :   0.9403
B( 12-C , 13-C ) :  -0.1734 B( 12-C , 16-C ) :   1.2499 B( 12-C , 17-O ) :   0.2930
B( 12-C , 18-O ) :   0.1269 B( 12-C , 36-H ) :   1.0814 B( 13-C , 14-H ) :   0.9208
B( 13-C , 15-H ) :   1.1695 B( 16-C , 17-O ) :   0.5684 B( 16-C , 18-O ) :   0.6532
B( 16-C , 19-C ) :  -0.2146 B( 17-O , 18-O ) :   0.1916 B( 18-O , 19-C ) :   1.0181
B( 19-C , 20-H ) :   0.8572 B( 19-C , 21-H ) :   0.8359 B( 19-C , 22-H ) :   0.9413
B( 23-C , 24-H ) :   0.9383 B( 23-C , 25-H ) :   1.1345 B( 23-C , 32-C ) :   0.8823
B( 26-C , 27-H ) :   1.1991 B( 26-C , 28-H ) :   1.0832 B( 26-C , 32-C ) :   0.8594
B( 29-C , 30-H ) :   1.1543 B( 29-C , 31-H ) :   1.0410 B( 32-C , 33-H ) :   1.0392
B( 32-C , 34-H ) :   1.1237

MP2 TOTAL ENERGY:     -682.143763336 Eh
FINAL SINGLE POINT ENERGY      -682.143763336004

DIPOLE MOMENT
-------------
                                X             Y             Z
Electronic contribution:     10.94317       4.20527      -0.05193
Nuclear contribution   :    -11.20495      -4.54511      -0.54712
                        -----------------------------------------
Total Dipole Moment    :     -0.26178      -0.33984      -0.59905
                        -----------------------------------------
Magnitude (a.u.)       :      0.73680
Magnitude (Debye)      :      1.87280

Rotational constants in cm-1:     0.024980     0.014521     0.011829
Rotational constants in MHz :   748.880748   435.331160   354.620146

                             ****ORCA TERMINATED NORMALLY****
TOTAL RUN TIME: 0 days 6 hours 11 minutes 1 seconds 964 msec
