                         Program Version 4.2.1 -  RELEASE  -
|  1> %pal
|  2>  nprocs 32
|  3> end
|  4> !RI-MP2 aug-cc-pVQZ aug-cc-pVQZ/C TightSCF
|  5> %maxcore 4500
|  6> *xyzfile 0 1  03_26R1.xyz
|  7>
|  8>
|  9>                          ****END OF INPUT****

CARTESIAN COORDINATES (ANGSTROEM)
---------------------------------
  N     -0.275339    0.300524   -0.295080
  S      1.048835   -0.425341    0.514729
  O      2.241216    0.345947   -0.206469
  C      2.460231    0.096947   -1.608843
  C     -1.642729   -0.358722   -0.204475
  Cl    -0.293724    2.001405    0.125286
  O      1.130730   -0.055583    1.897535
  O      1.054364   -1.808576    0.108751
  H      3.364640    0.647649   -1.850466
  H      1.615266    0.473940   -2.184553
  H      2.601490   -0.969154   -1.780991
  C     -1.592421   -1.673894   -0.988430
  C     -2.633813    0.563650   -0.916352
  C     -2.063932   -0.585355    1.244746
  H     -1.210198   -1.502440   -1.995805
  H     -2.611542   -2.055687   -1.068718
  H     -0.976802   -2.426766   -0.507870
  H     -2.269505    0.836726   -1.907781
  H     -2.834722    1.472598   -0.353514
  H     -3.574908    0.025357   -1.033019
  H     -1.420656   -1.312682    1.741518
  H     -3.086085   -0.967281    1.270170
  H     -2.032140    0.345576    1.812656

 Total Charge           Charge          ....    0
 Multiplicity           Mult            ....    1
 Number of Electrons    NEL             ....  106
 Basis Dimension        Dim             .... 1440

ORBITAL ENERGIES
----------------

  NO   OCC          E(Eh)            E(eV)
   0   2.0000    -104.874917     -2853.7916
   1   2.0000     -92.238670     -2509.9418
   2   2.0000     -20.627679      -561.3077
   3   2.0000     -20.568524      -559.6980
   4   2.0000     -20.564075      -559.5769
   5   2.0000     -15.660873      -426.1540
   6   2.0000     -11.305798      -307.6464
   7   2.0000     -11.304654      -307.6153
   8   2.0000     -11.230401      -305.5948
   9   2.0000     -11.225297      -305.4559
  10   2.0000     -11.222239      -305.3726
  11   2.0000     -10.597878      -288.3829
  12   2.0000      -9.198808      -250.3123
  13   2.0000      -8.065005      -219.4599
  14   2.0000      -8.062719      -219.3977
  15   2.0000      -8.062468      -219.3909
  16   2.0000      -6.885352      -187.3600
  17   2.0000      -6.884595      -187.3394
  18   2.0000      -6.883537      -187.3106
  19   2.0000      -1.520162       -41.3657
  20   2.0000      -1.400619       -38.1128
  21   2.0000      -1.367292       -37.2059
  22   2.0000      -1.281461       -34.8703
  23   2.0000      -1.113665       -30.3044
  24   2.0000      -1.042399       -28.3651
  25   2.0000      -0.988533       -26.8993
  26   2.0000      -0.956861       -26.0375
  27   2.0000      -0.948943       -25.8221
  28   2.0000      -0.859984       -23.4013
  29   2.0000      -0.780074       -21.2269
  30   2.0000      -0.737720       -20.0744
  31   2.0000      -0.706371       -19.2213
  32   2.0000      -0.698597       -19.0098
  33   2.0000      -0.665959       -18.1217
  34   2.0000      -0.657726       -17.8976
  35   2.0000      -0.641493       -17.4559
  36   2.0000      -0.626831       -17.0569
  37   2.0000      -0.611008       -16.6264
  38   2.0000      -0.587096       -15.9757
  39   2.0000      -0.570099       -15.5132
  40   2.0000      -0.563291       -15.3279
  41   2.0000      -0.544825       -14.8254
  42   2.0000      -0.540767       -14.7150
  43   2.0000      -0.535170       -14.5627
  44   2.0000      -0.529861       -14.4182
  45   2.0000      -0.524254       -14.2657
  46   2.0000      -0.510823       -13.9002
  47   2.0000      -0.504308       -13.7229
  48   2.0000      -0.496792       -13.5184
  49   2.0000      -0.485609       -13.2141
  50   2.0000      -0.482903       -13.1405
  51   2.0000      -0.457696       -12.4545
  52   2.0000      -0.412653       -11.2289
  53   0.0000       0.021689         0.5902
  54   0.0000       0.026983         0.7343
  55   0.0000       0.031127         0.8470
  56   0.0000       0.034116         0.9283
  57   0.0000       0.043525         1.1844

MULLIKEN ATOMIC CHARGES
-----------------------
   0 N :   -0.042214
   1 S :    3.359391
   2 O :   -1.047893
   3 C :   -0.777135
   4 C :    1.458873
   5 Cl:   -0.299423
   6 O :   -1.350551
   7 O :   -1.288877
   8 H :    0.502446
   9 H :    0.263413
  10 H :    0.293799
  11 C :   -1.183025
  12 C :   -1.069048
  13 C :   -1.055639
  14 H :    0.253313
  15 H :    0.297188
  16 H :    0.247214
  17 H :    0.238448
  18 H :    0.236434
  19 H :    0.256169
  20 H :    0.228639
  21 H :    0.272789
  22 H :    0.205688
Sum of atomic charges:   -0.0000000

LOEWDIN ATOMIC CHARGES
----------------------
   0 N :   -0.313055
   1 S :   -0.843069
   2 O :    0.592080
   3 C :    0.540845
   4 C :   -0.619467
   5 Cl:    1.082844
   6 O :    0.299408
   7 O :    0.384089
   8 H :   -0.322948
   9 H :   -0.332437
  10 H :   -0.333303
  11 C :    0.867896
  12 C :    0.816820
  13 C :    0.868681
  14 H :   -0.267816
  15 H :   -0.277501
  16 H :   -0.377530
  17 H :   -0.277831
  18 H :   -0.343460
  19 H :   -0.281997
  20 H :   -0.299334
  21 H :   -0.267540
  22 H :   -0.295376

  Mayer bond orders larger than 0.100000
B(  0-N ,  1-S ) :   0.8637 B(  0-N ,  2-O ) :  -0.1727 B(  0-N ,  4-C ) :   0.3876
B(  0-N ,  5-Cl) :   0.5694 B(  1-S ,  2-O ) :   0.4456 B(  1-S ,  6-O ) :   0.7208
B(  1-S ,  7-O ) :   0.9321 B(  2-O ,  3-C ) :   0.9129 B(  3-C ,  8-H ) :   0.7634
B(  3-C ,  9-H ) :   0.9016 B(  3-C , 10-H ) :   0.9169 B(  4-C , 11-C ) :   0.3020
B(  4-C , 12-C ) :   0.1725 B(  4-C , 13-C ) :   0.4681 B(  4-C , 14-H ) :  -0.1361
B(  4-C , 16-H ) :  -0.1148 B(  4-C , 17-H ) :  -0.1836 B(  4-C , 18-H ) :  -0.1611
B(  4-C , 20-H ) :  -0.1125 B(  4-C , 22-H ) :  -0.1248 B( 11-C , 12-C ) :   0.1127
B( 11-C , 13-C ) :   0.1154 B( 11-C , 14-H ) :   1.0648 B( 11-C , 15-H ) :   0.9727
B( 11-C , 16-H ) :   1.0125 B( 12-C , 13-C ) :   0.1296 B( 12-C , 17-H ) :   1.1023
B( 12-C , 18-H ) :   1.0662 B( 12-C , 19-H ) :   1.0034 B( 13-C , 20-H ) :   1.0392
B( 13-C , 21-H ) :   0.9719 B( 13-C , 22-H ) :   1.0583

MP2 TOTAL ENERGY:    -1334.921903728 Eh
FINAL SINGLE POINT ENERGY     -1334.921903728270

DIPOLE MOMENT
-------------
                                X             Y             Z
Electronic contribution:     11.05222       8.43770       6.46318
Nuclear contribution   :    -11.82517      -8.19778      -7.92368
                        -----------------------------------------
Total Dipole Moment    :     -0.77295       0.23992      -1.46050
                        -----------------------------------------
Magnitude (a.u.)       :      1.66975
Magnitude (Debye)      :      4.24416

Rotational constants in cm-1:     0.038698     0.025158     0.022013
Rotational constants in MHz :  1160.126546   754.231163   659.947311

                             ****ORCA TERMINATED NORMALLY****
TOTAL RUN TIME: 0 days 1 hours 25 minutes 31 seconds 309 msec
