                         Program Version 4.2.1 -  RELEASE  -
|  1> %pal
|  2>  nprocs 32
|  3> end
|  4> !RI-MP2 aug-cc-pVQZ aug-cc-pVQZ/C TightSCF
|  5> %maxcore 4500
|  6> *xyzfile 0 2  01_16R.xyz
|  7>
|  8>
|  9>                          ****END OF INPUT****

CARTESIAN COORDINATES (ANGSTROEM)
---------------------------------
  C     -2.530206    0.076709   -0.245422
  C     -2.171090    1.481884    0.071506
  C     -0.171861   -0.834042   -0.289376
  C     -1.539335   -0.958181    0.309359
  C      0.941471   -0.577133    0.384524
  C      2.305211   -0.431548   -0.219032
  C      2.904666    0.955436    0.019495
  H     -2.596834   -0.056970   -1.338063
  H     -3.536350   -0.145386    0.127322
  H     -1.476601   -0.857481    1.396576
  H     -1.934696   -1.958863    0.104254
  H      2.252146   -0.635852   -1.292058
  H      2.973190   -1.186674    0.210394
  H      2.287387    1.729611   -0.441501
  H      3.910856    1.028801   -0.398723
  H      2.970819    1.176314    1.087963
  H      0.879604   -0.443257    1.464456
  H     -1.142633    1.757804    0.265707
  H     -2.908382    2.270846   -0.001862
  H     -0.111643   -0.957646   -1.370783

 Total Charge           Charge          ....    0
 Multiplicity           Mult            ....    2
 Number of Electrons    NEL             ....   55
 Basis Dimension        Dim             .... 1158

ORBITAL ENERGIES
----------------
                 SPIN UP ORBITALS
  NO   OCC          E(Eh)            E(eV)
   0   1.0000     -11.221955      -305.3649
   1   1.0000     -11.221388      -305.3495
   2   1.0000     -11.221160      -305.3433
   3   1.0000     -11.220836      -305.3345
   4   1.0000     -11.219249      -305.2913
   5   1.0000     -11.217278      -305.2377
   6   1.0000     -11.212094      -305.0966
   7   1.0000      -1.099384       -29.9158
   8   1.0000      -1.058403       -28.8006
   9   1.0000      -0.995799       -27.0971
  10   1.0000      -0.921864       -25.0852
  11   1.0000      -0.844531       -22.9808
  12   1.0000      -0.790529       -21.5114
  13   1.0000      -0.746786       -20.3211
  14   1.0000      -0.636071       -17.3084
  15   1.0000      -0.623954       -16.9787
  16   1.0000      -0.615381       -16.7454
  17   1.0000      -0.587425       -15.9846
  18   1.0000      -0.568902       -15.4806
  19   1.0000      -0.539565       -14.6823
  20   1.0000      -0.527341       -14.3497
  21   1.0000      -0.508003       -13.8235
  22   1.0000      -0.502345       -13.6695
  23   1.0000      -0.488091       -13.2816
  24   1.0000      -0.480279       -13.0691
  25   1.0000      -0.459149       -12.4941
  26   1.0000      -0.352956        -9.6044
  27   1.0000      -0.336980        -9.1697
  28   0.0000       0.026803         0.7293
  29   0.0000       0.029431         0.8009
  30   0.0000       0.031985         0.8704
  31   0.0000       0.032720         0.8904
  32   0.0000       0.043458         1.1826

                 SPIN DOWN ORBITALS
  NO   OCC          E(Eh)            E(eV)
   0   1.0000     -11.224420      -305.4320
   1   1.0000     -11.221232      -305.3452
   2   1.0000     -11.220614      -305.3284
   3   1.0000     -11.219194      -305.2898
   4   1.0000     -11.217368      -305.2401
   5   1.0000     -11.212045      -305.0953
   6   1.0000     -11.198362      -304.7229
   7   1.0000      -1.096351       -29.8332
   8   1.0000      -1.049244       -28.5514
   9   1.0000      -0.983149       -26.7529
  10   1.0000      -0.896506       -24.3952
  11   1.0000      -0.831629       -22.6298
  12   1.0000      -0.765164       -20.8212
  13   1.0000      -0.745429       -20.2842
  14   1.0000      -0.631903       -17.1950
  15   1.0000      -0.619906       -16.8685
  16   1.0000      -0.611307       -16.6345
  17   1.0000      -0.578342       -15.7375
  18   1.0000      -0.563424       -15.3315
  19   1.0000      -0.530823       -14.4444
  20   1.0000      -0.522742       -14.2245
  21   1.0000      -0.504826       -13.7370
  22   1.0000      -0.496398       -13.5077
  23   1.0000      -0.481409       -13.0998
  24   1.0000      -0.478864       -13.0306
  25   1.0000      -0.457613       -12.4523
  26   1.0000      -0.345114        -9.3910
  27   0.0000       0.026931         0.7328
  28   0.0000       0.029443         0.8012
  29   0.0000       0.031932         0.8689
  30   0.0000       0.032738         0.8909
  31   0.0000       0.043526         1.1844

MULLIKEN ATOMIC CHARGES AND SPIN POPULATIONS
--------------------------------------------
   0 C :   -0.397652   -0.210815
   1 C :   -0.983833    1.229062
   2 C :   -0.244023   -0.038293
   3 C :   -0.315818    0.032811
   4 C :   -0.333679    0.040022
   5 C :   -0.337937   -0.005072
   6 C :   -0.928577    0.002076
   7 H :    0.202548    0.076500
   8 H :    0.284481    0.031315
   9 H :    0.250308   -0.005699
  10 H :    0.274029   -0.003221
  11 H :    0.200789   -0.000159
  12 H :    0.255544    0.001519
  13 H :    0.269855    0.000009
  14 H :    0.311838   -0.000066
  15 H :    0.224764    0.000014
  16 H :    0.301547    0.000069
  17 H :    0.350195   -0.081253
  18 H :    0.384956   -0.071896
  19 H :    0.230664    0.003077
Sum of atomic charges         :   -0.0000000

LOEWDIN ATOMIC CHARGES AND SPIN POPULATIONS
-------------------------------------------
   0 C :    0.449132    0.149309
   1 C :    0.858927    0.465092
   2 C :    0.371326   -0.004828
   3 C :    0.463499    0.011661
   4 C :    0.380044    0.007914
   5 C :    0.472739    0.002956
   6 C :    0.914265    0.000553
   7 H :   -0.290062    0.032847
   8 H :   -0.295792    0.017554
   9 H :   -0.301155    0.005897
  10 H :   -0.277744    0.000821
  11 H :   -0.305419    0.000113
  12 H :   -0.281929    0.000655
  13 H :   -0.285114    0.000215
  14 H :   -0.284402    0.000148
  15 H :   -0.288162    0.000125
  16 H :   -0.309978    0.003685
  17 H :   -0.347849    0.155799
  18 H :   -0.334391    0.152466
  19 H :   -0.307937   -0.002984

  Mayer bond orders larger than 0.100000
B(  0-C ,  1-C ) :   0.9162 B(  0-C ,  2-C ) :  -0.1127 B(  0-C ,  3-C ) :   1.1093
B(  0-C ,  7-H ) :   0.8657 B(  0-C ,  8-H ) :   0.9303 B(  1-C , 17-H ) :   0.8918
B(  1-C , 18-H ) :   0.8713 B(  2-C ,  3-C ) :   0.8097 B(  2-C ,  4-C ) :   1.3240
B(  2-C ,  5-C ) :  -0.2038 B(  2-C , 19-H ) :   1.0148 B(  3-C ,  4-C ) :  -0.2077
B(  3-C ,  9-H ) :   0.9060 B(  3-C , 10-H ) :   0.9149 B(  4-C ,  5-C ) :   0.8359
B(  4-C ,  6-C ) :  -0.1187 B(  4-C , 16-H ) :   0.9219 B(  5-C ,  6-C ) :   1.0719
B(  5-C , 11-H ) :   0.9470 B(  5-C , 12-H ) :   0.9121 B(  6-C , 13-H ) :   0.9153
B(  6-C , 14-H ) :   0.9519 B(  6-C , 15-H ) :   0.9532

MP2 TOTAL ENERGY:     -273.944523964 Eh
FINAL SINGLE POINT ENERGY      -273.944523964318

DIPOLE MOMENT
-------------
                                X             Y             Z
Electronic contribution:     -1.65296      -1.89219       0.14263
Nuclear contribution   :      1.66542       1.82952      -0.19804
                        -----------------------------------------
Total Dipole Moment    :      0.01246      -0.06267      -0.05541
                        -----------------------------------------
Magnitude (a.u.)       :      0.08458
Magnitude (Debye)      :      0.21497

Rotational constants in cm-1:     0.167174     0.038819     0.033574
Rotational constants in MHz :  5011.752502  1163.773869  1006.517762

                             ****ORCA TERMINATED NORMALLY****
TOTAL RUN TIME: 0 days 1 hours 10 minutes 59 seconds 910 msec
