                         Program Version 4.2.1 -  RELEASE  -
|  1> %pal
|  2>  nprocs 32
|  3> end
|  4> !RI-MP2 aug-cc-pVQZ aug-cc-pVQZ/C TightSCF
|  5> %maxcore 4500
|  6> *xyzfile 0 1  02_37TS.xyz
|  7>
|  8>
|  9>                          ****END OF INPUT****

CARTESIAN COORDINATES (ANGSTROEM)
---------------------------------
  C      0.246730   -0.933914   -0.867100
  C     -2.064613   -0.705235   -0.073119
  C      0.705443    0.075458   -0.038460
  H      0.309343    0.069146    0.969262
  C     -2.073369    0.752011   -0.154547
  C     -3.441444    1.396746   -0.286521
  C     -1.029834   -1.439900   -0.651143
  H     -1.302968   -2.418788   -1.034517
  H      0.837714   -1.278868   -1.706980
  C     -0.991964    2.821695   -0.673869
  C     -3.302427   -1.458251    0.184307
  C      1.984333    0.809595   -0.197266
  C      2.102112    1.992178    0.774428
  H      2.142708    1.646459    1.811090
  H      1.247412    2.662533    0.695462
  H      2.079059    1.159158   -1.231847
  H      3.004926    2.574038    0.585639
  N     -0.994171    1.456059   -0.190524
  Si     3.462028   -0.393252    0.075946
  C      3.613134   -1.624192   -1.331071
  C      5.031499    0.638063    0.136403
  C      3.222026   -1.298790    1.699575
  H     -0.016686    3.022360   -1.121307
  H     -1.119772    3.528533    0.152998
  H     -1.751277    3.031555   -1.432425
  H      5.143961    1.251177   -0.761742
  H      5.906336   -0.014429    0.199649
  H      5.054451    1.303312    1.001641
  H      3.610455   -1.129360   -2.305611
  H      2.808056   -2.359714   -1.320856
  H      4.557607   -2.168007   -1.242593
  H      2.316837   -1.909837    1.678545
  H      3.143302   -0.608665    2.542915
  H      4.066759   -1.963456    1.897978
  C     -4.605011   -0.709445    0.381927
  C     -4.420358    0.764184    0.696509
  H     -5.177251   -1.234444    1.147846
  H     -5.162228   -0.823014   -0.555678
  H     -4.035874    0.886951    1.713998
  H     -5.378188    1.287404    0.655290
  H     -3.811887    1.268533   -1.310278
  H     -3.368389    2.467122   -0.100517
  O     -3.308893   -2.677226    0.217767

 Total Charge           Charge          ....    0
 Multiplicity           Mult            ....    1
 Number of Electrons    NEL             ....  144
 Basis Dimension        Dim             .... 2594

ORBITAL ENERGIES
----------------

  NO   OCC          E(Eh)            E(eV)
   0   2.0000     -68.757560     -1870.9883
   1   2.0000     -20.502963      -557.9140
   2   2.0000     -15.544171      -422.9784
   3   2.0000     -11.303131      -307.5738
   4   2.0000     -11.288761      -307.1828
   5   2.0000     -11.285542      -307.0952
   6   2.0000     -11.249927      -306.1261
   7   2.0000     -11.249302      -306.1091
   8   2.0000     -11.235291      -305.7278
   9   2.0000     -11.231082      -305.6133
  10   2.0000     -11.225587      -305.4637
  11   2.0000     -11.224731      -305.4405
  12   2.0000     -11.221241      -305.3455
  13   2.0000     -11.207139      -304.9618
  14   2.0000     -11.202364      -304.8318
  15   2.0000     -11.199438      -304.7522
  16   2.0000     -11.199018      -304.7408
  17   2.0000     -11.197831      -304.7085
  18   2.0000      -6.106411      -166.1639
  19   2.0000      -4.212883      -114.6384
  20   2.0000      -4.212708      -114.6336
  21   2.0000      -4.212621      -114.6312
  22   2.0000      -1.352452       -36.8021
  23   2.0000      -1.235032       -33.6069
  24   2.0000      -1.113347       -30.2957
  25   2.0000      -1.103091       -30.0166
  26   2.0000      -1.060784       -28.8654
  27   2.0000      -0.996263       -27.1097
  28   2.0000      -0.978359       -26.6225
  29   2.0000      -0.968688       -26.3593
  30   2.0000      -0.942898       -25.6576
  31   2.0000      -0.929131       -25.2829
  32   2.0000      -0.927962       -25.2511
  33   2.0000      -0.896619       -24.3982
  34   2.0000      -0.846831       -23.0434
  35   2.0000      -0.811562       -22.0837
  36   2.0000      -0.766056       -20.8455
  37   2.0000      -0.752621       -20.4798
  38   2.0000      -0.682147       -18.5622
  39   2.0000      -0.668813       -18.1993
  40   2.0000      -0.659498       -17.9458
  41   2.0000      -0.648554       -17.6480
  42   2.0000      -0.632095       -17.2002
  43   2.0000      -0.614302       -16.7160
  44   2.0000      -0.606090       -16.4925
  45   2.0000      -0.597946       -16.2709
  46   2.0000      -0.589860       -16.0509
  47   2.0000      -0.588379       -16.0106
  48   2.0000      -0.582515       -15.8510
  49   2.0000      -0.571571       -15.5532
  50   2.0000      -0.568557       -15.4712
  51   2.0000      -0.567462       -15.4414
  52   2.0000      -0.556560       -15.1448
  53   2.0000      -0.550436       -14.9781
  54   2.0000      -0.545053       -14.8317
  55   2.0000      -0.540573       -14.7097
  56   2.0000      -0.535870       -14.5818
  57   2.0000      -0.532763       -14.4972
  58   2.0000      -0.526078       -14.3153
  59   2.0000      -0.514282       -13.9943
  60   2.0000      -0.504458       -13.7270
  61   2.0000      -0.495360       -13.4794
  62   2.0000      -0.481950       -13.1145
  63   2.0000      -0.468923       -12.7600
  64   2.0000      -0.460606       -12.5337
  65   2.0000      -0.434956       -11.8358
  66   2.0000      -0.434579       -11.8255
  67   2.0000      -0.433408       -11.7936
  68   2.0000      -0.400108       -10.8875
  69   2.0000      -0.384775       -10.4702
  70   2.0000      -0.344922        -9.3858
  71   2.0000      -0.279514        -7.6060
  72   0.0000       0.017280         0.4702
  73   0.0000       0.022042         0.5998
  74   0.0000       0.026073         0.7095
  75   0.0000       0.027563         0.7500
  76   0.0000       0.034327         0.9341

MULLIKEN ATOMIC CHARGES
-----------------------
   0 C :   -0.610197
   1 C :   -0.747812
   2 C :    0.577922
   3 H :    0.266944
   4 C :    1.074615
   5 C :   -0.570677
   6 C :   -0.134710
   7 H :    0.246089
   8 H :    0.203813
   9 C :   -1.005928
  10 C :    1.495957
  11 C :    0.027962
  12 C :   -1.398101
  13 H :    0.131901
  14 H :    0.511458
  15 H :    0.128140
  16 H :    0.177534
  17 N :   -0.713732
  18 Si:    1.575978
  19 C :   -1.220628
  20 C :   -1.105303
  21 C :   -1.254965
  22 H :    0.273066
  23 H :    0.376651
  24 H :    0.270506
  25 H :    0.267604
  26 H :    0.303557
  27 H :    0.245316
  28 H :    0.275153
  29 H :    0.279687
  30 H :    0.276516
  31 H :    0.289196
  32 H :    0.210255
  33 H :    0.316931
  34 C :   -0.708013
  35 C :   -0.632928
  36 H :    0.257594
  37 H :    0.156693
  38 H :    0.190201
  39 H :    0.260076
  40 H :    0.276332
  41 H :    0.183874
  42 O :   -1.024528
Sum of atomic charges:   -0.0000000

LOEWDIN ATOMIC CHARGES
----------------------
   0 C :    0.374276
   1 C :   -0.077748
   2 C :    0.196363
   3 H :   -0.336263
   4 C :   -0.264502
   5 C :    0.505172
   6 C :    0.329390
   7 H :   -0.337110
   8 H :   -0.342551
   9 C :    0.714815
  10 C :   -0.682359
  11 C :    0.218198
  12 C :    0.888759
  13 H :   -0.271998
  14 H :   -0.322528
  15 H :   -0.309876
  16 H :   -0.284165
  17 N :    0.612361
  18 Si:    0.164469
  19 C :    1.002576
  20 C :    0.999180
  21 C :    1.009663
  22 H :   -0.318998
  23 H :   -0.276053
  24 H :   -0.306425
  25 H :   -0.325140
  26 H :   -0.331871
  27 H :   -0.340507
  28 H :   -0.323594
  29 H :   -0.354086
  30 H :   -0.330964
  31 H :   -0.331178
  32 H :   -0.332030
  33 H :   -0.327853
  34 C :    0.485796
  35 C :    0.524930
  36 H :   -0.286814
  37 H :   -0.274493
  38 H :   -0.254514
  39 H :   -0.254671
  40 H :   -0.242671
  41 H :   -0.320415
  42 O :    0.735429

  Mayer bond orders larger than 0.100000
B(  0-C ,  2-C ) :   0.7622 B(  0-C ,  3-H ) :  -0.1184 B(  0-C ,  6-C ) :   1.1041
B(  0-C ,  7-H ) :  -0.1764 B(  0-C ,  8-H ) :   1.0515 B(  0-C , 11-C ) :  -0.1683
B(  1-C ,  2-C ) :   0.2063 B(  1-C ,  4-C ) :   1.0697 B(  1-C ,  6-C ) :   0.8075
B(  1-C , 10-C ) :   0.7279 B(  1-C , 17-N ) :   0.1196 B(  1-C , 34-C ) :  -0.2911
B(  1-C , 42-O ) :   0.8233 B(  2-C ,  3-H ) :   0.9556 B(  2-C ,  6-C ) :  -0.5621
B(  2-C , 11-C ) :   0.9673 B(  2-C , 12-C ) :  -0.1610 B(  2-C , 15-H ) :   0.1022
B(  2-C , 17-N ) :   0.1465 B(  4-C ,  5-C ) :   0.3003 B(  4-C , 17-N ) :   1.4031
B(  4-C , 35-C ) :  -0.1826 B(  4-C , 41-H ) :  -0.1235 B(  5-C , 17-N ) :   0.1610
B(  5-C , 35-C ) :   0.9718 B(  5-C , 40-H ) :   0.9463 B(  5-C , 41-H ) :   1.1057
B(  6-C ,  7-H ) :   1.0271 B(  6-C , 10-C ) :  -0.2873 B(  6-C , 42-O ) :  -0.1649
B(  9-C , 17-N ) :   0.8802 B(  9-C , 22-H ) :   0.9946 B(  9-C , 23-H ) :   0.8935
B(  9-C , 24-H ) :   0.9482 B( 10-C , 34-C ) :   1.0788 B( 10-C , 35-C ) :  -0.1106
B( 11-C , 12-C ) :   0.1971 B( 11-C , 13-H ) :  -0.2524 B( 11-C , 15-H ) :   1.0279
B( 11-C , 16-H ) :  -0.1986 B( 11-C , 18-Si) :   0.1590 B( 12-C , 13-H ) :   1.2562
B( 12-C , 14-H ) :   0.7885 B( 12-C , 16-H ) :   1.2139 B( 13-H , 16-H ) :   0.1187
B( 18-Si, 19-C ) :   0.6744 B( 18-Si, 20-C ) :   0.8416 B( 18-Si, 21-C ) :   0.5799
B( 19-C , 28-H ) :   0.9441 B( 19-C , 29-H ) :   0.9956 B( 19-C , 30-H ) :   1.0300
B( 20-C , 25-H ) :   0.9739 B( 20-C , 26-H ) :   0.9793 B( 20-C , 27-H ) :   0.9978
B( 21-C , 31-H ) :   0.9548 B( 21-C , 32-H ) :   1.0025 B( 21-C , 33-H ) :   0.9791
B( 34-C , 35-C ) :   1.0604 B( 34-C , 36-H ) :   0.9842 B( 34-C , 37-H ) :   0.9993
B( 34-C , 42-O ) :   0.2560 B( 35-C , 38-H ) :   0.9659 B( 35-C , 39-H ) :   0.9670

MP2 TOTAL ENERGY:    -1004.394803223 Eh
FINAL SINGLE POINT ENERGY     -1004.394803223202

DIPOLE MOMENT
-------------
                                X             Y             Z
Electronic contribution:    -14.35678      -8.58381      -1.20630
Nuclear contribution   :     15.22962      10.51142       0.95021
                        -----------------------------------------
Total Dipole Moment    :      0.87284       1.92762      -0.25609
                        -----------------------------------------
Magnitude (a.u.)       :      2.13146
Magnitude (Debye)      :      5.41775

Rotational constants in cm-1:     0.024210     0.006586     0.005658
Rotational constants in MHz :   725.784943   197.430075   169.614163

                             ****ORCA TERMINATED NORMALLY****
TOTAL RUN TIME: 0 days 9 hours 11 minutes 20 seconds 801 msec
