                         Program Version 4.2.1 -  RELEASE  -
|  1> %pal
|  2>  nprocs 32
|  3> end
|  4> !RI-MP2 aug-cc-pVQZ aug-cc-pVQZ/C TightSCF
|  5> %maxcore 4500
|  6> *xyzfile 1 1  05_15TS.xyz
|  7>
|  8>
|  9>                          ****END OF INPUT****

CARTESIAN COORDINATES (ANGSTROEM)
---------------------------------
  C      1.382881    1.281310    0.655214
  C      0.408797   -0.923641   -0.421549
  C      1.892145   -1.303454   -0.480792
  C      2.752059   -0.196439   -1.080822
  C      2.444702    1.189897   -0.462307
  H      2.244370   -1.546552    0.520793
  H      1.986877   -2.205136   -1.088699
  H      2.504146   -0.133680   -2.140308
  H      3.361695    1.605866   -0.048150
  H      2.142149    1.858517   -1.271107
  N      0.309067    0.271023    0.446548
  O     -0.737056    0.395490    1.174296
  C      1.969650    1.045315    2.053313
  H      2.505857    0.102410    2.111674
  H      2.685475    1.837996    2.277434
  H      1.174468    1.075833    2.799122
  C      0.749398    2.672046    0.597196
  H      0.043641    2.825367    1.413968
  H      1.536207    3.420366    0.695500
  H      0.250241    2.832993   -0.360279
  C     -0.385509   -2.070087    0.196794
  H     -0.033876   -2.288150    1.205684
  H     -1.451876   -1.856177    0.239353
  H     -0.244138   -2.959541   -0.417842
  C     -0.156320   -0.576753   -1.808915
  H     -0.015025   -1.424628   -2.481847
  H     -1.223531   -0.370849   -1.742419
  H      0.328177    0.295850   -2.247165
  C     -2.866184    1.378320    0.170640
  H     -3.037952    2.058040    1.009134
  H     -1.624077    0.907616    0.675121
  C     -3.558657    0.107201    0.167167
  C     -3.874748   -0.548375   -1.029870
  C     -3.863214   -0.493981    1.397127
  C     -4.491265   -1.784023   -0.989590
  H     -3.655466   -0.069838   -1.975037
  C     -4.474844   -1.732208    1.425964
  H     -3.615536    0.012411    2.323115
  C     -4.785667   -2.378858    0.234225
  H     -4.752330   -2.287146   -1.911822
  H     -4.714116   -2.195607    2.374264
  H     -5.268811   -3.347713    0.258607
  O     -2.581309    1.940847   -0.998622
  C     -2.478639    3.374280   -1.037317
  H     -1.951410    3.620542   -1.954296
  H     -1.925336    3.742624   -0.173259
  H     -3.481821    3.801097   -1.057205
  N      4.169312   -0.535827   -1.072721
  C      4.897103   -0.746046    0.058897
  H      4.637690   -0.611204   -1.959953
  O      4.394158   -0.661237    1.165408
  C      6.351711   -1.083899   -0.137177
  H      6.656539   -1.118298   -1.183080
  H      6.954176   -0.342475    0.388330
  H      6.548213   -2.051329    0.325739

 Total Charge           Charge          ....    1
 Multiplicity           Mult            ....    1
 Number of Electrons    NEL             ....  182
 Basis Dimension        Dim             .... 3346

ORBITAL ENERGIES
----------------

  NO   OCC          E(Eh)            E(eV)
   0   2.0000     -20.783226      -565.5403
   1   2.0000     -20.759120      -564.8844
   2   2.0000     -20.596308      -560.4540
   3   2.0000     -15.764233      -428.9666
   4   2.0000     -15.672061      -426.4584
   5   2.0000     -11.504522      -313.0539
   6   2.0000     -11.432412      -311.0917
   7   2.0000     -11.423774      -310.8567
   8   2.0000     -11.390493      -309.9511
   9   2.0000     -11.387994      -309.8831
  10   2.0000     -11.384888      -309.7986
  11   2.0000     -11.378498      -309.6247
  12   2.0000     -11.374668      -309.5204
  13   2.0000     -11.374048      -309.5036
  14   2.0000     -11.371062      -309.4223
  15   2.0000     -11.358635      -309.0842
  16   2.0000     -11.358193      -309.0721
  17   2.0000     -11.329167      -308.2823
  18   2.0000     -11.327299      -308.2315
  19   2.0000     -11.327277      -308.2309
  20   2.0000     -11.322814      -308.1094
  21   2.0000     -11.317522      -307.9654
  22   2.0000     -11.309904      -307.7581
  23   2.0000     -11.296650      -307.3975
  24   2.0000      -1.619282       -44.0629
  25   2.0000      -1.588488       -43.2250
  26   2.0000      -1.468688       -39.9650
  27   2.0000      -1.328506       -36.1505
  28   2.0000      -1.301497       -35.4155
  29   2.0000      -1.289752       -35.0959
  30   2.0000      -1.212502       -32.9939
  31   2.0000      -1.202715       -32.7275
  32   2.0000      -1.154087       -31.4043
  33   2.0000      -1.150580       -31.3089
  34   2.0000      -1.115478       -30.3537
  35   2.0000      -1.101720       -29.9793
  36   2.0000      -1.072057       -29.1722
  37   2.0000      -1.054492       -28.6942
  38   2.0000      -1.042525       -28.3686
  39   2.0000      -1.038531       -28.2599
  40   2.0000      -1.037669       -28.2364
  41   2.0000      -0.965940       -26.2846
  42   2.0000      -0.957566       -26.0567
  43   2.0000      -0.943474       -25.6732
  44   2.0000      -0.928777       -25.2733
  45   2.0000      -0.898129       -24.4393
  46   2.0000      -0.861964       -23.4552
  47   2.0000      -0.860290       -23.4097
  48   2.0000      -0.843370       -22.9493
  49   2.0000      -0.822742       -22.3880
  50   2.0000      -0.807994       -21.9866
  51   2.0000      -0.802513       -21.8375
  52   2.0000      -0.790198       -21.5024
  53   2.0000      -0.786005       -21.3883
  54   2.0000      -0.778825       -21.1929
  55   2.0000      -0.756169       -20.5764
  56   2.0000      -0.750561       -20.4238
  57   2.0000      -0.741534       -20.1782
  58   2.0000      -0.723858       -19.6972
  59   2.0000      -0.722260       -19.6537
  60   2.0000      -0.713280       -19.4093
  61   2.0000      -0.708403       -19.2766
  62   2.0000      -0.703817       -19.1518
  63   2.0000      -0.696145       -18.9431
  64   2.0000      -0.690134       -18.7795
  65   2.0000      -0.685326       -18.6487
  66   2.0000      -0.671370       -18.2689
  67   2.0000      -0.669935       -18.2299
  68   2.0000      -0.667084       -18.1523
  69   2.0000      -0.660173       -17.9642
  70   2.0000      -0.656920       -17.8757
  71   2.0000      -0.646835       -17.6013
  72   2.0000      -0.640805       -17.4372
  73   2.0000      -0.639454       -17.4004
  74   2.0000      -0.633717       -17.2443
  75   2.0000      -0.633098       -17.2275
  76   2.0000      -0.626353       -17.0439
  77   2.0000      -0.624495       -16.9934
  78   2.0000      -0.622635       -16.9428
  79   2.0000      -0.610859       -16.6223
  80   2.0000      -0.598517       -16.2865
  81   2.0000      -0.589781       -16.0488
  82   2.0000      -0.586714       -15.9653
  83   2.0000      -0.575912       -15.6714
  84   2.0000      -0.567137       -15.4326
  85   2.0000      -0.554621       -15.0920
  86   2.0000      -0.504879       -13.7385
  87   2.0000      -0.498413       -13.5625
  88   2.0000      -0.481825       -13.1111
  89   2.0000      -0.470561       -12.8046
  90   2.0000      -0.422319       -11.4919
  91   0.0000      -0.145960        -3.9718
  92   0.0000      -0.060227        -1.6389
  93   0.0000      -0.053397        -1.4530
  94   0.0000      -0.048311        -1.3146
  95   0.0000      -0.045665        -1.2426

MULLIKEN ATOMIC CHARGES
-----------------------
   0 C :    1.603625
   1 C :    1.242937
   2 C :   -0.653419
   3 C :    1.105529
   4 C :   -0.707820
   5 H :    0.322791
   6 H :    0.064102
   7 H :    0.323707
   8 H :    0.049378
   9 H :    0.124345
  10 N :    2.000323
  11 O :   -1.397032
  12 C :   -1.441550
  13 H :    0.284675
  14 H :    0.208263
  15 H :    0.154830
  16 C :   -1.266002
  17 H :    0.247493
  18 H :    0.042522
  19 H :    0.307615
  20 C :   -1.405806
  21 H :    0.216352
  22 H :    0.365302
  23 H :    0.172778
  24 C :   -1.450633
  25 H :    0.026957
  26 H :    0.479017
  27 H :    0.277917
  28 C :    1.157138
  29 H :    0.457133
  30 H :    0.298101
  31 C :    0.383756
  32 C :   -0.472690
  33 C :   -0.550931
  34 C :   -0.336589
  35 H :    0.355753
  36 C :   -0.419276
  37 H :    0.237171
  38 C :   -0.355952
  39 H :    0.253089
  40 H :    0.223021
  41 H :    0.301218
  42 O :   -0.861850
  43 C :   -0.919308
  44 H :    0.361616
  45 H :    0.321452
  46 H :    0.331934
  47 N :   -0.812298
  48 C :    0.890791
  49 H :   -0.081434
  50 O :   -0.993778
  51 C :   -0.852177
  52 H :    0.245636
  53 H :    0.270495
  54 H :    0.269783
Sum of atomic charges:    1.0000000

LOEWDIN ATOMIC CHARGES
----------------------
   0 C :   -0.364709
   1 C :   -0.375054
   2 C :    0.524894
   3 C :    0.048764
   4 C :    0.570813
   5 H :   -0.313538
   6 H :   -0.242857
   7 H :   -0.309986
   8 H :   -0.284180
   9 H :   -0.274077
  10 N :    0.188638
  11 O :    1.125835
  12 C :    0.938148
  13 H :   -0.364689
  14 H :   -0.256867
  15 H :   -0.270548
  16 C :    0.908446
  17 H :   -0.274667
  18 H :   -0.249688
  19 H :   -0.296526
  20 C :    0.925980
  21 H :   -0.248631
  22 H :   -0.314878
  23 H :   -0.255152
  24 C :    0.950423
  25 H :   -0.242624
  26 H :   -0.315913
  27 H :   -0.275345
  28 C :    0.016126
  29 H :   -0.245047
  30 H :   -0.941708
  31 C :   -0.081884
  32 C :    0.354422
  33 C :    0.365043
  34 C :    0.390025
  35 H :   -0.312478
  36 C :    0.389259
  37 H :   -0.285543
  38 C :    0.384502
  39 H :   -0.302560
  40 H :   -0.302966
  41 H :   -0.294799
  42 O :    0.964657
  43 C :    0.687106
  44 H :   -0.289032
  45 H :   -0.319515
  46 H :   -0.273426
  47 N :    0.888040
  48 C :   -0.786453
  49 H :   -0.481456
  50 O :    0.788134
  51 C :    0.918338
  52 H :   -0.303595
  53 H :   -0.288724
  54 H :   -0.288480

  Mayer bond orders larger than 0.100000
B(  0-C ,  1-C ) :   0.3181 B(  0-C ,  2-C ) :  -0.1093 B(  0-C ,  3-C ) :   0.1059
B(  0-C ,  4-C ) :   0.2817 B(  0-C ,  8-H ) :  -0.1814 B(  0-C ,  9-H ) :  -0.1063
B(  0-C , 10-N ) :   0.4897 B(  0-C , 11-O ) :   0.1097 B(  0-C , 12-C ) :  -0.1316
B(  0-C , 13-H ) :  -0.1848 B(  0-C , 14-H ) :  -0.1352 B(  0-C , 15-H ) :  -0.2157
B(  0-C , 16-C ) :  -0.1164 B(  0-C , 17-H ) :  -0.2729 B(  0-C , 18-H ) :  -0.1466
B(  0-C , 19-H ) :  -0.2910 B(  0-C , 50-O ) :   0.1065 B(  1-C ,  2-C ) :   0.7012
B(  1-C , 10-N ) :   0.8201 B(  1-C , 21-H ) :  -0.3343 B(  1-C , 22-H ) :  -0.2259
B(  1-C , 23-H ) :  -0.1969 B(  1-C , 24-C ) :   0.3922 B(  1-C , 27-H ) :  -0.1452
B(  2-C ,  3-C ) :   0.8907 B(  2-C ,  4-C ) :   0.1121 B(  2-C ,  5-H ) :   0.9994
B(  2-C ,  6-H ) :   1.0778 B(  2-C , 50-O ) :   0.1205 B(  3-C ,  4-C ) :   0.6101
B(  3-C ,  7-H ) :   0.8701 B(  3-C ,  8-H ) :  -0.1121 B(  3-C , 10-N ) :  -0.1083
B(  3-C , 47-N ) :  -0.1772 B(  3-C , 49-H ) :  -0.3065 B(  3-C , 50-O ) :   0.1817
B(  4-C ,  8-H ) :   1.2688 B(  4-C ,  9-H ) :   1.2249 B(  4-C , 47-N ) :   0.1660
B(  4-C , 50-O ) :  -0.2110 B(  5-H , 50-O ) :  -0.2178 B(  8-H , 50-O ) :   0.1335
B( 10-N , 11-O ) :  -0.4692 B( 10-N , 12-C ) :  -0.2910 B( 10-N , 15-H ) :  -0.1033
B( 10-N , 16-C ) :  -0.3656 B( 10-N , 18-H ) :  -0.1263 B( 10-N , 20-C ) :  -0.1274
B( 10-N , 24-C ) :  -0.2692 B( 10-N , 25-H ) :  -0.1010 B( 10-N , 28-C ) :   0.1851
B( 10-N , 30-H ) :  -0.1246 B( 10-N , 42-O ) :   0.1249 B( 11-O , 16-C ) :   0.1106
B( 11-O , 30-H ) :   0.3556 B( 11-O , 31-C ) :   0.1595 B( 12-C , 13-H ) :   1.1070
B( 12-C , 14-H ) :   1.1398 B( 12-C , 15-H ) :   1.3574 B( 12-C , 16-C ) :   0.1057
B( 16-C , 17-H ) :   1.1081 B( 16-C , 18-H ) :   1.3720 B( 16-C , 19-H ) :   1.0139
B( 20-C , 21-H ) :   1.2676 B( 20-C , 22-H ) :   1.0191 B( 20-C , 23-H ) :   1.1662
B( 20-C , 24-C ) :   0.1217 B( 24-C , 25-H ) :   1.3668 B( 24-C , 26-H ) :   0.7209
B( 24-C , 27-H ) :   1.0647 B( 25-H , 26-H ) :  -0.1680 B( 28-C , 29-H ) :   1.0245
B( 28-C , 30-H ) :   0.2551 B( 28-C , 31-C ) :   0.3659 B( 28-C , 32-C ) :  -0.2797
B( 28-C , 33-C ) :  -0.6743 B( 28-C , 42-O ) :   0.8059 B( 28-C , 43-C ) :  -0.2337
B( 29-H , 31-C ) :  -0.2367 B( 29-H , 33-C ) :  -0.1237 B( 30-H , 31-C ) :   0.1733
B( 31-C , 32-C ) :   0.8852 B( 31-C , 33-C ) :   1.1084 B( 31-C , 34-C ) :  -0.4045
B( 31-C , 36-C ) :  -0.3693 B( 31-C , 42-O ) :  -0.2327 B( 32-C , 34-C ) :   1.2773
B( 32-C , 35-H ) :   0.9222 B( 32-C , 39-H ) :  -0.1279 B( 33-C , 34-C ) :   0.1316
B( 33-C , 36-C ) :   1.4460 B( 33-C , 37-H ) :   1.0776 B( 33-C , 40-H ) :  -0.1255
B( 34-C , 38-C ) :   1.1743 B( 34-C , 39-H ) :   1.1463 B( 36-C , 38-C ) :   1.1890
B( 36-C , 40-H ) :   1.1873 B( 38-C , 41-H ) :   1.0940 B( 42-O , 43-C ) :   0.9320
B( 43-C , 44-H ) :   0.9293 B( 43-C , 45-H ) :   0.8794 B( 43-C , 46-H ) :   0.9609
B( 47-N , 48-C ) :   1.0472 B( 47-N , 49-H ) :   1.5100 B( 47-N , 50-O ) :   0.1024
B( 47-N , 51-C ) :  -0.1518 B( 48-C , 50-O ) :   1.0086 B( 48-C , 51-C ) :   0.6051
B( 48-C , 52-H ) :  -0.1548 B( 48-C , 53-H ) :  -0.1054 B( 48-C , 54-H ) :  -0.1019
B( 51-C , 52-H ) :   1.0350 B( 51-C , 53-H ) :   1.0173 B( 51-C , 54-H ) :   1.0127

MP2 TOTAL ENERGY:    -1075.768019997 Eh
FINAL SINGLE POINT ENERGY     -1075.768019996859

DIPOLE MOMENT
-------------
                                X             Y             Z
Electronic contribution:    -10.99377      -4.28766       2.02805
Nuclear contribution   :      8.81876       5.34181      -3.45991
                        -----------------------------------------
Total Dipole Moment    :     -2.17501       1.05415      -1.43186
                        -----------------------------------------
Magnitude (a.u.)       :      2.80929
Magnitude (Debye)      :      7.14065

Rotational constants in cm-1:     0.014943     0.004352     0.003940
Rotational constants in MHz :   447.971450   130.460117   118.118090

                             ****ORCA TERMINATED NORMALLY****
TOTAL RUN TIME: 1 days 0 hours 24 minutes 3 seconds 381 msec
