                         Program Version 4.2.1 -  RELEASE  -
|  1> %pal
|  2>  nprocs 32
|  3> end
|  4> !RI-MP2 aug-cc-pVQZ aug-cc-pVQZ/C TightSCF
|  5> %maxcore 4500
|  6> *xyzfile -1 1  09_24P.xyz
|  7>
|  8>
|  9>                          ****END OF INPUT****

CARTESIAN COORDINATES (ANGSTROEM)
---------------------------------
  C     -3.358486    0.474248   -0.250913
  C     -3.544987   -1.034674   -0.134142
  C     -2.414379   -1.749082   -0.905314
  H     -4.539081   -1.309875   -0.521077
  H     -3.522053   -1.340288    0.918414
  C     -1.034779   -1.375901   -0.433490
  H     -2.550698   -1.482813   -1.971917
  H     -2.563504   -2.836682   -0.842172
  C     -0.864035    0.132869   -0.466281
  C     -0.629925   -2.104150    0.827156
  H     -1.226289   -1.933677    1.766979
  H      0.408875   -1.896538    1.117227
  H     -0.684220   -3.188710    0.660725
  C      0.539128    0.586952   -0.030668
  C      1.637658   -0.008796   -0.916164
  H      0.724780    0.274178    1.001966
  H      0.610649    1.679507   -0.041282
  C      3.031778    0.214246   -0.393492
  H      1.551677    0.433065   -1.918731
  H      1.414885   -1.071392   -1.028560
  C      3.769554   -0.812558    0.031426
  C      5.150927   -0.789907    0.616589
  H      3.315085   -1.798379   -0.035165
  H      5.585037    0.209784    0.649014
  H      5.831191   -1.428995    0.042930
  H      5.145836   -1.178888    1.640744
  C      3.489776    1.648311   -0.367397
  H      2.888750    2.227411    0.339474
  H      3.339433    2.105887   -1.350574
  H      4.538466    1.767208   -0.094580
  C     -1.991227    0.992304    0.239278
  H     -4.155000    1.016849    0.278934
  H     -3.456263    0.743071   -1.313225
  C     -1.924602    0.908878    1.767437
  H     -2.725242    1.511262    2.217042
  H     -0.973321    1.292723    2.145069
  H     -2.028503   -0.114651    2.122499
  C     -1.904809    2.471834   -0.160763
  H     -2.795122    3.015845    0.178778
  H     -1.843448    2.576179   -1.248820
  H     -1.033742    2.967598    0.275175
  H     -0.967737    0.432882   -1.528438

 Total Charge           Charge          ....   -1
 Multiplicity           Mult            ....    1
 Number of Electrons    NEL             ....  118
 Basis Dimension        Dim             .... 2442

ORBITAL ENERGIES
----------------

  NO   OCC          E(Eh)            E(eV)
   0   2.0000     -11.123133      -302.6758
   1   2.0000     -11.114754      -302.4478
   2   2.0000     -11.113714      -302.4195
   3   2.0000     -11.102037      -302.1018
   4   2.0000     -11.079664      -301.4930
   5   2.0000     -11.077138      -301.4242
   6   2.0000     -11.072046      -301.2857
   7   2.0000     -11.070403      -301.2410
   8   2.0000     -11.069603      -301.2192
   9   2.0000     -11.064138      -301.0705
  10   2.0000     -11.055794      -300.8435
  11   2.0000     -11.049164      -300.6630
  12   2.0000     -11.034434      -300.2622
  13   2.0000     -11.032461      -300.2085
  14   2.0000     -10.953706      -298.0655
  15   2.0000      -0.990016       -26.9397
  16   2.0000      -0.973826       -26.4992
  17   2.0000      -0.904028       -24.5998
  18   2.0000      -0.883481       -24.0407
  19   2.0000      -0.869792       -23.6683
  20   2.0000      -0.822774       -22.3888
  21   2.0000      -0.796445       -21.6724
  22   2.0000      -0.791475       -21.5371
  23   2.0000      -0.752397       -20.4738
  24   2.0000      -0.741710       -20.1830
  25   2.0000      -0.689336       -18.7578
  26   2.0000      -0.629344       -17.1253
  27   2.0000      -0.596599       -16.2343
  28   2.0000      -0.587203       -15.9786
  29   2.0000      -0.533797       -14.5253
  30   2.0000      -0.526549       -14.3281
  31   2.0000      -0.494985       -13.4692
  32   2.0000      -0.479157       -13.0385
  33   2.0000      -0.475968       -12.9517
  34   2.0000      -0.467131       -12.7113
  35   2.0000      -0.458074       -12.4648
  36   2.0000      -0.456384       -12.4188
  37   2.0000      -0.439179       -11.9507
  38   2.0000      -0.436113       -11.8672
  39   2.0000      -0.430953       -11.7268
  40   2.0000      -0.407869       -11.0987
  41   2.0000      -0.405163       -11.0250
  42   2.0000      -0.400324       -10.8934
  43   2.0000      -0.380306       -10.3487
  44   2.0000      -0.379040       -10.3142
  45   2.0000      -0.372044       -10.1238
  46   2.0000      -0.365641        -9.9496
  47   2.0000      -0.354190        -9.6380
  48   2.0000      -0.346826        -9.4376
  49   2.0000      -0.331564        -9.0223
  50   2.0000      -0.323463        -8.8019
  51   2.0000      -0.310570        -8.4510
  52   2.0000      -0.306217        -8.3326
  53   2.0000      -0.295911        -8.0522
  54   2.0000      -0.283882        -7.7248
  55   2.0000      -0.257291        -7.0013
  56   2.0000      -0.239195        -6.5088
  57   2.0000      -0.219181        -5.9642
  58   2.0000      -0.028950        -0.7878
  59   0.0000       0.084649         2.3034
  60   0.0000       0.091281         2.4839
  61   0.0000       0.097013         2.6399
  62   0.0000       0.100177         2.7260
  63   0.0000       0.103587         2.8187

MULLIKEN ATOMIC CHARGES
-----------------------
   0 C :   -0.836791
   1 C :   -0.525542
   2 C :   -0.892708
   3 H :    0.194902
   4 H :    0.089314
   5 C :   -0.370925
   6 H :    0.051461
   7 H :    0.188941
   8 C :    1.488000
   9 C :   -1.267996
  10 H :    0.132578
  11 H :    0.288885
  12 H :    0.243815
  13 C :   -0.383481
  14 C :   -0.700240
  15 H :    0.169578
  16 H :    0.343603
  17 C :    0.295125
  18 H :    0.218748
  19 H :    0.209119
  20 C :   -0.590134
  21 C :   -0.826328
  22 H :    0.236451
  23 H :    0.257939
  24 H :    0.241988
  25 H :    0.204584
  26 C :   -0.809856
  27 H :    0.241865
  28 H :    0.204976
  29 H :    0.286219
  30 C :    2.037414
  31 H :    0.145898
  32 H :    0.083463
  33 C :   -1.331538
  34 H :    0.111667
  35 H :    0.154960
  36 H :    0.199371
  37 C :   -1.344256
  38 H :    0.121379
  39 H :    0.137786
  40 H :    0.145733
  41 H :    0.154033
Sum of atomic charges:   -1.0000000

LOEWDIN ATOMIC CHARGES
----------------------
   0 C :    0.482102
   1 C :    0.516025
   2 C :    0.414236
   3 H :   -0.265279
   4 H :   -0.290263
   5 C :    0.013248
   6 H :   -0.295328
   7 H :   -0.301879
   8 C :    0.078119
   9 C :    0.795333
  10 H :   -0.301287
  11 H :   -0.331514
  12 H :   -0.318113
  13 C :    0.488009
  14 C :    0.488577
  15 H :   -0.292634
  16 H :   -0.304908
  17 C :   -0.002043
  18 H :   -0.256802
  19 H :   -0.344647
  20 C :    0.400430
  21 C :    0.887200
  22 H :   -0.333844
  23 H :   -0.344702
  24 H :   -0.296405
  25 H :   -0.294429
  26 C :    0.904841
  27 H :   -0.285777
  28 H :   -0.279489
  29 H :   -0.330021
  30 C :   -0.239852
  31 H :   -0.267301
  32 H :   -0.273486
  33 C :    0.909106
  34 H :   -0.264918
  35 H :   -0.279187
  36 H :   -0.330077
  37 C :    0.894367
  38 H :   -0.275608
  39 H :   -0.267817
  40 H :   -0.289500
  41 H :   -0.314483

  Mayer bond orders larger than 0.100000
B(  0-C ,  1-C ) :   0.7780 B(  0-C ,  3-H ) :  -0.1141 B(  0-C , 31-H ) :   1.1415
B(  0-C , 32-H ) :   1.3215 B(  0-C , 37-C ) :   0.2214 B(  1-C ,  2-C ) :   0.8761
B(  1-C ,  3-H ) :   1.0775 B(  1-C ,  4-H ) :   1.1541 B(  1-C ,  5-C ) :  -0.1211
B(  1-C , 30-C ) :  -0.1720 B(  2-C ,  5-C ) :   0.6775 B(  2-C ,  6-H ) :   1.3497
B(  2-C ,  7-H ) :   1.1008 B(  2-C ,  8-C ) :  -0.2342 B(  5-C ,  6-H ) :  -0.1770
B(  5-C ,  7-H ) :  -0.1865 B(  5-C ,  8-C ) :  -0.4351 B(  5-C ,  9-C ) :   0.6482
B(  5-C , 10-H ) :   0.1705 B(  5-C , 11-H ) :  -0.1388 B(  5-C , 12-H ) :  -0.2935
B(  5-C , 13-C ) :  -0.2813 B(  5-C , 14-C ) :   0.2978 B(  5-C , 19-H ) :   0.3165
B(  5-C , 41-H ) :  -0.2181 B(  8-C ,  9-C ) :  -0.1062 B(  8-C , 13-C ) :   0.8146
B(  8-C , 14-C ) :  -0.1740 B(  8-C , 15-H ) :   0.1006 B(  8-C , 19-H ) :  -0.1591
B(  8-C , 30-C ) :   0.9879 B(  8-C , 37-C ) :  -0.2714 B(  8-C , 41-H ) :   1.1592
B(  9-C , 10-H ) :   1.0120 B(  9-C , 11-H ) :   1.0015 B(  9-C , 12-H ) :   1.1165
B( 13-C , 14-C ) :   0.7527 B( 13-C , 15-H ) :   0.8918 B( 13-C , 16-H ) :   0.9537
B( 13-C , 17-C ) :  -0.2557 B( 13-C , 30-C ) :   0.1520 B( 13-C , 37-C ) :   0.1117
B( 14-C , 17-C ) :   0.7841 B( 14-C , 18-H ) :   0.9112 B( 14-C , 19-H ) :   0.8879
B( 14-C , 20-C ) :  -0.1650 B( 16-H , 37-C ) :  -0.1298 B( 17-C , 20-C ) :   1.3837
B( 17-C , 22-H ) :  -0.1113 B( 17-C , 26-C ) :   0.5071 B( 17-C , 28-H ) :  -0.1019
B( 17-C , 29-H ) :  -0.1139 B( 20-C , 21-C ) :   0.6779 B( 20-C , 22-H ) :   1.0533
B( 20-C , 24-H ) :  -0.1699 B( 20-C , 25-H ) :  -0.1393 B( 21-C , 23-H ) :   0.9665
B( 21-C , 24-H ) :   1.0714 B( 21-C , 25-H ) :   1.0580 B( 26-C , 27-H ) :   0.9609
B( 26-C , 28-H ) :   1.0644 B( 26-C , 29-H ) :   1.0425 B( 30-C , 31-H ) :  -0.1123
B( 30-C , 32-H ) :  -0.2266 B( 30-C , 34-H ) :  -0.1983 B( 30-C , 35-H ) :  -0.2574
B( 30-C , 36-H ) :  -0.1056 B( 30-C , 37-C ) :  -0.3311 B( 30-C , 38-H ) :  -0.2640
B( 30-C , 39-H ) :  -0.2785 B( 30-C , 40-H ) :  -0.3076 B( 33-C , 34-H ) :   1.2628
B( 33-C , 35-H ) :   1.2450 B( 33-C , 36-H ) :   1.1393 B( 33-C , 37-C ) :   0.1280
B( 37-C , 38-H ) :   1.2904 B( 37-C , 39-H ) :   1.2788 B( 37-C , 40-H ) :   1.2480

MP2 TOTAL ENERGY:     -586.666776591 Eh
FINAL SINGLE POINT ENERGY      -586.666776591278

DIPOLE MOMENT
-------------
                                X             Y             Z
Electronic contribution:      1.29124      -1.02913      -3.17343
Nuclear contribution   :      0.30774       2.83176       3.66656
                        -----------------------------------------
Total Dipole Moment    :      1.59899       1.80263       0.49313
                        -----------------------------------------
Magnitude (a.u.)       :      2.45956
Magnitude (Debye)      :      6.25170

Rotational constants in cm-1:     0.034833     0.010061     0.008800
Rotational constants in MHz :  1044.254949   301.609372   263.810425

                             ****ORCA TERMINATED NORMALLY****
TOTAL RUN TIME: 0 days 8 hours 14 minutes 5 seconds 940 msec
