                         Program Version 4.2.1 -  RELEASE  -
|  1> %pal
|  2>  nprocs 32
|  3> end
|  4> !RI-MP2 aug-cc-pVQZ aug-cc-pVQZ/C TightSCF
|  5> %maxcore 4500
|  6> *xyzfile 0 2  04_82P1.xyz
|  7>
|  8>
|  9>                          ****END OF INPUT****

CARTESIAN COORDINATES (ANGSTROEM)
---------------------------------
  O     -2.711645   -1.284800   -0.000027
  C     -2.427919   -0.105145   -0.000005
  O     -3.371096    0.863941   -0.000006
  C     -1.083819    0.416781    0.000026
  C      0.059025   -0.519560    0.000039
  H     -0.915001    1.484744    0.000041
  C      1.395983    0.177152    0.000007
  H      0.014396   -1.195981   -0.861907
  H      0.014418   -1.195929    0.862028
  C      3.718817   -0.172173   -0.000021
  H      3.878024    0.438718   -0.888093
  H      4.384736   -1.030443   -0.000016
  H      3.878048    0.438746    0.888026
  O      1.565527    1.366587   -0.000013
  H     -4.231573    0.423523   -0.000027
  O      2.392769   -0.713941    0.000005

 Total Charge           Charge          ....    0
 Multiplicity           Mult            ....    2
 Number of Electrons    NEL             ....   69
 Basis Dimension        Dim             .... 1042

ORBITAL ENERGIES
----------------
                 SPIN UP ORBITALS
  NO   OCC          E(Eh)            E(eV)
   0   1.0000     -20.611598      -560.8701
   1   1.0000     -20.609199      -560.8048
   2   1.0000     -20.561161      -559.4976
   3   1.0000     -20.553709      -559.2949
   4   1.0000     -11.390026      -309.9384
   5   1.0000     -11.382305      -309.7283
   6   1.0000     -11.292519      -307.2851
   7   1.0000     -11.276907      -306.8602
   8   1.0000     -11.261890      -306.4516
   9   1.0000      -1.476494       -40.1774
  10   1.0000      -1.469709       -39.9928
  11   1.0000      -1.373836       -37.3840
  12   1.0000      -1.372381       -37.3444
  13   1.0000      -1.115094       -30.3432
  14   1.0000      -1.010477       -27.4965
  15   1.0000      -0.943361       -25.6702
  16   1.0000      -0.814816       -22.1723
  17   1.0000      -0.775131       -21.0924
  18   1.0000      -0.741337       -20.1728
  19   1.0000      -0.711574       -19.3629
  20   1.0000      -0.694881       -18.9087
  21   1.0000      -0.686354       -18.6766
  22   1.0000      -0.681757       -18.5515
  23   1.0000      -0.658701       -17.9242
  24   1.0000      -0.613802       -16.7024
  25   1.0000      -0.608915       -16.5694
  26   1.0000      -0.578276       -15.7357
  27   1.0000      -0.572944       -15.5906
  28   1.0000      -0.543800       -14.7976
  29   1.0000      -0.537953       -14.6384
  30   1.0000      -0.517839       -14.0911
  31   1.0000      -0.476575       -12.9683
  32   1.0000      -0.475423       -12.9369
  33   1.0000      -0.463599       -12.6152
  34   1.0000      -0.396121       -10.7790
  35   0.0000       0.023356         0.6355
  36   0.0000       0.029012         0.7894
  37   0.0000       0.036731         0.9995
  38   0.0000       0.036746         0.9999
  39   0.0000       0.041191         1.1209

                 SPIN DOWN ORBITALS
  NO   OCC          E(Eh)            E(eV)
   0   1.0000     -20.611489      -560.8671
   1   1.0000     -20.609341      -560.8087
   2   1.0000     -20.554108      -559.3057
   3   1.0000     -20.549890      -559.1909
   4   1.0000     -11.389715      -309.9299
   5   1.0000     -11.387799      -309.8778
   6   1.0000     -11.292540      -307.2856
   7   1.0000     -11.264633      -306.5263
   8   1.0000     -11.255521      -306.2783
   9   1.0000      -1.476451       -40.1763
  10   1.0000      -1.463931       -39.8356
  11   1.0000      -1.374300       -37.3966
  12   1.0000      -1.354488       -36.8575
  13   1.0000      -1.084197       -29.5025
  14   1.0000      -0.991872       -26.9902
  15   1.0000      -0.932834       -25.3837
  16   1.0000      -0.806762       -21.9531
  17   1.0000      -0.765776       -20.8378
  18   1.0000      -0.733356       -19.9556
  19   1.0000      -0.704579       -19.1726
  20   1.0000      -0.690344       -18.7852
  21   1.0000      -0.685214       -18.6456
  22   1.0000      -0.677298       -18.4302
  23   1.0000      -0.630111       -17.1462
  24   1.0000      -0.604776       -16.4568
  25   1.0000      -0.603537       -16.4231
  26   1.0000      -0.574844       -15.6423
  27   1.0000      -0.562168       -15.2974
  28   1.0000      -0.537835       -14.6352
  29   1.0000      -0.536304       -14.5936
  30   1.0000      -0.475761       -12.9461
  31   1.0000      -0.466886       -12.7046
  32   1.0000      -0.461009       -12.5447
  33   1.0000      -0.460445       -12.5294
  34   0.0000       0.023414         0.6371
  35   0.0000       0.029095         0.7917
  36   0.0000       0.036559         0.9948
  37   0.0000       0.036797         1.0013
  38   0.0000       0.041356         1.1254

MULLIKEN ATOMIC CHARGES AND SPIN POPULATIONS
--------------------------------------------
   0 O :   -0.750492    0.259988
   1 C :    1.441643   -0.211413
   2 O :   -0.703019    0.002137
   3 C :   -1.043602    1.100449
   4 C :   -0.198535   -0.181891
   5 H :    0.339681   -0.081015
   6 C :    1.156067    0.022876
   7 H :    0.310728    0.049309
   8 H :    0.310747    0.049314
   9 C :   -0.719457   -0.000741
  10 H :    0.307743    0.000121
  11 H :    0.440310   -0.000035
  12 H :    0.307747    0.000121
  13 O :   -0.787670   -0.005573
  14 H :    0.324300   -0.004275
  15 O :   -0.736193    0.000627
Sum of atomic charges         :    0.0000000

LOEWDIN ATOMIC CHARGES AND SPIN POPULATIONS
-------------------------------------------
   0 O :    0.701853    0.168757
   1 C :   -1.057118    0.120303
   2 O :    1.231493   -0.004043
   3 C :    0.336453    0.402275
   4 C :    0.400310    0.128441
   5 H :   -0.347746    0.135126
   6 C :   -1.075598    0.010807
   7 H :   -0.294255    0.022072
   8 H :   -0.294250    0.022074
   9 C :    0.583899    0.000064
  10 H :   -0.314575    0.000010
  11 H :   -0.322156   -0.000045
  12 H :   -0.314577    0.000010
  13 O :    0.735886   -0.004966
  14 H :   -0.822488   -0.003971
  15 O :    0.852869    0.003088

  Mayer bond orders larger than 0.100000
B(  0-O ,  1-C ) :   1.2553 B(  0-O ,  3-C ) :   0.2203 B(  1-C ,  2-O ) :   0.6812
B(  1-C ,  3-C ) :   1.2144 B(  1-C ,  4-C ) :  -0.2373 B(  2-O ,  3-C ) :   0.1641
B(  2-O , 14-H ) :   0.9526 B(  3-C ,  4-C ) :   0.8256 B(  3-C ,  5-H ) :   0.9343
B(  3-C ,  6-C ) :  -0.2981 B(  4-C ,  6-C ) :   1.1524 B(  4-C ,  7-H ) :   0.8250
B(  4-C ,  8-H ) :   0.8250 B(  6-C , 13-O ) :   1.2397 B(  6-C , 15-O ) :   0.9681
B(  9-C , 10-H ) :   0.9073 B(  9-C , 11-H ) :   0.8213 B(  9-C , 12-H ) :   0.9073
B(  9-C , 15-O ) :   0.8497 B( 13-O , 15-O ) :   0.1080

MP2 TOTAL ENERGY:     -494.941212439 Eh
FINAL SINGLE POINT ENERGY      -494.941212439395

DIPOLE MOMENT
-------------
                                X             Y             Z
Electronic contribution:     -6.37836       0.49229      -0.00002
Nuclear contribution   :      6.90852      -0.62563       0.00005
                        -----------------------------------------
Total Dipole Moment    :      0.53017      -0.13334       0.00003
                        -----------------------------------------
Magnitude (a.u.)       :      0.54668
Magnitude (Debye)      :      1.38954

Rotational constants in cm-1:     0.182477     0.021722     0.019550
Rotational constants in MHz :  5470.523468   651.198687   586.095068

                             ****ORCA TERMINATED NORMALLY****
TOTAL RUN TIME: 0 days 0 hours 44 minutes 5 seconds 149 msec
