                         Program Version 4.2.1 -  RELEASE  -
|  1> %pal
|  2>  nprocs 32
|  3> end
|  4> !RI-MP2 aug-cc-pVQZ aug-cc-pVQZ/C TightSCF
|  5> %maxcore 4500
|  6> *xyzfile -1 1  09_9P.xyz
|  7>
|  8>
|  9>                          ****END OF INPUT****

CARTESIAN COORDINATES (ANGSTROEM)
---------------------------------
  C     -1.528527    1.612925    0.145291
  C     -2.025352    0.203024   -0.074269
  O     -3.163705   -0.106283    0.225874
  C     -1.085059   -0.765387   -0.751125
  C      0.288910   -0.787515   -0.106852
  C      0.333161   -1.245277    1.204894
  C      1.297818   -0.260299   -0.880313
  H     -2.108998    2.082236    0.939112
  H     -0.462103    1.617342    0.367166
  H     -1.680374    2.179002   -0.780317
  H     -0.554429   -1.661716    1.665572
  H      1.271058   -1.339077    1.738099
  O      2.617290   -0.187429   -0.401637
  C      2.821864    0.916361    0.445176
  H      3.831816    0.836256    0.862255
  H      2.738758    1.863405   -0.108542
  H      2.095290    0.925554    1.266187
  H     -0.998369   -0.465743   -1.802939
  H     -1.555039   -1.750778   -0.716578
  H      1.176813    0.020224   -1.920716

 Total Charge           Charge          ....   -1
 Multiplicity           Mult            ....    1
 Number of Electrons    NEL             ....   70
 Basis Dimension        Dim             .... 1226

ORBITAL ENERGIES
----------------

  NO   OCC          E(Eh)            E(eV)
   0   2.0000     -20.400545      -555.1271
   1   2.0000     -20.392119      -554.8978
   2   2.0000     -11.188770      -304.4619
   3   2.0000     -11.121594      -302.6340
   4   2.0000     -11.091844      -301.8244
   5   2.0000     -11.081910      -301.5541
   6   2.0000     -11.065226      -301.1001
   7   2.0000     -11.053091      -300.7699
   8   2.0000     -10.992503      -299.1212
   9   2.0000      -1.243339       -33.8330
  10   2.0000      -1.206980       -32.8436
  11   2.0000      -0.934457       -25.4279
  12   2.0000      -0.861597       -23.4452
  13   2.0000      -0.799420       -21.7533
  14   2.0000      -0.768471       -20.9112
  15   2.0000      -0.698465       -19.0062
  16   2.0000      -0.598764       -16.2932
  17   2.0000      -0.550523       -14.9805
  18   2.0000      -0.508185       -13.8284
  19   2.0000      -0.499488       -13.5918
  20   2.0000      -0.493957       -13.4413
  21   2.0000      -0.477236       -12.9863
  22   2.0000      -0.462042       -12.5728
  23   2.0000      -0.452544       -12.3143
  24   2.0000      -0.419800       -11.4233
  25   2.0000      -0.408552       -11.1173
  26   2.0000      -0.386765       -10.5244
  27   2.0000      -0.368876       -10.0376
  28   2.0000      -0.351105        -9.5541
  29   2.0000      -0.344169        -9.3653
  30   2.0000      -0.313806        -8.5391
  31   2.0000      -0.276951        -7.5362
  32   2.0000      -0.269864        -7.3434
  33   2.0000      -0.211080        -5.7438
  34   2.0000      -0.045800        -1.2463
  35   0.0000       0.104055         2.8315
  36   0.0000       0.110789         3.0147
  37   0.0000       0.112814         3.0698
  38   0.0000       0.118360         3.2207
  39   0.0000       0.124436         3.3861

MULLIKEN ATOMIC CHARGES
-----------------------
   0 C :   -1.042192
   1 C :    1.139436
   2 O :   -0.926976
   3 C :   -0.577640
   4 C :    0.050209
   5 C :   -1.145279
   6 C :    0.032463
   7 H :    0.319921
   8 H :    0.289388
   9 H :    0.267452
  10 H :    0.254117
  11 H :    0.217577
  12 O :   -0.975434
  13 C :   -0.628101
  14 H :    0.437798
  15 H :    0.201645
  16 H :    0.267653
  17 H :    0.205151
  18 H :    0.338892
  19 H :    0.273920
Sum of atomic charges:   -1.0000000

LOEWDIN ATOMIC CHARGES
----------------------
   0 C :    0.865757
   1 C :   -0.675431
   2 O :    0.709914
   3 C :    0.364718
   4 C :   -0.275570
   5 C :    0.672294
   6 C :   -0.084746
   7 H :   -0.314809
   8 H :   -0.346967
   9 H :   -0.288557
  10 H :   -0.411778
  11 H :   -0.412247
  12 O :    0.781831
  13 C :    0.482941
  14 H :   -0.337024
  15 H :   -0.320291
  16 H :   -0.361229
  17 H :   -0.325280
  18 H :   -0.320731
  19 H :   -0.402795

  Mayer bond orders larger than 0.100000
B(  0-C ,  1-C ) :   0.8263 B(  0-C ,  2-O ) :   0.1643 B(  0-C ,  7-H ) :   0.9782
B(  0-C ,  8-H ) :   0.8761 B(  0-C ,  9-H ) :   0.9215 B(  1-C ,  2-O ) :   0.7988
B(  1-C ,  3-C ) :   0.9760 B(  2-O ,  3-C ) :   0.3107 B(  3-C ,  4-C ) :   0.6909
B(  3-C , 17-H ) :   0.9821 B(  3-C , 18-H ) :   0.9353 B(  4-C ,  5-C ) :   1.2657
B(  4-C ,  6-C ) :   1.4713 B(  4-C , 12-O ) :   0.1301 B(  4-C , 18-H ) :  -0.1156
B(  5-C , 10-H ) :   1.0137 B(  5-C , 11-H ) :   1.0650 B(  6-C , 12-O ) :   0.4208
B(  6-C , 19-H ) :   1.0319 B( 12-O , 13-C ) :   0.8830 B( 13-C , 14-H ) :   0.7933
B( 13-C , 15-H ) :   0.9818 B( 13-C , 16-H ) :   0.9014

MP2 TOTAL ENERGY:     -423.087160272 Eh
FINAL SINGLE POINT ENERGY      -423.087160272445

DIPOLE MOMENT
-------------
                                X             Y             Z
Electronic contribution:     -3.95580      -2.79892      -2.19196
Nuclear contribution   :      3.81721       4.38408       1.53525
                        -----------------------------------------
Total Dipole Moment    :     -0.13859       1.58517      -0.65672
                        -----------------------------------------
Magnitude (a.u.)       :      1.72141
Magnitude (Debye)      :      4.37546

Rotational constants in cm-1:     0.106636     0.029188     0.027119
Rotational constants in MHz :  3196.867135   875.032452   812.995792

                             ****ORCA TERMINATED NORMALLY****
TOTAL RUN TIME: 0 days 0 hours 50 minutes 24 seconds 941 msec
