                         Program Version 4.2.1 -  RELEASE  -
|  1> %pal
|  2>  nprocs 32
|  3> end
|  4> !RI-MP2 aug-cc-pVQZ aug-cc-pVQZ/C TightSCF
|  5> %maxcore 4500
|  6> *xyzfile 0 1  08_9P1.xyz
|  7>
|  8>
|  9>                          ****END OF INPUT****

CARTESIAN COORDINATES (ANGSTROEM)
---------------------------------
  C      0.112654   -0.631063   -0.507512
  C     -1.012663   -1.464056    0.057494
  O     -0.397333    0.679659   -0.589966
  C     -1.675189   -0.491743    1.061728
  C     -1.288429    0.915878    0.528983
  C     -2.437357    1.751323    0.011515
  H     -0.742141    1.480074    1.289172
  O      1.185504   -0.686443    0.421506
  P      2.573969    0.101351    0.159836
  O      3.558557   -0.108968    1.215008
  O      2.124771    1.599479   -0.103366
  O      3.011073   -0.413059   -1.301136
  O     -3.255349    1.021004   -0.890754
  H     -2.043289    2.655214   -0.462421
  H     -3.078920    2.050306    0.840693
  H     -2.694876    0.643309   -1.579994
  O     -3.054724   -0.719700    1.197251
  H     -1.236532   -0.643126    2.046518
  H     -3.499963   -0.310061    0.437426
  O     -1.876926   -1.763167   -1.014571
  H     -0.635330   -2.368215    0.537745
  H     -2.686796   -2.131286   -0.643752
  H      1.223851    1.667041   -0.468823
  H      3.782678   -0.989189   -1.277043
  H      0.443088   -0.926810   -1.502075

 Total Charge           Charge          ....    0
 Multiplicity           Mult            ....    1
 Number of Electrons    NEL             ....  120
 Basis Dimension        Dim             .... 1630

ORBITAL ENERGIES
----------------

  NO   OCC          E(Eh)            E(eV)
   0   2.0000     -80.106810     -2179.8171
   1   2.0000     -20.612008      -560.8812
   2   2.0000     -20.609520      -560.8136
   3   2.0000     -20.608527      -560.7865
   4   2.0000     -20.599693      -560.5462
   5   2.0000     -20.588897      -560.2524
   6   2.0000     -20.588311      -560.2364
   7   2.0000     -20.575132      -559.8778
   8   2.0000     -20.514881      -558.2383
   9   2.0000     -11.377875      -309.6077
  10   2.0000     -11.318979      -308.0051
  11   2.0000     -11.311464      -307.8006
  12   2.0000     -11.310353      -307.7703
  13   2.0000     -11.306795      -307.6735
  14   2.0000      -7.623236      -207.4388
  15   2.0000      -5.522303      -150.2695
  16   2.0000      -5.521856      -150.2573
  17   2.0000      -5.520624      -150.2238
  18   2.0000      -1.487610       -40.4799
  19   2.0000      -1.442816       -39.2610
  20   2.0000      -1.409303       -38.3491
  21   2.0000      -1.397801       -38.0361
  22   2.0000      -1.389363       -37.8065
  23   2.0000      -1.383493       -37.6468
  24   2.0000      -1.375090       -37.4181
  25   2.0000      -1.305754       -35.5314
  26   2.0000      -1.073359       -29.2076
  27   2.0000      -1.059268       -28.8241
  28   2.0000      -0.949736       -25.8436
  29   2.0000      -0.868568       -23.6349
  30   2.0000      -0.849082       -23.1047
  31   2.0000      -0.838028       -22.8039
  32   2.0000      -0.779752       -21.2181
  33   2.0000      -0.776455       -21.1284
  34   2.0000      -0.757276       -20.6065
  35   2.0000      -0.733389       -19.9565
  36   2.0000      -0.711585       -19.3632
  37   2.0000      -0.706091       -19.2137
  38   2.0000      -0.686346       -18.6764
  39   2.0000      -0.666344       -18.1321
  40   2.0000      -0.659422       -17.9438
  41   2.0000      -0.651048       -17.7159
  42   2.0000      -0.637013       -17.3340
  43   2.0000      -0.621149       -16.9023
  44   2.0000      -0.609897       -16.5961
  45   2.0000      -0.600128       -16.3303
  46   2.0000      -0.593793       -16.1579
  47   2.0000      -0.572148       -15.5689
  48   2.0000      -0.568094       -15.4586
  49   2.0000      -0.559624       -15.2281
  50   2.0000      -0.542341       -14.7579
  51   2.0000      -0.535179       -14.5630
  52   2.0000      -0.533145       -14.5076
  53   2.0000      -0.519134       -14.1264
  54   2.0000      -0.498177       -13.5561
  55   2.0000      -0.495112       -13.4727
  56   2.0000      -0.482509       -13.1297
  57   2.0000      -0.476354       -12.9622
  58   2.0000      -0.465346       -12.6627
  59   2.0000      -0.445720       -12.1286
  60   0.0000       0.020737         0.5643
  61   0.0000       0.025381         0.6907
  62   0.0000       0.028970         0.7883
  63   0.0000       0.031134         0.8472
  64   0.0000       0.040019         1.0890

MULLIKEN ATOMIC CHARGES
-----------------------
   0 C :    0.655786
   1 C :    0.498873
   2 O :   -0.878685
   3 C :    0.459650
   4 C :    0.134800
   5 C :   -0.086759
   6 H :    0.412206
   7 O :   -1.047807
   8 P :    2.559800
   9 O :   -1.233467
  10 O :   -1.029153
  11 O :   -0.912205
  12 O :   -1.005586
  13 H :    0.281033
  14 H :    0.313112
  15 H :    0.444888
  16 O :   -1.224258
  17 H :    0.342503
  18 H :    0.440842
  19 O :   -1.020922
  20 H :    0.402322
  21 H :    0.313709
  22 H :    0.343245
  23 H :    0.362427
  24 H :    0.473646
Sum of atomic charges:    0.0000000

LOEWDIN ATOMIC CHARGES
----------------------
   0 C :   -0.651461
   1 C :   -0.238547
   2 O :    0.938009
   3 C :   -0.186115
   4 C :   -0.157745
   5 C :    0.218905
   6 H :   -0.276936
   7 O :    0.712394
   8 P :   -0.904217
   9 O :    0.275931
  10 O :    1.115246
  11 O :    1.104107
  12 O :    1.335124
  13 H :   -0.279416
  14 H :   -0.292307
  15 H :   -0.770552
  16 O :    1.327773
  17 H :   -0.296733
  18 H :   -0.983850
  19 O :    1.312265
  20 H :   -0.276963
  21 H :   -0.798890
  22 H :   -1.037437
  23 H :   -0.862645
  24 H :   -0.325939

  Mayer bond orders larger than 0.100000
B(  0-C ,  1-C ) :   0.8764 B(  0-C ,  2-O ) :   0.8457 B(  0-C ,  7-O ) :   0.1606
B(  0-C , 19-O ) :   0.2320 B(  0-C , 24-H ) :   0.7745 B(  1-C ,  2-O ) :  -0.1176
B(  1-C ,  3-C ) :   0.9801 B(  1-C ,  7-O ) :   0.1522 B(  1-C , 16-O ) :   0.1232
B(  1-C , 19-O ) :   0.1528 B(  1-C , 20-H ) :   0.8737 B(  2-O ,  4-C ) :   0.4973
B(  2-O , 22-H ) :   0.1203 B(  3-C ,  4-C ) :   0.9632 B(  3-C ,  5-C ) :   0.1040
B(  3-C , 17-H ) :   0.9454 B(  3-C , 19-O ) :   0.1536 B(  4-C ,  5-C ) :   0.5996
B(  4-C ,  6-H ) :   0.7298 B(  4-C , 16-O ) :   0.2470 B(  5-C , 12-O ) :   0.5728
B(  5-C , 13-H ) :   1.0052 B(  5-C , 14-H ) :   0.9621 B(  7-O ,  8-P ) :   0.8006
B(  7-O ,  9-O ) :  -0.1967 B(  8-P ,  9-O ) :   1.3029 B(  8-P , 10-O ) :   0.6531
B(  8-P , 11-O ) :   0.6395 B( 10-O , 22-H ) :   0.8301 B( 11-O , 23-H ) :   0.9329
B( 12-O , 15-H ) :   0.7609 B( 16-O , 18-H ) :   0.7260 B( 19-O , 21-H ) :   0.8810

MP2 TOTAL ENERGY:    -1139.033889259 Eh
FINAL SINGLE POINT ENERGY     -1139.033889259395

DIPOLE MOMENT
-------------
                                X             Y             Z
Electronic contribution:     12.21257      -1.17984       0.01838
Nuclear contribution   :    -13.31904       1.00346      -0.93198
                        -----------------------------------------
Total Dipole Moment    :     -1.10647      -0.17638      -0.91360
                        -----------------------------------------
Magnitude (a.u.)       :      1.44570
Magnitude (Debye)      :      3.67469

Rotational constants in cm-1:     0.043226     0.012323     0.011507
Rotational constants in MHz :  1295.886009   369.445758   344.986002

                             ****ORCA TERMINATED NORMALLY****
TOTAL RUN TIME: 0 days 1 hours 47 minutes 6 seconds 785 msec
