                         Program Version 4.2.1 -  RELEASE  -
|  1> %pal
|  2>  nprocs 32
|  3> end
|  4> !RI-MP2 aug-cc-pVQZ aug-cc-pVQZ/C TightSCF
|  5> %maxcore 4500
|  6> *xyzfile 0 1  04_65P1.xyz
|  7>
|  8>
|  9>                          ****END OF INPUT****

CARTESIAN COORDINATES (ANGSTROEM)
---------------------------------
  H     -3.454557    0.000014    0.704154
  C      0.502614   -0.694569    0.007792
  C      0.502614    0.694570    0.007792
  C      1.677678    1.415592    0.001876
  C      2.870631    0.696064   -0.008607
  C      2.870631   -0.696062   -0.008606
  C      1.677679   -1.415591    0.001877
  C     -0.907376   -1.176798    0.017296
  C     -0.907377    1.176797    0.017298
  H      1.665212    2.498041    0.001505
  H      3.814686    1.226652   -0.018148
  H      3.814687   -1.226650   -0.018147
  H      1.665214   -2.498040    0.001507
  O     -1.341973    2.291007   -0.028383
  O     -1.341970   -2.291008   -0.028382
  N     -1.669751   -0.000001    0.111162
  O     -3.008500   -0.000001   -0.151899

 Total Charge           Charge          ....    0
 Multiplicity           Mult            ....    1
 Number of Electrons    NEL             ....   84
 Basis Dimension        Dim             .... 1190

ORBITAL ENERGIES
----------------

  NO   OCC          E(Eh)            E(eV)
   0   2.0000     -20.636789      -561.5556
   1   2.0000     -20.563748      -559.5680
   2   2.0000     -20.563748      -559.5680
   3   2.0000     -15.669258      -426.3822
   4   2.0000     -11.386862      -309.8523
   5   2.0000     -11.386843      -309.8518
   6   2.0000     -11.277536      -306.8774
   7   2.0000     -11.276404      -306.8465
   8   2.0000     -11.274913      -306.8060
   9   2.0000     -11.274700      -306.8002
  10   2.0000     -11.273030      -306.7547
  11   2.0000     -11.271875      -306.7233
  12   2.0000      -1.492215       -40.6052
  13   2.0000      -1.419034       -38.6139
  14   2.0000      -1.410762       -38.3888
  15   2.0000      -1.249385       -33.9975
  16   2.0000      -1.180117       -32.1126
  17   2.0000      -1.064088       -28.9553
  18   2.0000      -1.058682       -28.8082
  19   2.0000      -0.932861       -25.3844
  20   2.0000      -0.895768       -24.3751
  21   2.0000      -0.851359       -23.1667
  22   2.0000      -0.807458       -21.9720
  23   2.0000      -0.755797       -20.5663
  24   2.0000      -0.732373       -19.9289
  25   2.0000      -0.705601       -19.2004
  26   2.0000      -0.697881       -18.9903
  27   2.0000      -0.659603       -17.9487
  28   2.0000      -0.650773       -17.7084
  29   2.0000      -0.640565       -17.4307
  30   2.0000      -0.637973       -17.3601
  31   2.0000      -0.616758       -16.7829
  32   2.0000      -0.566461       -15.4142
  33   2.0000      -0.563280       -15.3276
  34   2.0000      -0.547448       -14.8968
  35   2.0000      -0.547076       -14.8867
  36   2.0000      -0.531266       -14.4565
  37   2.0000      -0.478702       -13.0262
  38   2.0000      -0.444744       -12.1021
  39   2.0000      -0.431276       -11.7356
  40   2.0000      -0.376755       -10.2520
  41   2.0000      -0.375429       -10.2159
  42   0.0000       0.017707         0.4818
  43   0.0000       0.026936         0.7330
  44   0.0000       0.029260         0.7962
  45   0.0000       0.037601         1.0232
  46   0.0000       0.039427         1.0729

MULLIKEN ATOMIC CHARGES
-----------------------
   0 H :    0.297186
   1 C :   -0.069604
   2 C :   -0.069695
   3 C :   -0.175565
   4 C :   -0.455172
   5 C :   -0.455107
   6 C :   -0.175630
   7 C :    1.222014
   8 C :    1.222214
   9 H :    0.339176
  10 H :    0.241359
  11 H :    0.241310
  12 H :    0.339192
  13 O :   -0.817913
  14 O :   -0.817879
  15 N :   -0.086747
  16 O :   -0.779138
Sum of atomic charges:   -0.0000000

LOEWDIN ATOMIC CHARGES
----------------------
   0 H :   -0.778731
   1 C :   -0.163224
   2 C :   -0.163224
   3 C :    0.378718
   4 C :    0.366578
   5 C :    0.366578
   6 C :    0.378718
   7 C :   -0.867815
   8 C :   -0.867814
   9 H :   -0.299845
  10 H :   -0.314119
  11 H :   -0.314118
  12 H :   -0.299845
  13 O :    0.706774
  14 O :    0.706775
  15 N :    0.024149
  16 O :    1.140446

  Mayer bond orders larger than 0.100000
B(  0-H , 16-O ) :   0.9825 B(  1-C ,  2-C ) :   0.7003 B(  1-C ,  3-C ) :  -0.2424
B(  1-C ,  5-C ) :  -0.1737 B(  1-C ,  6-C ) :   1.0347 B(  1-C ,  7-C ) :   1.3386
B(  1-C ,  8-C ) :  -0.4043 B(  1-C , 12-H ) :  -0.1413 B(  1-C , 14-O ) :   0.6387
B(  1-C , 15-N ) :  -0.1151 B(  2-C ,  3-C ) :   1.0346 B(  2-C ,  4-C ) :  -0.1737
B(  2-C ,  6-C ) :  -0.2423 B(  2-C ,  7-C ) :  -0.4042 B(  2-C ,  8-C ) :   1.3386
B(  2-C ,  9-H ) :  -0.1413 B(  2-C , 13-O ) :   0.6389 B(  2-C , 15-N ) :  -0.1150
B(  3-C ,  4-C ) :   1.2581 B(  3-C ,  6-C ) :   0.1674 B(  3-C ,  8-C ) :  -0.1043
B(  3-C ,  9-H ) :   0.9151 B(  3-C , 10-H ) :  -0.1332 B(  4-C ,  5-C ) :   1.2213
B(  4-C , 10-H ) :   1.1443 B(  4-C , 11-H ) :  -0.1036 B(  5-C ,  6-C ) :   1.2580
B(  5-C , 10-H ) :  -0.1036 B(  5-C , 11-H ) :   1.1444 B(  6-C ,  7-C ) :  -0.1042
B(  6-C , 11-H ) :  -0.1333 B(  6-C , 12-H ) :   0.9151 B(  7-C ,  8-C ) :   0.1170
B(  7-C , 14-O ) :   0.7245 B(  7-C , 15-N ) :   1.1123 B(  8-C , 13-O ) :   0.7242
B(  8-C , 15-N ) :   1.1122 B( 13-O , 15-N ) :   0.2944 B( 14-O , 15-N ) :   0.2944
B( 15-N , 16-O ) :   0.3068

MP2 TOTAL ENERGY:     -587.391952163 Eh
FINAL SINGLE POINT ENERGY      -587.391952162999

DIPOLE MOMENT
-------------
                                X             Y             Z
Electronic contribution:     -5.56068      -0.00001      -0.06303
Nuclear contribution   :      7.16175       0.00002       0.64622
                        -----------------------------------------
Total Dipole Moment    :      1.60107       0.00001       0.58319
                        -----------------------------------------
Magnitude (a.u.)       :      1.70398
Magnitude (Debye)      :      4.33117

Rotational constants in cm-1:     0.058279     0.029035     0.019427
Rotational constants in MHz :  1747.148303   870.445600   582.417281

                             ****ORCA TERMINATED NORMALLY****
TOTAL RUN TIME: 0 days 0 hours 52 minutes 48 seconds 417 msec
