                         Program Version 4.2.1 -  RELEASE  -
|  1> %pal
|  2>  nprocs 32
|  3> end
|  4> !RI-MP2 aug-cc-pVQZ aug-cc-pVQZ/C TightSCF MORead
|  5> %maxcore 4500
|  6> %moinp "05_41TS.gbw"
|  7> *xyzfile 1 1  05_41TS.xyz
|  8>
|  9>
| 10>                          ****END OF INPUT****

CARTESIAN COORDINATES (ANGSTROEM)
---------------------------------
  C      1.260663   -2.027901   -0.717309
  C      1.190829   -0.941871    1.675253
  C      2.365146   -0.059592    1.244855
  C      3.265643   -0.689327    0.186005
  C      2.448368   -1.112866   -1.030822
  H      1.978600    0.880276    0.852445
  H      2.953957    0.172104    2.134979
  H      3.764955   -1.563396    0.609240
  H      2.084568   -0.209133   -1.519519
  H      3.092551   -1.631808   -1.743762
  N      0.498748   -1.447767    0.442032
  O     -0.745097   -1.708906    0.512727
  C      0.358593   -2.078799   -1.941522
  H      0.944077   -2.458244   -2.778830
  H     -0.493595   -2.739723   -1.797830
  H      0.009349   -1.087468   -2.216352
  C      1.694007   -3.465184   -0.385167
  H      2.504853   -3.517477    0.335775
  H      0.850977   -4.043911   -0.005569
  H      2.041620   -3.938752   -1.304404
  C      0.232697   -0.112105    2.514481
  H      0.797052    0.311946    3.345122
  H     -0.193463    0.710320    1.944639
  H     -0.560959   -0.727765    2.930548
  C      1.644605   -2.137379    2.533674
  H      2.493780   -2.671538    2.117689
  H      1.941989   -1.761410    3.513447
  H      0.825173   -2.842909    2.676412
  C     -2.632382   -0.045641   -0.013417
  H     -1.526996   -0.872335    0.060195
  C     -1.951419    1.263686    0.134131
  C     -0.717338    1.474200   -0.489704
  C     -2.525670    2.303643    0.872213
  C     -0.053385    2.684210   -0.361845
  H     -0.265093    0.687753   -1.077305
  C     -1.874700    3.520206    0.975823
  H     -3.495398    2.172395    1.334568
  C     -0.635049    3.707894    0.372184
  H      0.916815    2.811503   -0.825605
  H     -2.337660    4.329462    1.526573
  H     -0.127548    4.659690    0.467837
  O     -3.396053   -0.516986    0.981577
  C     -3.184227   -0.293943    2.378368
  H     -4.136552    0.035069    2.791955
  H     -2.420206    0.451481    2.566435
  H     -2.908148   -1.249031    2.823042
  C     -3.336309   -0.392701   -1.350325
  C     -2.600997    0.115032   -2.589221
  H     -1.640349   -0.369397   -2.740446
  H     -3.211199   -0.112799   -3.464279
  H     -2.449106    1.193746   -2.565191
  C     -3.571768   -1.902419   -1.449013
  H     -4.135220   -2.273810   -0.594289
  H     -4.140966   -2.122734   -2.353150
  H     -2.631031   -2.451195   -1.505249
  C     -4.698137    0.335790   -1.288773
  H     -5.232496    0.151464   -2.222005
  H     -5.307949   -0.028311   -0.463757
  H     -4.567992    1.415038   -1.187338
  N      4.341395    0.220718   -0.198255
  H      5.288999   -0.072389   -0.028929
  C      4.145117    1.438484   -0.773667
  C      5.387489    2.226553   -1.096076
  H      5.397539    2.435215   -2.166253
  H      5.335796    3.183896   -0.576775
  H      6.312199    1.719571   -0.821190
  O      3.028077    1.870158   -1.016813

 Total Charge           Charge          ....    1
 Multiplicity           Mult            ....    1
 Number of Electrons    NEL             ....  214
 Basis Dimension        Dim             .... 4034

ORBITAL ENERGIES
----------------

  NO   OCC          E(Eh)            E(eV)
   0   2.0000     -20.804388      -566.1162
   1   2.0000     -20.720819      -563.8421
   2   2.0000     -20.609399      -560.8103
   3   2.0000     -15.794677      -429.7950
   4   2.0000     -15.684302      -426.7916
   5   2.0000     -11.478571      -312.3478
   6   2.0000     -11.446673      -311.4798
   7   2.0000     -11.402804      -310.2861
   8   2.0000     -11.402080      -310.2664
   9   2.0000     -11.397477      -310.1411
  10   2.0000     -11.381968      -309.7191
  11   2.0000     -11.366128      -309.2881
  12   2.0000     -11.363998      -309.2301
  13   2.0000     -11.354011      -308.9584
  14   2.0000     -11.353354      -308.9405
  15   2.0000     -11.344970      -308.7123
  16   2.0000     -11.343291      -308.6666
  17   2.0000     -11.335407      -308.4521
  18   2.0000     -11.331882      -308.3562
  19   2.0000     -11.330537      -308.3196
  20   2.0000     -11.330214      -308.3108
  21   2.0000     -11.329808      -308.2997
  22   2.0000     -11.329052      -308.2792
  23   2.0000     -11.326828      -308.2187
  24   2.0000     -11.320385      -308.0433
  25   2.0000     -11.315871      -307.9205
  26   2.0000     -11.314926      -307.8948
  27   2.0000     -11.312738      -307.8352
  28   2.0000      -1.632571       -44.4245
  29   2.0000      -1.553869       -42.2829
  30   2.0000      -1.480310       -40.2813
  31   2.0000      -1.340623       -36.4802
  32   2.0000      -1.299073       -35.3496
  33   2.0000      -1.280311       -34.8390
  34   2.0000      -1.228467       -33.4283
  35   2.0000      -1.224703       -33.3259
  36   2.0000      -1.163461       -31.6594
  37   2.0000      -1.154965       -31.4282
  38   2.0000      -1.133589       -30.8465
  39   2.0000      -1.115537       -30.3553
  40   2.0000      -1.104702       -30.0605
  41   2.0000      -1.083095       -29.4725
  42   2.0000      -1.064013       -28.9533
  43   2.0000      -1.050892       -28.5962
  44   2.0000      -1.048345       -28.5269
  45   2.0000      -1.039841       -28.2955
  46   2.0000      -1.037236       -28.2246
  47   2.0000      -1.005212       -27.3532
  48   2.0000      -0.967478       -26.3264
  49   2.0000      -0.946538       -25.7566
  50   2.0000      -0.940243       -25.5853
  51   2.0000      -0.924713       -25.1627
  52   2.0000      -0.905292       -24.6342
  53   2.0000      -0.873786       -23.7769
  54   2.0000      -0.864801       -23.5324
  55   2.0000      -0.831123       -22.6160
  56   2.0000      -0.823669       -22.4132
  57   2.0000      -0.809102       -22.0168
  58   2.0000      -0.808565       -22.0022
  59   2.0000      -0.793471       -21.5914
  60   2.0000      -0.787196       -21.4207
  61   2.0000      -0.780159       -21.2292
  62   2.0000      -0.772867       -21.0308
  63   2.0000      -0.753345       -20.4996
  64   2.0000      -0.737929       -20.0801
  65   2.0000      -0.737661       -20.0728
  66   2.0000      -0.730624       -19.8813
  67   2.0000      -0.728852       -19.8331
  68   2.0000      -0.715022       -19.4567
  69   2.0000      -0.709242       -19.2995
  70   2.0000      -0.705730       -19.2039
  71   2.0000      -0.705197       -19.1894
  72   2.0000      -0.701074       -19.0772
  73   2.0000      -0.697990       -18.9933
  74   2.0000      -0.694008       -18.8849
  75   2.0000      -0.686888       -18.6912
  76   2.0000      -0.686289       -18.6749
  77   2.0000      -0.679494       -18.4900
  78   2.0000      -0.675955       -18.3937
  79   2.0000      -0.667455       -18.1624
  80   2.0000      -0.652396       -17.7526
  81   2.0000      -0.648520       -17.6471
  82   2.0000      -0.646378       -17.5888
  83   2.0000      -0.644807       -17.5461
  84   2.0000      -0.640583       -17.4312
  85   2.0000      -0.638781       -17.3821
  86   2.0000      -0.636052       -17.3079
  87   2.0000      -0.632510       -17.2115
  88   2.0000      -0.626116       -17.0375
  89   2.0000      -0.621015       -16.8987
  90   2.0000      -0.618538       -16.8313
  91   2.0000      -0.611709       -16.6455
  92   2.0000      -0.608871       -16.5682
  93   2.0000      -0.604248       -16.4424
  94   2.0000      -0.596795       -16.2396
  95   2.0000      -0.594155       -16.1678
  96   2.0000      -0.585079       -15.9208
  97   2.0000      -0.583948       -15.8900
  98   2.0000      -0.575179       -15.6514
  99   2.0000      -0.572682       -15.5835
 100   2.0000      -0.571045       -15.5389
 101   2.0000      -0.564356       -15.3569
 102   2.0000      -0.516121       -14.0444
 103   2.0000      -0.493608       -13.4318
 104   2.0000      -0.473773       -12.8920
 105   2.0000      -0.451447       -12.2845
 106   2.0000      -0.429626       -11.6907
 107   0.0000      -0.134496        -3.6598
 108   0.0000      -0.053900        -1.4667
 109   0.0000      -0.047974        -1.3054
 110   0.0000      -0.044643        -1.2148
 111   0.0000      -0.042753        -1.1634

MULLIKEN ATOMIC CHARGES
-----------------------
   0 C :    1.001563
   1 C :    0.707814
   2 C :   -0.953153
   3 C :    1.665030
   4 C :   -0.798454
   5 H :    0.531529
   6 H :   -0.165379
   7 H :    0.347254
   8 H :    0.319626
   9 H :   -0.100505
  10 N :    2.570275
  11 O :   -1.400831
  12 C :   -1.108634
  13 H :    0.009890
  14 H :    0.331849
  15 H :    0.401484
  16 C :   -1.420419
  17 H :    0.266272
  18 H :    0.117924
  19 H :    0.094593
  20 C :   -1.059039
  21 H :    0.040130
  22 H :    0.277626
  23 H :    0.297935
  24 C :   -1.335677
  25 H :    0.285128
  26 H :    0.088589
  27 H :    0.149935
  28 C :    2.679695
  29 H :    0.032755
  30 C :    1.630030
  31 C :   -0.803639
  32 C :   -0.847178
  33 C :   -0.910694
  34 H :    0.726451
  35 C :   -0.410546
  36 H :    0.206935
  37 C :   -0.510647
  38 H :    0.255978
  39 H :    0.130350
  40 H :    0.240610
  41 O :   -0.759456
  42 C :   -0.865125
  43 H :    0.266659
  44 H :    0.118266
  45 H :    0.295249
  46 C :    1.815843
  47 C :   -1.153454
  48 H :    0.116684
  49 H :    0.120383
  50 H :    0.083912
  51 C :   -1.365714
  52 H :    0.175924
  53 H :    0.183546
  54 H :    0.271780
  55 C :   -1.191640
  56 H :    0.219093
  57 H :    0.196391
  58 H :    0.203138
  59 N :   -1.046368
  60 H :   -0.134511
  61 C :    1.083377
  62 C :   -0.906981
  63 H :    0.279661
  64 H :    0.284392
  65 H :    0.261719
  66 O :   -1.135219
Sum of atomic charges:    1.0000000

LOEWDIN ATOMIC CHARGES
----------------------
   0 C :   -0.342083
   1 C :   -0.342747
   2 C :    0.532356
   3 C :    0.040501
   4 C :    0.534238
   5 H :   -0.338219
   6 H :   -0.237694
   7 H :   -0.285897
   8 H :   -0.332694
   9 H :   -0.237351
  10 N :    0.199009
  11 O :    1.086407
  12 C :    0.930330
  13 H :   -0.241445
  14 H :   -0.275436
  15 H :   -0.327355
  16 C :    0.959679
  17 H :   -0.307862
  18 H :   -0.247115
  19 H :   -0.257733
  20 C :    0.916078
  21 H :   -0.242030
  22 H :   -0.323366
  23 H :   -0.301621
  24 C :    0.958961
  25 H :   -0.311478
  26 H :   -0.255970
  27 H :   -0.246825
  28 C :   -0.359239
  29 H :   -0.852805
  30 C :   -0.072348
  31 C :    0.335791
  32 C :    0.356930
  33 C :    0.399597
  34 H :   -0.349659
  35 C :    0.396759
  36 H :   -0.309533
  37 C :    0.394961
  38 H :   -0.377046
  39 H :   -0.302114
  40 H :   -0.299670
  41 O :    0.991435
  42 C :    0.685927
  43 H :   -0.271004
  44 H :   -0.378330
  45 H :   -0.276779
  46 C :   -0.255123
  47 C :    0.937661
  48 H :   -0.320377
  49 H :   -0.252727
  50 H :   -0.263658
  51 C :    0.938086
  52 H :   -0.271627
  53 H :   -0.255887
  54 H :   -0.294888
  55 C :    0.932124
  56 H :   -0.257605
  57 H :   -0.273955
  58 H :   -0.259804
  59 N :    0.897822
  60 H :   -0.479505
  61 C :   -0.771639
  62 C :    0.921527
  63 H :   -0.287235
  64 H :   -0.287737
  65 H :   -0.302300
  66 O :    0.791334

  Mayer bond orders larger than 0.100000
B(  0-C ,  1-C ) :   0.5663 B(  0-C ,  4-C ) :   0.1857 B(  0-C ,  8-H ) :  -0.2115
B(  0-C , 10-N ) :   0.9062 B(  0-C , 11-O ) :   0.1430 B(  0-C , 12-C ) :   0.3127
B(  0-C , 14-H ) :  -0.4065 B(  0-C , 15-H ) :  -0.1441 B(  0-C , 16-C ) :  -0.6179
B(  0-C , 17-H ) :  -0.2148 B(  0-C , 18-H ) :  -0.3258 B(  0-C , 19-H ) :  -0.3259
B(  0-C , 29-H ) :  -0.2193 B(  1-C ,  2-C ) :   0.2408 B(  1-C , 10-N ) :   0.9858
B(  1-C , 11-O ) :   0.2176 B(  1-C , 20-C ) :   0.3215 B(  1-C , 22-H ) :  -0.1726
B(  1-C , 23-H ) :  -0.3159 B(  1-C , 24-C ) :  -0.4237 B(  1-C , 25-H ) :  -0.1934
B(  1-C , 26-H ) :  -0.2192 B(  1-C , 27-H ) :  -0.2803 B(  1-C , 29-H ) :  -0.5469
B(  2-C ,  3-C ) :   0.6402 B(  2-C ,  5-H ) :   0.9171 B(  2-C ,  6-H ) :   1.3941
B(  2-C , 20-C ) :   0.1662 B(  2-C , 59-N ) :   0.1248 B(  3-C ,  4-C ) :   0.7183
B(  3-C ,  5-H ) :  -0.1019 B(  3-C ,  6-H ) :  -0.1901 B(  3-C ,  7-H ) :   0.9399
B(  3-C ,  9-H ) :  -0.1742 B(  3-C , 59-N ) :  -1.1444 B(  3-C , 60-H ) :  -0.4102
B(  3-C , 61-C ) :  -0.2401 B(  3-C , 66-O ) :   0.1927 B(  4-C ,  8-H ) :   1.2165
B(  4-C ,  9-H ) :   1.2702 B(  4-C , 12-C ) :   0.1671 B(  4-C , 15-H ) :  -0.1002
B(  4-C , 16-C ) :   0.1067 B(  4-C , 59-N ) :   0.1804 B(  5-H ,  6-H ) :  -0.1293
B(  5-H , 31-C ) :  -0.1220 B(  5-H , 59-N ) :   0.1641 B(  5-H , 66-O ) :  -0.1147
B(  8-H , 59-N ) :   0.1094 B(  8-H , 66-O ) :  -0.1450 B( 10-N , 12-C ) :  -0.3848
B( 10-N , 16-C ) :  -0.1361 B( 10-N , 18-H ) :  -0.1575 B( 10-N , 20-C ) :  -0.4164
B( 10-N , 24-C ) :  -0.1603 B( 10-N , 27-H ) :  -0.1289 B( 10-N , 28-C ) :   0.3671
B( 10-N , 29-H ) :   0.3191 B( 10-N , 30-C ) :  -0.1745 B( 10-N , 66-O ) :   0.1070
B( 11-O , 16-C ) :   0.1056 B( 11-O , 28-C ) :   0.5412 B( 11-O , 29-H ) :   0.4266
B( 11-O , 30-C ) :  -0.3527 B( 12-C , 13-H ) :   1.3575 B( 12-C , 14-H ) :   1.1479
B( 12-C , 15-H ) :   1.0127 B( 12-C , 34-H ) :  -0.1896 B( 13-H , 15-H ) :  -0.1629
B( 14-H , 15-H ) :   0.1187 B( 15-H , 31-C ) :  -0.1324 B( 15-H , 34-H ) :  -0.1015
B( 15-H , 47-C ) :  -0.1112 B( 16-C , 17-H ) :   1.1550 B( 16-C , 18-H ) :   1.4765
B( 16-C , 19-H ) :   1.3213 B( 20-C , 21-H ) :   1.2186 B( 20-C , 22-H ) :   0.9809
B( 20-C , 23-H ) :   1.1237 B( 22-H , 31-C ) :   0.1140 B( 24-C , 25-H ) :   1.1272
B( 24-C , 26-H ) :   1.2805 B( 24-C , 27-H ) :   1.4005 B( 28-C , 29-H ) :   0.9106
B( 28-C , 30-C ) :   0.4366 B( 28-C , 31-C ) :  -0.5131 B( 28-C , 42-C ) :  -0.3787
B( 28-C , 44-H ) :  -0.1575 B( 28-C , 46-C ) :   1.0836 B( 28-C , 47-C ) :  -0.3972
B( 28-C , 48-H ) :  -0.1378 B( 28-C , 51-C ) :  -0.1982 B( 28-C , 55-C ) :  -0.1361
B( 29-H , 32-C ) :  -0.1100 B( 29-H , 41-O ) :   0.3536 B( 30-C , 31-C ) :  -0.1379
B( 30-C , 32-C ) :   0.4896 B( 30-C , 33-C ) :  -0.8898 B( 30-C , 35-C ) :  -0.5461
B( 30-C , 37-C ) :   0.1227 B( 30-C , 38-H ) :  -0.1320 B( 30-C , 41-O ) :   0.6060
B( 30-C , 44-H ) :  -0.1316 B( 31-C , 32-C ) :  -0.2331 B( 31-C , 33-C ) :   1.8186
B( 31-C , 34-H ) :   0.3989 B( 31-C , 35-C ) :   0.1693 B( 31-C , 37-C ) :  -0.2869
B( 31-C , 40-H ) :  -0.1259 B( 31-C , 46-C ) :  -0.1088 B( 32-C , 35-C ) :   1.5493
B( 32-C , 36-H ) :   1.1511 B( 32-C , 37-C ) :   0.1480 B( 32-C , 39-H ) :  -0.1690
B( 32-C , 41-O ) :  -0.1282 B( 32-C , 46-C ) :  -0.1049 B( 33-C , 34-H ) :  -0.5010
B( 33-C , 37-C ) :   1.4013 B( 33-C , 38-H ) :   1.1151 B( 33-C , 40-H ) :  -0.1158
B( 34-H , 46-C ) :   0.1262 B( 34-H , 66-O ) :   0.1037 B( 35-C , 37-C ) :   1.0949
B( 35-C , 39-H ) :   1.3152 B( 35-C , 40-H ) :  -0.1247 B( 37-C , 39-H ) :  -0.1713
B( 37-C , 40-H ) :   1.1771 B( 41-O , 42-C ) :   0.8196 B( 41-O , 45-H ) :  -0.1148
B( 41-O , 46-C ) :  -0.3327 B( 42-C , 43-H ) :   1.0628 B( 42-C , 44-H ) :   1.0725
B( 42-C , 45-H ) :   1.0286 B( 46-C , 49-H ) :  -0.1750 B( 46-C , 50-H ) :  -0.2533
B( 46-C , 52-H ) :  -0.2332 B( 46-C , 53-H ) :  -0.1681 B( 46-C , 54-H ) :  -0.1135
B( 46-C , 56-H ) :  -0.1429 B( 46-C , 57-H ) :  -0.2024 B( 46-C , 58-H ) :  -0.1409
B( 47-C , 48-H ) :   1.1837 B( 47-C , 49-H ) :   1.2837 B( 47-C , 50-H ) :   1.2919
B( 47-C , 55-C ) :   0.1015 B( 51-C , 52-H ) :   1.2501 B( 51-C , 53-H ) :   1.2196
B( 51-C , 54-H ) :   1.0360 B( 51-C , 55-C ) :   0.1538 B( 55-C , 56-H ) :   1.1487
B( 55-C , 57-H ) :   1.1992 B( 55-C , 58-H ) :   1.1256 B( 59-N , 60-H ) :   1.6446
B( 59-N , 61-C ) :   1.0945 B( 59-N , 62-C ) :  -0.1124 B( 61-C , 62-C ) :   0.5139
B( 61-C , 63-H ) :  -0.1310 B( 61-C , 64-H ) :  -0.1250 B( 61-C , 65-H ) :  -0.1686
B( 61-C , 66-O ) :   0.8970 B( 62-C , 63-H ) :   1.0226 B( 62-C , 64-H ) :   1.0108
B( 62-C , 65-H ) :   1.0440

MP2 TOTAL ENERGY:    -1232.734463223 Eh
FINAL SINGLE POINT ENERGY     -1232.734463222614

DIPOLE MOMENT
-------------
                                X             Y             Z
Electronic contribution:      2.95436      11.11553       2.86238
Nuclear contribution   :     -2.30594     -11.79404      -1.97798
                        -----------------------------------------
Total Dipole Moment    :      0.64842      -0.67851       0.88440
                        -----------------------------------------
Magnitude (a.u.)       :      1.28957
Magnitude (Debye)      :      3.27783

Rotational constants in cm-1:     0.008353     0.004607     0.003993
Rotational constants in MHz :   250.412972   138.125441   119.705621

                             ****ORCA TERMINATED NORMALLY****
TOTAL RUN TIME: 0 days 12 hours 4 minutes 47 seconds 387 msec
