                         Program Version 4.2.1 -  RELEASE  -
|  1> %pal
|  2>  nprocs 32
|  3> end
|  4> !RI-MP2 aug-cc-pVQZ aug-cc-pVQZ/C TightSCF
|  5> %maxcore 4500
|  6> *xyzfile 1 1  04_58R1.xyz
|  7>
|  8>
|  9>                          ****END OF INPUT****

CARTESIAN COORDINATES (ANGSTROEM)
---------------------------------
  N      2.333651    1.385551    0.000037
  H      3.221988    1.879655   -0.000010
  C      2.405319    0.127493   -0.000046
  C      1.142575   -0.694433    0.000019
  O      3.476525   -0.673472   -0.000188
  N      0.018463    0.223262    0.000160
  H      1.122041   -1.339727    0.880668
  H      1.121880   -1.339644   -0.880685
  C     -1.234257   -0.176680    0.000033
  C     -2.327108    0.909806    0.000152
  O     -1.621334   -1.343978   -0.000151
  N     -3.598234    0.126685    0.000004
  H     -2.272325    1.537202   -0.887330
  H     -2.272379    1.536959    0.887809
  H     -4.172765    0.280876   -0.828340
  H     -4.172798    0.280619    0.828374
  H     -3.213902   -0.873826   -0.000140
  H      0.298028    1.205470    0.000243
  H      4.302378   -0.173590   -0.000230

 Total Charge           Charge          ....    1
 Multiplicity           Mult            ....    1
 Number of Electrons    NEL             ....   70
 Basis Dimension        Dim             .... 1180

ORBITAL ENERGIES
----------------

  NO   OCC          E(Eh)            E(eV)
   0   2.0000     -20.726323      -563.9919
   1   2.0000     -20.698508      -563.2350
   2   2.0000     -15.859149      -431.5494
   3   2.0000     -15.744183      -428.4210
   4   2.0000     -15.665744      -426.2866
   5   2.0000     -11.528193      -313.6981
   6   2.0000     -11.483049      -312.4697
   7   2.0000     -11.477763      -312.3258
   8   2.0000     -11.411773      -310.5301
   9   2.0000      -1.573976       -42.8301
  10   2.0000      -1.559024       -42.4232
  11   2.0000      -1.477563       -40.2065
  12   2.0000      -1.410591       -38.3841
  13   2.0000      -1.325787       -36.0765
  14   2.0000      -1.190533       -32.3961
  15   2.0000      -1.124402       -30.5965
  16   2.0000      -0.977520       -26.5997
  17   2.0000      -0.967934       -26.3388
  18   2.0000      -0.953675       -25.9508
  19   2.0000      -0.943344       -25.6697
  20   2.0000      -0.866091       -23.5675
  21   2.0000      -0.853708       -23.2306
  22   2.0000      -0.834900       -22.7188
  23   2.0000      -0.812430       -22.1073
  24   2.0000      -0.789584       -21.4857
  25   2.0000      -0.776074       -21.1180
  26   2.0000      -0.769212       -20.9313
  27   2.0000      -0.723295       -19.6818
  28   2.0000      -0.721619       -19.6362
  29   2.0000      -0.682297       -18.5663
  30   2.0000      -0.681509       -18.5448
  31   2.0000      -0.620877       -16.8949
  32   2.0000      -0.575108       -15.6495
  33   2.0000      -0.559430       -15.2229
  34   2.0000      -0.543998       -14.8029
  35   0.0000      -0.100982        -2.7479
  36   0.0000      -0.073370        -1.9965
  37   0.0000      -0.070719        -1.9244
  38   0.0000      -0.059977        -1.6321
  39   0.0000      -0.049310        -1.3418

MULLIKEN ATOMIC CHARGES
-----------------------
   0 N :   -0.740326
   1 H :    0.280176
   2 C :    0.738814
   3 C :   -0.254215
   4 O :   -0.729199
   5 N :   -0.765967
   6 H :    0.306661
   7 H :    0.306639
   8 C :    1.029714
   9 C :   -0.353364
  10 O :   -0.838124
  11 N :   -0.355886
  12 H :    0.359414
  13 H :    0.359384
  14 H :    0.279801
  15 H :    0.279807
  16 H :    0.383264
  17 H :    0.357896
  18 H :    0.355514
Sum of atomic charges:    1.0000000

LOEWDIN ATOMIC CHARGES
----------------------
   0 N :    1.023747
   1 H :   -0.618622
   2 C :   -0.623012
   3 C :    0.349290
   4 O :    1.314826
   5 N :    0.823703
   6 H :   -0.267849
   7 H :   -0.267861
   8 C :   -0.671163
   9 C :    0.568692
  10 O :    0.899535
  11 N :    1.541894
  12 H :   -0.234001
  13 H :   -0.234001
  14 H :   -0.287668
  15 H :   -0.287667
  16 H :   -0.674062
  17 H :   -0.601755
  18 H :   -0.754025

  Mayer bond orders larger than 0.100000
B(  0-N ,  1-H ) :   0.8630 B(  0-N ,  2-C ) :   1.7457 B(  0-N ,  4-O ) :   0.1284
B(  2-C ,  3-C ) :   1.0477 B(  2-C ,  4-O ) :   0.6495 B(  3-C ,  4-O ) :   0.1548
B(  3-C ,  5-N ) :   0.8433 B(  3-C ,  6-H ) :   0.8889 B(  3-C ,  7-H ) :   0.8889
B(  4-O , 18-H ) :   0.9091 B(  5-N ,  8-C ) :   1.3773 B(  5-N , 10-O ) :   0.2109
B(  5-N , 17-H ) :   0.8547 B(  8-C ,  9-C ) :   0.9406 B(  8-C , 10-O ) :   1.0418
B(  9-C , 10-O ) :   0.1401 B(  9-C , 11-N ) :   1.1008 B(  9-C , 12-H ) :   0.8394
B(  9-C , 13-H ) :   0.8394 B( 10-O , 16-H ) :   0.1607 B( 11-N , 14-H ) :   0.9316
B( 11-N , 15-H ) :   0.9316 B( 11-N , 16-H ) :   0.7453

MP2 TOTAL ENERGY:     -472.258561663 Eh
FINAL SINGLE POINT ENERGY      -472.258561662583

DIPOLE MOMENT
-------------
                                X             Y             Z
Electronic contribution:      2.69314      -1.52820      -0.00023
Nuclear contribution   :     -6.07056       2.99937       0.00036
                        -----------------------------------------
Total Dipole Moment    :     -3.37742       1.47118       0.00013
                        -----------------------------------------
Magnitude (a.u.)       :      3.68393
Magnitude (Debye)      :      9.36381

Rotational constants in cm-1:     0.170135     0.022371     0.019984
Rotational constants in MHz :  5100.511884   670.675002   599.108532

                             ****ORCA TERMINATED NORMALLY****
TOTAL RUN TIME: 0 days 0 hours 34 minutes 10 seconds 993 msec
