                         Program Version 4.2.1 -  RELEASE  -
|  1> %pal
|  2>  nprocs 32
|  3> end
|  4> !RI-MP2 aug-cc-pVQZ aug-cc-pVQZ/C TightSCF
|  5> %maxcore 4500
|  6> *xyzfile 0 1  02_10P.xyz
|  7>
|  8>
|  9>                          ****END OF INPUT****

CARTESIAN COORDINATES (ANGSTROEM)
---------------------------------
  C     -0.668847   -0.014152   -1.928399
  C     -1.584861    0.289000   -0.777285
  C     -0.861842    1.046885    0.358692
  C      0.626565    0.661537    0.511225
  C      1.353216    0.935592   -0.815540
  C      0.623063    0.281779   -1.958537
  C      0.841148   -0.780881    1.006359
  H      0.389938   -1.464731    0.285573
  C      2.828291    0.535635   -0.750403
  H      3.289868    0.685219   -1.731954
  H      3.349254    1.206414   -0.056120
  C      3.033582   -0.901773   -0.281187
  C      2.336608   -1.097962    1.062374
  H      2.818833   -0.455568    1.812999
  H      2.473128   -2.128753    1.405008
  C     -0.999089    2.559466    0.203720
  O     -1.574291    3.069326   -0.727458
  H      2.552864   -1.569274   -1.007585
  C      4.513136   -1.258443   -0.207568
  H      5.001002   -1.133019   -1.177434
  H      4.656525   -2.294502    0.108985
  H      5.031465   -0.616201    0.511209
  C     -2.384599   -0.907689   -0.278820
  C     -2.038372   -2.159469   -0.570848
  H     -1.143157   -2.300077   -1.170686
  C     -2.724930   -3.429650   -0.174555
  H     -2.048911   -4.065752    0.405336
  H     -3.011841   -4.004558   -1.060062
  H     -3.622683   -3.268966    0.420344
  C     -3.608907   -0.532351    0.510646
  H     -4.115921   -1.390237    0.946859
  H     -4.322979   -0.007054   -0.131147
  H     -3.364596    0.154226    1.326157
  C     -0.394016    3.421180    1.290370
  H      0.654916    3.616850    1.052880
  H     -0.427671    2.938171    2.268015
  H     -0.918419    4.374663    1.318830
  C      0.190718   -1.030831    2.363346
  H     -0.898025   -0.987019    2.313717
  H      0.531048   -0.299794    3.104235
  H      0.455591   -2.023339    2.735334
  H      1.197192    0.078068   -2.858596
  H     -1.135459   -0.465948   -2.798057
  H      1.325431    2.018790   -0.998046
  H     -2.322660    0.997211   -1.172915
  H      1.069991    1.311278    1.274569
  H     -1.355581    0.832055    1.310667

 Total Charge           Charge          ....    0
 Multiplicity           Mult            ....    1
 Number of Electrons    NEL             ....  144
 Basis Dimension        Dim             .... 2808

ORBITAL ENERGIES
----------------

  NO   OCC          E(Eh)            E(eV)
   0   2.0000     -20.538342      -558.8767
   1   2.0000     -11.323709      -308.1338
   2   2.0000     -11.235812      -305.7420
   3   2.0000     -11.230923      -305.6089
   4   2.0000     -11.230565      -305.5992
   5   2.0000     -11.227492      -305.5156
   6   2.0000     -11.226777      -305.4961
   7   2.0000     -11.226240      -305.4815
   8   2.0000     -11.219388      -305.2951
   9   2.0000     -11.218697      -305.2763
  10   2.0000     -11.217312      -305.2386
  11   2.0000     -11.216886      -305.2270
  12   2.0000     -11.216818      -305.2251
  13   2.0000     -11.215732      -305.1956
  14   2.0000     -11.214625      -305.1655
  15   2.0000     -11.214557      -305.1636
  16   2.0000     -11.212216      -305.0999
  17   2.0000     -11.210664      -305.0577
  18   2.0000     -11.209705      -305.0316
  19   2.0000      -1.386975       -37.7415
  20   2.0000      -1.161762       -31.6132
  21   2.0000      -1.114431       -30.3252
  22   2.0000      -1.076050       -29.2808
  23   2.0000      -1.061302       -28.8795
  24   2.0000      -1.028843       -27.9963
  25   2.0000      -1.015608       -27.6361
  26   2.0000      -0.988104       -26.8877
  27   2.0000      -0.972442       -26.4615
  28   2.0000      -0.925108       -25.1735
  29   2.0000      -0.922191       -25.0941
  30   2.0000      -0.896637       -24.3987
  31   2.0000      -0.852456       -23.1965
  32   2.0000      -0.828998       -22.5582
  33   2.0000      -0.784825       -21.3562
  34   2.0000      -0.773569       -21.0499
  35   2.0000      -0.738550       -20.0970
  36   2.0000      -0.715926       -19.4813
  37   2.0000      -0.677062       -18.4238
  38   2.0000      -0.670525       -18.2459
  39   2.0000      -0.664830       -18.0909
  40   2.0000      -0.641065       -17.4443
  41   2.0000      -0.626000       -17.0343
  42   2.0000      -0.617767       -16.8103
  43   2.0000      -0.608137       -16.5482
  44   2.0000      -0.600008       -16.3270
  45   2.0000      -0.595488       -16.2041
  46   2.0000      -0.591954       -16.1079
  47   2.0000      -0.582739       -15.8571
  48   2.0000      -0.576901       -15.6983
  49   2.0000      -0.569699       -15.5023
  50   2.0000      -0.557473       -15.1696
  51   2.0000      -0.549818       -14.9613
  52   2.0000      -0.548037       -14.9128
  53   2.0000      -0.539982       -14.6937
  54   2.0000      -0.533521       -14.5178
  55   2.0000      -0.532535       -14.4910
  56   2.0000      -0.525787       -14.3074
  57   2.0000      -0.514905       -14.0113
  58   2.0000      -0.512645       -13.9498
  59   2.0000      -0.506077       -13.7711
  60   2.0000      -0.492971       -13.4144
  61   2.0000      -0.483590       -13.1592
  62   2.0000      -0.475046       -12.9267
  63   2.0000      -0.466815       -12.7027
  64   2.0000      -0.463877       -12.6227
  65   2.0000      -0.457846       -12.4586
  66   2.0000      -0.437614       -11.9081
  67   2.0000      -0.434487       -11.8230
  68   2.0000      -0.414754       -11.2860
  69   2.0000      -0.399862       -10.8808
  70   2.0000      -0.347281        -9.4500
  71   2.0000      -0.329126        -8.9560
  72   0.0000       0.018810         0.5118
  73   0.0000       0.023757         0.6465
  74   0.0000       0.024596         0.6693
  75   0.0000       0.028424         0.7735
  76   0.0000       0.034517         0.9392

MULLIKEN ATOMIC CHARGES
-----------------------
   0 C :   -0.716215
   1 C :    0.875994
   2 C :   -0.759885
   3 C :    1.591271
   4 C :    0.299601
   5 C :   -0.870899
   6 C :    0.820542
   7 H :    0.162436
   8 C :   -0.702201
   9 H :    0.090149
  10 H :   -0.012113
  11 C :    0.401843
  12 C :   -0.601679
  13 H :    0.189324
  14 H :    0.098110
  15 C :    1.466207
  16 O :   -1.085112
  17 H :    0.127400
  18 C :   -1.156052
  19 H :    0.205367
  20 H :    0.173964
  21 H :    0.159516
  22 C :    0.583001
  23 C :   -0.542859
  24 H :    0.278576
  25 C :   -1.001762
  26 H :    0.198701
  27 H :    0.301348
  28 H :    0.228985
  29 C :   -1.236522
  30 H :    0.284646
  31 H :    0.301862
  32 H :    0.163405
  33 C :   -0.990810
  34 H :    0.255730
  35 H :    0.180341
  36 H :    0.276970
  37 C :   -1.436460
  38 H :    0.253590
  39 H :    0.118610
  40 H :    0.040184
  41 H :   -0.005994
  42 H :   -0.048729
  43 H :    0.546154
  44 H :    0.455680
  45 H :    0.086566
  46 H :   -0.048782
Sum of atomic charges:   -0.0000000

LOEWDIN ATOMIC CHARGES
----------------------
   0 C :    0.407526
   1 C :    0.089736
   2 C :    0.121798
   3 C :    0.144640
   4 C :    0.142298
   5 C :    0.442931
   6 C :    0.163690
   7 H :   -0.317970
   8 C :    0.539859
   9 H :   -0.253186
  10 H :   -0.249176
  11 C :    0.133926
  12 C :    0.538805
  13 H :   -0.247226
  14 H :   -0.250917
  15 C :   -0.588264
  16 O :    0.809066
  17 H :   -0.258802
  18 C :    0.942460
  19 H :   -0.269561
  20 H :   -0.270235
  21 H :   -0.271773
  22 C :    0.010684
  23 C :    0.399563
  24 H :   -0.349413
  25 C :    0.925209
  26 H :   -0.283071
  27 H :   -0.283027
  28 H :   -0.331769
  29 C :    0.931910
  30 H :   -0.317227
  31 H :   -0.258217
  32 H :   -0.286579
  33 C :    0.921000
  34 H :   -0.280625
  35 H :   -0.282821
  36 H :   -0.300450
  37 C :    0.960549
  38 H :   -0.286288
  39 H :   -0.250341
  40 H :   -0.260711
  41 H :   -0.291340
  42 H :   -0.289273
  43 H :   -0.270670
  44 H :   -0.374993
  45 H :   -0.301397
  46 H :   -0.350328

  Mayer bond orders larger than 0.100000
B(  0-C ,  1-C ) :   0.3192 B(  0-C ,  2-C ) :   0.1263 B(  0-C ,  3-C ) :  -0.2620
B(  0-C ,  5-C ) :   1.5499 B(  0-C ,  7-H ) :   0.1288 B(  0-C , 16-O ) :   0.1064
B(  0-C , 22-C ) :   0.3221 B(  0-C , 23-C ) :   0.1991 B(  0-C , 41-H ) :  -0.2923
B(  0-C , 42-H ) :   1.6137 B(  0-C , 44-H ) :  -0.3887 B(  1-C ,  2-C ) :   0.3886
B(  1-C , 15-C ) :  -0.1243 B(  1-C , 16-O ) :  -0.1248 B(  1-C , 22-C ) :   0.2706
B(  1-C , 23-C ) :  -0.4168 B(  1-C , 29-C ) :  -0.1022 B(  1-C , 42-H ) :  -0.2140
B(  1-C , 44-H ) :   0.9184 B(  2-C ,  3-C ) :   0.2746 B(  2-C ,  5-C ) :   0.2130
B(  2-C , 15-C ) :   0.6935 B(  2-C , 16-O ) :   0.7828 B(  2-C , 33-C ) :  -0.1892
B(  2-C , 44-H ) :  -0.2457 B(  2-C , 45-H ) :  -0.1119 B(  2-C , 46-H ) :   1.2081
B(  3-C ,  4-C ) :   0.4850 B(  3-C ,  5-C ) :  -0.1015 B(  3-C ,  6-C ) :   0.5323
B(  3-C , 11-C ) :   0.1865 B(  3-C , 12-C ) :  -0.1660 B(  3-C , 15-C ) :  -0.1925
B(  3-C , 16-O ) :  -0.1962 B(  3-C , 17-H ) :  -0.1090 B(  3-C , 33-C ) :  -0.2172
B(  3-C , 37-C ) :  -0.1991 B(  3-C , 44-H ) :   0.1559 B(  3-C , 45-H ) :   1.1133
B(  3-C , 46-H ) :  -0.2830 B(  4-C ,  5-C ) :   0.5592 B(  4-C ,  8-C ) :   0.8221
B(  4-C ,  9-H ) :  -0.1320 B(  4-C , 10-H ) :  -0.1879 B(  4-C , 41-H ) :  -0.1421
B(  4-C , 43-H ) :   0.8347 B(  5-C ,  7-H ) :   0.1003 B(  5-C , 41-H ) :   1.4628
B(  5-C , 42-H ) :  -0.3379 B(  5-C , 43-H ) :  -0.3886 B(  6-C ,  7-H ) :   1.0832
B(  6-C , 11-C ) :  -0.2085 B(  6-C , 13-H ) :  -0.2348 B(  6-C , 14-H ) :  -0.2527
B(  6-C , 22-C ) :   0.1249 B(  6-C , 23-C ) :   0.1098 B(  6-C , 37-C ) :  -0.2125
B(  6-C , 38-H ) :  -0.2136 B(  6-C , 39-H ) :  -0.3693 B(  6-C , 40-H ) :  -0.3240
B(  7-H , 12-C ) :  -0.1056 B(  7-H , 22-C ) :  -0.1655 B(  8-C ,  9-H ) :   1.2385
B(  8-C , 10-H ) :   1.4318 B(  8-C , 11-C ) :   0.4039 B(  8-C , 12-C ) :  -0.1196
B(  8-C , 18-C ) :   0.1348 B(  8-C , 43-H ) :  -0.1111 B(  9-H , 11-C ) :  -0.1006
B( 10-H , 11-C ) :  -0.1224 B( 11-C , 12-C ) :   0.5223 B( 11-C , 14-H ) :  -0.1023
B( 11-C , 17-H ) :   1.0253 B( 11-C , 18-C ) :   0.2745 B( 11-C , 19-H ) :  -0.1768
B( 11-C , 20-H ) :  -0.1848 B( 11-C , 21-H ) :  -0.2347 B( 12-C , 13-H ) :   1.1911
B( 12-C , 14-H ) :   1.2805 B( 12-C , 37-C ) :   0.2685 B( 15-C , 16-O ) :   0.1040
B( 15-C , 33-C ) :   0.9653 B( 16-O , 43-H ) :   0.1226 B( 16-O , 44-H ) :   0.2211
B( 18-C , 19-H ) :   1.1410 B( 18-C , 20-H ) :   1.1744 B( 18-C , 21-H ) :   1.1749
B( 22-C , 23-C ) :   1.2291 B( 22-C , 29-C ) :   0.2601 B( 22-C , 30-H ) :  -0.1656
B( 22-C , 31-H ) :  -0.2275 B( 22-C , 32-H ) :  -0.2419 B( 22-C , 44-H ) :  -0.1251
B( 23-C , 24-H ) :   1.0377 B( 23-C , 25-C ) :   0.5818 B( 23-C , 26-H ) :  -0.1495
B( 23-C , 27-H ) :  -0.2032 B( 25-C , 26-H ) :   1.0863 B( 25-C , 27-H ) :   1.0548
B( 25-C , 28-H ) :   1.0321 B( 29-C , 30-H ) :   1.0716 B( 29-C , 31-H ) :   1.0827
B( 29-C , 32-H ) :   1.1386 B( 33-C , 34-H ) :   0.9672 B( 33-C , 35-H ) :   1.0706
B( 33-C , 36-H ) :   1.0252 B( 37-C , 38-H ) :   1.0651 B( 37-C , 39-H ) :   1.3441
B( 37-C , 40-H ) :   1.3721 B( 42-H , 44-H ) :  -0.1701

MP2 TOTAL ENERGY:     -776.585175702 Eh
FINAL SINGLE POINT ENERGY      -776.585175701974

DIPOLE MOMENT
-------------
                                X             Y             Z
Electronic contribution:     -5.83215      10.01782      -7.86020
Nuclear contribution   :      6.31846     -10.60650       8.75092
                        -----------------------------------------
Total Dipole Moment    :      0.48632      -0.58868       0.89072
                        -----------------------------------------
Magnitude (a.u.)       :      1.17321
Magnitude (Debye)      :      2.98207

Rotational constants in cm-1:     0.015068     0.010920     0.008317
Rotational constants in MHz :   451.729251   327.360876   249.333848

                             ****ORCA TERMINATED NORMALLY****
TOTAL RUN TIME: 0 days 12 hours 13 minutes 57 seconds 604 msec
