                         Program Version 4.2.1 -  RELEASE  -
|  1> %pal
|  2>  nprocs 32
|  3> end
|  4> !RI-MP2 aug-cc-pVQZ aug-cc-pVQZ/C TightSCF
|  5> %maxcore 4500
|  6> *xyzfile 0 1  06_4R1.xyz
|  7>
|  8>
|  9>                          ****END OF INPUT****

CARTESIAN COORDINATES (ANGSTROEM)
---------------------------------
  C      0.009810   -1.233927    0.000056
  C      1.264980   -0.712711    0.000056
  C      1.264980    0.712711    0.000002
  C      0.009810    1.233927   -0.000061
  H      2.160727    1.317889   -0.000002
  H      2.160727   -1.317889    0.000102
  H     -0.280933   -2.272534    0.000097
  S     -1.191067    0.000000   -0.000025
  H     -0.280934    2.272534   -0.000118

 Total Charge           Charge          ....    0
 Multiplicity           Mult            ....    1
 Number of Electrons    NEL             ....   44
 Basis Dimension        Dim             ....  588

ORBITAL ENERGIES
----------------

  NO   OCC          E(Eh)            E(eV)
   0   2.0000     -91.981132     -2502.9338
   1   2.0000     -11.260205      -306.4057
   2   2.0000     -11.260175      -306.4049
   3   2.0000     -11.237462      -305.7869
   4   2.0000     -11.236442      -305.7591
   5   2.0000      -8.982773      -244.4337
   6   2.0000      -6.664072      -181.3386
   7   2.0000      -6.663587      -181.3254
   8   2.0000      -6.662963      -181.3084
   9   2.0000      -1.172147       -31.8957
  10   2.0000      -0.985962       -26.8294
  11   2.0000      -0.983878       -26.7727
  12   2.0000      -0.767665       -20.8892
  13   2.0000      -0.750490       -20.4219
  14   2.0000      -0.698682       -19.0121
  15   2.0000      -0.577888       -15.7251
  16   2.0000      -0.551491       -15.0068
  17   2.0000      -0.527161       -14.3448
  18   2.0000      -0.524223       -14.2648
  19   2.0000      -0.474486       -12.9114
  20   2.0000      -0.346513        -9.4291
  21   2.0000      -0.330108        -8.9827
  22   0.0000       0.026318         0.7161
  23   0.0000       0.030216         0.8222
  24   0.0000       0.034154         0.9294
  25   0.0000       0.044238         1.2038
  26   0.0000       0.061514         1.6739

MULLIKEN ATOMIC CHARGES
-----------------------
   0 C :   -0.687834
   1 C :   -0.294023
   2 C :   -0.294028
   3 C :   -0.687834
   4 H :    0.392228
   5 H :    0.392218
   6 H :    0.408483
   7 S :    0.362306
   8 H :    0.408484
Sum of atomic charges:    0.0000000

LOEWDIN ATOMIC CHARGES
----------------------
   0 C :   -0.096501
   1 C :    0.177182
   2 C :    0.177182
   3 C :   -0.096501
   4 H :   -0.332162
   5 H :   -0.332162
   6 H :   -0.408576
   7 S :    1.320113
   8 H :   -0.408576

  Mayer bond orders larger than 0.100000
B(  0-C ,  1-C ) :   1.4387 B(  0-C ,  6-H ) :   0.8596 B(  0-C ,  7-S ) :   1.1656
B(  1-C ,  2-C ) :   1.0655 B(  1-C ,  5-H ) :   0.8986 B(  2-C ,  3-C ) :   1.4387
B(  2-C ,  4-H ) :   0.8986 B(  3-C ,  7-S ) :   1.1656 B(  3-C ,  8-H ) :   0.8596

MP2 TOTAL ENERGY:     -552.268844950 Eh
FINAL SINGLE POINT ENERGY      -552.268844950140

DIPOLE MOMENT
-------------
                                X             Y             Z
Electronic contribution:     -3.42545       0.00000      -0.00007
Nuclear contribution   :      3.72862      -0.00000       0.00008
                        -----------------------------------------
Total Dipole Moment    :      0.30317       0.00000       0.00001
                        -----------------------------------------
Magnitude (a.u.)       :      0.30317
Magnitude (Debye)      :      0.77060

Rotational constants in cm-1:     0.268903     0.180633     0.108051
Rotational constants in MHz :  8061.517765  5415.239278  3239.284310

                             ****ORCA TERMINATED NORMALLY****
TOTAL RUN TIME: 0 days 0 hours 5 minutes 37 seconds 266 msec
