                         Program Version 4.2.1 -  RELEASE  -
|  1> %pal
|  2>  nprocs 32
|  3> end
|  4> !RI-MP2 aug-cc-pVQZ aug-cc-pVQZ/C TightSCF
|  5> %maxcore 4500
|  6> *xyzfile 0 1  02_5P.xyz
|  7>
|  8>
|  9>                          ****END OF INPUT****

CARTESIAN COORDINATES (ANGSTROEM)
---------------------------------
  C     -1.683181   -1.621840   -0.057230
  C     -3.032809   -0.919208    0.217102
  C     -2.811500    0.571277   -0.122282
  C     -1.319921    0.699140   -0.036442
  C     -0.694365   -0.493426   -0.002471
  H     -1.470477   -2.403196    0.677509
  H     -1.666596   -2.104960   -1.041948
  H     -3.276210   -1.010894    1.277286
  H     -3.858877   -1.354264   -0.346126
  H     -3.152805    0.816077   -1.134817
  H     -3.337651    1.240391    0.564754
  C      0.748624   -0.548876    0.002772
  C      1.637534   -1.556910   -0.043076
  C      3.056092   -1.036118   -0.089502
  H      3.522363   -1.246870   -1.059416
  H      3.700592   -1.494826    0.665843
  C      2.910954    0.494335    0.140711
  H      3.269806    0.763375    1.137749
  H      3.486292    1.080442   -0.577729
  C      1.424496    0.748769    0.042015
  C      0.745398    1.899696    0.007390
  N     -0.649909    1.895245   -0.063644
  H      1.211045    2.876112    0.026803
  H     -1.157254    2.759809   -0.002065
  H      1.391200   -2.608939   -0.096253

 Total Charge           Charge          ....    0
 Multiplicity           Mult            ....    1
 Number of Electrons    NEL             ....   86
 Basis Dimension        Dim             .... 1558

ORBITAL ENERGIES
----------------

  NO   OCC          E(Eh)            E(eV)
   0   2.0000     -15.585284      -424.0971
   1   2.0000     -11.265312      -306.5447
   2   2.0000     -11.258362      -306.3556
   3   2.0000     -11.232518      -305.6524
   4   2.0000     -11.221902      -305.3635
   5   2.0000     -11.218757      -305.2779
   6   2.0000     -11.216321      -305.2116
   7   2.0000     -11.215335      -305.1848
   8   2.0000     -11.214366      -305.1584
   9   2.0000     -11.209808      -305.0344
  10   2.0000     -11.203138      -304.8529
  11   2.0000     -11.190684      -304.5140
  12   2.0000      -1.269185       -34.5363
  13   2.0000      -1.133131       -30.8341
  14   2.0000      -1.121252       -30.5108
  15   2.0000      -1.004919       -27.3452
  16   2.0000      -0.997426       -27.1413
  17   2.0000      -0.952628       -25.9223
  18   2.0000      -0.929579       -25.2951
  19   2.0000      -0.853146       -23.2153
  20   2.0000      -0.809645       -22.0316
  21   2.0000      -0.775017       -21.0893
  22   2.0000      -0.746871       -20.3234
  23   2.0000      -0.709736       -19.3129
  24   2.0000      -0.681522       -18.5452
  25   2.0000      -0.643758       -17.5175
  26   2.0000      -0.630402       -17.1541
  27   2.0000      -0.611166       -16.6307
  28   2.0000      -0.586730       -15.9657
  29   2.0000      -0.562913       -15.3176
  30   2.0000      -0.560060       -15.2400
  31   2.0000      -0.544807       -14.8250
  32   2.0000      -0.519126       -14.1261
  33   2.0000      -0.500127       -13.6091
  34   2.0000      -0.496469       -13.5096
  35   2.0000      -0.489846       -13.3294
  36   2.0000      -0.481974       -13.1152
  37   2.0000      -0.476919       -12.9776
  38   2.0000      -0.470615       -12.8061
  39   2.0000      -0.450910       -12.2699
  40   2.0000      -0.405380       -11.0310
  41   2.0000      -0.339904        -9.2493
  42   2.0000      -0.233158        -6.3445
  43   0.0000       0.021200         0.5769
  44   0.0000       0.027070         0.7366
  45   0.0000       0.030704         0.8355
  46   0.0000       0.034962         0.9514
  47   0.0000       0.038959         1.0601

MULLIKEN ATOMIC CHARGES
-----------------------
   0 C :   -0.593717
   1 C :   -0.549726
   2 C :   -0.628220
   3 C :    0.618350
   4 C :    0.137117
   5 H :    0.218030
   6 H :    0.221327
   7 H :    0.226464
   8 H :    0.269424
   9 H :    0.273988
  10 H :    0.234078
  11 C :    0.568179
  12 C :   -0.721174
  13 C :   -0.532237
  14 H :    0.234487
  15 H :    0.205780
  16 C :   -0.501309
  17 H :    0.258184
  18 H :    0.206406
  19 C :    0.478868
  20 C :   -0.597303
  21 N :   -0.679881
  22 H :    0.310827
  23 H :    0.049696
  24 H :    0.292363
Sum of atomic charges:   -0.0000000

LOEWDIN ATOMIC CHARGES
----------------------
   0 C :    0.516627
   1 C :    0.534139
   2 C :    0.541688
   3 C :   -0.196721
   4 C :   -0.038981
   5 H :   -0.264809
   6 H :   -0.258309
   7 H :   -0.268123
   8 H :   -0.257541
   9 H :   -0.256695
  10 H :   -0.261305
  11 C :   -0.079810
  12 C :    0.408799
  13 C :    0.493515
  14 H :   -0.276556
  15 H :   -0.279025
  16 C :    0.504012
  17 H :   -0.270996
  18 H :   -0.268539
  19 C :   -0.073635
  20 C :    0.275739
  21 N :    0.864529
  22 H :   -0.305882
  23 H :   -0.475691
  24 H :   -0.306430

  Mayer bond orders larger than 0.100000
B(  0-C ,  1-C ) :   1.0643 B(  0-C ,  4-C ) :   0.5162 B(  0-C ,  5-H ) :   1.0648
B(  0-C ,  6-H ) :   0.9399 B(  1-C ,  2-C ) :   1.1480 B(  1-C ,  3-C ) :  -0.1396
B(  1-C ,  7-H ) :   0.9394 B(  1-C ,  8-H ) :   0.9546 B(  2-C ,  3-C ) :   0.6290
B(  2-C ,  4-C ) :  -0.1169 B(  2-C ,  9-H ) :   0.9022 B(  2-C , 10-H ) :   1.0267
B(  3-C ,  4-C ) :   1.3525 B(  3-C , 11-C ) :  -0.4239 B(  3-C , 20-C ) :  -0.1376
B(  3-C , 21-N ) :   0.5131 B(  3-C , 23-H ) :  -0.1357 B(  4-C ,  5-H ) :  -0.1521
B(  4-C , 12-C ) :  -0.2799 B(  4-C , 20-C ) :   0.2948 B(  4-C , 21-N ) :   0.2647
B( 11-C , 12-C ) :   1.2647 B( 11-C , 13-C ) :  -0.1311 B( 11-C , 19-C ) :   0.4810
B( 11-C , 20-C ) :  -0.3053 B( 11-C , 24-H ) :  -0.1679 B( 12-C , 13-C ) :   1.0659
B( 12-C , 24-H ) :   1.0281 B( 13-C , 14-H ) :   0.9310 B( 13-C , 15-H ) :   1.0366
B( 13-C , 16-C ) :   1.0946 B( 13-C , 19-C ) :  -0.1646 B( 16-C , 17-H ) :   0.9435
B( 16-C , 18-H ) :   1.0686 B( 16-C , 19-C ) :   0.4724 B( 18-H , 19-C ) :  -0.1826
B( 19-C , 20-C ) :   1.3962 B( 19-C , 21-N ) :  -0.2321 B( 19-C , 22-H ) :  -0.1420
B( 20-C , 21-N ) :   1.0814 B( 20-C , 22-H ) :   1.0230 B( 20-C , 23-H ) :  -0.1606
B( 21-N , 23-H ) :   1.2951

MP2 TOTAL ENERGY:     -480.851521785 Eh
FINAL SINGLE POINT ENERGY      -480.851521785320

DIPOLE MOMENT
-------------
                                X             Y             Z
Electronic contribution:      0.73523       3.54843      -0.08265
Nuclear contribution   :     -1.36163      -2.71498       0.09252
                        -----------------------------------------
Total Dipole Moment    :     -0.62640       0.83345       0.00988
                        -----------------------------------------
Magnitude (a.u.)       :      1.04264
Magnitude (Debye)      :      2.65019

Rotational constants in cm-1:     0.065692     0.025101     0.018537
Rotational constants in MHz :  1969.404731   752.500759   555.727461

                             ****ORCA TERMINATED NORMALLY****
TOTAL RUN TIME: 0 days 2 hours 1 minutes 28 seconds 122 msec
