                         Program Version 4.2.1 -  RELEASE  -
|  1> %pal
|  2>  nprocs 32
|  3> end
|  4> !RI-MP2 aug-cc-pVQZ aug-cc-pVQZ/C TightSCF
|  5> %maxcore 4500
|  6> *xyzfile 0 1  04_89R1.xyz
|  7>
|  8>
|  9>                          ****END OF INPUT****

CARTESIAN COORDINATES (ANGSTROEM)
---------------------------------
  C      1.500402    0.412505   -0.419197
  C      0.260592   -0.239331    0.210778
  C     -1.041855    0.267776   -0.394859
  C     -2.275382   -0.308418    0.290644
  H     -1.063802    0.009753   -1.460378
  H     -1.056962    1.358787   -0.339842
  C     -3.582540    0.183871   -0.328701
  H     -2.262208   -0.041996    1.354381
  H     -2.249550   -1.404169    0.246707
  N     -4.807636   -0.320047    0.279907
  H     -3.603415   -0.080202   -1.390540
  H     -3.613511    1.276844   -0.288902
  C      2.740317   -0.322856    0.064232
  N      1.535452    1.831769   -0.130314
  H      1.444592    0.275683   -1.502774
  H      1.783090    1.982453    0.842178
  H     -4.855083   -1.331042    0.231659
  H     -4.869677   -0.056953    1.256421
  O      3.510540    0.083873    0.891500
  O      2.881379   -1.525197   -0.526552
  H      2.237895    2.302599   -0.687540
  H      3.665483   -1.946960   -0.147414
  H      0.275647   -0.033364    1.287478
  H      0.328233   -1.324172    0.094453

 Total Charge           Charge          ....    0
 Multiplicity           Mult            ....    1
 Number of Electrons    NEL             ....   80
 Basis Dimension        Dim             .... 1444

ORBITAL ENERGIES
----------------

  NO   OCC          E(Eh)            E(eV)
   0   2.0000     -20.615306      -560.9710
   1   2.0000     -20.551621      -559.2380
   2   2.0000     -15.547313      -423.0639
   3   2.0000     -15.534710      -422.7209
   4   2.0000     -11.382432      -309.7317
   5   2.0000     -11.278560      -306.9052
   6   2.0000     -11.243614      -305.9543
   7   2.0000     -11.232145      -305.6422
   8   2.0000     -11.218740      -305.2774
   9   2.0000     -11.217081      -305.2323
  10   2.0000      -1.472705       -40.0744
  11   2.0000      -1.368408       -37.2363
  12   2.0000      -1.203221       -32.7413
  13   2.0000      -1.176458       -32.0130
  14   2.0000      -1.074695       -29.2439
  15   2.0000      -1.005844       -27.3704
  16   2.0000      -0.932223       -25.3671
  17   2.0000      -0.849449       -23.1147
  18   2.0000      -0.802142       -21.8274
  19   2.0000      -0.795778       -21.6542
  20   2.0000      -0.715513       -19.4701
  21   2.0000      -0.706735       -19.2312
  22   2.0000      -0.682650       -18.5759
  23   2.0000      -0.673468       -18.3260
  24   2.0000      -0.642399       -17.4806
  25   2.0000      -0.626434       -17.0461
  26   2.0000      -0.606052       -16.4915
  27   2.0000      -0.592468       -16.1219
  28   2.0000      -0.592032       -16.1100
  29   2.0000      -0.564955       -15.3732
  30   2.0000      -0.541401       -14.7323
  31   2.0000      -0.515438       -14.0258
  32   2.0000      -0.511590       -13.9211
  33   2.0000      -0.493442       -13.4273
  34   2.0000      -0.486861       -13.2482
  35   2.0000      -0.474714       -12.9176
  36   2.0000      -0.469687       -12.7808
  37   2.0000      -0.459759       -12.5107
  38   2.0000      -0.408438       -11.1142
  39   2.0000      -0.380754       -10.3608
  40   0.0000       0.022971         0.6251
  41   0.0000       0.027551         0.7497
  42   0.0000       0.030298         0.8245
  43   0.0000       0.032491         0.8841
  44   0.0000       0.041893         1.1400

MULLIKEN ATOMIC CHARGES
-----------------------
   0 C :   -0.030753
   1 C :   -0.422914
   2 C :   -0.189708
   3 C :   -0.547519
   4 H :    0.268015
   5 H :    0.249713
   6 C :   -0.223412
   7 H :    0.267138
   8 H :    0.284856
   9 N :   -0.844564
  10 H :    0.249698
  11 H :    0.243565
  12 C :    1.066198
  13 N :   -0.775899
  14 H :    0.356201
  15 H :    0.248443
  16 H :    0.256283
  17 H :    0.259063
  18 O :   -0.906308
  19 O :   -0.763478
  20 H :    0.168431
  21 H :    0.322077
  22 H :    0.213935
  23 H :    0.250936
Sum of atomic charges:   -0.0000000

LOEWDIN ATOMIC CHARGES
----------------------
   0 C :   -0.106928
   1 C :    0.501255
   2 C :    0.518089
   3 C :    0.519884
   4 H :   -0.258118
   5 H :   -0.277357
   6 C :    0.356951
   7 H :   -0.268783
   8 H :   -0.268314
   9 N :    1.284776
  10 H :   -0.288402
  11 H :   -0.287720
  12 C :   -1.026111
  13 N :    1.283451
  14 H :   -0.304991
  15 H :   -0.517283
  16 H :   -0.511137
  17 H :   -0.510876
  18 O :    0.721748
  19 O :    1.267163
  20 H :   -0.485924
  21 H :   -0.804528
  22 H :   -0.260932
  23 H :   -0.275911

  Mayer bond orders larger than 0.100000
B(  0-C ,  1-C ) :   0.8488 B(  0-C , 12-C ) :   1.1995 B(  0-C , 13-N ) :   0.7176
B(  0-C , 14-H ) :   0.8484 B(  0-C , 18-O ) :   0.1524 B(  1-C ,  2-C ) :   0.9596
B(  1-C , 12-C ) :  -0.1185 B(  1-C , 22-H ) :   0.8992 B(  1-C , 23-H ) :   0.8834
B(  2-C ,  3-C ) :   1.0075 B(  2-C ,  4-H ) :   0.8224 B(  2-C ,  5-H ) :   0.8536
B(  2-C ,  6-C ) :  -0.1038 B(  3-C ,  6-C ) :   1.1378 B(  3-C ,  7-H ) :   0.8289
B(  3-C ,  8-H ) :   0.8054 B(  6-C ,  9-N ) :   0.8909 B(  6-C , 10-H ) :   0.8989
B(  6-C , 11-H ) :   0.9058 B(  9-N , 16-H ) :   0.8964 B(  9-N , 17-H ) :   0.8932
B( 12-C , 13-N ) :   0.1143 B( 12-C , 18-O ) :   1.1296 B( 12-C , 19-O ) :   0.7980
B( 13-N , 15-H ) :   0.9059 B( 13-N , 20-H ) :   1.0071 B( 18-O , 19-O ) :   0.1348
B( 19-O , 21-H ) :   0.9242

MP2 TOTAL ENERGY:     -496.286314607 Eh
FINAL SINGLE POINT ENERGY      -496.286314607213

DIPOLE MOMENT
-------------
                                X             Y             Z
Electronic contribution:     14.47825      -1.58940       0.39094
Nuclear contribution   :    -14.13940       1.00042      -0.51128
                        -----------------------------------------
Total Dipole Moment    :      0.33885      -0.58898      -0.12034
                        -----------------------------------------
Magnitude (a.u.)       :      0.69008
Magnitude (Debye)      :      1.75403

Rotational constants in cm-1:     0.110364     0.014264     0.013401
Rotational constants in MHz :  3308.617608   427.626095   401.757353

                             ****ORCA TERMINATED NORMALLY****
TOTAL RUN TIME: 0 days 1 hours 6 minutes 29 seconds 963 msec
