                         Program Version 4.2.1 -  RELEASE  -
|  1> %pal
|  2>  nprocs 32
|  3> end
|  4> !RI-MP2 aug-cc-pVQZ aug-cc-pVQZ/C TightSCF
|  5> %maxcore 4500
|  6> *xyzfile -1 1  08_4TS.xyz
|  7>
|  8>
|  9>                          ****END OF INPUT****

CARTESIAN COORDINATES (ANGSTROEM)
---------------------------------
  C     -1.615799    0.990391    0.010902
  S     -1.344081   -0.508329   -0.896821
  S     -3.890726    0.403885    0.830837
  H     -2.083478    1.816245   -0.483423
  H     -1.346704    1.053036    1.046968
  C     -2.322625   -1.700105    0.071524
  C     -3.776943   -1.272675    0.145543
  H     -2.187491   -2.659920   -0.438626
  H     -1.895977   -1.776225    1.073143
  H     -4.219903   -1.315557   -0.852682
  H     -4.321644   -1.972236    0.787404
  S      0.501740    2.051390   -0.505523
  C      1.565020    0.983185    0.512142
  C      2.657625    0.289501   -0.304731
  H      0.949171    0.208885    0.986914
  H      2.038135    1.553967    1.309772
  C      3.597487   -0.525319    0.593621
  O      4.124346   -0.091635    1.584269
  O      3.798052   -1.770034    0.155793
  H      3.247181   -1.809868   -0.668770
  N      2.138302   -0.588000   -1.362132
  H      3.282925    1.062153   -0.759822
  H      1.158697   -0.796645   -1.170456
  H      2.132261   -0.095504   -2.245889

 Total Charge           Charge          ....   -1
 Multiplicity           Mult            ....    1
 Number of Electrons    NEL             ....  120
 Basis Dimension        Dim             .... 1524

ORBITAL ENERGIES
----------------

  NO   OCC          E(Eh)            E(eV)
   0   2.0000     -91.850634     -2499.3828
   1   2.0000     -91.761112     -2496.9468
   2   2.0000     -91.750434     -2496.6562
   3   2.0000     -20.487279      -557.4872
   4   2.0000     -20.427669      -555.8651
   5   2.0000     -15.455840      -420.5748
   6   2.0000     -11.264603      -306.5254
   7   2.0000     -11.209385      -305.0229
   8   2.0000     -11.170181      -303.9561
   9   2.0000     -11.151788      -303.4556
  10   2.0000     -11.130805      -302.8846
  11   2.0000     -11.126410      -302.7650
  12   2.0000      -8.852490      -240.8885
  13   2.0000      -8.763658      -238.4713
  14   2.0000      -8.752924      -238.1792
  15   2.0000      -6.534044      -177.8004
  16   2.0000      -6.533133      -177.7756
  17   2.0000      -6.532320      -177.7535
  18   2.0000      -6.445171      -175.3820
  19   2.0000      -6.444017      -175.3506
  20   2.0000      -6.443543      -175.3377
  21   2.0000      -6.434463      -175.0906
  22   2.0000      -6.433273      -175.0583
  23   2.0000      -6.432782      -175.0449
  24   2.0000      -1.347632       -36.6709
  25   2.0000      -1.250109       -34.0172
  26   2.0000      -1.102910       -30.0117
  27   2.0000      -0.987498       -26.8712
  28   2.0000      -0.918979       -25.0067
  29   2.0000      -0.888661       -24.1817
  30   2.0000      -0.815579       -22.1930
  31   2.0000      -0.801883       -21.8204
  32   2.0000      -0.703155       -19.1338
  33   2.0000      -0.693923       -18.8826
  34   2.0000      -0.662922       -18.0390
  35   2.0000      -0.648146       -17.6369
  36   2.0000      -0.623650       -16.9704
  37   2.0000      -0.574371       -15.6294
  38   2.0000      -0.554530       -15.0895
  39   2.0000      -0.531271       -14.4566
  40   2.0000      -0.513084       -13.9617
  41   2.0000      -0.512627       -13.9493
  42   2.0000      -0.502756       -13.6807
  43   2.0000      -0.484591       -13.1864
  44   2.0000      -0.463689       -12.6176
  45   2.0000      -0.450971       -12.2715
  46   2.0000      -0.421836       -11.4787
  47   2.0000      -0.415057       -11.2943
  48   2.0000      -0.410240       -11.1632
  49   2.0000      -0.367507       -10.0004
  50   2.0000      -0.358068        -9.7435
  51   2.0000      -0.345083        -9.3902
  52   2.0000      -0.326736        -8.8909
  53   2.0000      -0.313266        -8.5244
  54   2.0000      -0.302045        -8.2191
  55   2.0000      -0.264127        -7.1873
  56   2.0000      -0.225128        -6.1260
  57   2.0000      -0.184721        -5.0265
  58   2.0000      -0.174850        -4.7579
  59   2.0000      -0.143444        -3.9033
  60   0.0000       0.094858         2.5812
  61   0.0000       0.100837         2.7439
  62   0.0000       0.110130         2.9968
  63   0.0000       0.110800         3.0150
  64   0.0000       0.116962         3.1827

MULLIKEN ATOMIC CHARGES
-----------------------
   0 C :   -0.387919
   1 S :   -0.002061
   2 S :   -0.730250
   3 H :    0.448197
   4 H :    0.417346
   5 C :   -0.592915
   6 C :   -0.607272
   7 H :    0.352767
   8 H :    0.284834
   9 H :    0.221919
  10 H :    0.295264
  11 S :   -0.796281
  12 C :   -0.582224
  13 C :   -0.072074
  14 H :    0.245088
  15 H :    0.324978
  16 C :    1.262393
  17 O :   -0.868545
  18 O :   -0.948399
  19 H :    0.427546
  20 N :   -0.692275
  21 H :    0.382668
  22 H :    0.420761
  23 H :    0.196454
Sum of atomic charges:   -1.0000000

LOEWDIN ATOMIC CHARGES
----------------------
   0 C :   -0.076609
   1 S :    1.281329
   2 S :    0.921893
   3 H :   -0.516911
   4 H :   -0.498350
   5 C :    0.039546
   6 C :   -0.176701
   7 H :   -0.375351
   8 H :   -0.378603
   9 H :   -0.415285
  10 H :   -0.409424
  11 S :    0.994449
  12 C :   -0.063293
  13 C :   -0.185654
  14 H :   -0.402794
  15 H :   -0.397044
  16 C :   -1.049797
  17 O :    0.656445
  18 O :    1.235224
  19 H :   -1.000134
  20 N :    1.259520
  21 H :   -0.320805
  22 H :   -0.648256
  23 H :   -0.473396

  Mayer bond orders larger than 0.100000
B(  0-C ,  1-S ) :   0.9516 B(  0-C ,  2-S ) :   0.3720 B(  0-C ,  3-H ) :   0.7908
B(  0-C ,  4-H ) :   0.7995 B(  0-C , 11-S ) :   0.3902 B(  1-S ,  5-C ) :   0.9188
B(  2-S ,  6-C ) :   0.9781 B(  2-S , 11-S ) :   0.1004 B(  5-C ,  6-C ) :   0.9987
B(  5-C ,  7-H ) :   0.8112 B(  5-C ,  8-H ) :   0.8661 B(  6-C ,  9-H ) :   0.9511
B(  6-C , 10-H ) :   0.8896 B( 11-S , 12-C ) :   0.8296 B( 12-C , 13-C ) :   0.9064
B( 12-C , 14-H ) :   0.9468 B( 12-C , 15-H ) :   0.8521 B( 13-C , 16-C ) :   1.0885
B( 13-C , 17-O ) :   0.2175 B( 13-C , 18-O ) :   0.1387 B( 13-C , 20-N ) :   0.8667
B( 13-C , 21-H ) :   0.7631 B( 16-C , 17-O ) :   1.2666 B( 16-C , 18-O ) :   0.6514
B( 17-O , 18-O ) :   0.1401 B( 18-O , 19-H ) :   0.6735 B( 19-H , 20-N ) :   0.1500
B( 20-N , 22-H ) :   0.7324 B( 20-N , 23-H ) :   1.0344

MP2 TOTAL ENERGY:    -1633.646132452 Eh
FINAL SINGLE POINT ENERGY     -1633.646132451809

DIPOLE MOMENT
-------------
                                X             Y             Z
Electronic contribution:      3.70104       3.07873      -0.08628
Nuclear contribution   :     -2.92594      -4.76366      -1.36100
                        -----------------------------------------
Total Dipole Moment    :      0.77509      -1.68493      -1.44729
                        -----------------------------------------
Magnitude (a.u.)       :      2.35253
Magnitude (Debye)      :      5.97966

Rotational constants in cm-1:     0.036747     0.008942     0.008212
Rotational constants in MHz :  1101.651255   268.066763   246.193215

                             ****ORCA TERMINATED NORMALLY****
TOTAL RUN TIME: 0 days 1 hours 28 minutes 57 seconds 271 msec
