                         Program Version 4.2.1 -  RELEASE  -
|  1> %pal
|  2>  nprocs 32
|  3> end
|  4> !RI-MP2 aug-cc-pVQZ aug-cc-pVQZ/C TightSCF
|  5> %maxcore 4500
|  6> *xyzfile 0 2  03_2P1.xyz
|  7>
|  8>
|  9>                          ****END OF INPUT****

CARTESIAN COORDINATES (ANGSTROEM)
---------------------------------
  C     -0.693819    0.186196    0.359179
  C      0.745196   -0.195329    0.008133
  O      1.611161    0.790777    0.306056
  O      1.088046   -1.241594   -0.466719
  C     -1.112647    1.376749   -0.432726
  H     -0.666112    0.464915    1.425214
  N     -1.636232   -0.900789    0.208441
  H      2.496081    0.489969    0.055634
  H     -1.375733   -1.690592    0.786585
  H     -1.646457   -1.227480   -0.751419
  H     -0.421176    2.186286   -0.615934
  H     -2.159014    1.483263   -0.681383

 Total Charge           Charge          ....    0
 Multiplicity           Mult            ....    2
 Number of Electrons    NEL             ....   47
 Basis Dimension        Dim             ....  756

ORBITAL ENERGIES
----------------
                 SPIN UP ORBITALS
  NO   OCC          E(Eh)            E(eV)
   0   1.0000     -20.617144      -561.0210
   1   1.0000     -20.553490      -559.2889
   2   1.0000     -15.550155      -423.1412
   3   1.0000     -11.385907      -309.8263
   4   1.0000     -11.286244      -307.1143
   5   1.0000     -11.246355      -306.0289
   6   1.0000      -1.475236       -40.1432
   7   1.0000      -1.371228       -37.3130
   8   1.0000      -1.206893       -32.8412
   9   1.0000      -1.031739       -28.0750
  10   1.0000      -0.907462       -24.6933
  11   1.0000      -0.803645       -21.8683
  12   1.0000      -0.714343       -19.4383
  13   1.0000      -0.711205       -19.3529
  14   1.0000      -0.684632       -18.6298
  15   1.0000      -0.640830       -17.4379
  16   1.0000      -0.617686       -16.8081
  17   1.0000      -0.592615       -16.1259
  18   1.0000      -0.564038       -15.3483
  19   1.0000      -0.545282       -14.8379
  20   1.0000      -0.492124       -13.3914
  21   1.0000      -0.470294       -12.7973
  22   1.0000      -0.418727       -11.3941
  23   1.0000      -0.370363       -10.0781
  24   0.0000       0.024676         0.6715
  25   0.0000       0.033089         0.9004
  26   0.0000       0.035163         0.9568
  27   0.0000       0.039464         1.0739
  28   0.0000       0.050410         1.3717

                 SPIN DOWN ORBITALS
  NO   OCC          E(Eh)            E(eV)
   0   1.0000     -20.617198      -561.0225
   1   1.0000     -20.553599      -559.2919
   2   1.0000     -15.549731      -423.1297
   3   1.0000     -11.384714      -309.7938
   4   1.0000     -11.289380      -307.1996
   5   1.0000     -11.222784      -305.3875
   6   1.0000      -1.475031       -40.1376
   7   1.0000      -1.371386       -37.3173
   8   1.0000      -1.202947       -32.7339
   9   1.0000      -1.003416       -27.3043
  10   1.0000      -0.865457       -23.5503
  11   1.0000      -0.788721       -21.4622
  12   1.0000      -0.713417       -19.4131
  13   1.0000      -0.704080       -19.1590
  14   1.0000      -0.678115       -18.4525
  15   1.0000      -0.638440       -17.3728
  16   1.0000      -0.614751       -16.7282
  17   1.0000      -0.583651       -15.8820
  18   1.0000      -0.554344       -15.0845
  19   1.0000      -0.531600       -14.4656
  20   1.0000      -0.492082       -13.3902
  21   1.0000      -0.465964       -12.6795
  22   1.0000      -0.412196       -11.2164
  23   0.0000       0.024818         0.6753
  24   0.0000       0.033042         0.8991
  25   0.0000       0.035463         0.9650
  26   0.0000       0.038485         1.0472
  27   0.0000       0.050256         1.3675

MULLIKEN ATOMIC CHARGES AND SPIN POPULATIONS
--------------------------------------------
   0 C :    0.204482   -0.191715
   1 C :    1.012106    0.022083
   2 O :   -0.699419   -0.000000
   3 O :   -0.786578   -0.006016
   4 C :   -1.030503    1.223337
   5 H :    0.368340    0.078301
   6 N :   -0.693462    0.016722
   7 H :    0.326209    0.001199
   8 H :    0.242774   -0.003821
   9 H :    0.264200    0.002107
  10 H :    0.391292   -0.073540
  11 H :    0.400560   -0.068656
Sum of atomic charges         :    0.0000000

LOEWDIN ATOMIC CHARGES AND SPIN POPULATIONS
-------------------------------------------
   0 C :   -0.180970    0.146889
   1 C :   -1.055628    0.024104
   2 O :    1.254549    0.001421
   3 O :    0.709958    0.001361
   4 C :    0.840647    0.465856
   5 H :   -0.318515    0.034785
   6 N :    1.250594    0.010132
   7 H :   -0.803988    0.000361
   8 H :   -0.505473    0.001527
   9 H :   -0.514302    0.007116
  10 H :   -0.342723    0.152957
  11 H :   -0.334151    0.153491

  Mayer bond orders larger than 0.100000
B(  0-C ,  1-C ) :   0.9774 B(  0-C ,  4-C ) :   0.8633 B(  0-C ,  5-H ) :   0.7760
B(  0-C ,  6-N ) :   0.8148 B(  1-C ,  2-O ) :   0.8790 B(  1-C ,  3-O ) :   1.4218
B(  2-O ,  7-H ) :   0.9232 B(  4-C , 10-H ) :   0.8948 B(  4-C , 11-H ) :   0.8617
B(  6-N ,  8-H ) :   0.9238 B(  6-N ,  9-H ) :   0.8867

MP2 TOTAL ENERGY:     -322.626827291 Eh
FINAL SINGLE POINT ENERGY      -322.626827291043

DIPOLE MOMENT
-------------
                                X             Y             Z
Electronic contribution:      4.00219      -1.23713      -0.02865
Nuclear contribution   :     -3.74725       1.69749       0.21784
                        -----------------------------------------
Total Dipole Moment    :      0.25494       0.46037       0.18919
                        -----------------------------------------
Magnitude (a.u.)       :      0.55922
Magnitude (Debye)      :      1.42143

Rotational constants in cm-1:     0.177460     0.108882     0.075599
Rotational constants in MHz :  5320.116499  3264.203298  2266.394257

                             ****ORCA TERMINATED NORMALLY****
TOTAL RUN TIME: 0 days 0 hours 13 minutes 38 seconds 212 msec
