                         Program Version 4.2.1 -  RELEASE  -
|  1> %pal
|  2>  nprocs 32
|  3> end
|  4> !RI-MP2 aug-cc-pVQZ aug-cc-pVQZ/C TightSCF
|  5> %maxcore 4500
|  6> *xyzfile 0 2  01_20P.xyz
|  7>
|  8>
|  9>                          ****END OF INPUT****

CARTESIAN COORDINATES (ANGSTROEM)
---------------------------------
  C     -0.032764    0.808712    0.519375
  C     -1.422193    1.163322    0.116795
  C     -2.235029   -0.056408   -0.171777
  C     -1.177954   -1.154553   -0.366158
  H     -2.897577    0.056515   -1.035356
  H     -2.888514   -0.299612    0.681146
  C     -0.006218   -0.745262    0.543302
  H     -0.844522   -1.153735   -1.408385
  H     -1.552795   -2.156378   -0.147380
  C      1.397801   -1.167555    0.057503
  H     -1.823007    2.168735    0.137054
  C      1.110565    1.182705   -0.448648
  C      2.184433    0.143379   -0.125565
  H      1.448881    2.213253   -0.325675
  H      0.770738    1.068224   -1.482676
  H      2.682386    0.414231    0.810814
  H      2.957576    0.070013   -0.892995
  H      1.319195   -1.693957   -0.897811
  H      1.894346   -1.848104    0.751112
  H     -0.199294   -1.106334    1.556579
  H      0.220741    1.221106    1.504611

 Total Charge           Charge          ....    0
 Multiplicity           Mult            ....    2
 Number of Electrons    NEL             ....   61
 Basis Dimension        Dim             .... 1238

ORBITAL ENERGIES
----------------
                 SPIN UP ORBITALS
  NO   OCC          E(Eh)            E(eV)
   0   1.0000     -11.215615      -305.1924
   1   1.0000     -11.213802      -305.1431
   2   1.0000     -11.213058      -305.1228
   3   1.0000     -11.212705      -305.1132
   4   1.0000     -11.211108      -305.0698
   5   1.0000     -11.211042      -305.0680
   6   1.0000     -11.210491      -305.0530
   7   1.0000     -11.209312      -305.0209
   8   1.0000      -1.149258       -31.2729
   9   1.0000      -1.060359       -28.8538
  10   1.0000      -0.989857       -26.9354
  11   1.0000      -0.933893       -25.4125
  12   1.0000      -0.899842       -24.4859
  13   1.0000      -0.782073       -21.2813
  14   1.0000      -0.771091       -20.9824
  15   1.0000      -0.725097       -19.7309
  16   1.0000      -0.674072       -18.3424
  17   1.0000      -0.640508       -17.4291
  18   1.0000      -0.607127       -16.5208
  19   1.0000      -0.584480       -15.9045
  20   1.0000      -0.570773       -15.5315
  21   1.0000      -0.529529       -14.4092
  22   1.0000      -0.512292       -13.9402
  23   1.0000      -0.489056       -13.3079
  24   1.0000      -0.476984       -12.9794
  25   1.0000      -0.466630       -12.6977
  26   1.0000      -0.463370       -12.6090
  27   1.0000      -0.444961       -12.1080
  28   1.0000      -0.441803       -12.0221
  29   1.0000      -0.434068       -11.8116
  30   1.0000      -0.316857        -8.6221
  31   0.0000       0.026271         0.7149
  32   0.0000       0.030724         0.8360
  33   0.0000       0.031247         0.8503
  34   0.0000       0.031567         0.8590
  35   0.0000       0.044391         1.2079

                 SPIN DOWN ORBITALS
  NO   OCC          E(Eh)            E(eV)
   0   1.0000     -11.216299      -305.2110
   1   1.0000     -11.216154      -305.2071
   2   1.0000     -11.213475      -305.1342
   3   1.0000     -11.210886      -305.0637
   4   1.0000     -11.210714      -305.0590
   5   1.0000     -11.209350      -305.0219
   6   1.0000     -11.208375      -304.9954
   7   1.0000     -11.191453      -304.5349
   8   1.0000      -1.139805       -31.0157
   9   1.0000      -1.049871       -28.5685
  10   1.0000      -0.975541       -26.5458
  11   1.0000      -0.933294       -25.3962
  12   1.0000      -0.877057       -23.8659
  13   1.0000      -0.778283       -21.1782
  14   1.0000      -0.754289       -20.5253
  15   1.0000      -0.710523       -19.3343
  16   1.0000      -0.668164       -18.1817
  17   1.0000      -0.633558       -17.2400
  18   1.0000      -0.599335       -16.3087
  19   1.0000      -0.579347       -15.7648
  20   1.0000      -0.563024       -15.3207
  21   1.0000      -0.520835       -14.1726
  22   1.0000      -0.494389       -13.4530
  23   1.0000      -0.482930       -13.1412
  24   1.0000      -0.471175       -12.8213
  25   1.0000      -0.462788       -12.5931
  26   1.0000      -0.460155       -12.5215
  27   1.0000      -0.440310       -11.9815
  28   1.0000      -0.438842       -11.9415
  29   1.0000      -0.432932       -11.7807
  30   0.0000       0.026307         0.7159
  31   0.0000       0.030845         0.8393
  32   0.0000       0.031293         0.8515
  33   0.0000       0.031575         0.8592
  34   0.0000       0.044402         1.2082

MULLIKEN ATOMIC CHARGES AND SPIN POPULATIONS
--------------------------------------------
   0 C :   -0.092982   -0.185009
   1 C :   -0.535421    1.195241
   2 C :   -0.622956   -0.192293
   3 C :   -0.609427    0.032776
   4 H :    0.285862    0.032851
   5 H :    0.178627    0.088596
   6 C :    0.251867    0.011501
   7 H :    0.167822   -0.003674
   8 H :    0.324050   -0.004382
   9 C :   -0.595532    0.001068
  10 H :    0.310324   -0.108416
  11 C :   -0.515121    0.083716
  12 C :   -0.582032    0.000076
  13 H :    0.339702   -0.006702
  14 H :    0.199669    0.001085
  15 H :    0.161893   -0.002023
  16 H :    0.300792    0.001506
  17 H :    0.142302   -0.000596
  18 H :    0.282933    0.000292
  19 H :    0.352419   -0.004006
  20 H :    0.255209    0.058390
Sum of atomic charges         :    0.0000000

LOEWDIN ATOMIC CHARGES AND SPIN POPULATIONS
-------------------------------------------
   0 C :    0.100588    0.123357
   1 C :    0.483993    0.452858
   2 C :    0.513040    0.133256
   3 C :    0.527527    0.012848
   4 H :   -0.272662    0.017307
   5 H :   -0.267827    0.031382
   6 C :    0.138050    0.008230
   7 H :   -0.275342    0.002565
   8 H :   -0.244886    0.001277
   9 C :    0.562680    0.001001
  10 H :   -0.282166    0.141750
  11 C :    0.535740    0.028200
  12 C :    0.543568    0.005538
  13 H :   -0.248303    0.004573
  14 H :   -0.261423    0.012990
  15 H :   -0.262237    0.000681
  16 H :   -0.253778    0.001025
  17 H :   -0.277770    0.000070
  18 H :   -0.253739   -0.000019
  19 H :   -0.246311    0.001020
  20 H :   -0.258741    0.020092

  Mayer bond orders larger than 0.100000
B(  0-C ,  1-C ) :   0.7688 B(  0-C ,  6-C ) :   0.8387 B(  0-C , 11-C ) :   0.8376
B(  0-C , 20-H ) :   0.9310 B(  1-C ,  2-C ) :   0.9201 B(  1-C , 10-H ) :   0.9963
B(  2-C ,  3-C ) :   1.0506 B(  2-C ,  4-H ) :   0.9360 B(  2-C ,  5-H ) :   0.9803
B(  2-C ,  6-C ) :  -0.1274 B(  3-C ,  6-C ) :   0.7304 B(  3-C ,  7-H ) :   1.0246
B(  3-C ,  8-H ) :   0.8731 B(  6-C ,  9-C ) :   0.8105 B(  6-C , 19-H ) :   0.8189
B(  9-C , 12-C ) :   0.9968 B(  9-C , 17-H ) :   1.0210 B(  9-C , 18-H ) :   0.9422
B( 11-C , 12-C ) :   1.0030 B( 11-C , 13-H ) :   0.8341 B( 11-C , 14-H ) :   0.9814
B( 12-C , 15-H ) :   1.0175 B( 12-C , 16-H ) :   0.8684

MP2 TOTAL ENERGY:     -312.017075442 Eh
FINAL SINGLE POINT ENERGY      -312.017075441758

DIPOLE MOMENT
-------------
                                X             Y             Z
Electronic contribution:     -1.12011       1.05811       0.83865
Nuclear contribution   :      1.14167      -1.09749      -0.78580
                        -----------------------------------------
Total Dipole Moment    :      0.02157      -0.03938       0.05285
                        -----------------------------------------
Magnitude (a.u.)       :      0.06935
Magnitude (Debye)      :      0.17627

Rotational constants in cm-1:     0.128223     0.062616     0.048080
Rotational constants in MHz :  3844.034065  1877.177986  1441.393464

                             ****ORCA TERMINATED NORMALLY****
TOTAL RUN TIME: 0 days 1 hours 12 minutes 29 seconds 71 msec
