                         Program Version 4.2.1 -  RELEASE  -
|  1> %pal
|  2>  nprocs 32
|  3> end
|  4> !RI-MP2 aug-cc-pVQZ aug-cc-pVQZ/C TightSCF
|  5> %maxcore 4500
|  6> *xyzfile 1 1  10_17P.xyz
|  7>
|  8>
|  9>                          ****END OF INPUT****

CARTESIAN COORDINATES (ANGSTROEM)
---------------------------------
  C      2.028335   -0.925595   -0.289657
  N      0.609202   -1.193964   -0.017472
  N     -0.086177   -0.259494   -0.420257
  C     -1.497053   -0.224950   -0.174157
  C     -2.301183    0.645501   -0.902172
  C     -2.028683   -1.073541    0.793116
  C     -3.664776    0.654458   -0.659369
  H     -1.891719    1.303123   -1.655122
  C     -3.390625   -1.049074    1.024260
  H     -1.379185   -1.734038    1.350081
  C     -4.208693   -0.188587    0.299563
  H     -4.302490    1.322024   -1.223615
  H     -3.816722   -1.700702    1.775787
  H     -5.274926   -0.173807    0.486719
  C      2.612128   -0.422168    1.052584
  H      2.617304   -1.260033    1.752675
  H      3.658798   -0.180782    0.845666
  C      2.704163   -2.216765   -0.723599
  H      2.248030   -2.615051   -1.630891
  H      3.757101   -2.018866   -0.929941
  H      2.642704   -2.972465    0.059185
  C      1.980063    0.150156   -1.386556
  C      0.669597    0.865629   -1.109324
  C      0.747870    2.089129   -0.189413
  H      0.896136    2.959522   -0.832353
  H     -0.223678    2.231937    0.289831
  C      1.854134    2.051543    0.869532
  C      1.923108    0.775747    1.711905
  H      0.920298    0.499666    2.055979
  H      2.486111    0.993043    2.621562
  H      2.826998    2.229314    0.402112
  H      1.689827    2.904371    1.530612
  H      2.834081    0.821431   -1.349473
  H      1.960764   -0.323698   -2.368712
  H      0.119088    1.100318   -2.016261

 Total Charge           Charge          ....    1
 Multiplicity           Mult            ....    1
 Number of Electrons    NEL             ....  116
 Basis Dimension        Dim             .... 2154

ORBITAL ENERGIES
----------------

  NO   OCC          E(Eh)            E(eV)
   0   2.0000     -15.880859      -432.1401
   1   2.0000     -15.827720      -430.6941
   2   2.0000     -11.445829      -311.4569
   3   2.0000     -11.431603      -311.0697
   4   2.0000     -11.431506      -311.0671
   5   2.0000     -11.389059      -309.9121
   6   2.0000     -11.382772      -309.7410
   7   2.0000     -11.382609      -309.7365
   8   2.0000     -11.372772      -309.4689
   9   2.0000     -11.372521      -309.4620
  10   2.0000     -11.369765      -309.3870
  11   2.0000     -11.368808      -309.3610
  12   2.0000     -11.367421      -309.3232
  13   2.0000     -11.353826      -308.9533
  14   2.0000     -11.353661      -308.9488
  15   2.0000     -11.353142      -308.9347
  16   2.0000      -1.617445       -44.0129
  17   2.0000      -1.333277       -36.2803
  18   2.0000      -1.280685       -34.8492
  19   2.0000      -1.271290       -34.5935
  20   2.0000      -1.196535       -32.5594
  21   2.0000      -1.183760       -32.2117
  22   2.0000      -1.164856       -31.6973
  23   2.0000      -1.114068       -30.3153
  24   2.0000      -1.090853       -29.6836
  25   2.0000      -1.051106       -28.6021
  26   2.0000      -1.008783       -27.4504
  27   2.0000      -0.986074       -26.8324
  28   2.0000      -0.955170       -25.9915
  29   2.0000      -0.941899       -25.6304
  30   2.0000      -0.896635       -24.3987
  31   2.0000      -0.892338       -24.2817
  32   2.0000      -0.839348       -22.8398
  33   2.0000      -0.820019       -22.3138
  34   2.0000      -0.796358       -21.6700
  35   2.0000      -0.781610       -21.2687
  36   2.0000      -0.772104       -21.0100
  37   2.0000      -0.755759       -20.5652
  38   2.0000      -0.747928       -20.3521
  39   2.0000      -0.738476       -20.0950
  40   2.0000      -0.734882       -19.9972
  41   2.0000      -0.727221       -19.7887
  42   2.0000      -0.710516       -19.3341
  43   2.0000      -0.703888       -19.1538
  44   2.0000      -0.686059       -18.6686
  45   2.0000      -0.681282       -18.5386
  46   2.0000      -0.660559       -17.9747
  47   2.0000      -0.653802       -17.7909
  48   2.0000      -0.646344       -17.5879
  49   2.0000      -0.641425       -17.4541
  50   2.0000      -0.630735       -17.1632
  51   2.0000      -0.619827       -16.8663
  52   2.0000      -0.612494       -16.6668
  53   2.0000      -0.601780       -16.3753
  54   2.0000      -0.589950       -16.0534
  55   2.0000      -0.587517       -15.9872
  56   2.0000      -0.481748       -13.1090
  57   2.0000      -0.478663       -13.0251
  58   0.0000      -0.104090        -2.8324
  59   0.0000      -0.067087        -1.8255
  60   0.0000      -0.055404        -1.5076
  61   0.0000      -0.053861        -1.4656
  62   0.0000      -0.052358        -1.4247

MULLIKEN ATOMIC CHARGES
-----------------------
   0 C :    1.479155
   1 N :   -0.809939
   2 N :    0.482154
   3 C :    1.105492
   4 C :   -0.208175
   5 C :   -0.567411
   6 C :   -0.498251
   7 H :    0.228310
   8 C :   -0.461014
   9 H :    0.317768
  10 C :   -0.462623
  11 H :    0.232104
  12 H :    0.262553
  13 H :    0.341257
  14 C :   -0.600830
  15 H :    0.203410
  16 H :    0.303796
  17 C :   -1.145617
  18 H :    0.229404
  19 H :    0.249120
  20 H :    0.214546
  21 C :   -1.037784
  22 C :    0.464965
  23 C :   -0.670879
  24 H :    0.242469
  25 H :    0.248400
  26 C :   -0.439982
  27 C :   -0.532782
  28 H :    0.322493
  29 H :    0.193793
  30 H :    0.192113
  31 H :    0.240028
  32 H :    0.342170
  33 H :    0.128785
  34 H :    0.411003
Sum of atomic charges:    1.0000000

LOEWDIN ATOMIC CHARGES
----------------------
   0 C :   -0.419879
   1 N :    0.632275
   2 N :    0.300587
   3 C :   -0.197266
   4 C :    0.368140
   5 C :    0.360682
   6 C :    0.391414
   7 H :   -0.324938
   8 C :    0.388822
   9 H :   -0.320751
  10 C :    0.384994
  11 H :   -0.301456
  12 H :   -0.302319
  13 H :   -0.298581
  14 C :    0.555054
  15 H :   -0.256109
  16 H :   -0.251342
  17 C :    0.953585
  18 H :   -0.259913
  19 H :   -0.251375
  20 H :   -0.260901
  21 C :    0.559771
  22 C :    0.099551
  23 C :    0.597647
  24 H :   -0.240651
  25 H :   -0.269595
  26 C :    0.581669
  27 C :    0.578766
  28 H :   -0.264202
  29 H :   -0.251787
  30 H :   -0.264563
  31 H :   -0.250268
  32 H :   -0.249467
  33 H :   -0.241259
  34 H :   -0.276333

  Mayer bond orders larger than 0.100000
B(  0-C ,  1-N ) :   0.7321 B(  0-C ,  2-N ) :  -0.3145 B(  0-C , 14-C ) :   0.4015
B(  0-C , 15-H ) :  -0.1132 B(  0-C , 18-H ) :  -0.1966 B(  0-C , 19-H ) :  -0.1485
B(  0-C , 20-H ) :  -0.2433 B(  0-C , 21-C ) :   0.6854 B(  1-N ,  2-N ) :  -0.2771
B(  1-N ,  3-C ) :   0.1054 B(  1-N , 17-C ) :   0.1251 B(  1-N , 22-C ) :  -0.2432
B(  2-N ,  3-C ) :   0.8313 B(  2-N , 10-C ) :   0.1121 B(  2-N , 14-C ) :   0.1337
B(  2-N , 21-C ) :   0.1409 B(  2-N , 22-C ) :   0.7511 B(  2-N , 34-H ) :  -0.1175
B(  3-C ,  4-C ) :   0.8307 B(  3-C ,  5-C ) :   0.6360 B(  3-C ,  6-C ) :  -0.4454
B(  3-C ,  8-C ) :  -0.5080 B(  3-C , 10-C ) :  -0.1779 B(  4-C ,  6-C ) :   1.2470
B(  4-C ,  7-H ) :   1.0033 B(  4-C , 11-H ) :  -0.1295 B(  4-C , 22-C ) :  -0.1045
B(  5-C ,  6-C ) :   0.1391 B(  5-C ,  8-C ) :   1.3001 B(  5-C ,  9-H ) :   0.9151
B(  5-C , 12-H ) :  -0.1676 B(  6-C , 10-C ) :   1.2562 B(  6-C , 11-H ) :   1.1591
B(  8-C , 10-C ) :   1.1867 B(  8-C , 12-H ) :   1.1563 B(  8-C , 13-H ) :  -0.1037
B( 10-C , 11-H ) :  -0.1169 B( 10-C , 12-H ) :  -0.1025 B( 10-C , 13-H ) :   1.0242
B( 14-C , 15-H ) :   1.0586 B( 14-C , 16-H ) :   0.9209 B( 14-C , 17-C ) :   0.1007
B( 14-C , 27-C ) :   0.8975 B( 17-C , 18-H ) :   1.1028 B( 17-C , 19-H ) :   1.0969
B( 17-C , 20-H ) :   1.1433 B( 21-C , 22-C ) :   0.8639 B( 21-C , 23-C ) :   0.1413
B( 21-C , 32-H ) :   0.9898 B( 21-C , 33-H ) :   1.1365 B( 22-C , 23-C ) :   0.4756
B( 22-C , 25-H ) :  -0.1142 B( 22-C , 26-C ) :  -0.1048 B( 22-C , 34-H ) :   0.8775
B( 23-C , 24-H ) :   0.9897 B( 23-C , 25-H ) :   1.1076 B( 23-C , 26-C ) :   0.7871
B( 26-C , 27-C ) :   0.8041 B( 26-C , 30-H ) :   1.0740 B( 26-C , 31-H ) :   0.9903
B( 27-C , 28-H ) :   0.8839 B( 27-C , 29-H ) :   1.0590

MP2 TOTAL ENERGY:     -653.011152246 Eh
FINAL SINGLE POINT ENERGY      -653.011152246002

DIPOLE MOMENT
-------------
                                X             Y             Z
Electronic contribution:    -11.63466      -3.13724      -1.67305
Nuclear contribution   :     12.01293       3.44601       1.18508
                        -----------------------------------------
Total Dipole Moment    :      0.37827       0.30877      -0.48797
                        -----------------------------------------
Magnitude (a.u.)       :      0.69032
Magnitude (Debye)      :      1.75465

Rotational constants in cm-1:     0.033929     0.012481     0.011413
Rotational constants in MHz :  1017.180637   374.166110   342.152111

                             ****ORCA TERMINATED NORMALLY****
TOTAL RUN TIME: 0 days 5 hours 46 minutes 29 seconds 417 msec
