                         Program Version 4.2.1 -  RELEASE  -
|  1> %pal
|  2>  nprocs 32
|  3> end
|  4> !RI-MP2 aug-cc-pVQZ aug-cc-pVQZ/C TightSCF
|  5> %maxcore 4500
|  6> *xyzfile 1 1  05_31P1.xyz
|  7>
|  8>
|  9>                          ****END OF INPUT****

CARTESIAN COORDINATES (ANGSTROEM)
---------------------------------
  C      0.422786    0.395048   -0.216740
  C      1.804147    0.174598   -0.098066
  C      2.671506    1.194297   -0.541175
  C      2.322462   -1.023593    0.440050
  C      4.034729    1.016060   -0.450252
  H      2.263646    2.110749   -0.951888
  C      3.683954   -1.186724    0.524396
  H      1.645653   -1.796146    0.781321
  C      4.534542   -0.170086    0.080482
  H      4.711557    1.789740   -0.787100
  H      4.099749   -2.097461    0.934597
  O     -0.428665   -0.488285    0.125996
  H      5.606793   -0.308526    0.152557
  C     -1.825108   -0.210994    0.071519
  C     -2.316003    0.949326    0.634824
  C     -2.615625   -1.174524   -0.517092
  C     -3.686424    1.164905    0.570046
  H     -1.665941    1.651679    1.142438
  C     -3.981378   -0.938426   -0.571017
  H     -2.174184   -2.074541   -0.924294
  C     -4.513092    0.227524   -0.033415
  H     -4.105732    2.061332    1.007831
  H     -4.630680   -1.670317   -1.033415
  H     -5.580586    0.400724   -0.075096
  H      0.040069    1.334588   -0.616276

 Total Charge           Charge          ....    1
 Multiplicity           Mult            ....    1
 Number of Electrons    NEL             ....   96
 Basis Dimension        Dim             .... 1626

ORBITAL ENERGIES
----------------

  NO   OCC          E(Eh)            E(eV)
   0   2.0000     -20.819039      -566.5148
   1   2.0000     -11.553125      -314.3765
   2   2.0000     -11.449975      -311.5697
   3   2.0000     -11.422794      -310.8300
   4   2.0000     -11.415848      -310.6410
   5   2.0000     -11.414471      -310.6035
   6   2.0000     -11.412960      -310.5624
   7   2.0000     -11.387359      -309.8658
   8   2.0000     -11.386960      -309.8549
   9   2.0000     -11.378635      -309.6284
  10   2.0000     -11.372349      -309.4573
  11   2.0000     -11.367161      -309.3162
  12   2.0000     -11.365273      -309.2648
  13   2.0000     -11.358825      -309.0893
  14   2.0000      -1.662688       -45.2440
  15   2.0000      -1.337339       -36.3908
  16   2.0000      -1.300363       -35.3847
  17   2.0000      -1.233957       -33.5777
  18   2.0000      -1.189867       -32.3779
  19   2.0000      -1.164822       -31.6964
  20   2.0000      -1.160462       -31.5778
  21   2.0000      -1.090508       -29.6742
  22   2.0000      -1.012318       -27.5466
  23   2.0000      -1.000675       -27.2298
  24   2.0000      -0.977366       -26.5955
  25   2.0000      -0.955396       -25.9976
  26   2.0000      -0.900975       -24.5168
  27   2.0000      -0.895119       -24.3574
  28   2.0000      -0.837260       -22.7830
  29   2.0000      -0.825486       -22.4626
  30   2.0000      -0.818934       -22.2843
  31   2.0000      -0.792234       -21.5578
  32   2.0000      -0.780754       -21.2454
  33   2.0000      -0.757926       -20.6242
  34   2.0000      -0.755693       -20.5635
  35   2.0000      -0.747421       -20.3384
  36   2.0000      -0.727707       -19.8019
  37   2.0000      -0.719522       -19.5792
  38   2.0000      -0.674831       -18.3631
  39   2.0000      -0.672120       -18.2893
  40   2.0000      -0.658322       -17.9139
  41   2.0000      -0.648682       -17.6515
  42   2.0000      -0.641356       -17.4522
  43   2.0000      -0.634727       -17.2718
  44   2.0000      -0.521724       -14.1968
  45   2.0000      -0.503261       -13.6944
  46   2.0000      -0.475732       -12.9453
  47   2.0000      -0.471642       -12.8340
  48   0.0000      -0.140117        -3.8128
  49   0.0000      -0.071188        -1.9371
  50   0.0000      -0.058913        -1.6031
  51   0.0000      -0.055069        -1.4985
  52   0.0000      -0.052911        -1.4398

MULLIKEN ATOMIC CHARGES
-----------------------
   0 C :    0.732132
   1 C :   -0.033359
   2 C :   -0.277402
   3 C :   -0.226004
   4 C :   -0.344718
   5 H :    0.291458
   6 C :   -0.325585
   7 H :    0.359696
   8 C :   -0.340021
   9 H :    0.293138
  10 H :    0.321994
  11 O :   -0.871839
  12 H :    0.334392
  13 C :    0.963853
  14 C :   -0.512792
  15 C :   -0.479155
  16 C :   -0.302195
  17 H :    0.302872
  18 C :   -0.325588
  19 H :    0.369492
  20 C :   -0.347795
  21 H :    0.282817
  22 H :    0.268582
  23 H :    0.362910
  24 H :    0.503115
Sum of atomic charges:    1.0000000

LOEWDIN ATOMIC CHARGES
----------------------
   0 C :    0.053843
   1 C :   -0.070669
   2 C :    0.369509
   3 C :    0.375727
   4 C :    0.405539
   5 H :   -0.291394
   6 C :    0.406875
   7 H :   -0.297567
   8 C :    0.403557
   9 H :   -0.303285
  10 H :   -0.302476
  11 O :    0.937483
  12 H :   -0.283261
  13 C :   -0.387523
  14 C :    0.338444
  15 C :    0.349886
  16 C :    0.368441
  17 H :   -0.309154
  18 C :    0.366470
  19 H :   -0.305132
  20 C :    0.371057
  21 H :   -0.303573
  22 H :   -0.303428
  23 H :   -0.305718
  24 H :   -0.283651

  Mayer bond orders larger than 0.100000
B(  0-C ,  1-C ) :   0.7182 B(  0-C ,  2-C ) :  -0.4954 B(  0-C ,  3-C ) :  -0.4556
B(  0-C , 11-O ) :   1.1807 B(  0-C , 24-H ) :   0.8077 B(  1-C ,  2-C ) :   0.9048
B(  1-C ,  3-C ) :   1.0799 B(  1-C ,  4-C ) :  -0.4495 B(  1-C ,  5-H ) :  -0.1111
B(  1-C ,  6-C ) :  -0.4029 B(  1-C , 11-O ) :   0.1742 B(  1-C , 24-H ) :  -0.1955
B(  2-C ,  3-C ) :   0.1678 B(  2-C ,  4-C ) :   1.2425 B(  2-C ,  5-H ) :   0.9674
B(  2-C ,  6-C ) :   0.1084 B(  2-C ,  8-C ) :   0.1289 B(  2-C ,  9-H ) :  -0.1445
B(  3-C ,  6-C ) :   1.2496 B(  3-C ,  7-H ) :   0.8590 B(  3-C , 10-H ) :  -0.1199
B(  4-C ,  8-C ) :   1.1780 B(  4-C ,  9-H ) :   1.1127 B(  6-C ,  8-C ) :   1.1512
B(  6-C , 10-H ) :   1.0567 B(  8-C , 12-H ) :   0.9999 B( 11-O , 13-C ) :   0.3971
B( 11-O , 14-C ) :   0.1614 B( 13-C , 14-C ) :   1.1469 B( 13-C , 15-C ) :   1.0796
B( 13-C , 16-C ) :  -0.3279 B( 13-C , 18-C ) :  -0.4104 B( 14-C , 16-C ) :   1.2607
B( 14-C , 17-H ) :   0.9516 B( 14-C , 18-C ) :   0.1055 B( 14-C , 21-H ) :  -0.1278
B( 15-C , 16-C ) :   0.1383 B( 15-C , 18-C ) :   1.3919 B( 15-C , 19-H ) :   0.8652
B( 15-C , 22-H ) :  -0.1342 B( 16-C , 20-C ) :   1.1887 B( 16-C , 21-H ) :   1.0856
B( 18-C , 20-C ) :   1.1541 B( 18-C , 22-H ) :   1.1193 B( 20-C , 23-H ) :   0.9616

MP2 TOTAL ENERGY:     -575.941736451 Eh
FINAL SINGLE POINT ENERGY      -575.941736450984

DIPOLE MOMENT
-------------
                                X             Y             Z
Electronic contribution:      1.09545      -0.88717       0.12836
Nuclear contribution   :      0.20241       1.38608      -0.36522
                        -----------------------------------------
Total Dipole Moment    :      1.29786       0.49891      -0.23686
                        -----------------------------------------
Magnitude (a.u.)       :      1.41048
Magnitude (Debye)      :      3.58516

Rotational constants in cm-1:     0.089311     0.009482     0.008900
Rotational constants in MHz :  2677.476074   284.274726   266.829364

                             ****ORCA TERMINATED NORMALLY****
TOTAL RUN TIME: 0 days 2 hours 0 minutes 48 seconds 864 msec
