                         Program Version 4.2.1 -  RELEASE  -
|  1> %pal
|  2>  nprocs 32
|  3> end
|  4> !RI-MP2 aug-cc-pVQZ aug-cc-pVQZ/C TightSCF
|  5> %maxcore 4500
|  6> *xyzfile 0 2  04_42R.xyz
|  7>
|  8>
|  9>                          ****END OF INPUT****

CARTESIAN COORDINATES (ANGSTROEM)
---------------------------------
  N      1.371440    0.089016   -0.085823
  S      0.652350    1.600634    0.057605
  O     -0.788271    1.275184   -0.496546
  C     -1.658618    0.404434    0.287595
  C     -2.962999    0.299927   -0.462581
  H     -1.783248    0.851389    1.274505
  H     -1.164310   -0.564141    0.384208
  C     -3.953956   -0.601119    0.268119
  H     -2.765840   -0.091542   -1.464153
  H     -3.382959    1.301817   -0.585842
  C     -5.285557   -0.729885   -0.464510
  C      2.794754    0.137428    0.060434
  H      3.080847    0.566216    1.029681
  C      3.366135   -1.260337   -0.032359
  F      2.886076   -2.059541    0.927163
  F      4.701170   -1.211565    0.105212
  F      3.096840   -1.830383   -1.211634
  O      1.253303    2.518208   -0.870005
  O      0.597310    1.879083    1.474380
  C     -6.275871   -1.628954    0.265774
  H     -5.105371   -1.121190   -1.471158
  H     -5.720524    0.266180   -0.597184
  H     -5.876881   -2.639760    0.384187
  H     -7.219728   -1.706178   -0.277240
  H     -6.497289   -1.241923    1.263834
  H      3.250146    0.758211   -0.721016
  H     -4.133880   -0.209791    1.275976
  H     -3.517486   -1.597908    0.399162

 Total Charge           Charge          ....    0
 Multiplicity           Mult            ....    2
 Number of Electrons    NEL             ....  129
 Basis Dimension        Dim             .... 1802

ORBITAL ENERGIES
----------------
                 SPIN UP ORBITALS
  NO   OCC          E(Eh)            E(eV)
   0   1.0000     -92.249353     -2510.2325
   1   1.0000     -26.349171      -716.9974
   2   1.0000     -26.348359      -716.9753
   3   1.0000     -26.348328      -716.9745
   4   1.0000     -20.638045      -561.5898
   5   1.0000     -20.582937      -560.0902
   6   1.0000     -20.581662      -560.0555
   7   1.0000     -15.673947      -426.5098
   8   1.0000     -11.521813      -313.5245
   9   1.0000     -11.323914      -308.1394
  10   1.0000     -11.315336      -307.9059
  11   1.0000     -11.242251      -305.9172
  12   1.0000     -11.236397      -305.7579
  13   1.0000     -11.230340      -305.5931
  14   1.0000     -11.220441      -305.3237
  15   1.0000      -9.210056      -250.6184
  16   1.0000      -6.896623      -187.6667
  17   1.0000      -6.895660      -187.6404
  18   1.0000      -6.894865      -187.6188
  19   1.0000      -1.743053       -47.4309
  20   1.0000      -1.647418       -44.8285
  21   1.0000      -1.647231       -44.8234
  22   1.0000      -1.536289       -41.8046
  23   1.0000      -1.413542       -38.4644
  24   1.0000      -1.381756       -37.5995
  25   1.0000      -1.301028       -35.4028
  26   1.0000      -1.109893       -30.2017
  27   1.0000      -1.070082       -29.1184
  28   1.0000      -1.043368       -28.3915
  29   1.0000      -0.959231       -26.1020
  30   1.0000      -0.936965       -25.4961
  31   1.0000      -0.867530       -23.6067
  32   1.0000      -0.849221       -23.1085
  33   1.0000      -0.840582       -22.8734
  34   1.0000      -0.833487       -22.6803
  35   1.0000      -0.809246       -22.0207
  36   1.0000      -0.799154       -21.7461
  37   1.0000      -0.763314       -20.7708
  38   1.0000      -0.742384       -20.2013
  39   1.0000      -0.733959       -19.9720
  40   1.0000      -0.720473       -19.6051
  41   1.0000      -0.713077       -19.4038
  42   1.0000      -0.697581       -18.9821
  43   1.0000      -0.685479       -18.6528
  44   1.0000      -0.675165       -18.3722
  45   1.0000      -0.669356       -18.2141
  46   1.0000      -0.661923       -18.0118
  47   1.0000      -0.647669       -17.6240
  48   1.0000      -0.629600       -17.1323
  49   1.0000      -0.611350       -16.6357
  50   1.0000      -0.597755       -16.2657
  51   1.0000      -0.589354       -16.0371
  52   1.0000      -0.585629       -15.9358
  53   1.0000      -0.572682       -15.5835
  54   1.0000      -0.556019       -15.1300
  55   1.0000      -0.549737       -14.9591
  56   1.0000      -0.529708       -14.4141
  57   1.0000      -0.526316       -14.3218
  58   1.0000      -0.514897       -14.0111
  59   1.0000      -0.501697       -13.6519
  60   1.0000      -0.500121       -13.6090
  61   1.0000      -0.495123       -13.4730
  62   1.0000      -0.488277       -13.2867
  63   1.0000      -0.480644       -13.0790
  64   1.0000      -0.475964       -12.9516
  65   0.0000       0.021193         0.5767
  66   0.0000       0.029442         0.8012
  67   0.0000       0.030843         0.8393
  68   0.0000       0.031944         0.8692
  69   0.0000       0.037819         1.0291

                 SPIN DOWN ORBITALS
  NO   OCC          E(Eh)            E(eV)
   0   1.0000     -92.249968     -2510.2492
   1   1.0000     -26.349261      -716.9998
   2   1.0000     -26.348363      -716.9754
   3   1.0000     -26.348332      -716.9746
   4   1.0000     -20.638317      -561.5972
   5   1.0000     -20.580683      -560.0289
   6   1.0000     -20.580646      -560.0279
   7   1.0000     -15.641896      -425.6376
   8   1.0000     -11.521738      -313.5224
   9   1.0000     -11.326548      -308.2110
  10   1.0000     -11.315340      -307.9061
  11   1.0000     -11.242247      -305.9171
  12   1.0000     -11.236399      -305.7580
  13   1.0000     -11.230340      -305.5931
  14   1.0000     -11.220441      -305.3237
  15   1.0000      -9.210906      -250.6415
  16   1.0000      -6.897734      -187.6969
  17   1.0000      -6.896794      -187.6713
  18   1.0000      -6.895629      -187.6396
  19   1.0000      -1.743117       -47.4326
  20   1.0000      -1.647482       -44.8303
  21   1.0000      -1.647369       -44.8272
  22   1.0000      -1.532422       -41.6993
  23   1.0000      -1.412262       -38.4296
  24   1.0000      -1.377197       -37.4754
  25   1.0000      -1.222533       -33.2668
  26   1.0000      -1.109841       -30.2003
  27   1.0000      -1.057788       -28.7839
  28   1.0000      -1.038717       -28.2649
  29   1.0000      -0.958478       -26.0815
  30   1.0000      -0.933377       -25.3985
  31   1.0000      -0.862434       -23.4680
  32   1.0000      -0.846594       -23.0370
  33   1.0000      -0.839515       -22.8444
  34   1.0000      -0.832018       -22.6404
  35   1.0000      -0.808919       -22.0118
  36   1.0000      -0.788602       -21.4589
  37   1.0000      -0.753784       -20.5115
  38   1.0000      -0.734770       -19.9941
  39   1.0000      -0.725836       -19.7510
  40   1.0000      -0.718491       -19.5511
  41   1.0000      -0.700212       -19.0537
  42   1.0000      -0.687605       -18.7107
  43   1.0000      -0.681138       -18.5347
  44   1.0000      -0.674031       -18.3413
  45   1.0000      -0.661909       -18.0115
  46   1.0000      -0.646947       -17.6043
  47   1.0000      -0.635428       -17.2909
  48   1.0000      -0.625537       -17.0217
  49   1.0000      -0.605848       -16.4860
  50   1.0000      -0.597404       -16.2562
  51   1.0000      -0.584766       -15.9123
  52   1.0000      -0.573751       -15.6126
  53   1.0000      -0.564679       -15.3657
  54   1.0000      -0.551193       -14.9987
  55   1.0000      -0.530914       -14.4469
  56   1.0000      -0.526743       -14.3334
  57   1.0000      -0.522664       -14.2224
  58   1.0000      -0.504676       -13.7329
  59   1.0000      -0.498300       -13.5594
  60   1.0000      -0.488519       -13.2933
  61   1.0000      -0.480897       -13.0859
  62   1.0000      -0.479714       -13.0537
  63   1.0000      -0.470324       -12.7982
  64   0.0000       0.021197         0.5768
  65   0.0000       0.028033         0.7628
  66   0.0000       0.030193         0.8216
  67   0.0000       0.031627         0.8606
  68   0.0000       0.033182         0.9029

MULLIKEN ATOMIC CHARGES AND SPIN POPULATIONS
--------------------------------------------
   0 N :   -0.632351    1.047887
   1 S :    3.045022   -0.096033
   2 O :   -1.036138   -0.008121
   3 C :    0.271630   -0.000363
   4 C :   -0.565217    0.000746
   5 H :    0.289005   -0.002381
   6 H :    0.257600    0.008164
   7 C :   -0.255929    0.000951
   8 H :    0.274125   -0.000206
   9 H :    0.308357    0.000229
  10 C :   -0.494639   -0.000025
  11 C :   -0.489570   -0.130214
  12 H :    0.374609    0.058931
  13 C :    1.997415    0.005821
  14 F :   -0.648743   -0.000999
  15 F :   -0.661920   -0.001402
  16 F :   -0.655871   -0.000723
  17 O :   -1.248420    0.017014
  18 O :   -1.198119    0.043215
  19 C :   -0.912808   -0.000001
  20 H :    0.219918   -0.000003
  21 H :    0.220772   -0.000020
  22 H :    0.223851   -0.000004
  23 H :    0.271668   -0.000002
  24 H :    0.225865    0.000000
  25 H :    0.348469    0.057348
  26 H :    0.242919    0.000097
  27 H :    0.228498    0.000094
Sum of atomic charges         :   -0.0000000

LOEWDIN ATOMIC CHARGES AND SPIN POPULATIONS
-------------------------------------------
   0 N :    0.451865    0.648017
   1 S :   -0.775981    0.109761
   2 O :    0.624513   -0.005705
   3 C :    0.143057   -0.001320
   4 C :    0.501951   -0.000213
   5 H :   -0.311180   -0.000338
   6 H :   -0.311221   -0.000808
   7 C :    0.504677   -0.000037
   8 H :   -0.267055   -0.000038
   9 H :   -0.266676   -0.000058
  10 C :    0.507782   -0.000003
  11 C :    0.062228    0.152237
  12 H :   -0.326319    0.021888
  13 C :   -2.169607    0.005347
  14 F :    0.773024   -0.000083
  15 F :    0.771599   -0.000825
  16 F :    0.773744   -0.000054
  17 O :    0.306595    0.014698
  18 O :    0.326330    0.034894
  19 C :    0.927918   -0.000000
  20 H :   -0.269212   -0.000000
  21 H :   -0.269168    0.000002
  22 H :   -0.282386   -0.000000
  23 H :   -0.281154   -0.000000
  24 H :   -0.282359   -0.000000
  25 H :   -0.336068    0.022654
  26 H :   -0.263280   -0.000005
  27 H :   -0.263618   -0.000010

  Mayer bond orders larger than 0.100000
B(  0-N ,  1-S ) :   0.7906 B(  0-N ,  2-O ) :  -0.1184 B(  0-N ,  3-C ) :  -0.1377
B(  0-N , 11-C ) :   0.8613 B(  1-S ,  2-O ) :   0.6639 B(  1-S , 17-O ) :   0.9090
B(  1-S , 18-O ) :   1.1919 B(  2-O ,  3-C ) :   0.5401 B(  2-O ,  4-C ) :   0.1559
B(  3-C ,  4-C ) :   1.3323 B(  3-C ,  5-H ) :   0.8717 B(  3-C ,  6-H ) :   0.8500
B(  3-C ,  7-C ) :  -0.1292 B(  3-C , 18-O ) :  -0.1405 B(  4-C ,  7-C ) :   1.0045
B(  4-C ,  8-H ) :   0.8398 B(  4-C ,  9-H ) :   0.7843 B(  7-C , 10-C ) :   1.0028
B(  7-C , 19-C ) :  -0.1342 B(  7-C , 26-H ) :   0.8397 B(  7-C , 27-H ) :   0.8692
B( 10-C , 19-C ) :   1.0501 B( 10-C , 20-H ) :   0.8865 B( 10-C , 21-H ) :   0.8872
B( 11-C , 12-H ) :   0.8161 B( 11-C , 13-C ) :   1.0913 B( 11-C , 16-F ) :   0.1294
B( 11-C , 25-H ) :   0.8060 B( 13-C , 14-F ) :   0.4077 B( 13-C , 15-F ) :   0.4022
B( 13-C , 16-F ) :   0.3781 B( 19-C , 22-H ) :   0.9527 B( 19-C , 23-H ) :   1.0193
B( 19-C , 24-H ) :   0.9521

MP2 TOTAL ENERGY:    -1251.140857383 Eh
FINAL SINGLE POINT ENERGY     -1251.140857382653

DIPOLE MOMENT
-------------
                                X             Y             Z
Electronic contribution:     49.13017      -0.27283      -0.94150
Nuclear contribution   :    -50.14811      -0.34148       1.04566
                        -----------------------------------------
Total Dipole Moment    :     -1.01794      -0.61430       0.10416
                        -----------------------------------------
Magnitude (a.u.)       :      1.19349
Magnitude (Debye)      :      3.03361

Rotational constants in cm-1:     0.026511     0.006545     0.005656
Rotational constants in MHz :   794.783659   196.206335   169.549499

                             ****ORCA TERMINATED NORMALLY****
TOTAL RUN TIME: 0 days 3 hours 24 minutes 45 seconds 438 msec
