                         Program Version 4.2.1 -  RELEASE  -
|  1> %pal
|  2>  nprocs 32
|  3> end
|  4> !RI-MP2 aug-cc-pVQZ aug-cc-pVQZ/C TightSCF
|  5> %maxcore 4500
|  6> *xyzfile 0 2  06_20P.xyz
|  7>
|  8>
|  9>                          ****END OF INPUT****

CARTESIAN COORDINATES (ANGSTROEM)
---------------------------------
  C      0.579734   -0.259093   -2.122271
  C      1.886670    0.377812   -2.345393
  Si    -0.033037   -0.010184   -0.283218
  F      2.955712   -0.252919   -1.783635
  Si    -0.497523    2.268983    0.073911
  Si     1.562858   -0.733585    1.287586
  Si    -2.035156   -1.213587    0.010550
  C     -2.090338    2.763451   -0.807775
  H     -2.282117    3.833013   -0.682717
  H     -2.035436    2.561377   -1.880441
  H     -2.954155    2.224263   -0.413127
  C     -0.705348    2.590239    1.919694
  H     -0.993152    3.631217    2.092378
  H     -1.475907    1.954758    2.360343
  H      0.224921    2.411320    2.463380
  C      0.885447    3.382607   -0.562058
  H      0.703601    4.416422   -0.253921
  H      1.861108    3.085108   -0.172294
  H      0.941216    3.373696   -1.652950
  C      0.697041   -0.931050    2.953113
  H     -0.065492   -1.712501    2.921902
  H      1.422058   -1.210056    3.723186
  H      0.213664   -0.005837    3.273670
  C      2.313288   -2.390524    0.804380
  H      2.891767   -2.300859   -0.116725
  H      2.986104   -2.745035    1.590727
  H      1.546207   -3.153478    0.653809
  C      2.941981    0.533668    1.482158
  H      3.469694    0.684673    0.538797
  H      2.558368    1.499938    1.817725
  H      3.670839    0.192490    2.223073
  C     -1.701161   -3.050332    0.275536
  H     -1.105778   -3.219786    1.175563
  H     -2.641923   -3.595737    0.394100
  H     -1.162893   -3.493753   -0.564434
  C     -2.963527   -0.566755    1.518967
  H     -3.869899   -1.156152    1.684891
  H     -2.356556   -0.629857    2.424474
  H     -3.266779    0.474629    1.392078
  C     -3.142320   -1.004056   -1.501834
  H     -4.081614   -1.548032   -1.366783
  H     -3.388309    0.046570   -1.670783
  H     -2.670103   -1.383508   -2.410680
  C      0.575941   -1.734567   -2.548901
  H     -0.424091   -2.162140   -2.475621
  H      0.912428   -1.838171   -3.583474
  H      1.239848   -2.330198   -1.922071
  H     -0.138076    0.294029   -2.737836
  H      2.044607    1.446678   -2.410818

 Total Charge           Charge          ....    0
 Multiplicity           Mult            ....    2
 Number of Electrons    NEL             ....  169
 Basis Dimension        Dim             .... 2848

ORBITAL ENERGIES
----------------
                 SPIN UP ORBITALS
  NO   OCC          E(Eh)            E(eV)
   0   1.0000     -68.746170     -1870.6784
   1   1.0000     -68.745793     -1870.6681
   2   1.0000     -68.741645     -1870.5552
   3   1.0000     -68.729123     -1870.2145
   4   1.0000     -26.292213      -715.4475
   5   1.0000     -11.307968      -307.7055
   6   1.0000     -11.227086      -305.5045
   7   1.0000     -11.220044      -305.3129
   8   1.0000     -11.199114      -304.7434
   9   1.0000     -11.198740      -304.7332
  10   1.0000     -11.197653      -304.7036
  11   1.0000     -11.197468      -304.6986
  12   1.0000     -11.197351      -304.6954
  13   1.0000     -11.196936      -304.6841
  14   1.0000     -11.193993      -304.6040
  15   1.0000     -11.190241      -304.5019
  16   1.0000     -11.189768      -304.4891
  17   1.0000      -6.095602      -165.8698
  18   1.0000      -6.095257      -165.8604
  19   1.0000      -6.090977      -165.7439
  20   1.0000      -6.082217      -165.5055
  21   1.0000      -4.201973      -114.3415
  22   1.0000      -4.201816      -114.3372
  23   1.0000      -4.201790      -114.3365
  24   1.0000      -4.201760      -114.3357
  25   1.0000      -4.201362      -114.3249
  26   1.0000      -4.201321      -114.3238
  27   1.0000      -4.197435      -114.2180
  28   1.0000      -4.197163      -114.2106
  29   1.0000      -4.197060      -114.2078
  30   1.0000      -4.188524      -113.9755
  31   1.0000      -4.187686      -113.9527
  32   1.0000      -4.187583      -113.9499
  33   1.0000      -1.611183       -43.8425
  34   1.0000      -1.068503       -29.0754
  35   1.0000      -0.970814       -26.4172
  36   1.0000      -0.965187       -26.2641
  37   1.0000      -0.960324       -26.1317
  38   1.0000      -0.939864       -25.5750
  39   1.0000      -0.926308       -25.2061
  40   1.0000      -0.925383       -25.1810
  41   1.0000      -0.922869       -25.1126
  42   1.0000      -0.921755       -25.0822
  43   1.0000      -0.918259       -24.9871
  44   1.0000      -0.916209       -24.9313
  45   1.0000      -0.817319       -22.2404
  46   1.0000      -0.724404       -19.7120
  47   1.0000      -0.713703       -19.4209
  48   1.0000      -0.699758       -19.0414
  49   1.0000      -0.653921       -17.7941
  50   1.0000      -0.626334       -17.0434
  51   1.0000      -0.622448       -16.9377
  52   1.0000      -0.600856       -16.3501
  53   1.0000      -0.589848       -16.0506
  54   1.0000      -0.583435       -15.8761
  55   1.0000      -0.575825       -15.6690
  56   1.0000      -0.575552       -15.6616
  57   1.0000      -0.567150       -15.4329
  58   1.0000      -0.563328       -15.3289
  59   1.0000      -0.559618       -15.2280
  60   1.0000      -0.555407       -15.1134
  61   1.0000      -0.554338       -15.0843
  62   1.0000      -0.551717       -15.0130
  63   1.0000      -0.542488       -14.7618
  64   1.0000      -0.541557       -14.7365
  65   1.0000      -0.538586       -14.6557
  66   1.0000      -0.536832       -14.6079
  67   1.0000      -0.534786       -14.5523
  68   1.0000      -0.532420       -14.4879
  69   1.0000      -0.530757       -14.4426
  70   1.0000      -0.529453       -14.4071
  71   1.0000      -0.528694       -14.3865
  72   1.0000      -0.525036       -14.2870
  73   1.0000      -0.508105       -13.8262
  74   1.0000      -0.504851       -13.7377
  75   1.0000      -0.448501       -12.2043
  76   1.0000      -0.434960       -11.8359
  77   1.0000      -0.431810       -11.7501
  78   1.0000      -0.429543       -11.6885
  79   1.0000      -0.428522       -11.6607
  80   1.0000      -0.423564       -11.5258
  81   1.0000      -0.423141       -11.5143
  82   1.0000      -0.343010        -9.3338
  83   1.0000      -0.338411        -9.2086
  84   1.0000      -0.318765        -8.6740
  85   0.0000       0.019008         0.5172
  86   0.0000       0.024280         0.6607
  87   0.0000       0.025062         0.6820
  88   0.0000       0.027005         0.7348
  89   0.0000       0.035347         0.9618

                 SPIN DOWN ORBITALS
  NO   OCC          E(Eh)            E(eV)
   0   1.0000     -68.746199     -1870.6792
   1   1.0000     -68.745668     -1870.6647
   2   1.0000     -68.741671     -1870.5560
   3   1.0000     -68.728400     -1870.1948
   4   1.0000     -26.288245      -715.3395
   5   1.0000     -11.282244      -307.0055
   6   1.0000     -11.229695      -305.5755
   7   1.0000     -11.218907      -305.2820
   8   1.0000     -11.199115      -304.7434
   9   1.0000     -11.198727      -304.7329
  10   1.0000     -11.197695      -304.7048
  11   1.0000     -11.197354      -304.6955
  12   1.0000     -11.197326      -304.6947
  13   1.0000     -11.196941      -304.6843
  14   1.0000     -11.193969      -304.6034
  15   1.0000     -11.190254      -304.5023
  16   1.0000     -11.189765      -304.4890
  17   1.0000      -6.095648      -165.8710
  18   1.0000      -6.095060      -165.8550
  19   1.0000      -6.091018      -165.7450
  20   1.0000      -6.081081      -165.4746
  21   1.0000      -4.202077      -114.3443
  22   1.0000      -4.201808      -114.3370
  23   1.0000      -4.201781      -114.3363
  24   1.0000      -4.201375      -114.3252
  25   1.0000      -4.201273      -114.3224
  26   1.0000      -4.201226      -114.3212
  27   1.0000      -4.197523      -114.2204
  28   1.0000      -4.197185      -114.2112
  29   1.0000      -4.197077      -114.2083
  30   1.0000      -4.187264      -113.9412
  31   1.0000      -4.187053      -113.9355
  32   1.0000      -4.185881      -113.9036
  33   1.0000      -1.598863       -43.5073
  34   1.0000      -1.051480       -28.6122
  35   1.0000      -0.970580       -26.4108
  36   1.0000      -0.964770       -26.2527
  37   1.0000      -0.960240       -26.1295
  38   1.0000      -0.926254       -25.2046
  39   1.0000      -0.925528       -25.1849
  40   1.0000      -0.923092       -25.1186
  41   1.0000      -0.922312       -25.0974
  42   1.0000      -0.918444       -24.9921
  43   1.0000      -0.916515       -24.9396
  44   1.0000      -0.906670       -24.6717
  45   1.0000      -0.800235       -21.7755
  46   1.0000      -0.713904       -19.4263
  47   1.0000      -0.704829       -19.1794
  48   1.0000      -0.656422       -17.8621
  49   1.0000      -0.639469       -17.4008
  50   1.0000      -0.625586       -17.0231
  51   1.0000      -0.621737       -16.9183
  52   1.0000      -0.597075       -16.2472
  53   1.0000      -0.588674       -16.0186
  54   1.0000      -0.581811       -15.8319
  55   1.0000      -0.575650       -15.6642
  56   1.0000      -0.575073       -15.6485
  57   1.0000      -0.566753       -15.4221
  58   1.0000      -0.562615       -15.3095
  59   1.0000      -0.558865       -15.2075
  60   1.0000      -0.555142       -15.1062
  61   1.0000      -0.554022       -15.0757
  62   1.0000      -0.550980       -14.9929
  63   1.0000      -0.542320       -14.7573
  64   1.0000      -0.541338       -14.7305
  65   1.0000      -0.538261       -14.6468
  66   1.0000      -0.536595       -14.6015
  67   1.0000      -0.534650       -14.5486
  68   1.0000      -0.532170       -14.4811
  69   1.0000      -0.530642       -14.4395
  70   1.0000      -0.529065       -14.3966
  71   1.0000      -0.525213       -14.2918
  72   1.0000      -0.523679       -14.2500
  73   1.0000      -0.504375       -13.7248
  74   1.0000      -0.498451       -13.5635
  75   1.0000      -0.438331       -11.9276
  76   1.0000      -0.434847       -11.8328
  77   1.0000      -0.431558       -11.7433
  78   1.0000      -0.428616       -11.6632
  79   1.0000      -0.424665       -11.5557
  80   1.0000      -0.423549       -11.5253
  81   1.0000      -0.394660       -10.7392
  82   1.0000      -0.339163        -9.2291
  83   1.0000      -0.337748        -9.1906
  84   0.0000       0.019000         0.5170
  85   0.0000       0.024294         0.6611
  86   0.0000       0.024928         0.6783
  87   0.0000       0.026791         0.7290
  88   0.0000       0.035344         0.9618

MULLIKEN ATOMIC CHARGES AND SPIN POPULATIONS
--------------------------------------------
   0 C :   -0.222523   -0.422089
   1 C :    0.033689    1.348922
   2 Si:    0.506088    0.072460
   3 F :   -0.788784    0.023422
   4 Si:    1.319722    0.016117
   5 Si:    1.042472    0.005269
   6 Si:    1.526519    0.019001
   7 C :   -1.154430   -0.001196
   8 H :    0.202535   -0.000307
   9 H :    0.328709   -0.000193
  10 H :    0.320333   -0.000327
  11 C :   -1.209203   -0.001768
  12 H :    0.176081   -0.000111
  13 H :    0.307581    0.000002
  14 H :    0.293045    0.001031
  15 C :   -1.195114   -0.003287
  16 H :    0.181204   -0.000229
  17 H :    0.433594   -0.006461
  18 H :    0.283374    0.000681
  19 C :   -1.263760    0.000491
  20 H :    0.314047   -0.000228
  21 H :    0.180783   -0.000171
  22 H :    0.311031    0.000303
  23 C :   -1.134152    0.001086
  24 H :    0.321546   -0.000792
  25 H :    0.138783   -0.000201
  26 H :    0.354517    0.000443
  27 C :   -1.200426   -0.004003
  28 H :    0.358439   -0.000509
  29 H :    0.327887    0.000594
  30 H :    0.205804   -0.000295
  31 C :   -1.212661   -0.001355
  32 H :    0.292182   -0.000060
  33 H :    0.209133    0.000175
  34 H :    0.287627   -0.000744
  35 C :   -1.189711    0.010269
  36 H :    0.170006    0.000042
  37 H :    0.316921   -0.000467
  38 H :    0.316546    0.000543
  39 C :   -1.233621   -0.004038
  40 H :    0.271002   -0.000239
  41 H :    0.325212   -0.000310
  42 H :    0.270520   -0.000889
  43 C :   -1.339461    0.066309
  44 H :    0.271284    0.010751
  45 H :    0.161002    0.010135
  46 H :    0.320804   -0.002529
  47 H :    0.253507   -0.024280
  48 H :    0.210315   -0.110968
Sum of atomic charges         :   -0.0000000

LOEWDIN ATOMIC CHARGES AND SPIN POPULATIONS
-------------------------------------------
   0 C :    0.036739    0.128060
   1 C :   -0.182337    0.487381
   2 Si:    0.332560    0.034174
   3 F :    0.763840    0.129962
   4 Si:    0.153348    0.004112
   5 Si:    0.146318    0.003101
   6 Si:    0.145506    0.012370
   7 C :    0.961895   -0.000139
   8 H :   -0.328800   -0.000040
   9 H :   -0.334736    0.000020
  10 H :   -0.357105   -0.000006
  11 C :    0.961462   -0.000101
  12 H :   -0.325229   -0.000043
  13 H :   -0.355410    0.000071
  14 H :   -0.349293    0.000005
  15 C :    0.961109    0.001096
  16 H :   -0.329390    0.000131
  17 H :   -0.347486    0.001070
  18 H :   -0.350427    0.000309
  19 C :    0.959514    0.000718
  20 H :   -0.352360    0.000203
  21 H :   -0.325189    0.000153
  22 H :   -0.353945    0.000186
  23 C :    0.965026   -0.000087
  24 H :   -0.361399    0.000020
  25 H :   -0.328522   -0.000030
  26 H :   -0.345755   -0.000021
  27 C :    0.961651   -0.000272
  28 H :   -0.361651    0.000012
  29 H :   -0.353191   -0.000008
  30 H :   -0.328227   -0.000075
  31 C :    0.966990    0.001146
  32 H :   -0.350752    0.000188
  33 H :   -0.327361    0.000126
  34 H :   -0.347054   -0.000035
  35 C :    0.962393    0.004690
  36 H :   -0.324635    0.001071
  37 H :   -0.350382    0.000790
  38 H :   -0.352946    0.000586
  39 C :    0.969555   -0.000361
  40 H :   -0.328368   -0.000176
  41 H :   -0.351767   -0.000106
  42 H :   -0.345763   -0.000212
  43 C :    0.854016    0.018685
  44 H :   -0.323833    0.002168
  45 H :   -0.261893    0.009694
  46 H :   -0.309414    0.001845
  47 H :   -0.361637    0.013242
  48 H :   -0.395666    0.144326

  Mayer bond orders larger than 0.100000
B(  0-C ,  1-C ) :   0.2467 B(  0-C ,  2-Si) :   0.6611 B(  0-C ,  3-F ) :  -0.1432
B(  0-C ,  4-Si) :   0.2796 B(  0-C , 43-C ) :   0.4187 B(  0-C , 44-H ) :  -0.2156
B(  0-C , 45-H ) :  -0.1562 B(  0-C , 46-H ) :  -0.1017 B(  0-C , 47-H ) :   1.0688
B(  0-C , 48-H ) :  -0.1573 B(  1-C ,  2-Si) :  -0.4439 B(  1-C ,  3-F ) :   0.4156
B(  1-C , 43-C ) :   0.2068 B(  1-C , 47-H ) :  -0.2943 B(  1-C , 48-H ) :   1.2298
B(  2-Si,  4-Si) :   0.6198 B(  2-Si,  5-Si) :   0.6516 B(  2-Si,  6-Si) :   0.4613
B(  2-Si,  7-C ) :  -0.1460 B(  2-Si, 11-C ) :   0.1066 B(  2-Si, 23-C ) :  -0.1047
B(  2-Si, 31-C ) :  -0.1160 B(  2-Si, 39-C ) :   0.1094 B(  2-Si, 47-H ) :  -0.1379
B(  2-Si, 48-H ) :  -0.1645 B(  4-Si,  7-C ) :   1.1257 B(  4-Si, 11-C ) :   0.5173
B(  4-Si, 15-C ) :   1.0022 B(  5-Si,  6-Si) :   0.1360 B(  5-Si, 19-C ) :   0.7965
B(  5-Si, 23-C ) :   1.0155 B(  5-Si, 24-H ) :  -0.1120 B(  5-Si, 27-C ) :   0.9892
B(  5-Si, 28-H ) :  -0.1052 B(  6-Si, 31-C ) :   1.0101 B(  6-Si, 35-C ) :   0.7833
B(  6-Si, 39-C ) :   0.7563 B(  6-Si, 41-H ) :  -0.1077 B(  6-Si, 43-C ) :  -0.1292
B(  7-C ,  8-H ) :   1.0557 B(  7-C ,  9-H ) :   0.9225 B(  7-C , 10-H ) :   0.8797
B( 11-C , 12-H ) :   1.1349 B( 11-C , 13-H ) :   0.8759 B( 11-C , 14-H ) :   0.8953
B( 15-C , 16-H ) :   1.0744 B( 15-C , 17-H ) :   0.7729 B( 15-C , 18-H ) :   0.9836
B( 19-C , 20-H ) :   0.8704 B( 19-C , 21-H ) :   1.1186 B( 19-C , 22-H ) :   0.8701
B( 23-C , 24-H ) :   0.9166 B( 23-C , 25-H ) :   1.1042 B( 23-C , 26-H ) :   0.8530
B( 27-C , 28-H ) :   0.8760 B( 27-C , 29-H ) :   0.8571 B( 27-C , 30-H ) :   1.0743
B( 31-C , 32-H ) :   0.8940 B( 31-C , 33-H ) :   1.0619 B( 31-C , 34-H ) :   0.9070
B( 35-C , 36-H ) :   1.1310 B( 35-C , 37-H ) :   0.8588 B( 35-C , 38-H ) :   0.8696
B( 39-C , 40-H ) :   0.9868 B( 39-C , 41-H ) :   0.9017 B( 39-C , 42-H ) :   0.9647
B( 43-C , 44-H ) :   1.0309 B( 43-C , 45-H ) :   1.2181 B( 43-C , 46-H ) :   0.9659

MP2 TOTAL ENERGY:    -1731.665808860 Eh
FINAL SINGLE POINT ENERGY     -1731.665808860441

DIPOLE MOMENT
-------------
                                X             Y             Z
Electronic contribution:     10.83180       0.36752      -8.38980
Nuclear contribution   :    -11.43209      -0.12795       8.36554
                        -----------------------------------------
Total Dipole Moment    :     -0.60029       0.23957      -0.02426
                        -----------------------------------------
Magnitude (a.u.)       :      0.64679
Magnitude (Debye)      :      1.64401

Rotational constants in cm-1:     0.010383     0.009586     0.008374
Rotational constants in MHz :   311.285875   287.371942   251.031486

                             ****ORCA TERMINATED NORMALLY****
TOTAL RUN TIME: 0 days 18 hours 30 minutes 35 seconds 439 msec
