                         Program Version 4.2.1 -  RELEASE  -
|  1> %pal
|  2>  nprocs 32
|  3> end
|  4> !RI-MP2 aug-cc-pVQZ aug-cc-pVQZ/C TightSCF
|  5> %maxcore 4500
|  6> *xyzfile 0 1  02_41R1.xyz
|  7>
|  8>
|  9>                          ****END OF INPUT****

CARTESIAN COORDINATES (ANGSTROEM)
---------------------------------
  C     -0.586851    0.482373    0.008587
  C     -2.031675    0.040354    0.029500
  C      0.386380   -0.455972   -0.096901
  C      1.811071   -0.265894    0.126618
  O      2.506954   -1.335870   -0.320412
  O      2.354719    0.661894    0.684079
  O     -2.944358    0.826465    0.094266
  O     -2.196618   -1.275252   -0.016265
  C     -3.552884   -1.736141    0.002904
  C      3.911360   -1.304970   -0.074359
  H     -4.045330   -1.416728    0.920634
  H     -3.491338   -2.819456   -0.044743
  H     -4.097631   -1.341474   -0.854143
  H      4.301097   -2.235853   -0.478613
  H      4.112789   -1.238048    0.995155
  H      4.370893   -0.450996   -0.572836
  N     -0.500313    1.826366    0.082448
  H     -1.402776    2.274149    0.153324
  C      0.605991    2.634224   -0.390996
  H      0.235399    3.644056   -0.562654
  H      1.428972    2.654544    0.319712
  H      0.988592    2.234848   -1.335446
  H      0.075596   -1.471348   -0.282989

 Total Charge           Charge          ....    0
 Multiplicity           Mult            ....    1
 Number of Electrons    NEL             ....   92
 Basis Dimension        Dim             .... 1466

ORBITAL ENERGIES
----------------

  NO   OCC          E(Eh)            E(eV)
   0   2.0000     -20.619540      -561.0862
   1   2.0000     -20.589509      -560.2690
   2   2.0000     -20.563670      -559.5659
   3   2.0000     -20.526755      -558.5614
   4   2.0000     -15.583392      -424.0457
   5   2.0000     -11.400940      -310.2354
   6   2.0000     -11.370631      -309.4106
   7   2.0000     -11.316610      -307.9406
   8   2.0000     -11.297818      -307.4292
   9   2.0000     -11.275836      -306.8311
  10   2.0000     -11.251828      -306.1778
  11   2.0000     -11.225493      -305.4612
  12   2.0000      -1.487974       -40.4898
  13   2.0000      -1.450408       -39.4676
  14   2.0000      -1.384215       -37.6664
  15   2.0000      -1.346519       -36.6407
  16   2.0000      -1.261888       -34.3377
  17   2.0000      -1.075192       -29.2575
  18   2.0000      -1.004661       -27.3382
  19   2.0000      -0.972754       -26.4700
  20   2.0000      -0.940123       -25.5820
  21   2.0000      -0.859271       -23.3820
  22   2.0000      -0.795108       -21.6360
  23   2.0000      -0.765760       -20.8374
  24   2.0000      -0.752328       -20.4719
  25   2.0000      -0.715634       -19.4734
  26   2.0000      -0.693408       -18.8686
  27   2.0000      -0.680822       -18.5261
  28   2.0000      -0.675305       -18.3760
  29   2.0000      -0.663543       -18.0559
  30   2.0000      -0.642875       -17.4935
  31   2.0000      -0.616724       -16.7819
  32   2.0000      -0.600908       -16.3515
  33   2.0000      -0.585844       -15.9416
  34   2.0000      -0.576882       -15.6978
  35   2.0000      -0.568614       -15.4728
  36   2.0000      -0.555797       -15.1240
  37   2.0000      -0.542918       -14.7736
  38   2.0000      -0.532102       -14.4792
  39   2.0000      -0.521381       -14.1875
  40   2.0000      -0.484484       -13.1835
  41   2.0000      -0.481918       -13.1136
  42   2.0000      -0.466506       -12.6943
  43   2.0000      -0.451888       -12.2965
  44   2.0000      -0.438990       -11.9455
  45   2.0000      -0.327011        -8.8984
  46   0.0000       0.022567         0.6141
  47   0.0000       0.028501         0.7755
  48   0.0000       0.030869         0.8400
  49   0.0000       0.038197         1.0394
  50   0.0000       0.041073         1.1177

MULLIKEN ATOMIC CHARGES
-----------------------
   0 C :   -0.105993
   1 C :    1.573206
   2 C :   -0.713325
   3 C :    1.600381
   4 O :   -0.811966
   5 O :   -0.874695
   6 O :   -0.857036
   7 O :   -0.749840
   8 C :   -0.744864
   9 C :   -0.775915
  10 H :    0.314257
  11 H :    0.429511
  12 H :    0.319483
  13 H :    0.453848
  14 H :    0.324702
  15 H :    0.327206
  16 N :   -0.467904
  17 H :    0.301282
  18 C :   -0.878769
  19 H :    0.424965
  20 H :    0.347165
  21 H :    0.247375
  22 H :    0.316926
Sum of atomic charges:   -0.0000000

LOEWDIN ATOMIC CHARGES
----------------------
   0 C :   -0.246245
   1 C :   -1.061194
   2 C :    0.286326
   3 C :   -1.089590
   4 O :    0.835256
   5 O :    0.740691
   6 O :    0.775177
   7 O :    0.852481
   8 C :    0.600945
   9 C :    0.562224
  10 H :   -0.311224
  11 H :   -0.316181
  12 H :   -0.311156
  13 H :   -0.326008
  14 H :   -0.319176
  15 H :   -0.317504
  16 N :    0.840257
  17 H :   -0.612345
  18 C :    0.791846
  19 H :   -0.284643
  20 H :   -0.377677
  21 H :   -0.285867
  22 H :   -0.426392

  Mayer bond orders larger than 0.100000
B(  0-C ,  1-C ) :   1.4885 B(  0-C ,  2-C ) :   1.0774 B(  0-C ,  3-C ) :  -0.3390
B(  0-C ,  6-O ) :   0.5194 B(  0-C ,  7-O ) :   0.3037 B(  0-C , 16-N ) :   0.7707
B(  1-C ,  2-C ) :  -0.3676 B(  1-C ,  6-O ) :   0.8619 B(  1-C ,  7-O ) :   0.8597
B(  1-C ,  8-C ) :  -0.1156 B(  2-C ,  3-C ) :   1.1604 B(  2-C ,  5-O ) :   0.2294
B(  2-C ,  7-O ) :  -0.2016 B(  2-C , 22-H ) :   0.9074 B(  3-C ,  4-O ) :   0.7521
B(  3-C ,  5-O ) :   1.1582 B(  3-C ,  9-C ) :  -0.1722 B(  4-O ,  5-O ) :   0.1507
B(  4-O ,  9-C ) :   0.9041 B(  6-O ,  7-O ) :   0.1492 B(  7-O ,  8-C ) :   0.8651
B(  8-C , 10-H ) :   0.9125 B(  8-C , 11-H ) :   0.8399 B(  8-C , 12-H ) :   0.9043
B(  9-C , 13-H ) :   0.8083 B(  9-C , 14-H ) :   0.9019 B(  9-C , 15-H ) :   0.9053
B( 16-N , 17-H ) :   0.9290 B( 16-N , 18-C ) :   0.8682 B( 18-C , 19-H ) :   0.8236
B( 18-C , 20-H ) :   0.9114 B( 18-C , 21-H ) :   0.9526

MP2 TOTAL ENERGY:     -628.118748438 Eh
FINAL SINGLE POINT ENERGY      -628.118748437668

DIPOLE MOMENT
-------------
                                X             Y             Z
Electronic contribution:     -2.90438      -0.37912       1.27187
Nuclear contribution   :      2.46343      -0.17290      -1.73129
                        -----------------------------------------
Total Dipole Moment    :     -0.44095      -0.55202      -0.45943
                        -----------------------------------------
Magnitude (a.u.)       :      0.84275
Magnitude (Debye)      :      2.14210

Rotational constants in cm-1:     0.050487     0.017448     0.013315
Rotational constants in MHz :  1513.573866   523.074224   399.177475

                             ****ORCA TERMINATED NORMALLY****
TOTAL RUN TIME: 0 days 1 hours 10 minutes 45 seconds 22 msec
