                         Program Version 4.2.1 -  RELEASE  -
|  1> %pal
|  2>  nprocs 32
|  3> end
|  4> !RI-MP2 aug-cc-pVQZ aug-cc-pVQZ/C TightSCF
|  5> %maxcore 4500
|  6> *xyzfile 0 1  10_64R1.xyz
|  7>
|  8>
|  9>                          ****END OF INPUT****

CARTESIAN COORDINATES (ANGSTROEM)
---------------------------------
  C      0.585378    0.140084   -0.000014
  C      1.512365    1.251823    0.000026
  C      1.038892   -1.232701   -0.000093
  C      2.865579    1.282437    0.000058
  C      2.294471   -1.741749   -0.000089
  C      3.822900    0.224616    0.000061
  C      3.570811   -1.103089   -0.000004
  C     -0.772820    0.432004    0.000011
  C     -1.187562    1.795710    0.000082
  N     -1.474977    2.910189    0.000139
  C     -1.860949   -0.562299   -0.000027
  O     -1.751098   -1.768515   -0.000066
  O     -3.056691    0.042275   -0.000011
  C     -4.196530   -0.818274   -0.000036
  H     -4.196501   -1.450128   -0.888031
  H     -4.196485   -1.450201    0.887906
  H     -5.057854   -0.156098   -0.000002
  H      0.239536   -1.958855   -0.000159
  H      2.339182   -2.826302   -0.000157
  H      4.426585   -1.769323    0.000002
  H      4.862406    0.533321    0.000114
  H      1.039346    2.226011    0.000037
  H      3.295737    2.278803    0.000092

 Total Charge           Charge          ....    0
 Multiplicity           Mult            ....    1
 Number of Electrons    NEL             ....   98
 Basis Dimension        Dim             .... 1534

ORBITAL ENERGIES
----------------

  NO   OCC          E(Eh)            E(eV)
   0   2.0000     -20.598963      -560.5263
   1   2.0000     -20.538531      -558.8818
   2   2.0000     -15.549080      -423.1120
   3   2.0000     -11.387638      -309.8734
   4   2.0000     -11.316718      -307.9435
   5   2.0000     -11.283818      -307.0483
   6   2.0000     -11.281617      -306.9884
   7   2.0000     -11.281129      -306.9751
   8   2.0000     -11.278375      -306.9002
   9   2.0000     -11.276761      -306.8563
  10   2.0000     -11.273014      -306.7543
  11   2.0000     -11.266726      -306.5832
  12   2.0000     -11.265834      -306.5589
  13   2.0000     -11.260637      -306.4175
  14   2.0000      -1.465833       -39.8873
  15   2.0000      -1.360000       -37.0075
  16   2.0000      -1.213486       -33.0206
  17   2.0000      -1.181601       -32.1530
  18   2.0000      -1.123334       -30.5675
  19   2.0000      -1.088487       -29.6192
  20   2.0000      -1.039338       -28.2818
  21   2.0000      -0.974194       -26.5092
  22   2.0000      -0.924110       -25.1463
  23   2.0000      -0.904986       -24.6259
  24   2.0000      -0.805504       -21.9189
  25   2.0000      -0.775714       -21.1082
  26   2.0000      -0.761170       -20.7125
  27   2.0000      -0.738633       -20.0992
  28   2.0000      -0.715165       -19.4606
  29   2.0000      -0.682880       -18.5821
  30   2.0000      -0.675294       -18.3757
  31   2.0000      -0.660311       -17.9680
  32   2.0000      -0.647636       -17.6231
  33   2.0000      -0.607656       -16.5352
  34   2.0000      -0.594398       -16.1744
  35   2.0000      -0.579514       -15.7694
  36   2.0000      -0.571304       -15.5460
  37   2.0000      -0.550530       -14.9807
  38   2.0000      -0.541518       -14.7355
  39   2.0000      -0.534149       -14.5349
  40   2.0000      -0.529006       -14.3950
  41   2.0000      -0.521258       -14.1842
  42   2.0000      -0.495049       -13.4710
  43   2.0000      -0.472798       -12.8655
  44   2.0000      -0.466314       -12.6890
  45   2.0000      -0.434153       -11.8139
  46   2.0000      -0.424023       -11.5382
  47   2.0000      -0.413605       -11.2548
  48   2.0000      -0.300675        -8.1818
  49   0.0000       0.014382         0.3913
  50   0.0000       0.023838         0.6487
  51   0.0000       0.024666         0.6712
  52   0.0000       0.025999         0.7075
  53   0.0000       0.029605         0.8056

MULLIKEN ATOMIC CHARGES
-----------------------
   0 C :    1.153821
   1 C :   -0.479296
   2 C :   -0.271787
   3 C :   -0.315490
   4 C :   -0.282927
   5 C :   -0.518139
   6 C :   -0.463900
   7 C :   -0.934748
   8 C :    0.674431
   9 N :   -0.925318
  10 C :    1.712570
  11 O :   -0.931422
  12 O :   -0.740951
  13 C :   -0.773772
  14 H :    0.316494
  15 H :    0.316501
  16 H :    0.448364
  17 H :    0.500688
  18 H :    0.236131
  19 H :    0.313452
  20 H :    0.308843
  21 H :    0.384003
  22 H :    0.272452
Sum of atomic charges:   -0.0000000

LOEWDIN ATOMIC CHARGES
----------------------
   0 C :   -0.064142
   1 C :    0.378645
   2 C :    0.388732
   3 C :    0.402817
   4 C :    0.403425
   5 C :    0.377222
   6 C :    0.376709
   7 C :   -0.198272
   8 C :   -0.418535
   9 N :    0.461976
  10 C :   -1.095128
  11 O :    0.774008
  12 O :    0.834373
  13 C :    0.586441
  14 H :   -0.314047
  15 H :   -0.314050
  16 H :   -0.319427
  17 H :   -0.518183
  18 H :   -0.328996
  19 H :   -0.330798
  20 H :   -0.330902
  21 H :   -0.425020
  22 H :   -0.326851

  Mayer bond orders larger than 0.100000
B(  0-C ,  1-C ) :   0.7967 B(  0-C ,  2-C ) :   1.0100 B(  0-C ,  3-C ) :  -0.3399
B(  0-C ,  4-C ) :  -0.4396 B(  0-C ,  7-C ) :   0.5248 B(  0-C ,  8-C ) :  -0.5654
B(  0-C , 10-C ) :  -0.2668 B(  0-C , 11-O ) :  -0.1253 B(  0-C , 17-H ) :  -0.1503
B(  0-C , 21-H ) :  -0.1399 B(  1-C ,  3-C ) :   1.4151 B(  1-C ,  7-C ) :  -0.1489
B(  1-C , 21-H ) :   0.8834 B(  1-C , 22-H ) :  -0.1748 B(  2-C ,  4-C ) :   1.2826
B(  2-C ,  6-C ) :  -0.1871 B(  2-C ,  7-C ) :  -0.2819 B(  2-C , 17-H ) :   0.6641
B(  2-C , 18-H ) :  -0.1326 B(  3-C ,  5-C ) :   1.1954 B(  3-C , 21-H ) :  -0.1076
B(  3-C , 22-H ) :   1.0651 B(  4-C ,  6-C ) :   1.2124 B(  4-C , 17-H ) :  -0.1221
B(  4-C , 18-H ) :   1.0757 B(  4-C , 19-H ) :  -0.1051 B(  5-C ,  6-C ) :   1.5196
B(  5-C , 19-H ) :  -0.1299 B(  5-C , 20-H ) :   1.0132 B(  6-C , 19-H ) :   1.0145
B(  6-C , 20-H ) :  -0.1220 B(  7-C ,  8-C ) :   1.5469 B(  7-C , 10-C ) :   1.3437
B(  7-C , 11-O ) :   0.5341 B(  7-C , 12-O ) :   0.1085 B(  8-C ,  9-N ) :   2.2363
B(  8-C , 10-C ) :  -0.1580 B( 10-C , 11-O ) :   0.8160 B( 10-C , 12-O ) :   0.7632
B( 10-C , 13-C ) :  -0.1501 B( 11-O , 12-O ) :   0.1462 B( 12-O , 13-C ) :   0.8676
B( 13-C , 14-H ) :   0.9217 B( 13-C , 15-H ) :   0.9216 B( 13-C , 16-H ) :   0.8202

MP2 TOTAL ENERGY:     -628.719007844 Eh
FINAL SINGLE POINT ENERGY      -628.719007843591

DIPOLE MOMENT
-------------
                                X             Y             Z
Electronic contribution:     -0.68016       3.28824       0.00013
Nuclear contribution   :      2.62266      -4.50586      -0.00020
                        -----------------------------------------
Total Dipole Moment    :      1.94250      -1.21762      -0.00006
                        -----------------------------------------
Magnitude (a.u.)       :      2.29258
Magnitude (Debye)      :      5.82727

Rotational constants in cm-1:     0.046642     0.014464     0.011063
Rotational constants in MHz :  1398.278023   433.610361   331.664770

                             ****ORCA TERMINATED NORMALLY****
TOTAL RUN TIME: 0 days 1 hours 42 minutes 54 seconds 642 msec
