                         Program Version 4.2.1 -  RELEASE  -
|  1> %pal
|  2>  nprocs 32
|  3> end
|  4> !RI-MP2 aug-cc-pVQZ aug-cc-pVQZ/C TightSCF
|  5> %maxcore 4500
|  6> *xyzfile 0 1  06_25P.xyz
|  7>
|  8>
|  9>                          ****END OF INPUT****

CARTESIAN COORDINATES (ANGSTROEM)
---------------------------------
  C      0.322445   -2.872942   -0.358443
  C     -0.252025   -1.572739    0.276385
  C      2.695845   -0.667203    0.020463
  H     -0.451653   -3.320028   -0.988516
  C      0.110365   -1.412687    1.765860
  H      3.653170   -0.172450   -0.169040
  H     -1.338087   -1.672116    0.252102
  C      1.560040   -1.678036    2.152277
  H      1.640938   -1.622450    3.242586
  H      1.821425   -2.708755    1.896297
  C      2.594407   -0.732795    1.554500
  H      2.423613    0.272322    1.949316
  H      3.577275   -1.034283    1.933319
  C      2.823634   -2.074798   -0.617978
  H      3.569121   -2.021025   -1.417409
  C      1.566756   -2.694817   -1.240529
  H      1.286929   -2.097124   -2.117198
  H      1.844061   -3.673606   -1.644419
  H      3.240269   -2.764300    0.123646
  H      0.525391   -3.607049    0.427502
  C      1.610774    0.195652   -0.667965
  H      1.905336    0.318508   -1.721729
  Si     1.616284    2.030789   -0.120978
  C      0.476143    2.378345    1.330708
  H      0.811162    1.887485    2.246528
  H      0.445170    3.453855    1.527738
  H     -0.546477    2.048332    1.130628
  C      1.074691    3.106802   -1.567705
  H      1.190269    4.161984   -1.304777
  H      1.687907    2.919893   -2.453239
  H      0.031130    2.953498   -1.845860
  C      3.373703    2.548258    0.309695
  H      4.050965    2.385916   -0.532946
  H      3.395116    3.615473    0.547223
  H      3.776810    2.010588    1.169413
  B      0.169055   -0.397737   -0.681975
  C     -2.079815   -0.613886   -2.038192
  C     -3.215753   -0.637021   -1.333110
  C     -0.854460    0.177983   -1.766870
  C     -3.439390    0.165798   -0.124781
  O     -2.641433    0.896527    0.418860
  O     -4.686956   -0.010240    0.348148
  C     -5.008460    0.716115    1.535178
  H     -6.033669    0.447163    1.775541
  H     -4.337424    0.435850    2.347256
  H     -4.924407    1.788877    1.361110
  H     -4.039952   -1.268762   -1.637192
  H     -0.514604   -2.110040    2.335604
  H     -0.182632   -0.412696    2.100637
  H     -1.136595    1.143845   -1.335566
  H     -0.327112    0.384281   -2.701851
  H     -2.042967   -1.268006   -2.906163

 Total Charge           Charge          ....    0
 Multiplicity           Mult            ....    1
 Number of Electrons    NEL             ....  168
 Basis Dimension        Dim             .... 3110

ORBITAL ENERGIES
----------------

  NO   OCC          E(Eh)            E(eV)
   0   2.0000     -68.741218     -1870.5436
   1   2.0000     -20.596107      -560.4486
   2   2.0000     -20.533436      -558.7432
   3   2.0000     -11.374062      -309.5040
   4   2.0000     -11.280291      -306.9523
   5   2.0000     -11.261599      -306.4437
   6   2.0000     -11.227208      -305.5079
   7   2.0000     -11.218214      -305.2631
   8   2.0000     -11.215248      -305.1824
   9   2.0000     -11.213959      -305.1473
  10   2.0000     -11.209694      -305.0313
  11   2.0000     -11.206043      -304.9319
  12   2.0000     -11.204080      -304.8785
  13   2.0000     -11.203413      -304.8604
  14   2.0000     -11.200807      -304.7895
  15   2.0000     -11.187760      -304.4344
  16   2.0000     -11.187088      -304.4161
  17   2.0000     -11.182615      -304.2944
  18   2.0000     -11.181076      -304.2525
  19   2.0000     -11.175076      -304.0893
  20   2.0000      -7.575593      -206.1424
  21   2.0000      -6.089672      -165.7084
  22   2.0000      -4.196181      -114.1839
  23   2.0000      -4.196052      -114.1804
  24   2.0000      -4.195976      -114.1783
  25   2.0000      -1.457733       -39.6669
  26   2.0000      -1.353294       -36.8250
  27   2.0000      -1.111481       -30.2449
  28   2.0000      -1.092451       -29.7271
  29   2.0000      -1.041481       -28.3402
  30   2.0000      -1.038757       -28.2660
  31   2.0000      -0.998816       -27.1792
  32   2.0000      -0.972411       -26.4607
  33   2.0000      -0.947304       -25.7775
  34   2.0000      -0.932872       -25.3847
  35   2.0000      -0.915941       -24.9240
  36   2.0000      -0.912740       -24.8369
  37   2.0000      -0.910307       -24.7707
  38   2.0000      -0.872335       -23.7374
  39   2.0000      -0.827509       -22.5177
  40   2.0000      -0.792609       -21.5680
  41   2.0000      -0.779846       -21.2207
  42   2.0000      -0.754154       -20.5216
  43   2.0000      -0.712105       -19.3773
  44   2.0000      -0.694172       -18.8894
  45   2.0000      -0.669794       -18.2260
  46   2.0000      -0.662728       -18.0337
  47   2.0000      -0.657730       -17.8977
  48   2.0000      -0.643739       -17.5170
  49   2.0000      -0.636581       -17.3223
  50   2.0000      -0.613819       -16.7029
  51   2.0000      -0.608089       -16.5469
  52   2.0000      -0.595401       -16.2017
  53   2.0000      -0.583734       -15.8842
  54   2.0000      -0.574485       -15.6325
  55   2.0000      -0.570010       -15.5108
  56   2.0000      -0.564813       -15.3693
  57   2.0000      -0.561849       -15.2887
  58   2.0000      -0.558087       -15.1863
  59   2.0000      -0.552571       -15.0362
  60   2.0000      -0.546583       -14.8733
  61   2.0000      -0.540486       -14.7074
  62   2.0000      -0.536410       -14.5965
  63   2.0000      -0.530854       -14.4453
  64   2.0000      -0.528781       -14.3889
  65   2.0000      -0.524427       -14.2704
  66   2.0000      -0.519321       -14.1315
  67   2.0000      -0.517742       -14.0885
  68   2.0000      -0.515617       -14.0306
  69   2.0000      -0.486944       -13.2504
  70   2.0000      -0.480864       -13.0850
  71   2.0000      -0.473442       -12.8830
  72   2.0000      -0.460419       -12.5286
  73   2.0000      -0.459720       -12.5096
  74   2.0000      -0.446413       -12.1475
  75   2.0000      -0.442307       -12.0358
  76   2.0000      -0.436797       -11.8859
  77   2.0000      -0.425243       -11.5714
  78   2.0000      -0.423081       -11.5126
  79   2.0000      -0.412258       -11.2181
  80   2.0000      -0.407926       -11.1002
  81   2.0000      -0.401581       -10.9276
  82   2.0000      -0.377327       -10.2676
  83   2.0000      -0.358760        -9.7624
  84   0.0000       0.018930         0.5151
  85   0.0000       0.024888         0.6773
  86   0.0000       0.025197         0.6856
  87   0.0000       0.026827         0.7300
  88   0.0000       0.033318         0.9066

MULLIKEN ATOMIC CHARGES
-----------------------
   0 C :   -0.722859
   1 C :   -0.092869
   2 C :    0.887008
   3 H :    0.090041
   4 C :   -0.897907
   5 H :    0.353482
   6 H :    0.517184
   7 C :   -0.217698
   8 H :   -0.070462
   9 H :    0.077548
  10 C :   -0.786415
  11 H :    0.242425
  12 H :   -0.037438
  13 C :   -0.889859
  14 H :    0.030692
  15 C :   -0.688564
  16 H :    0.192054
  17 H :    0.131508
  18 H :    0.124187
  19 H :    0.083356
  20 C :   -1.173729
  21 H :    0.032439
  22 Si:    1.708596
  23 C :   -1.196444
  24 H :    0.229826
  25 H :    0.084780
  26 H :    0.333290
  27 C :   -1.103112
  28 H :    0.245369
  29 H :    0.258826
  30 H :    0.306556
  31 C :   -0.908162
  32 H :    0.200100
  33 H :    0.211633
  34 H :    0.289749
  35 B :    2.864268
  36 C :   -0.234476
  37 C :   -0.730034
  38 C :   -1.023647
  39 C :    1.956248
  40 O :   -1.166414
  41 O :   -0.976636
  42 C :   -0.869954
  43 H :    0.515378
  44 H :    0.346413
  45 H :    0.314291
  46 H :    0.198163
  47 H :    0.026938
  48 H :    0.166393
  49 H :    0.445081
  50 H :    0.172811
  51 H :    0.150050
Sum of atomic charges:    0.0000000

LOEWDIN ATOMIC CHARGES
----------------------
   0 C :    0.591997
   1 C :    0.341714
   2 C :    0.158020
   3 H :   -0.250155
   4 C :    0.575058
   5 H :   -0.308056
   6 H :   -0.345646
   7 C :    0.573932
   8 H :   -0.249150
   9 H :   -0.296517
  10 C :    0.557645
  11 H :   -0.317225
  12 H :   -0.245887
  13 C :    0.594903
  14 H :   -0.253983
  15 C :    0.580723
  16 H :   -0.275436
  17 H :   -0.248904
  18 H :   -0.271678
  19 H :   -0.268159
  20 C :    0.409732
  21 H :   -0.330451
  22 Si:    0.187132
  23 C :    1.028001
  24 H :   -0.335138
  25 H :   -0.319095
  26 H :   -0.371179
  27 C :    1.014550
  28 H :   -0.327488
  29 H :   -0.321945
  30 H :   -0.349927
  31 C :    1.014877
  32 H :   -0.321051
  33 H :   -0.326828
  34 H :   -0.340476
  35 B :   -0.716399
  36 C :    0.395767
  37 C :    0.340382
  38 C :    0.669920
  39 C :   -1.076479
  40 O :    0.781844
  41 O :    0.844030
  42 C :    0.573755
  43 H :   -0.323362
  44 H :   -0.316997
  45 H :   -0.315122
  46 H :   -0.356005
  47 H :   -0.250168
  48 H :   -0.271856
  49 H :   -0.375985
  50 H :   -0.271740
  51 H :   -0.285498

  Mayer bond orders larger than 0.100000
B(  0-C ,  1-C ) :   0.5839 B(  0-C ,  3-H ) :   1.1922 B(  0-C ,  4-C ) :   0.1245
B(  0-C ,  6-H ) :  -0.2270 B(  0-C , 15-C ) :   0.7982 B(  0-C , 16-H ) :  -0.1085
B(  0-C , 19-H ) :   1.3769 B(  0-C , 35-B ) :  -0.3828 B(  1-C ,  4-C ) :   0.1022
B(  1-C ,  6-H ) :   0.9015 B(  1-C ,  7-C ) :  -0.2575 B(  1-C , 19-H ) :  -0.2774
B(  1-C , 20-C ) :  -0.1529 B(  1-C , 22-Si) :   0.1321 B(  1-C , 35-B ) :   0.6904
B(  1-C , 37-C ) :   0.1522 B(  1-C , 40-O ) :  -0.1843 B(  1-C , 48-H ) :  -0.1552
B(  2-C ,  5-H ) :   1.1432 B(  2-C ,  7-C ) :  -0.1100 B(  2-C , 10-C ) :   0.3186
B(  2-C , 11-H ) :  -0.1469 B(  2-C , 12-H ) :  -0.1158 B(  2-C , 13-C ) :   0.2964
B(  2-C , 14-H ) :  -0.2389 B(  2-C , 15-C ) :   0.2541 B(  2-C , 18-H ) :  -0.2747
B(  2-C , 20-C ) :   0.7413 B(  2-C , 22-Si) :  -0.3120 B(  2-C , 31-C ) :  -0.1206
B(  2-C , 35-B ) :  -0.4925 B(  4-C ,  7-C ) :   0.5942 B(  4-C ,  8-H ) :  -0.1540
B(  4-C , 35-B ) :  -0.3571 B(  4-C , 47-H ) :   1.2828 B(  4-C , 48-H ) :   1.2342
B(  5-H , 10-C ) :  -0.1211 B(  5-H , 13-C ) :  -0.1326 B(  5-H , 20-C ) :  -0.1614
B(  6-H , 36-C ) :  -0.1730 B(  6-H , 37-C ) :  -0.1143 B(  6-H , 40-O ) :   0.1445
B(  7-C ,  8-H ) :   1.3316 B(  7-C ,  9-H ) :   1.3133 B(  7-C , 10-C ) :   0.5460
B(  7-C , 35-B ) :   0.1197 B(  8-H , 10-C ) :  -0.1362 B(  9-H , 10-C ) :  -0.1152
B( 10-C , 11-H ) :   1.0836 B( 10-C , 12-H ) :   1.3263 B( 13-C , 14-H ) :   1.3487
B( 13-C , 15-C ) :   0.6632 B( 13-C , 17-H ) :  -0.1047 B( 13-C , 18-H ) :   1.3478
B( 15-C , 16-H ) :   1.1248 B( 15-C , 17-H ) :   1.1583 B( 15-C , 35-B ) :  -0.2713
B( 20-C , 21-H ) :   1.0041 B( 20-C , 22-Si) :   0.6944 B( 20-C , 23-C ) :   0.1440
B( 20-C , 27-C ) :   0.2212 B( 20-C , 35-B ) :   1.2740 B( 21-H , 22-Si) :  -0.1309
B( 21-H , 35-B ) :   0.1073 B( 22-Si, 23-C ) :   0.2631 B( 22-Si, 24-H ) :  -0.1394
B( 22-Si, 27-C ) :   0.8443 B( 22-Si, 28-H ) :  -0.1388 B( 22-Si, 29-H ) :  -0.1411
B( 22-Si, 31-C ) :   0.7436 B( 22-Si, 32-H ) :  -0.1483 B( 22-Si, 33-H ) :  -0.1647
B( 22-Si, 34-H ) :  -0.2162 B( 22-Si, 38-C ) :  -0.2771 B( 23-C , 24-H ) :   0.9824
B( 23-C , 25-H ) :   1.1993 B( 23-C , 26-H ) :   1.0223 B( 24-H , 26-H ) :   0.1288
B( 26-H , 35-B ) :  -0.1294 B( 27-C , 28-H ) :   1.0278 B( 27-C , 29-H ) :   1.0163
B( 27-C , 30-H ) :   0.9167 B( 27-C , 31-C ) :   0.1397 B( 27-C , 35-B ) :  -0.1958
B( 27-C , 38-C ) :  -0.1011 B( 31-C , 32-H ) :   1.0903 B( 31-C , 33-H ) :   1.0918
B( 31-C , 34-H ) :   0.9837 B( 31-C , 35-B ) :  -0.1115 B( 35-B , 36-C ) :  -0.3218
B( 35-B , 37-C ) :  -0.1399 B( 35-B , 38-C ) :  -0.2057 B( 35-B , 39-C ) :  -0.1345
B( 35-B , 48-H ) :  -0.1698 B( 35-B , 49-H ) :  -0.3156 B( 35-B , 50-H ) :  -0.2614
B( 36-C , 37-C ) :   1.6260 B( 36-C , 38-C ) :   1.1390 B( 36-C , 49-H ) :   0.1161
B( 36-C , 51-H ) :   1.1918 B( 37-C , 39-C ) :   1.0144 B( 37-C , 40-O ) :   0.1183
B( 37-C , 41-O ) :   0.2287 B( 37-C , 46-H ) :   1.0710 B( 37-C , 51-H ) :  -0.1742
B( 38-C , 49-H ) :   1.0933 B( 38-C , 50-H ) :   1.2757 B( 39-C , 40-O ) :   1.1476
B( 39-C , 42-C ) :  -0.1974 B( 40-O , 41-O ) :   0.1830 B( 40-O , 49-H ) :  -0.1946
B( 41-O , 42-C ) :   0.9608 B( 42-C , 43-H ) :   0.7656 B( 42-C , 44-H ) :   0.8821
B( 42-C , 45-H ) :   0.9164

MP2 TOTAL ENERGY:    -1129.394302645 Eh
FINAL SINGLE POINT ENERGY     -1129.394302644621

DIPOLE MOMENT
-------------
                                X             Y             Z
Electronic contribution:    -15.23957      -1.02888      -4.54944
Nuclear contribution   :     15.09000       0.70695       4.28426
                        -----------------------------------------
Total Dipole Moment    :     -0.14957      -0.32193      -0.26517
                        -----------------------------------------
Magnitude (a.u.)       :      0.44309
Magnitude (Debye)      :      1.12625

Rotational constants in cm-1:     0.012434     0.007181     0.006016
Rotational constants in MHz :   372.773631   215.293646   180.351047

                             ****ORCA TERMINATED NORMALLY****
TOTAL RUN TIME: 0 days 16 hours 48 minutes 38 seconds 783 msec
