                         Program Version 4.2.1 -  RELEASE  -
|  1> %pal
|  2>  nprocs 32
|  3> end
|  4> !RI-MP2 aug-cc-pVQZ aug-cc-pVQZ/C TightSCF
|  5> %maxcore 4500
|  6> *xyzfile 0 1  04_71P2.xyz
|  7>
|  8>
|  9>                          ****END OF INPUT****

CARTESIAN COORDINATES (ANGSTROEM)
---------------------------------
  O      1.952760    0.092609   -0.135673
  H      2.397563   -0.740908   -0.330779
  O      0.733396   -0.072371   -0.873797
  C     -0.387436   -0.000028    0.033931
  C     -1.568395   -0.143869   -0.915318
  C     -0.396199    1.353279    0.731890
  C     -0.333656   -1.150164    1.031009
  H     -0.289252   -2.107596    0.507337
  H     -1.225727   -1.145003    1.660463
  H      0.538254   -1.060279    1.679207
  H     -0.417427    2.158163   -0.004595
  H      0.493416    1.472549    1.349782
  H     -1.276966    1.441883    1.371436
  H     -1.561171    0.655412   -1.657523
  H     -2.502238   -0.088963   -0.353309
  H     -1.531578   -1.102464   -1.435330

 Total Charge           Charge          ....    0
 Multiplicity           Mult            ....    1
 Number of Electrons    NEL             ....   50
 Basis Dimension        Dim             ....  940

ORBITAL ENERGIES
----------------

  NO   OCC          E(Eh)            E(eV)
   0   2.0000     -20.612135      -560.8847
   1   2.0000     -20.609478      -560.8124
   2   2.0000     -11.288626      -307.1791
   3   2.0000     -11.215899      -305.2001
   4   2.0000     -11.214544      -305.1633
   5   2.0000     -11.209208      -305.0180
   6   2.0000      -1.470171       -40.0054
   7   2.0000      -1.225423       -33.3454
   8   2.0000      -1.055732       -28.7279
   9   2.0000      -0.943335       -25.6695
  10   2.0000      -0.941254       -25.6128
  11   2.0000      -0.764818       -20.8117
  12   2.0000      -0.710920       -19.3451
  13   2.0000      -0.657638       -17.8952
  14   2.0000      -0.645953       -17.5773
  15   2.0000      -0.609110       -16.5747
  16   2.0000      -0.578966       -15.7545
  17   2.0000      -0.551765       -15.0143
  18   2.0000      -0.543532       -14.7903
  19   2.0000      -0.533035       -14.5046
  20   2.0000      -0.518570       -14.1110
  21   2.0000      -0.505897       -13.7661
  22   2.0000      -0.482968       -13.1422
  23   2.0000      -0.462282       -12.5793
  24   2.0000      -0.433061       -11.7842
  25   0.0000       0.025712         0.6997
  26   0.0000       0.031525         0.8579
  27   0.0000       0.034068         0.9270
  28   0.0000       0.036468         0.9924
  29   0.0000       0.051590         1.4038

MULLIKEN ATOMIC CHARGES
-----------------------
   0 O :   -0.558108
   1 H :    0.344587
   2 O :   -0.571454
   3 C :    1.586444
   4 C :   -1.032723
   5 C :   -1.013914
   6 C :   -1.066988
   7 H :    0.251342
   8 H :    0.278421
   9 H :    0.255106
  10 H :    0.257576
  11 H :    0.265680
  12 H :    0.242032
  13 H :    0.258419
  14 H :    0.252216
  15 H :    0.251365
Sum of atomic charges:    0.0000000

LOEWDIN ATOMIC CHARGES
----------------------
   0 O :    0.944174
   1 H :   -0.878105
   2 O :    0.581029
   3 C :   -0.719115
   4 C :    0.863067
   5 C :    0.881026
   6 C :    0.880033
   7 H :   -0.280174
   8 H :   -0.276072
   9 H :   -0.299571
  10 H :   -0.278985
  11 H :   -0.302731
  12 H :   -0.275735
  13 H :   -0.281894
  14 H :   -0.276260
  15 H :   -0.280685

  Mayer bond orders larger than 0.100000
B(  0-O ,  1-H ) :   0.8919 B(  0-O ,  2-O ) :   0.8502 B(  0-O ,  3-C ) :  -0.2196
B(  2-O ,  4-C ) :   0.1603 B(  2-O ,  5-C ) :   0.1147 B(  2-O ,  6-C ) :   0.1180
B(  3-C ,  4-C ) :   0.4251 B(  3-C ,  5-C ) :   0.6198 B(  3-C ,  6-C ) :   0.6387
B(  4-C , 13-H ) :   1.0067 B(  4-C , 14-H ) :   0.9989 B(  4-C , 15-H ) :   1.0181
B(  5-C , 10-H ) :   0.9928 B(  5-C , 11-H ) :   0.9715 B(  5-C , 12-H ) :   0.9918
B(  6-C ,  7-H ) :   0.9969 B(  6-C ,  8-H ) :   0.9613 B(  6-C ,  9-H ) :   0.9814

MP2 TOTAL ENERGY:     -308.339834066 Eh
FINAL SINGLE POINT ENERGY      -308.339834065652

DIPOLE MOMENT
-------------
                                X             Y             Z
Electronic contribution:      5.24812       0.04298      -2.55869
Nuclear contribution   :     -5.55655      -0.53858       2.88704
                        -----------------------------------------
Total Dipole Moment    :     -0.30843      -0.49559       0.32835
                        -----------------------------------------
Magnitude (a.u.)       :      0.66974
Magnitude (Debye)      :      1.70235

Rotational constants in cm-1:     0.149485     0.093063     0.092953
Rotational constants in MHz :  4481.451686  2789.971160  2786.647363

                             ****ORCA TERMINATED NORMALLY****
TOTAL RUN TIME: 0 days 0 hours 18 minutes 7 seconds 283 msec
