                         Program Version 4.2.1 -  RELEASE  -
|  1> %pal
|  2>  nprocs 32
|  3> end
|  4> !RI-MP2 aug-cc-pVQZ aug-cc-pVQZ/C TightSCF
|  5> %maxcore 4500
|  6> *xyzfile 0 1  03_32R1.xyz
|  7>
|  8>
|  9>                          ****END OF INPUT****

CARTESIAN COORDINATES (ANGSTROEM)
---------------------------------
  C      2.574234   -0.348383   -0.072484
  C      2.119788    0.994526   -0.632492
  C      1.407058   -1.283421    0.222957
  C      0.738551    1.376046   -0.110637
  C     -0.312543    0.377223   -0.592965
  C      0.260784   -1.034621   -0.753151
  O     -1.356111    0.387642    0.409387
  C     -2.581498   -0.010714    0.029907
  C     -3.548358    0.056245    1.175249
  O     -2.847287   -0.371778   -1.086450
  H      2.106235    0.938330   -1.725463
  H      2.865646    1.745164   -0.367254
  H      1.070740   -1.080462    1.243080
  H      1.734124   -2.323665    0.197090
  H      0.465005    2.387454   -0.414446
  H      0.748405    1.365825    0.981782
  H     -0.762647    0.695116   -1.532962
  H      0.611942   -1.154873   -1.782441
  H     -0.537686   -1.764707   -0.623879
  H     -3.571289    1.067068    1.584029
  H     -3.218955   -0.612348    1.972173
  H     -4.538223   -0.233804    0.832885
  F      3.267101   -0.122699    1.132779
  H      3.301873   -0.813126   -0.741419

 Total Charge           Charge          ....    0
 Multiplicity           Mult            ....    1
 Number of Electrons    NEL             ....   86
 Basis Dimension        Dim             .... 1478

ORBITAL ENERGIES
----------------

  NO   OCC          E(Eh)            E(eV)
   0   2.0000     -26.264093      -714.6823
   1   2.0000     -20.596666      -560.4638
   2   2.0000     -20.540758      -558.9425
   3   2.0000     -11.378312      -309.6196
   4   2.0000     -11.309300      -307.7417
   5   2.0000     -11.292920      -307.2960
   6   2.0000     -11.239802      -305.8506
   7   2.0000     -11.232424      -305.6498
   8   2.0000     -11.230920      -305.6089
   9   2.0000     -11.229307      -305.5650
  10   2.0000     -11.228261      -305.5365
  11   2.0000      -1.574215       -42.8366
  12   2.0000      -1.461403       -39.7668
  13   2.0000      -1.360624       -37.0245
  14   2.0000      -1.134726       -30.8775
  15   2.0000      -1.039368       -28.2827
  16   2.0000      -1.023824       -27.8597
  17   2.0000      -0.993167       -27.0254
  18   2.0000      -0.878169       -23.8962
  19   2.0000      -0.860854       -23.4250
  20   2.0000      -0.786511       -21.4021
  21   2.0000      -0.750474       -20.4214
  22   2.0000      -0.714428       -19.4406
  23   2.0000      -0.697719       -18.9859
  24   2.0000      -0.690660       -18.7938
  25   2.0000      -0.669903       -18.2290
  26   2.0000      -0.659224       -17.9384
  27   2.0000      -0.652637       -17.7591
  28   2.0000      -0.623298       -16.9608
  29   2.0000      -0.597124       -16.2486
  30   2.0000      -0.580452       -15.7949
  31   2.0000      -0.573932       -15.6175
  32   2.0000      -0.563405       -15.3310
  33   2.0000      -0.547302       -14.8929
  34   2.0000      -0.540396       -14.7049
  35   2.0000      -0.534085       -14.5332
  36   2.0000      -0.517177       -14.0731
  37   2.0000      -0.514690       -14.0054
  38   2.0000      -0.476492       -12.9660
  39   2.0000      -0.470653       -12.8071
  40   2.0000      -0.462877       -12.5955
  41   2.0000      -0.447565       -12.1789
  42   2.0000      -0.437689       -11.9101
  43   0.0000       0.023416         0.6372
  44   0.0000       0.026377         0.7178
  45   0.0000       0.028047         0.7632
  46   0.0000       0.035395         0.9631
  47   0.0000       0.040243         1.0951

MULLIKEN ATOMIC CHARGES
-----------------------
   0 C :    0.346144
   1 C :   -0.601317
   2 C :   -0.498258
   3 C :   -0.603016
   4 C :    0.670813
   5 C :   -0.626657
   6 O :   -0.812532
   7 C :    0.903804
   8 C :   -0.713279
   9 O :   -0.821742
  10 H :    0.232928
  11 H :    0.296940
  12 H :    0.203008
  13 H :    0.291227
  14 H :    0.264957
  15 H :    0.237081
  16 H :    0.293219
  17 H :    0.293474
  18 H :    0.294951
  19 H :    0.273675
  20 H :    0.273212
  21 H :    0.307053
  22 F :   -0.823641
  23 H :    0.317957
Sum of atomic charges:   -0.0000000

LOEWDIN ATOMIC CHARGES
----------------------
   0 C :   -0.389176
   1 C :    0.509828
   2 C :    0.510948
   3 C :    0.520726
   4 C :   -0.204531
   5 C :    0.526703
   6 O :    0.891824
   7 C :   -1.059984
   8 C :    0.875800
   9 O :    0.733798
  10 H :   -0.264867
  11 H :   -0.273667
  12 H :   -0.288142
  13 H :   -0.257708
  14 H :   -0.250670
  15 H :   -0.283973
  16 H :   -0.324380
  17 H :   -0.254292
  18 H :   -0.280988
  19 H :   -0.299241
  20 H :   -0.297426
  21 H :   -0.319871
  22 F :    0.790618
  23 H :   -0.311330

  Mayer bond orders larger than 0.100000
B(  0-C ,  1-C ) :   0.9271 B(  0-C ,  2-C ) :   0.9637 B(  0-C , 22-F ) :   0.2163
B(  0-C , 23-H ) :   0.9424 B(  1-C ,  3-C ) :   1.0121 B(  1-C ,  4-C ) :  -0.1201
B(  1-C , 10-H ) :   0.9803 B(  1-C , 11-H ) :   0.9079 B(  1-C , 22-F ) :   0.1346
B(  2-C ,  5-C ) :   0.9163 B(  2-C , 12-H ) :   0.9722 B(  2-C , 13-H ) :   0.9392
B(  3-C ,  4-C ) :   0.7448 B(  3-C ,  6-O ) :   0.1459 B(  3-C , 14-H ) :   0.9409
B(  3-C , 15-H ) :   0.9513 B(  4-C ,  5-C ) :   0.6931 B(  4-C ,  6-O ) :   0.2849
B(  4-C ,  9-O ) :   0.1589 B(  4-C , 16-H ) :   0.9472 B(  5-C ,  6-O ) :   0.1909
B(  5-C , 17-H ) :   0.9182 B(  5-C , 18-H ) :   0.9425 B(  6-O ,  7-C ) :   1.0517
B(  7-C ,  8-C ) :   0.8333 B(  7-C ,  9-O ) :   1.2442 B(  8-C , 19-H ) :   0.9408
B(  8-C , 20-H ) :   0.9324 B(  8-C , 21-H ) :   0.9799

MP2 TOTAL ENERGY:     -562.167649609 Eh
FINAL SINGLE POINT ENERGY      -562.167649608779

DIPOLE MOMENT
-------------
                                X             Y             Z
Electronic contribution:      2.97564      -0.17826       1.52022
Nuclear contribution   :     -3.04263       0.34019      -1.51869
                        -----------------------------------------
Total Dipole Moment    :     -0.06700       0.16194       0.00153
                        -----------------------------------------
Magnitude (a.u.)       :      0.17525
Magnitude (Debye)      :      0.44546

Rotational constants in cm-1:     0.084819     0.018095     0.018035
Rotational constants in MHz :  2542.797134   542.461707   540.677822

                             ****ORCA TERMINATED NORMALLY****
TOTAL RUN TIME: 0 days 1 hours 28 minutes 27 seconds 224 msec
