                         Program Version 4.2.1 -  RELEASE  -
|  1> %pal
|  2>  nprocs 32
|  3> end
|  4> !RI-MP2 aug-cc-pVQZ aug-cc-pVQZ/C TightSCF
|  5> %maxcore 4500
|  6> *xyzfile -1 1  08_7TS.xyz
|  7>
|  8>
|  9>                          ****END OF INPUT****

CARTESIAN COORDINATES (ANGSTROEM)
---------------------------------
  S      3.751951   -1.742422   -0.687728
  C      4.245893   -0.699419    0.731082
  C      4.065158    0.807748    0.498886
  H      5.304471   -0.869159    0.940525
  H      3.684215   -0.982870    1.622447
  N      4.901407    1.263099   -0.597969
  C      2.596884    1.167764    0.308115
  H      4.367680    1.322425    1.423095
  O      2.198334    1.911617   -0.570930
  O      1.798262    0.634781    1.213013
  C      1.266028   -1.913422   -0.180742
  O     -0.530597   -1.998426    0.228682
  H      1.291636   -2.925452   -0.540746
  H      1.591222   -1.710705    0.819914
  H      1.180881   -1.107764   -0.883195
  C     -1.218301   -0.932895    0.175912
  C     -2.642414   -0.942927    0.102674
  N     -0.635559    0.292247    0.172284
  C     -1.367805    1.412703   -0.010942
  C     -3.264646    0.288493   -0.037143
  N     -2.691657    1.493989   -0.121791
  N     -3.579959   -1.959418    0.109979
  C     -4.722021   -1.355071   -0.013661
  N     -4.606217    0.018308   -0.115314
  H     -5.689698   -1.835514   -0.045210
  C     -5.658335    0.997457   -0.238587
  H     -5.862991    1.483487    0.718392
  H     -6.565097    0.506554   -0.592362
  H     -5.358326    1.761642   -0.955208
  N     -0.652691    2.573920   -0.062660
  H     -1.164625    3.376535   -0.386739
  H      0.330287    2.497129   -0.319035
  H      0.847901    0.584196    0.852133
  H      4.486190    2.094845   -1.004511
  H      4.847136    0.542040   -1.317227

 Total Charge           Charge          ....   -1
 Multiplicity           Mult            ....    1
 Number of Electrons    NEL             ....  158
 Basis Dimension        Dim             .... 2294

ORBITAL ENERGIES
----------------

  NO   OCC          E(Eh)            E(eV)
   0   2.0000     -91.725744     -2495.9844
   1   2.0000     -20.457833      -556.6859
   2   2.0000     -20.424562      -555.7806
   3   2.0000     -20.420435      -555.6683
   4   2.0000     -15.525244      -422.4634
   5   2.0000     -15.459502      -420.6744
   6   2.0000     -15.457161      -420.6107
   7   2.0000     -15.436963      -420.0611
   8   2.0000     -15.434301      -419.9887
   9   2.0000     -15.410147      -419.3314
  10   2.0000     -11.253134      -306.2134
  11   2.0000     -11.247165      -306.0509
  12   2.0000     -11.239399      -305.8396
  13   2.0000     -11.207374      -304.9681
  14   2.0000     -11.205455      -304.9159
  15   2.0000     -11.200582      -304.7833
  16   2.0000     -11.185109      -304.3623
  17   2.0000     -11.142787      -303.2106
  18   2.0000     -11.129168      -302.8401
  19   2.0000     -11.108954      -302.2900
  20   2.0000      -8.728693      -237.5198
  21   2.0000      -6.410464      -174.4376
  22   2.0000      -6.409061      -174.3994
  23   2.0000      -6.408883      -174.3946
  24   2.0000      -1.332233       -36.2519
  25   2.0000      -1.277614       -34.7656
  26   2.0000      -1.258376       -34.2422
  27   2.0000      -1.227847       -33.4114
  28   2.0000      -1.201139       -32.6847
  29   2.0000      -1.106905       -30.1204
  30   2.0000      -1.081729       -29.4354
  31   2.0000      -1.065792       -29.0017
  32   2.0000      -1.059228       -28.8230
  33   2.0000      -0.918679       -24.9985
  34   2.0000      -0.890943       -24.2438
  35   2.0000      -0.889265       -24.1981
  36   2.0000      -0.840827       -22.8801
  37   2.0000      -0.787366       -21.4253
  38   2.0000      -0.775068       -21.0907
  39   2.0000      -0.751957       -20.4618
  40   2.0000      -0.695567       -18.9273
  41   2.0000      -0.686361       -18.6768
  42   2.0000      -0.655981       -17.8501
  43   2.0000      -0.632268       -17.2049
  44   2.0000      -0.614384       -16.7182
  45   2.0000      -0.587105       -15.9759
  46   2.0000      -0.583279       -15.8718
  47   2.0000      -0.574077       -15.6214
  48   2.0000      -0.568300       -15.4642
  49   2.0000      -0.544930       -14.8283
  50   2.0000      -0.543508       -14.7896
  51   2.0000      -0.535837       -14.5809
  52   2.0000      -0.522508       -14.2182
  53   2.0000      -0.517961       -14.0944
  54   2.0000      -0.516305       -14.0494
  55   2.0000      -0.499084       -13.5808
  56   2.0000      -0.494645       -13.4600
  57   2.0000      -0.486246       -13.2314
  58   2.0000      -0.472447       -12.8559
  59   2.0000      -0.460789       -12.5387
  60   2.0000      -0.452106       -12.3024
  61   2.0000      -0.437598       -11.9076
  62   2.0000      -0.425318       -11.5735
  63   2.0000      -0.416684       -11.3385
  64   2.0000      -0.402003       -10.9390
  65   2.0000      -0.388433       -10.5698
  66   2.0000      -0.359870        -9.7926
  67   2.0000      -0.354017        -9.6333
  68   2.0000      -0.346937        -9.4406
  69   2.0000      -0.333646        -9.0790
  70   2.0000      -0.329628        -8.9696
  71   2.0000      -0.306711        -8.3460
  72   2.0000      -0.301378        -8.2009
  73   2.0000      -0.291549        -7.9334
  74   2.0000      -0.273044        -7.4299
  75   2.0000      -0.270962        -7.3733
  76   2.0000      -0.189286        -5.1507
  77   2.0000      -0.159536        -4.3412
  78   2.0000      -0.156104        -4.2478
  79   0.0000       0.073506         2.0002
  80   0.0000       0.086945         2.3659
  81   0.0000       0.092489         2.5167
  82   0.0000       0.097966         2.6658
  83   0.0000       0.105044         2.8584

MULLIKEN ATOMIC CHARGES
-----------------------
   0 S :   -0.845622
   1 C :   -0.647114
   2 C :    0.491822
   3 H :    0.249766
   4 H :    0.233335
   5 N :   -0.976500
   6 C :    1.222615
   7 H :    0.492949
   8 O :   -1.003944
   9 O :   -0.966816
  10 C :   -0.447557
  11 O :   -0.953809
  12 H :    0.467251
  13 H :    0.275632
  14 H :    0.320187
  15 C :    1.433921
  16 C :    0.070955
  17 N :   -0.792500
  18 C :    1.011174
  19 C :    1.073741
  20 N :   -0.901139
  21 N :   -1.035618
  22 C :   -0.164527
  23 N :   -0.510592
  24 H :    0.534732
  25 C :   -1.094087
  26 H :    0.325700
  27 H :    0.338508
  28 H :    0.345943
  29 N :   -0.812489
  30 H :    0.148363
  31 H :    0.338469
  32 H :    0.270614
  33 H :    0.214657
  34 H :    0.291982
Sum of atomic charges:   -1.0000000

LOEWDIN ATOMIC CHARGES
----------------------
   0 S :    0.982872
   1 C :   -0.070761
   2 C :   -0.222821
   3 H :   -0.396613
   4 H :   -0.411352
   5 N :    1.240994
   6 C :   -1.030008
   7 H :   -0.310351
   8 O :    0.805958
   9 O :    1.262592
  10 C :    0.723808
  11 O :    0.773705
  12 H :   -0.357071
  13 H :   -0.428036
  14 H :   -0.416696
  15 C :   -0.813745
  16 C :   -0.445917
  17 N :    0.600284
  18 C :   -0.715380
  19 C :   -0.630441
  20 N :    0.619501
  21 N :    0.587008
  22 C :   -0.070213
  23 N :    0.391887
  24 H :   -0.326988
  25 C :    0.798879
  26 H :   -0.274240
  27 H :   -0.299496
  28 H :   -0.295495
  29 N :    1.237389
  30 H :   -0.508957
  31 H :   -0.710859
  32 H :   -1.080917
  33 H :   -0.578465
  34 H :   -0.630057

  Mayer bond orders larger than 0.100000
B(  0-S ,  1-C ) :   0.8949 B(  0-S , 10-C ) :   0.2722 B(  1-C ,  2-C ) :   0.9369
B(  1-C ,  3-H ) :   0.9390 B(  1-C ,  4-H ) :   0.9861 B(  2-C ,  5-N ) :   0.6102
B(  2-C ,  6-C ) :   0.8226 B(  2-C ,  7-H ) :   0.6694 B(  5-N , 33-H ) :   0.9502
B(  5-N , 34-H ) :   0.8647 B(  6-C ,  8-O ) :   0.8493 B(  6-C ,  9-O ) :   0.9611
B(  8-O , 32-H ) :   0.1403 B(  9-O , 17-N ) :  -0.1516 B(  9-O , 32-H ) :   0.7103
B( 10-C , 11-O ) :   0.3140 B( 10-C , 12-H ) :   0.7624 B( 10-C , 13-H ) :   0.9201
B( 10-C , 14-H ) :   0.8520 B( 11-O , 15-C ) :   0.3123 B( 11-O , 16-C ) :   0.4268
B( 11-O , 17-N ) :   0.3040 B( 13-H , 14-H ) :   0.1396 B( 15-C , 16-C ) :   1.0314
B( 15-C , 17-N ) :   1.3557 B( 15-C , 19-C ) :  -0.4620 B( 16-C , 19-C ) :   1.6117
B( 16-C , 21-N ) :  -0.1220 B( 17-N , 18-C ) :   1.3236 B( 17-N , 20-N ) :   0.1067
B( 17-N , 32-H ) :   0.2164 B( 18-C , 20-N ) :   1.0663 B( 18-C , 29-N ) :   0.9935
B( 19-C , 20-N ) :   1.0158 B( 19-C , 21-N ) :   0.1964 B( 19-C , 23-N ) :   0.7182
B( 19-C , 25-C ) :  -0.1863 B( 20-N , 23-N ) :   0.1129 B( 21-N , 22-C ) :   1.7157
B( 21-N , 23-N ) :   0.1062 B( 22-C , 23-N ) :   1.4031 B( 22-C , 24-H ) :   0.6927
B( 23-N , 25-C ) :   0.7192 B( 23-N , 26-H ) :  -0.1062 B( 25-C , 26-H ) :   0.9842
B( 25-C , 27-H ) :   0.9040 B( 25-C , 28-H ) :   0.9302 B( 29-N , 30-H ) :   1.1049
B( 29-N , 31-H ) :   0.7946

MP2 TOTAL ENERGY:    -1340.720033002 Eh
FINAL SINGLE POINT ENERGY     -1340.720033002213

DIPOLE MOMENT
-------------
                                X             Y             Z
Electronic contribution:     -7.71174      -2.78442       0.09718
Nuclear contribution   :      3.13949       4.74938       0.35818
                        -----------------------------------------
Total Dipole Moment    :     -4.57225       1.96495       0.45536
                        -----------------------------------------
Magnitude (a.u.)       :      4.99739
Magnitude (Debye)      :     12.70235

Rotational constants in cm-1:     0.023894     0.005172     0.004420
Rotational constants in MHz :   716.325301   155.045224   132.520954

                             ****ORCA TERMINATED NORMALLY****
TOTAL RUN TIME: 0 days 5 hours 9 minutes 4 seconds 355 msec
