                         Program Version 4.2.1 -  RELEASE  -
|  1> %pal
|  2>  nprocs 32
|  3> end
|  4> !RI-MP2 aug-cc-pVQZ aug-cc-pVQZ/C TightSCF
|  5> %maxcore 4500
|  6> *xyzfile -1 1  09_5P.xyz
|  7>
|  8>
|  9>                          ****END OF INPUT****

CARTESIAN COORDINATES (ANGSTROEM)
---------------------------------
  C      1.143259    1.429618   -0.466351
  C      1.351532    0.030570    0.043468
  C      0.511473   -1.046218   -0.589620
  O      2.145157   -0.213786    0.933890
  C     -0.941712   -1.048549   -0.050793
  C     -1.779592    0.142831   -0.454334
  C     -2.571791    0.625765    0.512511
  H      1.617904    2.150024    0.200463
  H      1.581031    1.507923   -1.467167
  H      0.066771    1.607782   -0.579335
  H     -3.253287    1.463349    0.351109
  H     -2.598390    0.214960    1.542679
  H      0.997755   -2.004417   -0.387811
  H      0.455983   -0.876182   -1.669120
  H     -1.408756   -1.945258   -0.478330
  H     -0.899283   -1.211994    1.047099

 Total Charge           Charge          ....   -1
 Multiplicity           Mult            ....    1
 Number of Electrons    NEL             ....   54
 Basis Dimension        Dim             ....  974

ORBITAL ENERGIES
----------------

  NO   OCC          E(Eh)            E(eV)
   0   2.0000     -20.399281      -555.0927
   1   2.0000     -11.183261      -304.3120
   2   2.0000     -11.081284      -301.5371
   3   2.0000     -11.078112      -301.4508
   4   2.0000     -11.057068      -300.8781
   5   2.0000     -11.002652      -299.3974
   6   2.0000     -10.985336      -298.9262
   7   2.0000      -1.241216       -33.7752
   8   2.0000      -0.918143       -24.9839
   9   2.0000      -0.851910       -23.1817
  10   2.0000      -0.800318       -21.7777
  11   2.0000      -0.695197       -18.9173
  12   2.0000      -0.586567       -15.9613
  13   2.0000      -0.522558       -14.2195
  14   2.0000      -0.500704       -13.6249
  15   2.0000      -0.486278       -13.2323
  16   2.0000      -0.459560       -12.5053
  17   2.0000      -0.427892       -11.6435
  18   2.0000      -0.400233       -10.8909
  19   2.0000      -0.384265       -10.4564
  20   2.0000      -0.383746       -10.4423
  21   2.0000      -0.349423        -9.5083
  22   2.0000      -0.335791        -9.1373
  23   2.0000      -0.291075        -7.9206
  24   2.0000      -0.264163        -7.1882
  25   2.0000      -0.138442        -3.7672
  26   2.0000      -0.096247        -2.6190
  27   0.0000       0.110918         3.0182
  28   0.0000       0.111404         3.0315
  29   0.0000       0.120797         3.2871
  30   0.0000       0.123634         3.3643
  31   0.0000       0.131324         3.5735

MULLIKEN ATOMIC CHARGES
-----------------------
   0 C :   -0.987987
   1 C :    1.038369
   2 C :   -0.660855
   3 O :   -0.909980
   4 C :   -0.300254
   5 C :   -0.551135
   6 C :   -1.099822
   7 H :    0.293702
   8 H :    0.254317
   9 H :    0.310274
  10 H :    0.390358
  11 H :    0.240318
  12 H :    0.267534
  13 H :    0.239673
  14 H :    0.302944
  15 H :    0.172545
Sum of atomic charges:   -1.0000000

LOEWDIN ATOMIC CHARGES
----------------------
   0 C :    0.857051
   1 C :   -0.683539
   2 C :    0.409123
   3 O :    0.704807
   4 C :    0.283642
   5 C :    0.111856
   6 C :    0.523167
   7 H :   -0.316259
   8 H :   -0.293541
   9 H :   -0.391968
  10 H :   -0.464363
  11 H :   -0.425204
  12 H :   -0.322135
  13 H :   -0.318312
  14 H :   -0.338039
  15 H :   -0.336287

  Mayer bond orders larger than 0.100000
B(  0-C ,  1-C ) :   0.9066 B(  0-C ,  3-O ) :   0.1186 B(  0-C ,  7-H ) :   0.9857
B(  0-C ,  8-H ) :   0.9275 B(  0-C ,  9-H ) :   0.8598 B(  1-C ,  2-C ) :   0.9407
B(  1-C ,  3-O ) :   0.9941 B(  2-C ,  3-O ) :   0.1966 B(  2-C ,  4-C ) :   0.9499
B(  2-C , 12-H ) :   0.9501 B(  2-C , 13-H ) :   0.9130 B(  4-C ,  5-C ) :   0.8078
B(  4-C ,  6-C ) :  -0.2058 B(  4-C , 14-H ) :   0.8681 B(  4-C , 15-H ) :   0.8542
B(  5-C ,  6-C ) :   1.8191 B(  5-C , 11-H ) :   0.1233 B(  5-C , 15-H ) :   0.1243
B(  6-C , 10-H ) :   0.8792 B(  6-C , 11-H ) :   0.9202

MP2 TOTAL ENERGY:     -308.686800206 Eh
FINAL SINGLE POINT ENERGY      -308.686800206013

DIPOLE MOMENT
-------------
                                X             Y             Z
Electronic contribution:      5.48959      -1.24117       1.24191
Nuclear contribution   :     -3.49065       0.92513      -1.46093
                        -----------------------------------------
Total Dipole Moment    :      1.99894      -0.31604      -0.21902
                        -----------------------------------------
Magnitude (a.u.)       :      2.03559
Magnitude (Debye)      :      5.17406

Rotational constants in cm-1:     0.147989     0.055293     0.048462
Rotational constants in MHz :  4436.588833  1657.632028  1452.849906

                             ****ORCA TERMINATED NORMALLY****
TOTAL RUN TIME: 0 days 0 hours 23 minutes 29 seconds 151 msec
