                         Program Version 4.2.1 -  RELEASE  -
|  1> %pal
|  2>  nprocs 32
|  3> end
|  4> !RI-MP2 aug-cc-pVQZ aug-cc-pVQZ/C TightSCF
|  5> %maxcore 4500
|  6> *xyzfile 0 1  07_8R1.xyz
|  7>
|  8>
|  9>                          ****END OF INPUT****

CARTESIAN COORDINATES (ANGSTROEM)
---------------------------------
  H      4.530002    0.123466    0.945560
  N     -1.865028    1.769913    0.823917
  C     -2.171054    0.771575   -0.176059
  C     -2.373372   -0.620216    0.410727
  O     -2.276065   -0.908215    1.571100
  O     -2.711174   -1.526038   -0.531173
  C     -1.104204    0.760660   -1.288742
  H     -1.414814    0.060234   -2.064535
  H     -1.098702    1.760414   -1.724821
  C      0.275119    0.407245   -0.794845
  C      0.711785   -0.917315   -0.766667
  H      0.059265   -1.699350   -1.138379
  C      1.963417   -1.256606   -0.283863
  H      2.300766   -2.284982   -0.266226
  C      2.812088   -0.262047    0.184450
  C      2.402316    1.064073    0.159521
  H      3.065920    1.845768    0.515261
  C      1.143956    1.388638   -0.328236
  H      0.833691    2.427047   -0.348019
  O      4.035530   -0.645221    0.648770
  H     -3.122848    1.035018   -0.648569
  H     -2.845807   -2.371899   -0.081014
  H     -1.006749    1.527983    1.307860
  H     -2.592158    1.806651    1.528171

 Total Charge           Charge          ....    0
 Multiplicity           Mult            ....    1
 Number of Electrons    NEL             ....   96
 Basis Dimension        Dim             .... 1546

ORBITAL ENERGIES
----------------

  NO   OCC          E(Eh)            E(eV)
   0   2.0000     -20.613585      -560.9242
   1   2.0000     -20.589607      -560.2717
   2   2.0000     -20.549672      -559.1850
   3   2.0000     -15.544135      -422.9774
   4   2.0000     -11.380570      -309.6810
   5   2.0000     -11.301929      -307.5411
   6   2.0000     -11.279884      -306.9413
   7   2.0000     -11.239795      -305.8504
   8   2.0000     -11.238884      -305.8256
   9   2.0000     -11.237530      -305.7887
  10   2.0000     -11.234488      -305.7060
  11   2.0000     -11.234273      -305.7001
  12   2.0000     -11.228589      -305.5454
  13   2.0000      -1.471041       -40.0291
  14   2.0000      -1.408322       -38.3224
  15   2.0000      -1.366758       -37.1914
  16   2.0000      -1.203696       -32.7542
  17   2.0000      -1.157357       -31.4933
  18   2.0000      -1.056208       -28.7409
  19   2.0000      -1.024822       -27.8868
  20   2.0000      -0.988560       -26.9001
  21   2.0000      -0.906975       -24.6801
  22   2.0000      -0.851517       -23.1709
  23   2.0000      -0.821924       -22.3657
  24   2.0000      -0.789396       -21.4805
  25   2.0000      -0.739462       -20.1218
  26   2.0000      -0.711123       -19.3506
  27   2.0000      -0.706600       -19.2276
  28   2.0000      -0.684743       -18.6328
  29   2.0000      -0.675746       -18.3880
  30   2.0000      -0.647779       -17.6270
  31   2.0000      -0.631146       -17.1744
  32   2.0000      -0.612548       -16.6683
  33   2.0000      -0.607014       -16.5177
  34   2.0000      -0.594402       -16.1745
  35   2.0000      -0.592434       -16.1209
  36   2.0000      -0.585428       -15.9303
  37   2.0000      -0.563784       -15.3413
  38   2.0000      -0.546004       -14.8575
  39   2.0000      -0.532818       -14.4987
  40   2.0000      -0.495236       -13.4761
  41   2.0000      -0.492210       -13.3937
  42   2.0000      -0.486879       -13.2486
  43   2.0000      -0.477887       -13.0040
  44   2.0000      -0.457371       -12.4457
  45   2.0000      -0.408586       -11.1182
  46   2.0000      -0.347284        -9.4501
  47   2.0000      -0.313712        -8.5365
  48   0.0000       0.022516         0.6127
  49   0.0000       0.024771         0.6740
  50   0.0000       0.029269         0.7965
  51   0.0000       0.035821         0.9747
  52   0.0000       0.038822         1.0564

MULLIKEN ATOMIC CHARGES
-----------------------
   0 H :    0.383473
   1 N :   -0.884215
   2 C :    0.194861
   3 C :    1.221230
   4 O :   -0.966865
   5 O :   -0.791094
   6 C :   -0.544264
   7 H :    0.259649
   8 H :    0.212557
   9 C :    0.800670
  10 C :   -0.674629
  11 H :    0.235173
  12 C :   -0.619497
  13 H :    0.250309
  14 C :    1.180339
  15 C :   -0.593643
  16 H :    0.133608
  17 C :   -0.383193
  18 H :    0.235290
  19 O :   -0.875963
  20 H :    0.486244
  21 H :    0.314703
  22 H :    0.270669
  23 H :    0.154586
Sum of atomic charges:   -0.0000000

LOEWDIN ATOMIC CHARGES
----------------------
   0 H :   -0.805284
   1 N :    1.286375
   2 C :   -0.099453
   3 C :   -1.032342
   4 O :    0.730760
   5 O :    1.269105
   6 C :    0.486544
   7 H :   -0.298164
   8 H :   -0.281362
   9 C :   -0.080007
  10 C :    0.341728
  11 H :   -0.317462
  12 C :    0.341817
  13 H :   -0.320941
  14 C :   -0.435135
  15 C :    0.349890
  16 H :   -0.319064
  17 C :    0.340704
  18 H :   -0.306884
  19 O :    1.276139
  20 H :   -0.297225
  21 H :   -0.800888
  22 H :   -0.533328
  23 H :   -0.495523

  Mayer bond orders larger than 0.100000
B(  0-H , 14-C ) :  -0.1336 B(  0-H , 19-O ) :   0.8871 B(  1-N ,  2-C ) :   0.5679
B(  1-N ,  3-C ) :   0.1224 B(  1-N ,  6-C ) :   0.1102 B(  1-N , 22-H ) :   0.8230
B(  1-N , 23-H ) :   1.0536 B(  2-C ,  3-C ) :   1.0239 B(  2-C ,  4-O ) :   0.1447
B(  2-C ,  6-C ) :   0.9919 B(  2-C , 20-H ) :   0.7403 B(  3-C ,  4-O ) :   1.0543
B(  3-C ,  5-O ) :   0.7667 B(  4-O ,  5-O ) :   0.1195 B(  5-O , 21-H ) :   0.9245
B(  6-C ,  7-H ) :   0.9683 B(  6-C ,  8-H ) :   1.0491 B(  6-C ,  9-C ) :   0.5821
B(  6-C , 10-C ) :  -0.1280 B(  6-C , 17-C ) :  -0.1118 B(  7-H ,  9-C ) :  -0.1106
B(  9-C , 10-C ) :   0.8902 B(  9-C , 12-C ) :  -0.2898 B(  9-C , 15-C ) :  -0.2879
B(  9-C , 17-C ) :   0.9048 B( 10-C , 11-H ) :   1.0709 B( 10-C , 12-C ) :   1.2956
B( 10-C , 13-H ) :  -0.1493 B( 10-C , 14-C ) :  -0.1331 B( 10-C , 15-C ) :   0.1130
B( 11-H , 12-C ) :  -0.1203 B( 12-C , 13-H ) :   1.0450 B( 12-C , 14-C ) :   1.3283
B( 12-C , 17-C ) :   0.1122 B( 12-C , 19-O ) :   0.3731 B( 14-C , 15-C ) :   1.3055
B( 14-C , 16-H ) :  -0.1102 B( 14-C , 17-C ) :  -0.1240 B( 14-C , 19-O ) :  -0.2870
B( 15-C , 16-H ) :   1.1767 B( 15-C , 17-C ) :   1.1704 B( 15-C , 18-H ) :  -0.1291
B( 15-C , 19-O ) :   0.2462 B( 16-H , 17-C ) :  -0.1842 B( 17-C , 18-H ) :   1.0482

MP2 TOTAL ENERGY:     -629.085620816 Eh
FINAL SINGLE POINT ENERGY      -629.085620816396

DIPOLE MOMENT
-------------
                                X             Y             Z
Electronic contribution:      1.28118      -3.90394       1.54053
Nuclear contribution   :     -1.31087       4.17146      -1.93364
                        -----------------------------------------
Total Dipole Moment    :     -0.02969       0.26753      -0.39312
                        -----------------------------------------
Magnitude (a.u.)       :      0.47644
Magnitude (Debye)      :      1.21101

Rotational constants in cm-1:     0.050177     0.015877     0.014424
Rotational constants in MHz :  1504.264123   475.992860   432.415514

                             ****ORCA TERMINATED NORMALLY****
TOTAL RUN TIME: 0 days 1 hours 53 minutes 30 seconds 487 msec
