                         Program Version 4.2.1 -  RELEASE  -
|  1> %pal
|  2>  nprocs 32
|  3> end
|  4> !RI-MP2 aug-cc-pVQZ aug-cc-pVQZ/C TightSCF
|  5> %maxcore 4500
|  6> *xyzfile 0 1  10_39P.xyz
|  7>
|  8>
|  9>                          ****END OF INPUT****

CARTESIAN COORDINATES (ANGSTROEM)
---------------------------------
  C     -0.220761   -2.371323   -0.634715
  H     -0.408196   -2.634781   -1.696962
  C      1.083646   -1.641977   -0.543687
  C     -0.102777    0.455608    0.004448
  H     -0.239666    0.619388    1.079119
  H     -0.001325    1.433785   -0.457276
  C     -1.336564   -0.254178   -0.547976
  H     -1.258095   -0.251502   -1.653277
  N     -1.328171   -1.631102   -0.068273
  C      2.486908    0.279168   -0.089446
  C      2.337076   -2.427924   -0.823465
  C      3.575584   -0.482868    0.072784
  C      3.487860   -1.982225    0.079534
  C      1.150122   -0.342135   -0.241394
  C      3.329915   -2.485567    1.521095
  H      3.316011   -3.578004    1.545620
  H      4.154598   -2.142595    2.148975
  H      2.398170   -2.119066    1.956510
  C     -2.591317   -2.314307   -0.263286
  H     -2.904229   -2.288810   -1.323628
  H     -2.460716   -3.364199    0.009125
  C     -2.615125    0.477848   -0.186662
  C     -3.708303   -0.185672    0.369412
  C     -3.650533   -1.670894    0.609863
  H     -3.409401   -1.868035    1.658917
  H     -4.628552   -2.116762    0.410985
  H     -0.134584   -3.321695   -0.097296
  C     -4.860614    0.534103    0.680368
  H     -5.707132    0.009111    1.110683
  C     -2.713743    1.845882   -0.442800
  H     -1.879105    2.367681   -0.895362
  C     -4.943257    1.894259    0.440718
  H     -5.847691    2.437167    0.687702
  C     -3.862333    2.552779   -0.131979
  H     -3.915245    3.614947   -0.338393
  C      2.648075    1.756002   -0.171635
  O      1.912321    2.503433   -0.768142
  O      3.744026    2.195728    0.470659
  C      4.005408    3.595976    0.357693
  H      4.913235    3.771021    0.929091
  H      3.176788    4.172565    0.768218
  H      4.148524    3.875247   -0.686258
  H      2.622624   -2.285833   -1.873588
  H      2.155587   -3.498394   -0.692509
  H      4.420960   -2.387429   -0.321326
  H      4.538263   -0.014705    0.235477

 Total Charge           Charge          ....    0
 Multiplicity           Mult            ....    1
 Number of Electrons    NEL             ....  166
 Basis Dimension        Dim             .... 2898

ORBITAL ENERGIES
----------------

  NO   OCC          E(Eh)            E(eV)
   0   2.0000     -20.596483      -560.4588
   1   2.0000     -20.535949      -558.8116
   2   2.0000     -15.541213      -422.8979
   3   2.0000     -11.376267      -309.5640
   4   2.0000     -11.281671      -306.9899
   5   2.0000     -11.253161      -306.2141
   6   2.0000     -11.251874      -306.1791
   7   2.0000     -11.247614      -306.0631
   8   2.0000     -11.245394      -306.0027
   9   2.0000     -11.242860      -305.9338
  10   2.0000     -11.240762      -305.8767
  11   2.0000     -11.228547      -305.5443
  12   2.0000     -11.228423      -305.5409
  13   2.0000     -11.227821      -305.5246
  14   2.0000     -11.226996      -305.5021
  15   2.0000     -11.225718      -305.4673
  16   2.0000     -11.222206      -305.3717
  17   2.0000     -11.220871      -305.3354
  18   2.0000     -11.220122      -305.3151
  19   2.0000     -11.219714      -305.3039
  20   2.0000     -11.219539      -305.2992
  21   2.0000     -11.219444      -305.2966
  22   2.0000     -11.209163      -305.0168
  23   2.0000      -1.460666       -39.7467
  24   2.0000      -1.355967       -36.8977
  25   2.0000      -1.250587       -34.0302
  26   2.0000      -1.159907       -31.5627
  27   2.0000      -1.148310       -31.2471
  28   2.0000      -1.078991       -29.3608
  29   2.0000      -1.062461       -28.9110
  30   2.0000      -1.043450       -28.3937
  31   2.0000      -1.039373       -28.2828
  32   2.0000      -0.990912       -26.9641
  33   2.0000      -0.978150       -26.6168
  34   2.0000      -0.960578       -26.1387
  35   2.0000      -0.933966       -25.4145
  36   2.0000      -0.886322       -24.1181
  37   2.0000      -0.858665       -23.3655
  38   2.0000      -0.857715       -23.3396
  39   2.0000      -0.838957       -22.8292
  40   2.0000      -0.806121       -21.9357
  41   2.0000      -0.782242       -21.2859
  42   2.0000      -0.766292       -20.8519
  43   2.0000      -0.744377       -20.2555
  44   2.0000      -0.717775       -19.5316
  45   2.0000      -0.688775       -18.7425
  46   2.0000      -0.674062       -18.3422
  47   2.0000      -0.671907       -18.2835
  48   2.0000      -0.667826       -18.1725
  49   2.0000      -0.655683       -17.8420
  50   2.0000      -0.642721       -17.4893
  51   2.0000      -0.641285       -17.4502
  52   2.0000      -0.616462       -16.7748
  53   2.0000      -0.616116       -16.7654
  54   2.0000      -0.612957       -16.6794
  55   2.0000      -0.599857       -16.3229
  56   2.0000      -0.592116       -16.1123
  57   2.0000      -0.584284       -15.8992
  58   2.0000      -0.572147       -15.5689
  59   2.0000      -0.569146       -15.4872
  60   2.0000      -0.559664       -15.2292
  61   2.0000      -0.551633       -15.0107
  62   2.0000      -0.549970       -14.9654
  63   2.0000      -0.532838       -14.4993
  64   2.0000      -0.532096       -14.4791
  65   2.0000      -0.526589       -14.3292
  66   2.0000      -0.519815       -14.1449
  67   2.0000      -0.513424       -13.9710
  68   2.0000      -0.510271       -13.8852
  69   2.0000      -0.501233       -13.6393
  70   2.0000      -0.496355       -13.5065
  71   2.0000      -0.487943       -13.2776
  72   2.0000      -0.476274       -12.9601
  73   2.0000      -0.471392       -12.8272
  74   2.0000      -0.460667       -12.5354
  75   2.0000      -0.454816       -12.3762
  76   2.0000      -0.436118       -11.8674
  77   2.0000      -0.427747       -11.6396
  78   2.0000      -0.409458       -11.1419
  79   2.0000      -0.357563        -9.7298
  80   2.0000      -0.322143        -8.7659
  81   2.0000      -0.315670        -8.5898
  82   2.0000      -0.303484        -8.2582
  83   0.0000       0.020255         0.5512
  84   0.0000       0.024145         0.6570
  85   0.0000       0.026103         0.7103
  86   0.0000       0.029126         0.7926
  87   0.0000       0.031950         0.8694

MULLIKEN ATOMIC CHARGES
-----------------------
   0 C :   -0.313544
   1 H :    0.217852
   2 C :    0.562735
   3 C :   -0.603139
   4 H :    0.195158
   5 H :    0.430375
   6 C :    1.425482
   7 H :    0.159706
   8 N :   -0.233685
   9 C :   -1.353498
  10 C :   -0.922147
  11 C :   -0.292990
  12 C :    0.089061
  13 C :    1.022272
  14 C :   -1.034224
  15 H :    0.245202
  16 H :    0.285430
  17 H :    0.133115
  18 C :   -0.734775
  19 H :    0.231157
  20 H :    0.212808
  21 C :    0.430226
  22 C :    0.365469
  23 C :   -0.677639
  24 H :    0.197035
  25 H :    0.175393
  26 H :    0.100286
  27 C :   -0.680386
  28 H :    0.229859
  29 C :   -0.876757
  30 H :    0.135563
  31 C :   -0.401829
  32 H :    0.258462
  33 C :   -0.487965
  34 H :    0.199589
  35 C :    2.107479
  36 O :   -1.127004
  37 O :   -0.885452
  38 C :   -0.931904
  39 H :    0.438652
  40 H :    0.376559
  41 H :    0.371417
  42 H :    0.291851
  43 H :    0.179841
  44 H :    0.204538
  45 H :    0.284367
Sum of atomic charges:   -0.0000000

LOEWDIN ATOMIC CHARGES
----------------------
   0 C :    0.348644
   1 H :   -0.239442
   2 C :    0.006247
   3 C :    0.504733
   4 H :   -0.235497
   5 H :   -0.404559
   6 C :   -0.049631
   7 H :   -0.250378
   8 N :    0.536189
   9 C :   -0.068232
  10 C :    0.514675
  11 C :    0.378922
  12 C :    0.113276
  13 C :   -0.001599
  14 C :    0.944182
  15 H :   -0.266734
  16 H :   -0.265201
  17 H :   -0.273767
  18 C :    0.351558
  19 H :   -0.239314
  20 H :   -0.275260
  21 C :   -0.022753
  22 C :   -0.038765
  23 C :    0.523387
  24 H :   -0.256336
  25 H :   -0.274355
  26 H :   -0.284030
  27 C :    0.355509
  28 H :   -0.313732
  29 C :    0.364846
  30 H :   -0.319120
  31 C :    0.347828
  32 H :   -0.321330
  33 C :    0.357936
  34 H :   -0.319565
  35 C :   -1.060939
  36 O :    0.765607
  37 O :    0.844727
  38 C :    0.580170
  39 H :   -0.321709
  40 H :   -0.316603
  41 H :   -0.313791
  42 H :   -0.244591
  43 H :   -0.275731
  44 H :   -0.271644
  45 H :   -0.313830

  Mayer bond orders larger than 0.100000
B(  0-C ,  1-H ) :   1.0823 B(  0-C ,  2-C ) :   0.2142 B(  0-C ,  8-N ) :   0.9401
B(  0-C , 13-C ) :  -0.3328 B(  0-C , 26-H ) :   1.2605 B(  1-H ,  2-C ) :  -0.1398
B(  1-H ,  8-N ) :  -0.1059 B(  2-C ,  3-C ) :  -0.2326 B(  2-C ,  6-C ) :   0.1154
B(  2-C ,  9-C ) :  -0.4070 B(  2-C , 10-C ) :   0.2616 B(  2-C , 12-C ) :  -0.2312
B(  2-C , 13-C ) :   1.4118 B(  2-C , 26-H ) :  -0.2918 B(  2-C , 43-H ) :  -0.2039
B(  3-C ,  4-H ) :   1.0503 B(  3-C ,  5-H ) :   1.1077 B(  3-C ,  6-C ) :   0.6747
B(  3-C ,  9-C ) :   0.1656 B(  3-C , 29-C ) :   0.1958 B(  3-C , 36-O ) :   0.3140
B(  4-H ,  6-C ) :  -0.1015 B(  4-H , 13-C ) :  -0.1180 B(  5-H , 36-O ) :  -0.2586
B(  6-C ,  7-H ) :   1.1302 B(  6-C ,  8-N ) :   0.4604 B(  6-C , 13-C ) :  -0.1578
B(  6-C , 21-C ) :  -0.3383 B(  6-C , 22-C ) :  -0.4955 B(  6-C , 29-C ) :  -0.8073
B(  8-N , 13-C ) :   0.1853 B(  8-N , 18-C ) :   0.7594 B(  8-N , 19-H ) :  -0.1062
B(  8-N , 21-C ) :  -0.1319 B(  9-C , 10-C ) :   0.1331 B(  9-C , 11-C ) :   1.6295
B(  9-C , 12-C ) :  -0.3702 B(  9-C , 13-C ) :   0.1174 B(  9-C , 35-C ) :   1.6606
B(  9-C , 36-O ) :   0.7082 B(  9-C , 37-O ) :   0.2569 B( 10-C , 12-C ) :   1.1915
B( 10-C , 13-C ) :  -0.2223 B( 10-C , 42-H ) :   0.9216 B( 10-C , 43-H ) :   1.1357
B( 11-C , 12-C ) :   0.7551 B( 11-C , 13-C ) :  -0.3544 B( 11-C , 35-C ) :  -0.4826
B( 11-C , 37-O ) :  -0.1411 B( 11-C , 44-H ) :  -0.1081 B( 11-C , 45-H ) :   0.9485
B( 12-C , 13-C ) :   0.1175 B( 12-C , 14-C ) :   0.6635 B( 12-C , 44-H ) :   1.0603
B( 13-C , 35-C ) :  -0.2909 B( 13-C , 36-O ) :  -0.1762 B( 14-C , 15-H ) :   1.0178
B( 14-C , 16-H ) :   1.0058 B( 14-C , 17-H ) :   1.0448 B( 18-C , 19-H ) :   1.0118
B( 18-C , 20-H ) :   1.0344 B( 18-C , 23-C ) :   1.1327 B( 18-C , 25-H ) :  -0.1135
B( 21-C , 22-C ) :   1.1126 B( 21-C , 23-C ) :  -0.1696 B( 21-C , 27-C ) :  -0.5498
B( 21-C , 29-C ) :   1.0841 B( 21-C , 33-C ) :  -0.3604 B( 22-C , 23-C ) :   0.3536
B( 22-C , 25-H ) :  -0.1800 B( 22-C , 27-C ) :   1.0312 B( 22-C , 28-H ) :  -0.1084
B( 22-C , 29-C ) :  -0.1509 B( 22-C , 31-C ) :  -0.2767 B( 23-C , 24-H ) :   1.0724
B( 23-C , 25-H ) :   1.1698 B( 27-C , 28-H ) :   1.0592 B( 27-C , 29-C ) :   0.1650
B( 27-C , 31-C ) :   1.2813 B( 27-C , 32-H ) :  -0.2040 B( 27-C , 33-C ) :   0.1596
B( 29-C , 30-H ) :   1.2609 B( 29-C , 33-C ) :   1.1930 B( 29-C , 34-H ) :  -0.1909
B( 31-C , 32-H ) :   1.1598 B( 31-C , 33-C ) :   1.1951 B( 32-H , 33-C ) :  -0.1398
B( 33-C , 34-H ) :   1.2122 B( 35-C , 36-O ) :   0.5011 B( 35-C , 37-O ) :   0.4519
B( 35-C , 38-C ) :  -0.3253 B( 36-O , 37-O ) :   0.1767 B( 37-O , 38-C ) :   1.0071
B( 38-C , 39-H ) :   0.8388 B( 38-C , 40-H ) :   0.8824 B( 38-C , 41-H ) :   0.8795

MP2 TOTAL ENERGY:     -979.508916907 Eh
FINAL SINGLE POINT ENERGY      -979.508916906683

DIPOLE MOMENT
-------------
                                X             Y             Z
Electronic contribution:     -2.32151       8.81825      -2.34501
Nuclear contribution   :      3.15599      -9.57863       2.51845
                        -----------------------------------------
Total Dipole Moment    :      0.83448      -0.76038       0.17344
                        -----------------------------------------
Magnitude (a.u.)       :      1.14220
Magnitude (Debye)      :      2.90325

Rotational constants in cm-1:     0.013490     0.005754     0.004264
Rotational constants in MHz :   404.419971   172.511738   127.843230

                             ****ORCA TERMINATED NORMALLY****
TOTAL RUN TIME: 0 days 12 hours 56 minutes 13 seconds 348 msec
