                         Program Version 4.2.1 -  RELEASE  -
|  1> %pal
|  2>  nprocs 32
|  3> end
|  4> !RI-MP2 aug-cc-pVQZ aug-cc-pVQZ/C TightSCF
|  5> %maxcore 4500
|  6> *xyzfile 0 1  03_34P2.xyz
|  7>
|  8>
|  9>                          ****END OF INPUT****

CARTESIAN COORDINATES (ANGSTROEM)
---------------------------------
  O     -0.763894    1.595683   -0.000028
  C     -0.686758    0.420319   -0.000008
  C      0.551443   -0.426284   -0.000014
  C      1.834980    0.393107   -0.000019
  H      0.492677   -1.085721   -0.871229
  H      0.492687   -1.085732    0.871193
  H      1.842970    1.049479   -0.873177
  C      3.071140   -0.498267   -0.000022
  H      1.842975    1.049483    0.873135
  H      3.096548   -1.142647    0.882501
  H      3.983707    0.099818   -0.000007
  H      3.096562   -1.142623   -0.882561
  Cl    -2.197753   -0.578869    0.000044

 Total Charge           Charge          ....    0
 Multiplicity           Mult            ....    1
 Number of Electrons    NEL             ....   56
 Basis Dimension        Dim             ....  806

ORBITAL ENERGIES
----------------

  NO   OCC          E(Eh)            E(eV)
   0   2.0000    -104.840925     -2852.8666
   1   2.0000     -20.590355      -560.2920
   2   2.0000     -11.404745      -310.3389
   3   2.0000     -11.265375      -306.5464
   4   2.0000     -11.241315      -305.8917
   5   2.0000     -11.229388      -305.5672
   6   2.0000     -10.566938      -287.5410
   7   2.0000      -8.033788      -218.6105
   8   2.0000      -8.032239      -218.5683
   9   2.0000      -8.032154      -218.5660
  10   2.0000      -1.452106       -39.5138
  11   2.0000      -1.132686       -30.8219
  12   2.0000      -1.090109       -29.6634
  13   2.0000      -0.984553       -26.7910
  14   2.0000      -0.847491       -23.0614
  15   2.0000      -0.766000       -20.8439
  16   2.0000      -0.683836       -18.6081
  17   2.0000      -0.673245       -18.3199
  18   2.0000      -0.662186       -18.0190
  19   2.0000      -0.602464       -16.3939
  20   2.0000      -0.585541       -15.9334
  21   2.0000      -0.545257       -14.8372
  22   2.0000      -0.535356       -14.5678
  23   2.0000      -0.509870       -13.8743
  24   2.0000      -0.496567       -13.5123
  25   2.0000      -0.463372       -12.6090
  26   2.0000      -0.460273       -12.5247
  27   2.0000      -0.445597       -12.1253
  28   0.0000       0.022386         0.6092
  29   0.0000       0.032478         0.8838
  30   0.0000       0.032990         0.8977
  31   0.0000       0.038398         1.0449
  32   0.0000       0.053341         1.4515

MULLIKEN ATOMIC CHARGES
-----------------------
   0 O :   -0.648766
   1 C :    0.569993
   2 C :   -0.284363
   3 C :   -0.323777
   4 H :    0.285977
   5 H :    0.285975
   6 H :    0.239769
   7 C :   -0.826517
   8 H :    0.239774
   9 H :    0.228734
  10 H :    0.260598
  11 H :    0.228732
  12 Cl:   -0.256129
Sum of atomic charges:   -0.0000000

LOEWDIN ATOMIC CHARGES
----------------------
   0 O :    0.624883
   1 C :   -1.351506
   2 C :    0.322115
   3 C :    0.470421
   4 H :   -0.317016
   5 H :   -0.317020
   6 H :   -0.277734
   7 C :    0.927829
   8 H :   -0.277735
   9 H :   -0.281309
  10 H :   -0.279669
  11 H :   -0.281309
  12 Cl:    1.038048

  Mayer bond orders larger than 0.100000
B(  0-O ,  1-C ) :   1.4884 B(  0-O ,  2-C ) :   0.1715 B(  1-C ,  2-C ) :   0.8932
B(  1-C , 12-Cl) :   1.0013 B(  2-C ,  3-C ) :   0.9108 B(  2-C ,  4-H ) :   0.8750
B(  2-C ,  5-H ) :   0.8751 B(  2-C , 12-Cl) :  -0.1670 B(  3-C ,  6-H ) :   0.8804
B(  3-C ,  7-C ) :   0.9834 B(  3-C ,  8-H ) :   0.8804 B(  7-C ,  9-H ) :   0.9431
B(  7-C , 10-H ) :   0.9990 B(  7-C , 11-H ) :   0.9431

MP2 TOTAL ENERGY:     -691.233215486 Eh
FINAL SINGLE POINT ENERGY      -691.233215486297

DIPOLE MOMENT
-------------
                                X             Y             Z
Electronic contribution:    -16.67646       0.67892       0.00020
Nuclear contribution   :     17.74745      -1.38644      -0.00021
                        -----------------------------------------
Total Dipole Moment    :      1.07100      -0.70752      -0.00001
                        -----------------------------------------
Magnitude (a.u.)       :      1.28360
Magnitude (Debye)      :      3.26264

Rotational constants in cm-1:     0.229337     0.043443     0.037273
Rotational constants in MHz :  6875.349084  1302.386320  1117.422618

                             ****ORCA TERMINATED NORMALLY****
TOTAL RUN TIME: 0 days 0 hours 12 minutes 44 seconds 216 msec
