                         Program Version 4.2.1 -  RELEASE  -
|  1> %pal
|  2>  nprocs 32
|  3> end
|  4> !RI-MP2 aug-cc-pVQZ aug-cc-pVQZ/C TightSCF
|  5> %maxcore 4500
|  6> *xyzfile 0 1  10_88TS.xyz
|  7>
|  8>
|  9>                          ****END OF INPUT****

CARTESIAN COORDINATES (ANGSTROEM)
---------------------------------
  O     -1.090036   -1.437689   -0.322189
  C     -1.466821   -0.362496   -0.891834
  C     -2.101662    0.668644   -0.242713
  C      0.034467    1.224755    0.827329
  C      0.098137    0.009387    1.483009
  C      0.605664   -1.077460    0.794713
  H     -2.536554    0.510034    0.734386
  H     -2.401927    1.552609   -0.792690
  H     -0.482911   -0.151355    2.381824
  H      0.560737   -2.060566    1.242972
  C      0.902848    1.479938   -0.315117
  C      1.647310    0.504973   -0.838225
  C      1.598775   -0.890533   -0.307401
  H      0.931837    2.481472   -0.727070
  H      2.319002    0.707327   -1.664841
  H      1.385068   -1.602838   -1.109855
  H      2.594407   -1.169764    0.069255
  H     -1.126659   -0.181839   -1.922375
  H     -0.435016    2.073187    1.307332

 Total Charge           Charge          ....    0
 Multiplicity           Mult            ....    1
 Number of Electrons    NEL             ....   66
 Basis Dimension        Dim             .... 1180

ORBITAL ENERGIES
----------------

  NO   OCC          E(Eh)            E(eV)
   0   2.0000     -20.510569      -558.1210
   1   2.0000     -11.293079      -307.3003
   2   2.0000     -11.283179      -307.0309
   3   2.0000     -11.263882      -306.5058
   4   2.0000     -11.252483      -306.1956
   5   2.0000     -11.249940      -306.1264
   6   2.0000     -11.242647      -305.9280
   7   2.0000     -11.222120      -305.3694
   8   2.0000     -11.196939      -304.6842
   9   2.0000      -1.324981       -36.0546
  10   2.0000      -1.160586       -31.5811
  11   2.0000      -1.038700       -28.2645
  12   2.0000      -1.034772       -28.1576
  13   2.0000      -0.969825       -26.3903
  14   2.0000      -0.865779       -23.5590
  15   2.0000      -0.827108       -22.5067
  16   2.0000      -0.752641       -20.4804
  17   2.0000      -0.715514       -19.4701
  18   2.0000      -0.672713       -18.3054
  19   2.0000      -0.639275       -17.3956
  20   2.0000      -0.627970       -17.0879
  21   2.0000      -0.616051       -16.7636
  22   2.0000      -0.604598       -16.4520
  23   2.0000      -0.593152       -16.1405
  24   2.0000      -0.573130       -15.5956
  25   2.0000      -0.522452       -14.2166
  26   2.0000      -0.519614       -14.1394
  27   2.0000      -0.511484       -13.9182
  28   2.0000      -0.491398       -13.3716
  29   2.0000      -0.432484       -11.7685
  30   2.0000      -0.402524       -10.9532
  31   2.0000      -0.338457        -9.2099
  32   2.0000      -0.285753        -7.7757
  33   0.0000       0.021412         0.5826
  34   0.0000       0.027045         0.7359
  35   0.0000       0.028770         0.7829
  36   0.0000       0.038771         1.0550
  37   0.0000       0.040460         1.1010

MULLIKEN ATOMIC CHARGES
-----------------------
   0 O :   -1.004572
   1 C :    0.346337
   2 C :   -0.810459
   3 C :    0.016381
   4 C :   -0.539882
   5 C :    0.216688
   6 H :    0.299463
   7 H :    0.335972
   8 H :    0.276198
   9 H :    0.345401
  10 C :   -0.571832
  11 C :   -0.146983
  12 C :   -0.472035
  13 H :    0.264992
  14 H :    0.298117
  15 H :    0.253776
  16 H :    0.334059
  17 H :    0.293816
  18 H :    0.264565
Sum of atomic charges:    0.0000000

LOEWDIN ATOMIC CHARGES
----------------------
   0 O :    0.737936
   1 C :   -0.324398
   2 C :    0.667928
   3 C :    0.269536
   4 C :    0.314312
   5 C :    0.189668
   6 H :   -0.359837
   7 H :   -0.343607
   8 H :   -0.301881
   9 H :   -0.276995
  10 C :    0.357716
  11 C :    0.391527
  12 C :    0.482284
  13 H :   -0.312571
  14 H :   -0.292613
  15 H :   -0.286133
  16 H :   -0.264924
  17 H :   -0.359410
  18 H :   -0.288538

  Mayer bond orders larger than 0.100000
B(  0-O ,  1-C ) :   0.9931 B(  0-O ,  4-C ) :   0.1076 B(  0-O ,  5-C ) :   0.1331
B(  1-C ,  2-C ) :   1.4840 B(  1-C , 17-H ) :   0.9234 B(  2-C ,  3-C ) :   0.2457
B(  2-C ,  6-H ) :   0.9237 B(  2-C ,  7-H ) :   0.9174 B(  3-C ,  4-C ) :   1.1077
B(  3-C , 10-C ) :   0.9307 B(  3-C , 18-H ) :   1.0760 B(  4-C ,  5-C ) :   1.1633
B(  4-C ,  8-H ) :   1.0273 B(  4-C , 10-C ) :   0.1375 B(  4-C , 18-H ) :  -0.1330
B(  5-C ,  9-H ) :   0.9689 B(  5-C , 12-C ) :   0.8908 B( 10-C , 11-C ) :   1.6398
B( 10-C , 13-H ) :   1.0593 B( 11-C , 12-C ) :   0.6864 B( 11-C , 14-H ) :   1.0305
B( 12-C , 15-H ) :   1.0012 B( 12-C , 16-H ) :   0.8786

MP2 TOTAL ENERGY:     -385.318603341 Eh
FINAL SINGLE POINT ENERGY      -385.318603341068

DIPOLE MOMENT
-------------
                                X             Y             Z
Electronic contribution:      0.37425      -1.40645       0.69383
Nuclear contribution   :      0.80236       2.16682      -0.49325
                        -----------------------------------------
Total Dipole Moment    :      1.17660       0.76038       0.20059
                        -----------------------------------------
Magnitude (a.u.)       :      1.41521
Magnitude (Debye)      :      3.59717

Rotational constants in cm-1:     0.078340     0.058315     0.049879
Rotational constants in MHz :  2348.571561  1748.235959  1495.321476

                             ****ORCA TERMINATED NORMALLY****
TOTAL RUN TIME: 0 days 0 hours 54 minutes 0 seconds 803 msec
