                         Program Version 4.2.1 -  RELEASE  -
|  1> %pal
|  2>  nprocs 32
|  3> end
|  4> !RI-MP2 aug-cc-pVQZ aug-cc-pVQZ/C TightSCF
|  5> %maxcore 4500
|  6> *xyzfile 1 1  05_25P1.xyz
|  7>
|  8>
|  9>                          ****END OF INPUT****

CARTESIAN COORDINATES (ANGSTROEM)
---------------------------------
  C      2.231029    0.542456    0.000002
  C      0.878537    0.234298    0.000001
  C     -0.054809    1.298592   -0.000005
  C      0.403863   -1.107572    0.000004
  C     -1.400623    1.055001   -0.000005
  H      0.301940    2.322358   -0.000008
  C     -0.930933   -1.355966    0.000003
  H      1.114879   -1.923464    0.000008
  C     -1.853645   -0.279967   -0.000002
  H     -2.100529    1.877047   -0.000008
  H     -1.327499   -2.362392    0.000006
  O      3.137473   -0.363212   -0.000025
  C      4.541928   -0.004216    0.000043
  H      4.652570    1.079786   -0.000378
  H      4.979598   -0.441079    0.893822
  H      4.979827   -0.441784   -0.893276
  O     -3.118067   -0.627991   -0.000003
  C     -4.155898    0.363359   -0.000018
  H     -5.085505   -0.196431   -0.000030
  H     -4.092202    0.978156    0.898496
  H     -4.092179    0.978154   -0.898533
  H      2.557160    1.583366    0.000002

 Total Charge           Charge          ....    1
 Multiplicity           Mult            ....    1
 Number of Electrons    NEL             ....   80
 Basis Dimension        Dim             .... 1386

ORBITAL ENERGIES
----------------

  NO   OCC          E(Eh)            E(eV)
   0   2.0000     -20.795264      -565.8679
   1   2.0000     -20.744580      -564.4887
   2   2.0000     -11.533109      -313.8319
   3   2.0000     -11.489582      -312.6474
   4   2.0000     -11.446800      -311.4833
   5   2.0000     -11.427556      -310.9596
   6   2.0000     -11.413086      -310.5659
   7   2.0000     -11.412926      -310.5615
   8   2.0000     -11.400542      -310.2245
   9   2.0000     -11.383872      -309.7709
  10   2.0000     -11.379814      -309.6605
  11   2.0000      -1.635179       -44.4955
  12   2.0000      -1.582923       -43.0735
  13   2.0000      -1.328783       -36.1580
  14   2.0000      -1.229888       -33.4669
  15   2.0000      -1.195392       -32.5283
  16   2.0000      -1.148448       -31.2509
  17   2.0000      -1.106234       -30.1022
  18   2.0000      -1.037670       -28.2364
  19   2.0000      -1.005491       -27.3608
  20   2.0000      -0.963346       -26.2140
  21   2.0000      -0.897075       -24.4107
  22   2.0000      -0.884749       -24.0752
  23   2.0000      -0.863675       -23.5018
  24   2.0000      -0.834097       -22.6969
  25   2.0000      -0.819030       -22.2869
  26   2.0000      -0.801474       -21.8092
  27   2.0000      -0.785011       -21.3612
  28   2.0000      -0.759523       -20.6677
  29   2.0000      -0.756993       -20.5988
  30   2.0000      -0.727168       -19.7872
  31   2.0000      -0.709310       -19.3013
  32   2.0000      -0.704635       -19.1741
  33   2.0000      -0.691276       -18.8106
  34   2.0000      -0.673655       -18.3311
  35   2.0000      -0.671013       -18.2592
  36   2.0000      -0.632741       -17.2177
  37   2.0000      -0.624311       -16.9884
  38   2.0000      -0.512998       -13.9594
  39   2.0000      -0.484129       -13.1738
  40   0.0000      -0.121276        -3.3001
  41   0.0000      -0.074814        -2.0358
  42   0.0000      -0.059220        -1.6115
  43   0.0000      -0.057530        -1.5655
  44   0.0000      -0.053242        -1.4488

MULLIKEN ATOMIC CHARGES
-----------------------
   0 C :    0.530414
   1 C :   -0.025000
   2 C :   -0.139581
   3 C :   -0.170515
   4 C :   -0.387483
   5 H :    0.181569
   6 C :   -0.566459
   7 H :    0.273929
   8 C :    1.126702
   9 H :    0.204697
  10 H :    0.303852
  11 O :   -0.718525
  12 C :   -0.594724
  13 H :    0.324107
  14 H :    0.330519
  15 H :    0.330491
  16 O :   -0.752594
  17 C :   -0.711946
  18 H :    0.522473
  19 H :    0.274891
  20 H :    0.274893
  21 H :    0.388289
Sum of atomic charges:    1.0000000

LOEWDIN ATOMIC CHARGES
----------------------
   0 C :    0.045128
   1 C :   -0.078943
   2 C :    0.370346
   3 C :    0.371187
   4 C :    0.393811
   5 H :   -0.289303
   6 C :    0.386626
   7 H :   -0.297886
   8 C :   -0.429460
   9 H :   -0.342528
  10 H :   -0.309859
  11 O :    0.933575
  12 C :    0.726045
  13 H :   -0.309796
  14 H :   -0.284891
  15 H :   -0.284903
  16 O :    0.919653
  17 C :    0.657685
  18 H :   -0.298326
  19 H :   -0.291327
  20 H :   -0.291327
  21 H :   -0.295507

  Mayer bond orders larger than 0.100000
B(  0-C ,  1-C ) :   1.1504 B(  0-C ,  2-C ) :  -0.4824 B(  0-C ,  3-C ) :  -0.2904
B(  0-C , 11-O ) :   0.9117 B(  0-C , 12-C ) :  -0.1194 B(  0-C , 21-H ) :   0.9924
B(  1-C ,  2-C ) :   0.9814 B(  1-C ,  3-C ) :   0.9352 B(  1-C ,  4-C ) :  -0.4913
B(  1-C ,  6-C ) :  -0.1859 B(  1-C ,  7-H ) :  -0.1034 B(  1-C , 11-O ) :   0.2040
B(  1-C , 21-H ) :  -0.2252 B(  2-C ,  4-C ) :   0.9342 B(  2-C ,  5-H ) :   1.1237
B(  2-C ,  6-C ) :   0.1230 B(  2-C ,  8-C ) :  -0.1025 B(  2-C ,  9-H ) :  -0.1494
B(  3-C ,  6-C ) :   1.2809 B(  3-C ,  7-H ) :   0.9965 B(  3-C ,  8-C ) :  -0.2712
B(  3-C , 10-H ) :  -0.1185 B(  4-C ,  5-H ) :  -0.2063 B(  4-C ,  8-C ) :   1.2949
B(  4-C ,  9-H ) :   1.1391 B(  4-C , 16-O ) :   0.2128 B(  4-C , 17-C ) :   0.1446
B(  6-C ,  7-H ) :  -0.1243 B(  6-C ,  8-C ) :   1.1823 B(  6-C , 10-H ) :   0.9592
B(  6-C , 16-O ) :   0.2096 B(  8-C , 16-O ) :   0.1943 B(  8-C , 17-C ) :  -0.1592
B( 11-O , 12-C ) :   0.8087 B( 12-C , 13-H ) :   0.8735 B( 12-C , 14-H ) :   0.9037
B( 12-C , 15-H ) :   0.9038 B( 16-O , 17-C ) :   0.8806 B( 17-C , 18-H ) :   0.7252
B( 17-C , 19-H ) :   0.9098 B( 17-C , 20-H ) :   0.9098

MP2 TOTAL ENERGY:     -498.932745811 Eh
FINAL SINGLE POINT ENERGY      -498.932745810997

DIPOLE MOMENT
-------------
                                X             Y             Z
Electronic contribution:     -0.31257      -2.30483      -0.00007
Nuclear contribution   :      1.90009       3.45944       0.00010
                        -----------------------------------------
Total Dipole Moment    :      1.58752       1.15461       0.00003
                        -----------------------------------------
Magnitude (a.u.)       :      1.96300
Magnitude (Debye)      :      4.98955

Rotational constants in cm-1:     0.149015     0.015850     0.014405
Rotational constants in MHz :  4467.358382   475.164109   431.858926

                             ****ORCA TERMINATED NORMALLY****
TOTAL RUN TIME: 0 days 1 hours 8 minutes 48 seconds 357 msec
