                         Program Version 4.2.1 -  RELEASE  -
|  1> %pal
|  2>  nprocs 32
|  3> end
|  4> !RI-MP2 aug-cc-pVQZ aug-cc-pVQZ/C TightSCF
|  5> %maxcore 4500
|  6> *xyzfile 0 1  10_78TS.xyz
|  7>
|  8>
|  9>                          ****END OF INPUT****

CARTESIAN COORDINATES (ANGSTROEM)
---------------------------------
  C     -6.094960   -0.502306   -1.508971
  C     -5.203818   -1.215027   -0.499050
  C     -3.853614   -0.539002   -0.337746
  C     -2.840473   -1.332079    0.510555
  C     -1.497035   -0.637319    0.625764
  C     -0.349760   -0.950525   -0.094001
  C      0.842623   -0.315871    0.268442
  C      2.193614   -0.714334   -0.265934
  C      2.927953    0.358212   -1.144183
  C      2.921377    1.721056   -0.517372
  C      1.765774    2.329258   -0.246897
  C      0.491400    1.708984   -0.588519
  C     -0.709782    2.052595    0.015721
  C     -1.874239    1.384669   -0.301112
  C     -3.124127    1.645903    0.430749
  C     -3.375237   -1.640454    1.911343
  C      3.074829   -1.200698    0.906568
  C      4.432174   -1.698400    0.412707
  C      5.176425   -0.647837   -0.403880
  C      4.319992   -0.139458   -1.552739
  C     -0.430223   -1.703675   -1.398072
  O     -3.306361    2.568564    1.179817
  O     -4.120076    0.740611    0.252490
  O      3.214774   -0.226519    1.926343
  O      5.530352    0.481894    0.411123
  H     -6.274635    0.528488   -1.201469
  H     -7.060620   -1.002622   -1.600927
  H     -5.633348   -0.484400   -2.500234
  H     -5.700065   -1.249034    0.472649
  H     -5.030791   -2.250259   -0.810147
  H     -3.430937   -0.392694   -1.336707
  H     -2.699056   -2.278902   -0.018347
  H     -1.326861   -0.171046    1.589561
  H      0.883822    0.105266    1.264401
  H      2.067809   -1.581732   -0.921700
  H      2.341160    0.419151   -2.066925
  H      3.866062    2.173012   -0.242696
  H      1.749319    3.275195    0.285013
  H      0.434887    1.237845   -1.565286
  H     -0.703996    2.670280    0.908934
  H     -1.954736    0.913641   -1.270398
  H     -3.634198   -0.719464    2.437383
  H     -2.616191   -2.163305    2.495709
  H     -4.263070   -2.272315    1.875808
  H      2.551455   -2.031884    1.385040
  H      4.286634   -2.585399   -0.212342
  H      5.032009   -2.008051    1.273517
  H      6.093372   -1.082229   -0.817184
  H      4.205701   -0.967655   -2.259162
  H      4.858150    0.653220   -2.076897
  H     -0.064202   -1.089278   -2.227131
  H      0.178422   -2.611462   -1.382563
  H     -1.448724   -2.000091   -1.642249
  H      3.806712    0.463442    1.601822
  H      6.179036    0.203723    1.064103

 Total Charge           Charge          ....    0
 Multiplicity           Mult            ....    1
 Number of Electrons    NEL             ....  188
 Basis Dimension        Dim             .... 3380

ORBITAL ENERGIES
----------------

  NO   OCC          E(Eh)            E(eV)
   0   2.0000     -20.580016      -560.0107
   1   2.0000     -20.574182      -559.8520
   2   2.0000     -20.544381      -559.0410
   3   2.0000     -20.513764      -558.2079
   4   2.0000     -11.361053      -309.1500
   5   2.0000     -11.295824      -307.3750
   6   2.0000     -11.294069      -307.3272
   7   2.0000     -11.283395      -307.0368
   8   2.0000     -11.252417      -306.1938
   9   2.0000     -11.246653      -306.0370
  10   2.0000     -11.245049      -305.9933
  11   2.0000     -11.242273      -305.9178
  12   2.0000     -11.241504      -305.8969
  13   2.0000     -11.239567      -305.8442
  14   2.0000     -11.237033      -305.7752
  15   2.0000     -11.233491      -305.6788
  16   2.0000     -11.233117      -305.6687
  17   2.0000     -11.232760      -305.6589
  18   2.0000     -11.232065      -305.6400
  19   2.0000     -11.226328      -305.4839
  20   2.0000     -11.224924      -305.4457
  21   2.0000     -11.224018      -305.4211
  22   2.0000     -11.219048      -305.2858
  23   2.0000     -11.217461      -305.2426
  24   2.0000     -11.212935      -305.1195
  25   2.0000      -1.439439       -39.1691
  26   2.0000      -1.383867       -37.6569
  27   2.0000      -1.355986       -36.8982
  28   2.0000      -1.342910       -36.5425
  29   2.0000      -1.153959       -31.4008
  30   2.0000      -1.125423       -30.6243
  31   2.0000      -1.101703       -29.9789
  32   2.0000      -1.086048       -29.5529
  33   2.0000      -1.062617       -28.9153
  34   2.0000      -1.043652       -28.3992
  35   2.0000      -1.016400       -27.6577
  36   2.0000      -1.007763       -27.4226
  37   2.0000      -0.959193       -26.1010
  38   2.0000      -0.949730       -25.8435
  39   2.0000      -0.937136       -25.5008
  40   2.0000      -0.900607       -24.5068
  41   2.0000      -0.869900       -23.6712
  42   2.0000      -0.851141       -23.1607
  43   2.0000      -0.827809       -22.5258
  44   2.0000      -0.816710       -22.2238
  45   2.0000      -0.796046       -21.6615
  46   2.0000      -0.777911       -21.1680
  47   2.0000      -0.742367       -20.2008
  48   2.0000      -0.731185       -19.8966
  49   2.0000      -0.728718       -19.8294
  50   2.0000      -0.717676       -19.5290
  51   2.0000      -0.693311       -18.8659
  52   2.0000      -0.684771       -18.6336
  53   2.0000      -0.675806       -18.3896
  54   2.0000      -0.658193       -17.9103
  55   2.0000      -0.651112       -17.7177
  56   2.0000      -0.640717       -17.4348
  57   2.0000      -0.635206       -17.2848
  58   2.0000      -0.629236       -17.1224
  59   2.0000      -0.616977       -16.7888
  60   2.0000      -0.604614       -16.4524
  61   2.0000      -0.602508       -16.3951
  62   2.0000      -0.599459       -16.3121
  63   2.0000      -0.585375       -15.9289
  64   2.0000      -0.583393       -15.8749
  65   2.0000      -0.580336       -15.7917
  66   2.0000      -0.576048       -15.6751
  67   2.0000      -0.571071       -15.5396
  68   2.0000      -0.567334       -15.4379
  69   2.0000      -0.553667       -15.0661
  70   2.0000      -0.545923       -14.8553
  71   2.0000      -0.542545       -14.7634
  72   2.0000      -0.534751       -14.5513
  73   2.0000      -0.530937       -14.4475
  74   2.0000      -0.526500       -14.3268
  75   2.0000      -0.518160       -14.0998
  76   2.0000      -0.515471       -14.0267
  77   2.0000      -0.512481       -13.9453
  78   2.0000      -0.500367       -13.6157
  79   2.0000      -0.497481       -13.5371
  80   2.0000      -0.495406       -13.4807
  81   2.0000      -0.490432       -13.3453
  82   2.0000      -0.480455       -13.0739
  83   2.0000      -0.479308       -13.0426
  84   2.0000      -0.477210       -12.9856
  85   2.0000      -0.464649       -12.6437
  86   2.0000      -0.458990       -12.4898
  87   2.0000      -0.440230       -11.9793
  88   2.0000      -0.427875       -11.6431
  89   2.0000      -0.427566       -11.6347
  90   2.0000      -0.419211       -11.4073
  91   2.0000      -0.371744       -10.1157
  92   2.0000      -0.309802        -8.4301
  93   2.0000      -0.280416        -7.6305
  94   0.0000       0.012343         0.3359
  95   0.0000       0.018617         0.5066
  96   0.0000       0.023234         0.6322
  97   0.0000       0.025781         0.7015
  98   0.0000       0.030878         0.8402

MULLIKEN ATOMIC CHARGES
-----------------------
   0 C :   -0.939988
   1 C :   -0.721848
   2 C :    1.530006
   3 C :   -0.105493
   4 C :    0.267766
   5 C :    0.923505
   6 C :   -0.276286
   7 C :    0.966745
   8 C :    0.880173
   9 C :   -0.545931
  10 C :   -0.750496
  11 C :    0.146868
  12 C :   -0.029013
  13 C :   -0.752898
  14 C :    1.746596
  15 C :   -1.201570
  16 C :    0.680159
  17 C :   -1.046828
  18 C :    0.626429
  19 C :   -1.061822
  20 C :   -1.262090
  21 O :   -1.206993
  22 O :   -1.247434
  23 O :   -1.449116
  24 O :   -0.972842
  25 H :    0.225457
  26 H :    0.278771
  27 H :    0.175434
  28 H :    0.123738
  29 H :    0.195399
  30 H :    0.181429
  31 H :    0.080860
  32 H :    0.061022
  33 H :   -0.134467
  34 H :    0.134857
  35 H :    0.457362
  36 H :    0.232417
  37 H :    0.149005
  38 H :    0.265501
  39 H :    0.090774
  40 H :    0.189839
  41 H :    0.208199
  42 H :    0.247921
  43 H :    0.205985
  44 H :    0.239306
  45 H :    0.142866
  46 H :    0.122858
  47 H :    0.269950
  48 H :    0.099325
  49 H :    0.151408
  50 H :    0.078914
  51 H :    0.211085
  52 H :    0.315262
  53 H :    0.519726
  54 H :    0.282204
Sum of atomic charges:   -0.0000000

LOEWDIN ATOMIC CHARGES
----------------------
   0 C :    0.945422
   1 C :    0.501181
   2 C :   -0.219346
   3 C :    0.135918
   4 C :    0.320490
   5 C :    0.010003
   6 C :    0.313766
   7 C :    0.155705
   8 C :    0.134959
   9 C :    0.400323
  10 C :    0.406651
  11 C :    0.265696
  12 C :    0.357535
  13 C :    0.222435
  14 C :   -1.057539
  15 C :    0.946980
  16 C :   -0.169375
  17 C :    0.538338
  18 C :   -0.152323
  19 C :    0.534116
  20 C :    0.939568
  21 O :    0.685301
  22 O :    0.891037
  23 O :    1.344438
  24 O :    1.328729
  25 H :   -0.285955
  26 H :   -0.276397
  27 H :   -0.276786
  28 H :   -0.286592
  29 H :   -0.258672
  30 H :   -0.329129
  31 H :   -0.309213
  32 H :   -0.310325
  33 H :   -0.321470
  34 H :   -0.326022
  35 H :   -0.297946
  36 H :   -0.326964
  37 H :   -0.304499
  38 H :   -0.337009
  39 H :   -0.304559
  40 H :   -0.356582
  41 H :   -0.263613
  42 H :   -0.260460
  43 H :   -0.279754
  44 H :   -0.290434
  45 H :   -0.256863
  46 H :   -0.260501
  47 H :   -0.272592
  48 H :   -0.256479
  49 H :   -0.256369
  50 H :   -0.260412
  51 H :   -0.262725
  52 H :   -0.309831
  53 H :   -0.904253
  54 H :   -0.737600

  Mayer bond orders larger than 0.100000
B(  0-C ,  1-C ) :   0.8811 B(  0-C ,  2-C ) :  -0.1514 B(  0-C , 25-H ) :   0.9824
B(  0-C , 26-H ) :   1.0467 B(  0-C , 27-H ) :   1.0077 B(  1-C ,  2-C ) :  -0.1956
B(  1-C , 22-O ) :   0.1689 B(  1-C , 26-H ) :  -0.1334 B(  1-C , 28-H ) :   1.1971
B(  1-C , 29-H ) :   1.1236 B(  2-C ,  3-C ) :   0.6513 B(  2-C ,  4-C ) :   0.1353
B(  2-C , 22-O ) :  -0.5108 B(  2-C , 28-H ) :  -0.2938 B(  2-C , 29-H ) :  -0.1781
B(  2-C , 30-H ) :   1.0565 B(  3-C ,  4-C ) :   0.6039 B(  3-C , 15-C ) :   0.4245
B(  3-C , 22-O ) :   0.1642 B(  3-C , 31-H ) :   1.0940 B(  3-C , 41-H ) :  -0.2647
B(  3-C , 43-H ) :  -0.1728 B(  4-C ,  5-C ) :   1.0673 B(  4-C ,  6-C ) :  -0.5268
B(  4-C , 11-C ) :   0.1840 B(  4-C , 13-C ) :   0.2995 B(  4-C , 15-C ) :  -0.4560
B(  4-C , 21-O ) :   0.1869 B(  4-C , 22-O ) :   0.1191 B(  4-C , 32-H ) :   1.2967
B(  4-C , 33-H ) :  -0.1186 B(  4-C , 42-H ) :  -0.1030 B(  5-C ,  6-C ) :   1.0602
B(  5-C ,  7-C ) :  -0.2395 B(  5-C , 11-C ) :  -0.1506 B(  5-C , 32-H ) :  -0.1589
B(  5-C , 33-H ) :  -0.2448 B(  5-C , 50-H ) :  -0.3700 B(  5-C , 51-H ) :  -0.2562
B(  6-C ,  7-C ) :   1.0942 B(  6-C ,  9-C ) :   0.1302 B(  6-C , 10-C ) :   0.2274
B(  6-C , 11-C ) :   0.4051 B(  6-C , 13-C ) :   0.2389 B(  6-C , 23-O ) :  -0.1609
B(  6-C , 32-H ) :  -0.1614 B(  6-C , 33-H ) :   1.1468 B(  7-C ,  8-C ) :   1.0862
B(  7-C ,  9-C ) :  -0.2183 B(  7-C , 10-C ) :  -0.1750 B(  7-C , 16-C ) :   0.6607
B(  7-C , 17-C ) :  -0.1743 B(  7-C , 20-C ) :  -0.1397 B(  7-C , 23-O ) :  -0.2872
B(  7-C , 34-H ) :   0.8214 B(  7-C , 44-H ) :  -0.1376 B(  7-C , 45-H ) :  -0.1318
B(  8-C ,  9-C ) :   0.8160 B(  8-C , 18-C ) :  -0.2167 B(  8-C , 19-C ) :  -0.1014
B(  8-C , 24-O ) :  -0.1013 B(  8-C , 35-H ) :   0.7576 B(  8-C , 36-H ) :  -0.1196
B(  8-C , 48-H ) :  -0.2988 B(  8-C , 49-H ) :  -0.2003 B(  9-C , 10-C ) :   1.4697
B(  9-C , 11-C ) :  -0.3971 B(  9-C , 19-C ) :  -0.1230 B(  9-C , 33-H ) :   0.1045
B(  9-C , 35-H ) :  -0.1060 B(  9-C , 36-H ) :   1.2059 B(  9-C , 37-H ) :  -0.2582
B(  9-C , 38-H ) :  -0.1114 B( 10-C , 11-C ) :   0.8126 B( 10-C , 12-C ) :  -0.5167
B( 10-C , 33-H ) :   0.1442 B( 10-C , 35-H ) :  -0.1200 B( 10-C , 36-H ) :  -0.2671
B( 10-C , 37-H ) :   1.2593 B( 10-C , 38-H ) :  -0.1318 B( 11-C , 12-C ) :   0.8564
B( 11-C , 13-C ) :  -0.6072 B( 11-C , 38-H ) :   1.2721 B( 11-C , 39-H ) :  -0.1327
B( 12-C , 13-C ) :   0.6657 B( 12-C , 14-C ) :  -0.4429 B( 12-C , 38-H ) :  -0.1438
B( 12-C , 39-H ) :   1.3227 B( 12-C , 40-H ) :  -0.1810 B( 13-C , 14-C ) :   1.4727
B( 13-C , 21-O ) :   0.4294 B( 13-C , 22-O ) :   0.1434 B( 13-C , 40-H ) :   1.1904
B( 14-C , 21-O ) :   0.1536 B( 14-C , 22-O ) :   0.9409 B( 15-C , 41-H ) :   1.1582
B( 15-C , 42-H ) :   1.0847 B( 15-C , 43-H ) :   1.1688 B( 16-C , 17-C ) :   0.6751
B( 16-C , 44-H ) :   1.1483 B( 16-C , 46-H ) :  -0.1613 B( 17-C , 18-C ) :   0.7992
B( 17-C , 23-O ) :   0.2689 B( 17-C , 24-O ) :   0.1794 B( 17-C , 44-H ) :  -0.1156
B( 17-C , 45-H ) :   1.1880 B( 17-C , 46-H ) :   1.1792 B( 18-C , 19-C ) :   0.9579
B( 18-C , 24-O ) :   0.3175 B( 18-C , 47-H ) :   0.9932 B( 19-C , 24-O ) :   0.1778
B( 19-C , 48-H ) :   1.3639 B( 19-C , 49-H ) :   1.2885 B( 20-C , 50-H ) :   1.3764
B( 20-C , 51-H ) :   1.1648 B( 20-C , 52-H ) :   1.0601 B( 21-O , 22-O ) :   0.2786
B( 22-O , 30-H ) :   0.1309 B( 23-O , 53-H ) :   0.6425 B( 24-O , 54-H ) :   0.9308
B( 50-H , 51-H ) :   0.1421

MP2 TOTAL ENERGY:    -1117.302265011 Eh
FINAL SINGLE POINT ENERGY     -1117.302265010996

DIPOLE MOMENT
-------------
                                X             Y             Z
Electronic contribution:      5.20355      14.03486       6.17487
Nuclear contribution   :     -3.34879     -16.55228      -7.58094
                        -----------------------------------------
Total Dipole Moment    :      1.85476      -2.51741      -1.40606
                        -----------------------------------------
Magnitude (a.u.)       :      3.42848
Magnitude (Debye)      :      8.71451

Rotational constants in cm-1:     0.017370     0.003762     0.003525
Rotational constants in MHz :   520.736615   112.785323   105.665105

                             ****ORCA TERMINATED NORMALLY****
TOTAL RUN TIME: 1 days 2 hours 13 minutes 4 seconds 199 msec
