                         Program Version 4.2.1 -  RELEASE  -
|  1> %pal
|  2>  nprocs 32
|  3> end
|  4> !RI-MP2 aug-cc-pVQZ aug-cc-pVQZ/C TightSCF
|  5> %maxcore 4500
|  6> *xyzfile 0 1  10_81P.xyz
|  7>
|  8>
|  9>                          ****END OF INPUT****

CARTESIAN COORDINATES (ANGSTROEM)
---------------------------------
  C      1.837832    2.078807   -0.381962
  C      1.512303    0.993393   -1.400633
  C      0.724731   -0.176299   -0.776203
  C     -0.495438    0.364142   -0.077271
  C     -0.280110    1.505147    0.869139
  C      0.554393    2.625229    0.234120
  H      2.398361    2.884107   -0.861965
  H      2.480041    1.669428    0.405273
  H      2.416311    0.608980   -1.874240
  H      0.902833    1.421561   -2.202790
  H     -1.231267    1.887810    1.237669
  H      0.262307    1.107630    1.732783
  H      0.774476    3.376899    0.994683
  H     -0.038532    3.122808   -0.540193
  C     -1.717451   -0.157842   -0.303456
  C     -1.916491   -1.265820   -1.189300
  C     -2.890792    0.346846    0.344703
  N     -2.071959   -2.154222   -1.900152
  N     -3.830677    0.753622    0.864073
  C      0.743502   -1.759186    2.512267
  C      1.161519   -1.398382    1.335805
  C      1.575025   -1.041068    0.154035
  H      0.133317   -2.646389    2.643698
  H      0.990014   -1.187823    3.401298
  C      2.884546   -1.545153   -0.398156
  H      0.407619   -0.834275   -1.590210
  H      3.310631   -2.302996    0.256863
  H      3.612243   -0.736416   -0.500453
  H      2.738677   -1.986006   -1.388405

 Total Charge           Charge          ....    0
 Multiplicity           Mult            ....    1
 Number of Electrons    NEL             ....  106
 Basis Dimension        Dim             .... 1844

ORBITAL ENERGIES
----------------

  NO   OCC          E(Eh)            E(eV)
   0   2.0000     -15.579517      -423.9402
   1   2.0000     -15.578870      -423.9226
   2   2.0000     -11.317587      -307.9672
   3   2.0000     -11.312844      -307.8381
   4   2.0000     -11.286638      -307.1250
   5   2.0000     -11.285963      -307.1067
   6   2.0000     -11.275829      -306.8309
   7   2.0000     -11.268510      -306.6317
   8   2.0000     -11.261289      -306.4353
   9   2.0000     -11.256927      -306.3166
  10   2.0000     -11.250649      -306.1457
  11   2.0000     -11.248475      -306.0866
  12   2.0000     -11.248217      -306.0796
  13   2.0000     -11.244469      -305.9776
  14   2.0000     -11.242979      -305.9370
  15   2.0000      -1.247241       -33.9391
  16   2.0000      -1.229264       -33.4500
  17   2.0000      -1.192290       -32.4439
  18   2.0000      -1.122504       -30.5449
  19   2.0000      -1.103764       -30.0350
  20   2.0000      -1.051260       -28.6062
  21   2.0000      -1.014587       -27.6083
  22   2.0000      -0.998105       -27.1598
  23   2.0000      -0.917713       -24.9722
  24   2.0000      -0.875452       -23.8222
  25   2.0000      -0.860031       -23.4026
  26   2.0000      -0.790000       -21.4970
  27   2.0000      -0.785280       -21.3686
  28   2.0000      -0.726217       -19.7614
  29   2.0000      -0.691375       -18.8133
  30   2.0000      -0.661623       -18.0037
  31   2.0000      -0.648723       -17.6527
  32   2.0000      -0.632499       -17.2112
  33   2.0000      -0.622438       -16.9374
  34   2.0000      -0.611131       -16.6297
  35   2.0000      -0.592061       -16.1108
  36   2.0000      -0.585317       -15.9273
  37   2.0000      -0.573733       -15.6121
  38   2.0000      -0.573532       -15.6066
  39   2.0000      -0.572436       -15.5768
  40   2.0000      -0.563424       -15.3315
  41   2.0000      -0.550315       -14.9748
  42   2.0000      -0.542675       -14.7669
  43   2.0000      -0.521063       -14.1788
  44   2.0000      -0.499308       -13.5869
  45   2.0000      -0.491892       -13.3851
  46   2.0000      -0.490000       -13.3336
  47   2.0000      -0.486934       -13.2502
  48   2.0000      -0.482334       -13.1250
  49   2.0000      -0.468378       -12.7452
  50   2.0000      -0.391338       -10.6488
  51   2.0000      -0.381611       -10.3842
  52   2.0000      -0.372494       -10.1361
  53   0.0000       0.014364         0.3909
  54   0.0000       0.021963         0.5976
  55   0.0000       0.023246         0.6326
  56   0.0000       0.029888         0.8133
  57   0.0000       0.036288         0.9874

MULLIKEN ATOMIC CHARGES
-----------------------
   0 C :   -0.478096
   1 C :   -0.468695
   2 C :    0.675098
   3 C :    0.741940
   4 C :   -0.360592
   5 C :   -0.630193
   6 H :    0.251360
   7 H :    0.157966
   8 H :    0.134770
   9 H :    0.154482
  10 H :    0.298990
  11 H :    0.218519
  12 H :    0.256827
  13 H :    0.164963
  14 C :   -0.712835
  15 C :    0.644560
  16 C :    0.706116
  17 N :   -0.933975
  18 N :   -0.935017
  19 C :   -0.706845
  20 C :   -0.288955
  21 C :    0.242358
  22 H :    0.350054
  23 H :    0.315063
  24 C :   -0.955763
  25 H :    0.383284
  26 H :    0.317375
  27 H :    0.223572
  28 H :    0.233670
Sum of atomic charges:    0.0000000

LOEWDIN ATOMIC CHARGES
----------------------
   0 C :    0.553384
   1 C :    0.548909
   2 C :    0.086791
   3 C :   -0.087105
   4 C :    0.535948
   5 C :    0.569892
   6 H :   -0.247047
   7 H :   -0.259359
   8 H :   -0.277497
   9 H :   -0.243642
  10 H :   -0.308504
  11 H :   -0.279304
  12 H :   -0.247971
  13 H :   -0.251448
  14 C :   -0.203223
  15 C :   -0.344679
  16 C :   -0.346015
  17 N :    0.458397
  18 N :    0.450700
  19 C :    0.769354
  20 C :    0.199453
  21 C :   -0.063840
  22 H :   -0.366763
  23 H :   -0.366833
  24 C :    0.906927
  25 H :   -0.341505
  26 H :   -0.290876
  27 H :   -0.286814
  28 H :   -0.267329

  Mayer bond orders larger than 0.100000
B(  0-C ,  1-C ) :   0.7789 B(  0-C ,  2-C ) :  -0.1104 B(  0-C ,  3-C ) :   0.1130
B(  0-C ,  4-C ) :  -0.1408 B(  0-C ,  5-C ) :   0.9489 B(  0-C ,  6-H ) :   0.9579
B(  0-C ,  7-H ) :   1.0304 B(  1-C ,  2-C ) :   0.5726 B(  1-C ,  5-C ) :  -0.1025
B(  1-C ,  8-H ) :   1.1386 B(  1-C ,  9-H ) :   1.1567 B(  1-C , 21-C ) :  -0.1621
B(  2-C ,  3-C ) :   0.6191 B(  2-C ,  9-H ) :  -0.1124 B(  2-C , 14-C ) :  -0.4084
B(  2-C , 21-C ) :   0.3487 B(  2-C , 25-H ) :   0.8594 B(  3-C ,  4-C ) :   0.4698
B(  3-C , 14-C ) :   1.2980 B(  3-C , 15-C ) :  -0.3818 B(  3-C , 16-C ) :  -0.4265
B(  3-C , 21-C ) :   0.1193 B(  4-C ,  5-C ) :   0.9220 B(  4-C , 10-H ) :   0.9672
B(  4-C , 11-H ) :   0.9290 B(  5-C , 12-H ) :   0.9618 B(  5-C , 13-H ) :   1.0755
B( 14-C , 15-C ) :   1.4639 B( 14-C , 16-C ) :   1.4894 B( 14-C , 21-C ) :   0.1161
B( 15-C , 17-N ) :   2.1352 B( 16-C , 18-N ) :   2.0884 B( 19-C , 20-C ) :   1.8075
B( 19-C , 21-C ) :  -0.3539 B( 19-C , 22-H ) :   0.9975 B( 19-C , 23-H ) :   0.9969
B( 20-C , 21-C ) :   1.7743 B( 20-C , 22-H ) :  -0.1540 B( 20-C , 23-H ) :  -0.1260
B( 21-C , 24-C ) :   0.2581 B( 21-C , 27-H ) :  -0.1578 B( 21-C , 28-H ) :  -0.1844
B( 24-C , 26-H ) :   0.9839 B( 24-C , 27-H ) :   1.0756 B( 24-C , 28-H ) :   1.1056

MP2 TOTAL ENERGY:     -612.139239831 Eh
FINAL SINGLE POINT ENERGY      -612.139239831460

DIPOLE MOMENT
-------------
                                X             Y             Z
Electronic contribution:    -16.58661      -5.38716      -1.37429
Nuclear contribution   :     19.20019       6.40304       1.71488
                        -----------------------------------------
Total Dipole Moment    :      2.61359       1.01588       0.34059
                        -----------------------------------------
Magnitude (a.u.)       :      2.82469
Magnitude (Debye)      :      7.17978

Rotational constants in cm-1:     0.024380     0.016978     0.014492
Rotational constants in MHz :   730.892385   508.997872   434.465951

                             ****ORCA TERMINATED NORMALLY****
TOTAL RUN TIME: 0 days 3 hours 20 minutes 30 seconds 622 msec
