                         Program Version 4.2.1 -  RELEASE  -
|  1> %pal
|  2>  nprocs 32
|  3> end
|  4> !RI-MP2 aug-cc-pVQZ aug-cc-pVQZ/C TightSCF
|  5> %maxcore 4500
|  6> *xyzfile 0 1  05_24R1.xyz
|  7>
|  8>
|  9>                          ****END OF INPUT****

CARTESIAN COORDINATES (ANGSTROEM)
---------------------------------
  C     -1.149974    1.445686   -0.030380
  N     -2.465392    0.945075    0.039984
  C     -2.757542   -0.379946    0.080984
  N     -1.849567   -1.301785    0.059863
  C     -0.547746   -0.889234   -0.019645
  C     -0.162109    0.429492   -0.019853
  N      1.198751    0.795876   -0.037359
  C      2.085038   -0.193998   -0.637274
  C      1.803324   -1.550250    0.012471
  N      0.390918   -1.870064   -0.108248
  H      2.127575   -1.517874    1.054522
  H      2.381966   -2.319774   -0.502478
  C      3.530831    0.245378   -0.441270
  N      3.863942    0.324932    0.974739
  H      3.665254    1.196569   -0.979291
  H      4.189282   -0.484500   -0.920438
  O     -0.957375    2.653538   -0.103967
  H     -3.193293    1.641536   -0.036832
  N     -4.088481   -0.724469    0.099774
  H     -4.721950   -0.109813    0.586747
  H     -4.241515   -1.705904    0.274187
  H      0.070145   -2.810005    0.055449
  H      3.213343    0.942226    1.447854
  H      4.802382    0.674232    1.117706
  H      1.305637    1.728825   -0.420024
  H      1.898049   -0.293544   -1.717131

 Total Charge           Charge          ....    0
 Multiplicity           Mult            ....    1
 Number of Electrons    NEL             ....  104
 Basis Dimension        Dim             .... 1672

ORBITAL ENERGIES
----------------

  NO   OCC          E(Eh)            E(eV)
   0   2.0000     -20.501122      -557.8639
   1   2.0000     -15.615970      -424.9321
   2   2.0000     -15.598495      -424.4566
   3   2.0000     -15.570136      -423.6849
   4   2.0000     -15.546889      -423.0524
   5   2.0000     -15.542886      -422.9434
   6   2.0000     -15.530726      -422.6125
   7   2.0000     -11.379450      -309.6506
   8   2.0000     -11.341865      -308.6278
   9   2.0000     -11.317709      -307.9705
  10   2.0000     -11.257983      -306.3453
  11   2.0000     -11.256404      -306.3023
  12   2.0000     -11.248813      -306.0958
  13   2.0000     -11.229983      -305.5834
  14   2.0000      -1.382750       -37.6265
  15   2.0000      -1.334916       -36.3249
  16   2.0000      -1.281108       -34.8607
  17   2.0000      -1.215479       -33.0749
  18   2.0000      -1.213185       -33.0125
  19   2.0000      -1.179435       -32.0941
  20   2.0000      -1.167081       -31.7579
  21   2.0000      -1.045198       -28.4413
  22   2.0000      -0.964784       -26.2531
  23   2.0000      -0.929271       -25.2867
  24   2.0000      -0.870961       -23.7001
  25   2.0000      -0.865793       -23.5594
  26   2.0000      -0.790577       -21.5127
  27   2.0000      -0.778837       -21.1932
  28   2.0000      -0.734424       -19.9847
  29   2.0000      -0.706593       -19.2274
  30   2.0000      -0.689151       -18.7527
  31   2.0000      -0.683609       -18.6019
  32   2.0000      -0.670949       -18.2575
  33   2.0000      -0.656290       -17.8586
  34   2.0000      -0.638828       -17.3834
  35   2.0000      -0.625554       -17.0222
  36   2.0000      -0.608743       -16.5647
  37   2.0000      -0.599116       -16.3028
  38   2.0000      -0.595729       -16.2106
  39   2.0000      -0.564402       -15.3582
  40   2.0000      -0.550925       -14.9914
  41   2.0000      -0.531803       -14.4711
  42   2.0000      -0.515401       -14.0248
  43   2.0000      -0.499110       -13.5815
  44   2.0000      -0.487714       -13.2714
  45   2.0000      -0.450161       -12.2495
  46   2.0000      -0.440879       -11.9969
  47   2.0000      -0.425470       -11.5776
  48   2.0000      -0.412045       -11.2123
  49   2.0000      -0.392173       -10.6716
  50   2.0000      -0.372070       -10.1245
  51   2.0000      -0.266355        -7.2479
  52   0.0000       0.016858         0.4587
  53   0.0000       0.025076         0.6824
  54   0.0000       0.030735         0.8363
  55   0.0000       0.034808         0.9472
  56   0.0000       0.038177         1.0389

MULLIKEN ATOMIC CHARGES
-----------------------
   0 C :    1.594812
   1 N :   -0.699400
   2 C :    0.765145
   3 N :   -0.800380
   4 C :    1.279949
   5 C :   -0.655306
   6 N :   -0.461944
   7 C :    0.176728
   8 C :   -0.231047
   9 N :   -0.750876
  10 H :    0.243453
  11 H :    0.383791
  12 C :   -0.333747
  13 N :   -0.737356
  14 H :    0.187410
  15 H :    0.256095
  16 O :   -0.957135
  17 H :    0.017235
  18 N :   -0.823474
  19 H :    0.300212
  20 H :    0.299039
  21 H :    0.031183
  22 H :    0.268990
  23 H :    0.124368
  24 H :    0.135972
  25 H :    0.386282
Sum of atomic charges:    0.0000000

LOEWDIN ATOMIC CHARGES
----------------------
   0 C :   -0.864904
   1 N :    0.819276
   2 C :   -0.630641
   3 N :    0.619457
   4 C :   -0.495266
   5 C :   -0.282738
   6 N :    0.868707
   7 C :   -0.053851
   8 C :    0.395648
   9 N :    0.881381
  10 H :   -0.283925
  11 H :   -0.264650
  12 C :    0.355177
  13 N :    1.288907
  14 H :   -0.263192
  15 H :   -0.280609
  16 O :    0.689509
  17 H :   -0.492751
  18 N :    1.275077
  19 H :   -0.486378
  20 H :   -0.510549
  21 H :   -0.483410
  22 H :   -0.522528
  23 H :   -0.492920
  24 H :   -0.529200
  25 H :   -0.255627

  Mayer bond orders larger than 0.100000
B(  0-C ,  1-N ) :   0.9125 B(  0-C ,  4-C ) :  -0.3367 B(  0-C ,  5-C ) :   1.5115
B(  0-C , 16-O ) :   0.3221 B(  0-C , 17-H ) :  -0.1701 B(  1-N ,  2-C ) :   1.0524
B(  1-N ,  5-C ) :  -0.1372 B(  1-N , 16-O ) :   0.2870 B(  1-N , 17-H ) :   1.3005
B(  2-C ,  3-N ) :   1.7394 B(  2-C , 18-N ) :   1.0125 B(  3-N ,  4-C ) :   0.5668
B(  3-N ,  5-C ) :   0.1623 B(  4-C ,  5-C ) :   1.4480 B(  4-C ,  6-N ) :   0.1095
B(  4-C ,  9-N ) :   0.7524 B(  4-C , 21-H ) :  -0.1792 B(  5-C ,  6-N ) :   0.8457
B(  5-C ,  9-N ) :   0.1117 B(  5-C , 16-O ) :   0.8149 B(  6-N ,  7-C ) :   0.5262
B(  6-N , 24-H ) :   1.1104 B(  7-C ,  8-C ) :   0.8081 B(  7-C ,  9-N ) :   0.1238
B(  7-C , 12-C ) :   0.6955 B(  7-C , 25-H ) :   0.8021 B(  8-C ,  9-N ) :   0.7323
B(  8-C , 10-H ) :   0.9771 B(  8-C , 11-H ) :   0.8358 B(  9-N , 21-H ) :   1.3033
B( 12-C , 13-N ) :   0.8015 B( 12-C , 14-H ) :   1.0530 B( 12-C , 15-H ) :   0.9759
B( 13-N , 22-H ) :   0.8924 B( 13-N , 23-H ) :   1.0580 B( 18-N , 19-H ) :   0.9062
B( 18-N , 20-H ) :   0.8955

MP2 TOTAL ENERGY:     -676.719691592 Eh
FINAL SINGLE POINT ENERGY      -676.719691591812

DIPOLE MOMENT
-------------
                                X             Y             Z
Electronic contribution:    -12.15415       1.90808       0.08835
Nuclear contribution   :     11.41221      -3.01314      -0.03517
                        -----------------------------------------
Total Dipole Moment    :     -0.74194      -1.10507       0.05318
                        -----------------------------------------
Magnitude (a.u.)       :      1.33209
Magnitude (Debye)      :      3.38591

Rotational constants in cm-1:     0.049156     0.014951     0.011974
Rotational constants in MHz :  1473.660208   448.227955   358.986309

                             ****ORCA TERMINATED NORMALLY****
TOTAL RUN TIME: 0 days 2 hours 9 minutes 35 seconds 373 msec
