                         Program Version 4.2.1 -  RELEASE  -
|  1> %pal
|  2>  nprocs 32
|  3> end
|  4> !RI-MP2 aug-cc-pVQZ aug-cc-pVQZ/C TightSCF
|  5> %maxcore 4500
|  6> *xyzfile -1 1  09_7P.xyz
|  7>
|  8>
|  9>                          ****END OF INPUT****

CARTESIAN COORDINATES (ANGSTROEM)
---------------------------------
  C     -1.784944    1.588583   -0.066194
  C     -2.354329    0.192346    0.067273
  O     -3.504459   -0.040566   -0.260647
  C     -1.419416   -0.865517    0.569164
  C     -0.368214   -1.205468   -0.512123
  C      0.921067   -0.850920   -0.552108
  C      1.475432   -0.017642    0.542310
  O      2.922424    0.008802    0.620469
  C      3.516444    0.490326   -0.552641
  H     -2.511419    2.242011   -0.548043
  H     -1.536708    1.980313    0.924933
  H     -0.859334    1.550215   -0.641421
  H      1.151075    1.036688    0.442048
  H      1.194059   -0.351127    1.554425
  H      4.599211    0.391140   -0.437421
  H      3.168339   -0.076539   -1.421595
  H      3.274863    1.556276   -0.714546
  H     -0.804194   -1.816547   -1.307097
  H     -2.020090   -1.743294    0.823837
  H     -0.915757   -0.505266    1.472213

 Total Charge           Charge          ....   -1
 Multiplicity           Mult            ....    1
 Number of Electrons    NEL             ....   70
 Basis Dimension        Dim             .... 1226

ORBITAL ENERGIES
----------------

  NO   OCC          E(Eh)            E(eV)
   0   2.0000     -20.404225      -555.2272
   1   2.0000     -20.391034      -554.8683
   2   2.0000     -11.189619      -304.4850
   3   2.0000     -11.116751      -302.5022
   4   2.0000     -11.105830      -302.2050
   5   2.0000     -11.101120      -302.0768
   6   2.0000     -11.077345      -301.4299
   7   2.0000     -11.026612      -300.0494
   8   2.0000     -10.989567      -299.0413
   9   2.0000      -1.245902       -33.9027
  10   2.0000      -1.206009       -32.8172
  11   2.0000      -0.919096       -25.0099
  12   2.0000      -0.861509       -23.4429
  13   2.0000      -0.820506       -22.3271
  14   2.0000      -0.766588       -20.8599
  15   2.0000      -0.691783       -18.8244
  16   2.0000      -0.598609       -16.2890
  17   2.0000      -0.540291       -14.7021
  18   2.0000      -0.510398       -13.8886
  19   2.0000      -0.503827       -13.7098
  20   2.0000      -0.492138       -13.3918
  21   2.0000      -0.488982       -13.3059
  22   2.0000      -0.472795       -12.8654
  23   2.0000      -0.442069       -12.0293
  24   2.0000      -0.424503       -11.5513
  25   2.0000      -0.399892       -10.8816
  26   2.0000      -0.392397       -10.6777
  27   2.0000      -0.370811       -10.0903
  28   2.0000      -0.355233        -9.6664
  29   2.0000      -0.339419        -9.2361
  30   2.0000      -0.315391        -8.5822
  31   2.0000      -0.279290        -7.5999
  32   2.0000      -0.264367        -7.1938
  33   2.0000      -0.146587        -3.9888
  34   2.0000      -0.104516        -2.8440
  35   0.0000       0.103292         2.8107
  36   0.0000       0.108113         2.9419
  37   0.0000       0.111407         3.0315
  38   0.0000       0.116892         3.1808
  39   0.0000       0.122782         3.3411

MULLIKEN ATOMIC CHARGES
-----------------------
   0 C :   -0.979528
   1 C :    0.897410
   2 O :   -0.893267
   3 C :   -0.625978
   4 C :   -0.588686
   5 C :   -0.644413
   6 C :    0.265822
   7 O :   -0.897197
   8 C :   -0.692240
   9 H :    0.332159
  10 H :    0.219112
  11 H :    0.305825
  12 H :    0.082178
  13 H :    0.333639
  14 H :    0.431863
  15 H :    0.264715
  16 H :    0.217261
  17 H :    0.310571
  18 H :    0.346294
  19 H :    0.314462
Sum of atomic charges:   -1.0000000

LOEWDIN ATOMIC CHARGES
----------------------
   0 C :    0.867310
   1 C :   -0.684318
   2 O :    0.700840
   3 C :    0.375835
   4 C :    0.169143
   5 C :    0.168098
   6 C :   -0.039454
   7 O :    0.824883
   8 C :    0.462851
   9 H :   -0.320671
  10 H :   -0.290320
  11 H :   -0.332870
  12 H :   -0.358955
  13 H :   -0.374558
  14 H :   -0.347557
  15 H :   -0.388547
  16 H :   -0.321927
  17 H :   -0.417904
  18 H :   -0.329629
  19 H :   -0.362249

  Mayer bond orders larger than 0.100000
B(  0-C ,  1-C ) :   0.9153 B(  0-C ,  2-O ) :   0.1647 B(  0-C ,  9-H ) :   0.9401
B(  0-C , 10-H ) :   0.9682 B(  0-C , 11-H ) :   0.9036 B(  1-C ,  2-O ) :   0.9406
B(  1-C ,  3-C ) :   0.9882 B(  2-O ,  3-C ) :   0.1648 B(  3-C ,  4-C ) :   0.8922
B(  3-C , 18-H ) :   0.8783 B(  3-C , 19-H ) :   0.9075 B(  4-C ,  5-C ) :   1.6322
B(  4-C , 17-H ) :   0.9105 B(  5-C ,  6-C ) :   0.9886 B(  6-C ,  7-O ) :   0.4490
B(  6-C , 12-H ) :   0.9544 B(  6-C , 13-H ) :   0.8563 B(  7-O ,  8-C ) :   0.9558
B(  8-C , 14-H ) :   0.8260 B(  8-C , 15-H ) :   0.8791 B(  8-C , 16-H ) :   0.9505

MP2 TOTAL ENERGY:     -423.058690915 Eh
FINAL SINGLE POINT ENERGY      -423.058690914901

DIPOLE MOMENT
-------------
                                X             Y             Z
Electronic contribution:     -5.15644      -2.73170       0.78158
Nuclear contribution   :      4.82105       4.34464       0.15592
                        -----------------------------------------
Total Dipole Moment    :     -0.33539       1.61293       0.93750
                        -----------------------------------------
Magnitude (a.u.)       :      1.89551
Magnitude (Debye)      :      4.81799

Rotational constants in cm-1:     0.132448     0.022616     0.021090
Rotational constants in MHz :  3970.687643   678.019315   632.269540

                             ****ORCA TERMINATED NORMALLY****
TOTAL RUN TIME: 0 days 0 hours 44 minutes 45 seconds 620 msec
