                         Program Version 4.2.1 -  RELEASE  -
|  1> %pal
|  2>  nprocs 32
|  3> end
|  4> !RI-MP2 aug-cc-pVQZ aug-cc-pVQZ/C TightSCF
|  5> %maxcore 4500
|  6> *xyzfile 0 1  09_12P.xyz
|  7>
|  8>
|  9>                          ****END OF INPUT****

CARTESIAN COORDINATES (ANGSTROEM)
---------------------------------
  C     -0.130998   -1.832230   -0.336168
  C      0.990238   -1.085813   -0.845927
  H      0.009853   -2.167562    0.689975
  H      1.060735   -0.828566   -1.894854
  H     -0.431079   -2.659142   -0.979103
  S      1.690127    0.048209    0.193063
  O      1.427588    1.446350   -0.238849
  O      1.311694   -0.290458    1.579958
  C      3.454961   -0.154658    0.082005
  C      4.239444    0.798143   -0.385226
  H      3.787887   -1.124638    0.429091
  H      5.312022    0.658156   -0.448716
  H      3.815687    1.741064   -0.709680
  C     -2.741483   -1.441233    0.078435
  C     -1.514732    0.331877   -0.286613
  C     -3.554357   -0.359449    0.183055
  H     -2.956623   -2.489885    0.192405
  H     -4.606221   -0.277714    0.397124
  N     -1.481151   -0.985919   -0.218873
  N     -2.764284    0.747189   -0.048330
  C     -3.193082    2.137824   -0.013339
  H     -3.618849    2.369559    0.962117
  H     -2.324803    2.771245   -0.180061
  H     -3.931072    2.323653   -0.793116
  H     -0.655739    0.969678   -0.469975

 Total Charge           Charge          ....    0
 Multiplicity           Mult            ....    1
 Number of Electrons    NEL             ....  106
 Basis Dimension        Dim             .... 1596

ORBITAL ENERGIES
----------------

  NO   OCC          E(Eh)            E(eV)
   0   2.0000     -92.116556     -2506.6189
   1   2.0000     -20.486450      -557.4646
   2   2.0000     -20.485968      -557.4515
   3   2.0000     -15.670376      -426.4126
   4   2.0000     -15.641556      -425.6284
   5   2.0000     -11.346781      -308.7616
   6   2.0000     -11.310454      -307.7731
   7   2.0000     -11.305381      -307.6350
   8   2.0000     -11.301248      -307.5226
   9   2.0000     -11.278634      -306.9072
  10   2.0000     -11.231069      -305.6129
  11   2.0000     -11.223065      -305.3951
  12   2.0000     -11.156687      -303.5889
  13   2.0000      -9.085336      -247.2246
  14   2.0000      -6.770692      -184.2399
  15   2.0000      -6.770220      -184.2271
  16   2.0000      -6.769851      -184.2170
  17   2.0000      -1.414584       -38.4928
  18   2.0000      -1.379638       -37.5419
  19   2.0000      -1.268575       -34.5197
  20   2.0000      -1.262091       -34.3432
  21   2.0000      -1.085181       -29.5293
  22   2.0000      -1.050726       -28.5917
  23   2.0000      -1.034835       -28.1593
  24   2.0000      -1.004708       -27.3395
  25   2.0000      -0.913871       -24.8677
  26   2.0000      -0.866139       -23.5689
  27   2.0000      -0.846682       -23.0394
  28   2.0000      -0.801031       -21.7972
  29   2.0000      -0.764360       -20.7993
  30   2.0000      -0.715744       -19.4764
  31   2.0000      -0.699358       -19.0305
  32   2.0000      -0.666230       -18.1290
  33   2.0000      -0.661680       -18.0052
  34   2.0000      -0.649290       -17.6681
  35   2.0000      -0.638790       -17.3824
  36   2.0000      -0.634352       -17.2616
  37   2.0000      -0.618468       -16.8294
  38   2.0000      -0.610900       -16.6234
  39   2.0000      -0.599609       -16.3162
  40   2.0000      -0.590490       -16.0681
  41   2.0000      -0.578040       -15.7293
  42   2.0000      -0.554244       -15.0817
  43   2.0000      -0.526969       -14.3395
  44   2.0000      -0.517806       -14.0902
  45   2.0000      -0.452255       -12.3065
  46   2.0000      -0.444451       -12.0941
  47   2.0000      -0.442405       -12.0385
  48   2.0000      -0.418221       -11.3804
  49   2.0000      -0.399501       -10.8710
  50   2.0000      -0.377743       -10.2789
  51   2.0000      -0.374620       -10.1939
  52   2.0000      -0.275521        -7.4973
  53   0.0000       0.010057         0.2737
  54   0.0000       0.021564         0.5868
  55   0.0000       0.027089         0.7371
  56   0.0000       0.031992         0.8705
  57   0.0000       0.037135         1.0105

MULLIKEN ATOMIC CHARGES
-----------------------
   0 C :   -0.652565
   1 C :   -0.924806
   2 H :    0.290046
   3 H :    0.255350
   4 H :    0.341885
   5 S :    3.190215
   6 O :   -1.389062
   7 O :   -1.359320
   8 C :   -1.054835
   9 C :   -0.818183
  10 H :    0.479425
  11 H :    0.362445
  12 H :    0.415464
  13 C :   -0.281689
  14 C :    0.659933
  15 C :   -0.199785
  16 H :    0.372053
  17 H :    0.376216
  18 N :   -0.307324
  19 N :   -0.561928
  20 C :   -1.020703
  21 H :    0.320364
  22 H :    0.284659
  23 H :    0.301068
  24 H :    0.921078
Sum of atomic charges:    0.0000000

LOEWDIN ATOMIC CHARGES
----------------------
   0 C :    0.330128
   1 C :    0.142737
   2 H :   -0.356382
   3 H :   -0.411275
   4 H :   -0.308662
   5 S :   -0.324585
   6 O :    0.332798
   7 O :    0.305386
   8 C :    0.198710
   9 C :    0.722558
  10 H :   -0.385699
  11 H :   -0.352525
  12 H :   -0.402347
  13 C :    0.240149
  14 C :    0.071878
  15 C :    0.251548
  16 H :   -0.287573
  17 H :   -0.287866
  18 N :    0.471815
  19 N :    0.426200
  20 C :    0.858207
  21 H :   -0.268865
  22 H :   -0.286094
  23 H :   -0.268570
  24 H :   -0.411671

  Mayer bond orders larger than 0.100000
B(  0-C ,  1-C ) :   0.9613 B(  0-C ,  2-H ) :   0.9609 B(  0-C ,  4-H ) :   0.9075
B(  0-C , 18-N ) :   0.6502 B(  1-C ,  3-H ) :   0.9594 B(  1-C ,  4-H ) :  -0.1155
B(  1-C ,  5-S ) :   1.2081 B(  1-C ,  7-O ) :  -0.1105 B(  1-C ,  8-C ) :  -0.1283
B(  1-C , 18-N ) :  -0.1573 B(  5-S ,  6-O ) :   0.6314 B(  5-S ,  7-O ) :   0.6204
B(  5-S ,  8-C ) :   0.5498 B(  5-S ,  9-C ) :  -0.1181 B(  6-O , 14-C ) :   0.1083
B(  6-O , 24-H ) :  -0.1089 B(  7-O , 18-N ) :   0.1069 B(  8-C ,  9-C ) :   1.7207
B(  8-C , 10-H ) :   0.8225 B(  8-C , 11-H ) :  -0.1153 B(  9-C , 11-H ) :   0.9936
B(  9-C , 12-H ) :   0.8026 B( 13-C , 14-C ) :  -0.1267 B( 13-C , 15-C ) :   1.4192
B( 13-C , 16-H ) :   0.9709 B( 13-C , 17-H ) :  -0.1063 B( 13-C , 18-N ) :   1.1396
B( 13-C , 19-N ) :   0.1143 B( 14-C , 18-N ) :   1.3913 B( 14-C , 19-N ) :   1.2549
B( 14-C , 24-H ) :   0.3286 B( 15-C , 17-H ) :   0.9721 B( 15-C , 19-N ) :   1.1406
B( 19-N , 20-C ) :   0.7203 B( 19-N , 24-H ) :  -0.1051 B( 20-C , 21-H ) :   0.9723
B( 20-C , 22-H ) :   0.9482 B( 20-C , 23-H ) :   1.0123

MP2 TOTAL ENERGY:     -968.768496665 Eh
FINAL SINGLE POINT ENERGY      -968.768496664868

DIPOLE MOMENT
-------------
                                X             Y             Z
Electronic contribution:      1.22446      -1.28209       2.01049
Nuclear contribution   :     -4.54514       1.29351      -2.77473
                        -----------------------------------------
Total Dipole Moment    :     -3.32068       0.01142      -0.76424
                        -----------------------------------------
Magnitude (a.u.)       :      3.40751
Magnitude (Debye)      :      8.66121

Rotational constants in cm-1:     0.054605     0.013590     0.011860
Rotational constants in MHz :  1637.010669   407.409959   355.566705

                             ****ORCA TERMINATED NORMALLY****
TOTAL RUN TIME: 0 days 1 hours 51 minutes 43 seconds 979 msec
