                         Program Version 4.2.1 -  RELEASE  -
|  1> %pal
|  2>  nprocs 32
|  3> end
|  4> !RI-MP2 aug-cc-pVQZ aug-cc-pVQZ/C TightSCF
|  5> %maxcore 4500
|  6> *xyzfile 1 1  10_13P.xyz
|  7>
|  8>
|  9>                          ****END OF INPUT****

CARTESIAN COORDINATES (ANGSTROEM)
---------------------------------
  C      2.106373   -0.634399    0.030209
  N      0.667642   -0.962052    0.037757
  N     -0.012813    0.061324   -0.065908
  C     -1.443058    0.022946   -0.036748
  C     -2.148612    1.216195    0.074128
  C     -2.088758   -1.208625   -0.109877
  C     -3.532315    1.169528    0.117054
  H     -1.644162    2.169931    0.141074
  C     -3.469094   -1.234515   -0.072327
  H     -1.514136   -2.119587   -0.200235
  C     -4.190511   -0.049842    0.042063
  H     -4.095105    2.088962    0.209079
  H     -3.987225   -2.182418   -0.134926
  H     -5.272350   -0.079584    0.070876
  C      2.542164   -0.747294    1.496989
  H      2.041880   -0.017792    2.136534
  H      2.326738   -1.745047    1.878483
  H      3.617423   -0.581378    1.561692
  C      2.829123   -1.655433   -0.836081
  H      2.435638   -1.661898   -1.853551
  H      3.888773   -1.398782   -0.881692
  H      2.738160   -2.657968   -0.418425
  C      2.149141    0.803404   -0.543853
  C      0.767239    1.332703   -0.192370
  C      3.291468    1.689296   -0.072411
  H      4.254824    1.239757   -0.316309
  H      3.253358    2.659808   -0.568915
  H      3.257370    1.860732    1.004454
  H      0.310181    1.958863   -0.954025
  H      0.722816    1.839701    0.774279
  H      2.203056    0.708017   -1.632001

 Total Charge           Charge          ....    1
 Multiplicity           Mult            ....    1
 Number of Electrons    NEL             ....  102
 Basis Dimension        Dim             .... 1902

ORBITAL ENERGIES
----------------

  NO   OCC          E(Eh)            E(eV)
   0   2.0000     -15.890965      -432.4151
   1   2.0000     -15.834044      -430.8662
   2   2.0000     -11.447325      -311.4976
   3   2.0000     -11.437104      -311.2194
   4   2.0000     -11.435161      -311.1665
   5   2.0000     -11.395590      -310.0898
   6   2.0000     -11.392228      -309.9983
   7   2.0000     -11.384907      -309.7991
   8   2.0000     -11.374748      -309.5226
   9   2.0000     -11.371752      -309.4411
  10   2.0000     -11.370869      -309.4171
  11   2.0000     -11.365910      -309.2821
  12   2.0000     -11.358214      -309.0727
  13   2.0000     -11.356760      -309.0332
  14   2.0000      -1.623907       -44.1888
  15   2.0000      -1.337399       -36.3925
  16   2.0000      -1.281829       -34.8803
  17   2.0000      -1.262502       -34.3544
  18   2.0000      -1.184847       -32.2413
  19   2.0000      -1.168935       -31.8083
  20   2.0000      -1.127982       -30.6940
  21   2.0000      -1.090687       -29.6791
  22   2.0000      -1.081497       -29.4290
  23   2.0000      -0.993639       -27.0383
  24   2.0000      -0.985779       -26.8244
  25   2.0000      -0.959109       -26.0987
  26   2.0000      -0.924281       -25.1510
  27   2.0000      -0.896311       -24.3899
  28   2.0000      -0.859990       -23.4015
  29   2.0000      -0.822146       -22.3717
  30   2.0000      -0.810307       -22.0496
  31   2.0000      -0.781444       -21.2642
  32   2.0000      -0.767757       -20.8917
  33   2.0000      -0.756753       -20.5923
  34   2.0000      -0.751276       -20.4433
  35   2.0000      -0.738056       -20.0835
  36   2.0000      -0.728713       -19.8293
  37   2.0000      -0.708384       -19.2761
  38   2.0000      -0.696519       -18.9533
  39   2.0000      -0.685348       -18.6493
  40   2.0000      -0.678577       -18.4650
  41   2.0000      -0.670540       -18.2463
  42   2.0000      -0.657970       -17.9043
  43   2.0000      -0.652457       -17.7543
  44   2.0000      -0.644811       -17.5462
  45   2.0000      -0.643446       -17.5090
  46   2.0000      -0.635827       -17.3017
  47   2.0000      -0.610833       -16.6216
  48   2.0000      -0.602242       -16.3878
  49   2.0000      -0.484418       -13.1817
  50   2.0000      -0.480665       -13.0795
  51   0.0000      -0.109630        -2.9832
  52   0.0000      -0.070052        -1.9062
  53   0.0000      -0.057242        -1.5576
  54   0.0000      -0.055901        -1.5211
  55   0.0000      -0.052356        -1.4247

MULLIKEN ATOMIC CHARGES
-----------------------
   0 C :    1.667040
   1 N :   -0.525914
   2 N :    0.099576
   3 C :    1.124536
   4 C :   -0.279722
   5 C :   -0.565676
   6 C :   -0.451255
   7 H :    0.206265
   8 C :   -0.325740
   9 H :    0.275834
  10 C :   -0.468209
  11 H :    0.266975
  12 H :    0.276519
  13 H :    0.343644
  14 C :   -1.131291
  15 H :    0.251184
  16 H :    0.299569
  17 H :    0.287679
  18 C :   -1.113186
  19 H :    0.254771
  20 H :    0.243328
  21 H :    0.232747
  22 C :   -0.148427
  23 C :   -0.284276
  24 C :   -1.023281
  25 H :    0.195408
  26 H :    0.230709
  27 H :    0.166322
  28 H :    0.330366
  29 H :    0.309864
  30 H :    0.254638
Sum of atomic charges:    1.0000000

LOEWDIN ATOMIC CHARGES
----------------------
   0 C :   -0.446091
   1 N :    0.632844
   2 N :    0.295253
   3 C :   -0.191468
   4 C :    0.363792
   5 C :    0.360218
   6 C :    0.388175
   7 H :   -0.328506
   8 C :    0.387065
   9 H :   -0.322105
  10 C :    0.384472
  11 H :   -0.302281
  12 H :   -0.302330
  13 H :   -0.298369
  14 C :    0.936296
  15 H :   -0.257359
  16 H :   -0.254042
  17 H :   -0.261986
  18 C :    0.946791
  19 H :   -0.258030
  20 H :   -0.255035
  21 H :   -0.258997
  22 C :    0.124957
  23 C :    0.464129
  24 C :    0.974203
  25 H :   -0.252787
  26 H :   -0.249015
  27 H :   -0.277482
  28 H :   -0.242034
  29 H :   -0.233032
  30 H :   -0.267247

  Mayer bond orders larger than 0.100000
B(  0-C ,  1-N ) :   0.5639 B(  0-C ,  2-N ) :  -0.4375 B(  0-C , 14-C ) :   0.4283
B(  0-C , 15-H ) :  -0.1478 B(  0-C , 19-H ) :  -0.1795 B(  0-C , 20-H ) :  -0.1221
B(  0-C , 21-H ) :  -0.2242 B(  0-C , 22-C ) :   0.6835 B(  1-N ,  2-N ) :   0.2401
B(  2-N ,  3-C ) :   0.9792 B(  2-N ,  4-C ) :   0.1716 B(  2-N ,  5-C ) :   0.1935
B(  2-N , 23-C ) :   0.9048 B(  3-C ,  4-C ) :   0.7028 B(  3-C ,  5-C ) :   0.5353
B(  3-C ,  6-C ) :  -0.4307 B(  3-C ,  8-C ) :  -0.4124 B(  3-C , 10-C ) :  -0.2350
B(  3-C , 23-C ) :  -0.1618 B(  4-C ,  5-C ) :   0.1100 B(  4-C ,  6-C ) :   1.1950
B(  4-C ,  7-H ) :   1.0387 B(  4-C , 11-H ) :  -0.1372 B(  4-C , 23-C ) :  -0.1090
B(  5-C ,  6-C ) :   0.1231 B(  5-C ,  8-C ) :   1.2470 B(  5-C ,  9-H ) :   0.9365
B(  5-C , 10-C ) :   0.1487 B(  5-C , 12-H ) :  -0.1515 B(  6-C , 10-C ) :   1.2199
B(  6-C , 11-H ) :   1.1218 B(  8-C , 10-C ) :   1.1621 B(  8-C , 12-H ) :   1.1280
B( 10-C , 11-H ) :  -0.1084 B( 10-C , 13-H ) :   1.0066 B( 14-C , 15-H ) :   1.0308
B( 14-C , 16-H ) :   0.9987 B( 14-C , 17-H ) :   0.9682 B( 14-C , 18-C ) :   0.1106
B( 18-C , 19-H ) :   1.0599 B( 18-C , 20-H ) :   1.0550 B( 18-C , 21-H ) :   1.1260
B( 22-C , 23-C ) :   0.8401 B( 22-C , 24-C ) :   0.4225 B( 22-C , 25-H ) :  -0.1512
B( 22-C , 26-H ) :  -0.1269 B( 22-C , 27-H ) :  -0.1422 B( 22-C , 30-H ) :   0.9971
B( 23-C , 28-H ) :   0.9063 B( 23-C , 29-H ) :   0.8502 B( 24-C , 25-H ) :   1.1351
B( 24-C , 26-H ) :   1.0977 B( 24-C , 27-H ) :   1.0798

MP2 TOTAL ENERGY:     -575.725530596 Eh
FINAL SINGLE POINT ENERGY      -575.725530595701

DIPOLE MOMENT
-------------
                                X             Y             Z
Electronic contribution:    -14.27400      -1.56476      -0.89623
Nuclear contribution   :     14.86062       2.12165       0.83416
                        -----------------------------------------
Total Dipole Moment    :      0.58663       0.55689      -0.06207
                        -----------------------------------------
Magnitude (a.u.)       :      0.81124
Magnitude (Debye)      :      2.06202

Rotational constants in cm-1:     0.055204     0.013103     0.011464
Rotational constants in MHz :  1654.971606   392.817556   343.696024

                             ****ORCA TERMINATED NORMALLY****
TOTAL RUN TIME: 0 days 3 hours 46 minutes 45 seconds 24 msec
