                         Program Version 4.2.1 -  RELEASE  -
|  1> %pal
|  2>  nprocs 32
|  3> end
|  4> !RI-MP2 aug-cc-pVQZ aug-cc-pVQZ/C TightSCF
|  5> %maxcore 4500
|  6> *xyzfile -1 1  09_22R.xyz
|  7>
|  8>
|  9>                          ****END OF INPUT****

CARTESIAN COORDINATES (ANGSTROEM)
---------------------------------
  C     -5.233485   -1.865563   -0.548938
  N     -4.261605   -1.235019    0.315533
  H     -4.794317   -2.301509   -1.463800
  H     -5.992705   -1.143366   -0.863857
  H     -5.749309   -2.660337   -0.005074
  C     -3.443984   -0.227149   -0.340256
  C     -4.106550    1.145705   -0.295452
  H     -5.116694    1.083986   -0.708173
  H     -3.553037    1.888021   -0.872137
  H     -4.181561    1.494179    0.735734
  C     -2.041719   -0.266794    0.286835
  H     -3.278523   -0.498208   -1.398755
  N     -1.287219    0.807642    0.089494
  O     -1.663891   -1.283012    0.875311
  C      0.021467    0.974219    0.634236
  C      0.392680    2.508845    0.210198
  O     -0.730411    3.197260   -0.012892
  H      1.060455    2.420623   -0.676945
  H      1.025160    2.885269    1.040329
  C      1.014933    0.021715    0.074738
  H      0.019848    0.883805    1.722679
  O      1.025382   -0.497503   -1.011278
  O      2.052989   -0.161381    0.944508
  C      3.084719   -1.043473    0.508408
  C      3.761313   -0.564135   -0.772437
  O      4.166988   -1.287004   -1.637059
  O      3.932320    0.767159   -0.777948
  N      4.080870   -1.152180    1.531251
  H      2.661473   -2.022110    0.286229
  H      4.339057    1.000894   -1.622950
  H      3.687298   -1.598308    2.350716
  H      4.398839   -0.227071    1.799689
  H     -3.620787   -1.913621    0.717132
  H     -1.592798    1.780273   -0.183890

 Total Charge           Charge          ....   -1
 Multiplicity           Mult            ....    1
 Number of Electrons    NEL             ....  140
 Basis Dimension        Dim             .... 2176

ORBITAL ENERGIES
----------------

  NO   OCC          E(Eh)            E(eV)
   0   2.0000     -20.521560      -558.4200
   1   2.0000     -20.493164      -557.6473
   2   2.0000     -20.455638      -556.6262
   3   2.0000     -20.422912      -555.7357
   4   2.0000     -20.385574      -554.7197
   5   2.0000     -20.282660      -551.9192
   6   2.0000     -15.478404      -421.1888
   7   2.0000     -15.428687      -419.8359
   8   2.0000     -15.424993      -419.7354
   9   2.0000     -11.293993      -307.3252
  10   2.0000     -11.256178      -306.2962
  11   2.0000     -11.243624      -305.9546
  12   2.0000     -11.212697      -305.1130
  13   2.0000     -11.150030      -303.4077
  14   2.0000     -11.149912      -303.4045
  15   2.0000     -11.125091      -302.7291
  16   2.0000     -11.113371      -302.4102
  17   2.0000     -11.106416      -302.2209
  18   2.0000      -1.384043       -37.6617
  19   2.0000      -1.352095       -36.7924
  20   2.0000      -1.275311       -34.7030
  21   2.0000      -1.252845       -34.0916
  22   2.0000      -1.246568       -33.9208
  23   2.0000      -1.122681       -30.5497
  24   2.0000      -1.117431       -30.4069
  25   2.0000      -1.101618       -29.9766
  26   2.0000      -1.068353       -29.0714
  27   2.0000      -0.922575       -25.1045
  28   2.0000      -0.893692       -24.3186
  29   2.0000      -0.849103       -23.1053
  30   2.0000      -0.812278       -22.1032
  31   2.0000      -0.757209       -20.6047
  32   2.0000      -0.733137       -19.9497
  33   2.0000      -0.703073       -19.1316
  34   2.0000      -0.666850       -18.1459
  35   2.0000      -0.644943       -17.5498
  36   2.0000      -0.632856       -17.2209
  37   2.0000      -0.608269       -16.5518
  38   2.0000      -0.598686       -16.2911
  39   2.0000      -0.587446       -15.9852
  40   2.0000      -0.579409       -15.7665
  41   2.0000      -0.561148       -15.2696
  42   2.0000      -0.544039       -14.8041
  43   2.0000      -0.538955       -14.6657
  44   2.0000      -0.522033       -14.2052
  45   2.0000      -0.516416       -14.0524
  46   2.0000      -0.502182       -13.6651
  47   2.0000      -0.498162       -13.5557
  48   2.0000      -0.485109       -13.2005
  49   2.0000      -0.468759       -12.7556
  50   2.0000      -0.460145       -12.5212
  51   2.0000      -0.446818       -12.1585
  52   2.0000      -0.434874       -11.8335
  53   2.0000      -0.429467       -11.6864
  54   2.0000      -0.417477       -11.3601
  55   2.0000      -0.402195       -10.9443
  56   2.0000      -0.397836       -10.8257
  57   2.0000      -0.393767       -10.7149
  58   2.0000      -0.384652       -10.4669
  59   2.0000      -0.382368       -10.4048
  60   2.0000      -0.376318       -10.2401
  61   2.0000      -0.362543        -9.8653
  62   2.0000      -0.348770        -9.4905
  63   2.0000      -0.347414        -9.4536
  64   2.0000      -0.321003        -8.7349
  65   2.0000      -0.293972        -7.9994
  66   2.0000      -0.270122        -7.3504
  67   2.0000      -0.254379        -6.9220
  68   2.0000      -0.199009        -5.4153
  69   2.0000      -0.190791        -5.1917
  70   0.0000       0.089053         2.4233
  71   0.0000       0.091331         2.4852
  72   0.0000       0.099599         2.7102
  73   0.0000       0.101608         2.7649
  74   0.0000       0.105514         2.8712

MULLIKEN ATOMIC CHARGES
-----------------------
   0 C :   -0.952414
   1 N :   -0.696468
   2 H :    0.301664
   3 H :    0.242703
   4 H :    0.379018
   5 C :    0.666192
   6 C :   -1.075821
   7 H :    0.286070
   8 H :    0.294895
   9 H :    0.231421
  10 C :    1.082670
  11 H :    0.330976
  12 N :   -0.901222
  13 O :   -1.066624
  14 C :   -0.070064
  15 C :    0.049592
  16 O :   -1.253789
  17 H :    0.124558
  18 H :    0.304701
  19 C :    1.430316
  20 H :    0.273163
  21 O :   -1.055271
  22 O :   -1.063464
  23 C :    0.564213
  24 C :    1.226755
  25 O :   -0.940514
  26 O :   -0.780197
  27 N :   -0.928033
  28 H :    0.361512
  29 H :    0.311548
  30 H :    0.271405
  31 H :    0.285584
  32 H :    0.230705
  33 H :    0.534221
Sum of atomic charges:   -1.0000000

LOEWDIN ATOMIC CHARGES
----------------------
   0 C :    0.744721
   1 N :    0.861481
   2 H :   -0.280364
   3 H :   -0.310636
   4 H :   -0.299893
   5 C :   -0.090405
   6 C :    0.917778
   7 H :   -0.289972
   8 H :   -0.292340
   9 H :   -0.265925
  10 C :   -0.802504
  11 H :   -0.286893
  12 N :    0.751634
  13 O :    0.751861
  14 C :   -0.124646
  15 C :   -0.118623
  16 O :    0.695822
  17 H :   -0.353954
  18 H :   -0.346243
  19 C :   -1.094786
  20 H :   -0.314063
  21 O :    0.753114
  22 O :    0.878005
  23 C :   -0.503444
  24 C :   -1.111758
  25 O :    0.710953
  26 O :    1.262268
  27 N :    1.263678
  28 H :   -0.352999
  29 H :   -0.803296
  30 H :   -0.501008
  31 H :   -0.515378
  32 H :   -0.661837
  33 H :   -0.870350

  Mayer bond orders larger than 0.100000
B(  0-C ,  1-N ) :   1.0067 B(  0-C ,  2-H ) :   0.9170 B(  0-C ,  3-H ) :   0.9627
B(  0-C ,  4-H ) :   0.9063 B(  0-C ,  5-C ) :  -0.1596 B(  1-N ,  5-C ) :   0.4193
B(  1-N , 10-C ) :   0.1275 B(  1-N , 13-O ) :  -0.1133 B(  1-N , 32-H ) :   0.9227
B(  5-C ,  6-C ) :   0.7794 B(  5-C , 10-C ) :   0.8813 B(  5-C , 11-H ) :   0.8150
B(  5-C , 13-O ) :   0.2332 B(  6-C ,  7-H ) :   0.9739 B(  6-C ,  8-H ) :   0.9677
B(  6-C ,  9-H ) :   1.0011 B( 10-C , 12-N ) :   1.2291 B( 10-C , 13-O ) :   0.4239
B( 12-N , 13-O ) :   0.3402 B( 12-N , 14-C ) :   0.5991 B( 12-N , 19-C ) :   0.1194
B( 12-N , 33-H ) :   0.7815 B( 13-O , 14-C ) :   0.1824 B( 13-O , 19-C ) :  -0.1539
B( 14-C , 15-C ) :   0.8624 B( 14-C , 16-O ) :   0.1533 B( 14-C , 17-H ) :  -0.1270
B( 14-C , 19-C ) :   1.0659 B( 14-C , 20-H ) :   0.9545 B( 14-C , 21-O ) :   0.1601
B( 14-C , 33-H ) :  -0.1041 B( 15-C , 16-O ) :   0.8016 B( 15-C , 17-H ) :   1.0273
B( 15-C , 18-H ) :   0.9021 B( 19-C , 21-O ) :   0.8371 B( 19-C , 22-O ) :   0.5579
B( 19-C , 23-C ) :  -0.2002 B( 21-O , 22-O ) :   0.2038 B( 21-O , 23-C ) :   0.1682
B( 22-O , 23-C ) :   0.8286 B( 22-O , 27-N ) :   0.1576 B( 23-C , 24-C ) :   0.9824
B( 23-C , 26-O ) :  -0.1070 B( 23-C , 27-N ) :   0.5934 B( 23-C , 28-H ) :   0.9144
B( 24-C , 25-O ) :   1.0115 B( 24-C , 26-O ) :   0.8674 B( 25-O , 26-O ) :   0.1428
B( 26-O , 29-H ) :   0.9306 B( 27-N , 30-H ) :   0.8970 B( 27-N , 31-H ) :   0.8689

MP2 TOTAL ENERGY:     -966.929234172 Eh
FINAL SINGLE POINT ENERGY      -966.929234171582

DIPOLE MOMENT
-------------
                                X             Y             Z
Electronic contribution:     21.43207      -2.75055      -0.38791
Nuclear contribution   :    -20.46448       1.06997       0.83894
                        -----------------------------------------
Total Dipole Moment    :      0.96760      -1.68058       0.45103
                        -----------------------------------------
Magnitude (a.u.)       :      1.99098
Magnitude (Debye)      :      5.06068

Rotational constants in cm-1:     0.025220     0.006465     0.005763
Rotational constants in MHz :   756.085923   193.803895   172.779983

                             ****ORCA TERMINATED NORMALLY****
TOTAL RUN TIME: 0 days 4 hours 4 minutes 54 seconds 557 msec
