                         Program Version 4.2.1 -  RELEASE  -
|  1> %pal
|  2>  nprocs 32
|  3> end
|  4> !RI-MP2 aug-cc-pVQZ aug-cc-pVQZ/C TightSCF
|  5> %maxcore 4500
|  6> *xyzfile 0 2  03_43P1.xyz
|  7>
|  8>
|  9>                          ****END OF INPUT****

CARTESIAN COORDINATES (ANGSTROEM)
---------------------------------
  C      3.406649   -0.905323   -0.335455
  C      2.934094    0.315842    0.368355
  C      1.443832    0.293385    0.706555
  C      0.576951    0.300937   -0.546240
  N     -0.854054    0.245391   -0.225380
  C     -1.531765    1.436166   -0.053266
  O     -1.017948    2.520413   -0.157957
  C     -1.440812   -1.011424   -0.038838
  O     -0.771156   -2.010220   -0.147379
  C     -2.911638   -1.079133    0.295332
  H      3.167767    1.208423   -0.224966
  H      3.498460    0.445009    1.305026
  H      1.190156    1.162227    1.318915
  H      1.216707   -0.602409    1.291570
  H      0.802744   -0.556760   -1.175604
  H      0.739397    1.215249   -1.115015
  H     -2.594786    1.316818    0.187789
  H     -3.524477   -0.612605   -0.477336
  H     -3.129086   -0.590269    1.246460
  H     -3.172447   -2.131432    0.370684
  H      4.344070   -0.907388   -0.876092
  H      2.888831   -1.848842   -0.209735

 Total Charge           Charge          ....    0
 Multiplicity           Mult            ....    2
 Number of Electrons    NEL             ....   77
 Basis Dimension        Dim             .... 1352

ORBITAL ENERGIES
----------------
                 SPIN UP ORBITALS
  NO   OCC          E(Eh)            E(eV)
   0   1.0000     -20.552256      -559.2553
   1   1.0000     -20.549153      -559.1709
   2   1.0000     -15.619367      -425.0246
   3   1.0000     -11.378608      -309.6277
   4   1.0000     -11.371279      -309.4282
   5   1.0000     -11.262098      -306.4573
   6   1.0000     -11.257795      -306.3402
   7   1.0000     -11.225906      -305.4724
   8   1.0000     -11.224260      -305.4276
   9   1.0000     -11.222772      -305.3872
  10   1.0000      -1.426420       -38.8149
  11   1.0000      -1.407236       -38.2928
  12   1.0000      -1.266678       -34.4681
  13   1.0000      -1.088272       -29.6134
  14   1.0000      -1.038472       -28.2582
  15   1.0000      -0.984386       -26.7865
  16   1.0000      -0.902929       -24.5699
  17   1.0000      -0.879759       -23.9395
  18   1.0000      -0.801846       -21.8193
  19   1.0000      -0.771051       -20.9814
  20   1.0000      -0.722215       -19.6525
  21   1.0000      -0.683459       -18.5979
  22   1.0000      -0.658943       -17.9307
  23   1.0000      -0.640920       -17.4403
  24   1.0000      -0.633044       -17.2260
  25   1.0000      -0.621087       -16.9006
  26   1.0000      -0.604897       -16.4601
  27   1.0000      -0.589688       -16.0462
  28   1.0000      -0.579645       -15.7730
  29   1.0000      -0.569013       -15.4836
  30   1.0000      -0.544226       -14.8091
  31   1.0000      -0.532912       -14.5013
  32   1.0000      -0.510128       -13.8813
  33   1.0000      -0.492537       -13.4026
  34   1.0000      -0.481567       -13.1041
  35   1.0000      -0.460119       -12.5205
  36   1.0000      -0.446518       -12.1504
  37   1.0000      -0.411382       -11.1943
  38   1.0000      -0.347653        -9.4601
  39   0.0000       0.019644         0.5345
  40   0.0000       0.029195         0.7944
  41   0.0000       0.030916         0.8413
  42   0.0000       0.034313         0.9337
  43   0.0000       0.041557         1.1308

                 SPIN DOWN ORBITALS
  NO   OCC          E(Eh)            E(eV)
   0   1.0000     -20.552248      -559.2551
   1   1.0000     -20.549156      -559.1710
   2   1.0000     -15.619385      -425.0251
   3   1.0000     -11.378604      -309.6276
   4   1.0000     -11.371274      -309.4281
   5   1.0000     -11.262012      -306.4549
   6   1.0000     -11.257796      -306.3402
   7   1.0000     -11.227440      -305.5142
   8   1.0000     -11.222307      -305.3745
   9   1.0000     -11.202248      -304.8287
  10   1.0000      -1.426409       -38.8146
  11   1.0000      -1.407226       -38.2926
  12   1.0000      -1.266629       -34.4667
  13   1.0000      -1.079804       -29.3830
  14   1.0000      -1.033670       -28.1276
  15   1.0000      -0.965793       -26.2806
  16   1.0000      -0.892091       -24.2750
  17   1.0000      -0.860887       -23.4259
  18   1.0000      -0.781304       -21.2604
  19   1.0000      -0.763055       -20.7638
  20   1.0000      -0.721916       -19.6443
  21   1.0000      -0.682772       -18.5792
  22   1.0000      -0.658058       -17.9067
  23   1.0000      -0.638670       -17.3791
  24   1.0000      -0.629954       -17.1419
  25   1.0000      -0.619025       -16.8445
  26   1.0000      -0.600501       -16.3404
  27   1.0000      -0.585884       -15.9427
  28   1.0000      -0.572535       -15.5795
  29   1.0000      -0.560396       -15.2491
  30   1.0000      -0.539279       -14.6745
  31   1.0000      -0.528326       -14.3765
  32   1.0000      -0.501495       -13.6464
  33   1.0000      -0.487058       -13.2535
  34   1.0000      -0.477833       -13.0025
  35   1.0000      -0.459724       -12.5097
  36   1.0000      -0.446504       -12.1500
  37   1.0000      -0.408953       -11.1282
  38   0.0000       0.019647         0.5346
  39   0.0000       0.029508         0.8030
  40   0.0000       0.030940         0.8419
  41   0.0000       0.034323         0.9340
  42   0.0000       0.041696         1.1346

MULLIKEN ATOMIC CHARGES AND SPIN POPULATIONS
--------------------------------------------
   0 C :   -0.953879    1.239481
   1 C :   -0.346151   -0.219269
   2 C :   -0.549441    0.035377
   3 C :   -0.291355   -0.006222
   4 N :   -0.683136   -0.002645
   5 C :    0.568811    0.000132
   6 O :   -0.845765    0.000150
   7 C :    0.954179   -0.001340
   8 O :   -0.816488    0.000048
   9 C :   -0.729224   -0.000127
  10 H :    0.202825    0.029362
  11 H :    0.256674    0.086539
  12 H :    0.317943   -0.005312
  13 H :    0.247447   -0.004903
  14 H :    0.329503    0.008769
  15 H :    0.460220   -0.002839
  16 H :    0.432569   -0.000028
  17 H :    0.228367    0.000036
  18 H :    0.221295   -0.000015
  19 H :    0.290089    0.000003
  20 H :    0.357719   -0.082611
  21 H :    0.347799   -0.074586
Sum of atomic charges         :    0.0000000

LOEWDIN ATOMIC CHARGES AND SPIN POPULATIONS
-------------------------------------------
   0 C :    0.861490    0.462803
   1 C :    0.467020    0.146542
   2 C :    0.501044    0.012937
   3 C :    0.314467    0.010573
   4 N :    0.396999    0.000552
   5 C :   -0.417214    0.000122
   6 O :    0.738906    0.000152
   7 C :   -0.804460    0.000148
   8 O :    0.767169   -0.000018
   9 C :    0.892886    0.000019
  10 H :   -0.289027    0.016030
  11 H :   -0.282361    0.034302
  12 H :   -0.267226    0.001158
  13 H :   -0.280423   -0.000023
  14 H :   -0.329488    0.010410
  15 H :   -0.314989    0.000768
  16 H :   -0.404177    0.000027
  17 H :   -0.287238    0.000007
  18 H :   -0.286366    0.000005
  19 H :   -0.315389   -0.000000
  20 H :   -0.330579    0.150858
  21 H :   -0.331044    0.152631

  Mayer bond orders larger than 0.100000
B(  0-C ,  1-C ) :   0.9030 B(  0-C , 20-H ) :   0.9221 B(  0-C , 21-H ) :   0.8997
B(  1-C ,  2-C ) :   0.8630 B(  1-C , 10-H ) :   0.9729 B(  1-C , 11-H ) :   0.9039
B(  2-C ,  3-C ) :   1.0316 B(  2-C , 12-H ) :   0.8645 B(  2-C , 13-H ) :   0.8718
B(  3-C ,  4-N ) :   1.0725 B(  3-C ,  6-O ) :  -0.1298 B(  3-C , 14-H ) :   0.8610
B(  3-C , 15-H ) :   0.7242 B(  4-N ,  5-C ) :   1.1060 B(  4-N ,  6-O ) :   0.2388
B(  4-N ,  7-C ) :   0.9559 B(  4-N ,  8-O ) :   0.2363 B(  5-C ,  6-O ) :   1.4295
B(  5-C ,  7-C ) :   0.1353 B(  5-C , 16-H ) :   0.7958 B(  7-C ,  8-O ) :   1.2416
B(  7-C ,  9-C ) :   0.7699 B(  9-C , 17-H ) :   0.9999 B(  9-C , 18-H ) :   0.9900
B(  9-C , 19-H ) :   0.9876

MP2 TOTAL ENERGY:     -478.371033908 Eh
FINAL SINGLE POINT ENERGY      -478.371033907932

DIPOLE MOMENT
-------------
                                X             Y             Z
Electronic contribution:     -6.31717       1.71834      -1.40264
Nuclear contribution   :      5.48645      -1.92489       1.66355
                        -----------------------------------------
Total Dipole Moment    :     -0.83072      -0.20655       0.26091
                        -----------------------------------------
Magnitude (a.u.)       :      0.89489
Magnitude (Debye)      :      2.27463

Rotational constants in cm-1:     0.061636     0.028965     0.020965
Rotational constants in MHz :  1847.792069   868.339486   628.525053

                             ****ORCA TERMINATED NORMALLY****
TOTAL RUN TIME: 0 days 1 hours 23 minutes 21 seconds 736 msec
