                         Program Version 4.2.1 -  RELEASE  -
|  1> %pal
|  2>  nprocs 32
|  3> end
|  4> !RI-MP2 aug-cc-pVQZ aug-cc-pVQZ/C TightSCF
|  5> %maxcore 4500
|  6> *xyzfile 0 1  03_23P2.xyz
|  7>
|  8>
|  9>                          ****END OF INPUT****

CARTESIAN COORDINATES (ANGSTROEM)
---------------------------------
  C      1.498148    0.470495    0.646023
  C      0.139108    0.858997    0.111459
  O     -0.756436   -0.105564    0.300327
  C     -2.083638    0.137828   -0.209185
  C     -2.906410   -1.094108    0.071534
  O     -0.097095    1.920658   -0.398262
  Cl     2.188424   -0.906068   -0.269706
  H      1.422477    0.162551    1.686300
  H      2.169792    1.315157    0.538002
  H     -2.007653    0.350080   -1.276679
  H     -2.485066    1.025721    0.281912
  H     -2.475821   -1.967683   -0.419501
  H     -3.921643   -0.952132   -0.303787
  H     -2.960301   -1.290575    1.143259

 Total Charge           Charge          ....    0
 Multiplicity           Mult            ....    1
 Number of Electrons    NEL             ....   64
 Basis Dimension        Dim             ....  886

ORBITAL ENERGIES
----------------

  NO   OCC          E(Eh)            E(eV)
   0   2.0000    -104.840249     -2852.8482
   1   2.0000     -20.610001      -560.8266
   2   2.0000     -20.556419      -559.3686
   3   2.0000     -11.393162      -310.0237
   4   2.0000     -11.313727      -307.8622
   5   2.0000     -11.296293      -307.3878
   6   2.0000     -11.229262      -305.5638
   7   2.0000     -10.565448      -287.5004
   8   2.0000      -8.032553      -218.5769
   9   2.0000      -8.030753      -218.5279
  10   2.0000      -8.030703      -218.5265
  11   2.0000      -1.477707       -40.2105
  12   2.0000      -1.375588       -37.4316
  13   2.0000      -1.151235       -31.3267
  14   2.0000      -1.054292       -28.6887
  15   2.0000      -0.971181       -26.4272
  16   2.0000      -0.873530       -23.7700
  17   2.0000      -0.793324       -21.5874
  18   2.0000      -0.714841       -19.4518
  19   2.0000      -0.694966       -18.9110
  20   2.0000      -0.688699       -18.7405
  21   2.0000      -0.636169       -17.3110
  22   2.0000      -0.604646       -16.4533
  23   2.0000      -0.580003       -15.7827
  24   2.0000      -0.558853       -15.2072
  25   2.0000      -0.554104       -15.0779
  26   2.0000      -0.522120       -14.2076
  27   2.0000      -0.514827       -14.0092
  28   2.0000      -0.486006       -13.2249
  29   2.0000      -0.471076       -12.8186
  30   2.0000      -0.448695       -12.2096
  31   2.0000      -0.438657       -11.9365
  32   0.0000       0.024556         0.6682
  33   0.0000       0.029328         0.7981
  34   0.0000       0.036493         0.9930
  35   0.0000       0.037346         1.0162
  36   0.0000       0.048030         1.3070

MULLIKEN ATOMIC CHARGES
-----------------------
   0 C :   -0.331366
   1 C :    0.967894
   2 O :   -0.666546
   3 C :   -0.101052
   4 C :   -0.838063
   5 O :   -0.766575
   6 Cl:   -0.268132
   7 H :    0.332277
   8 H :    0.322190
   9 H :    0.276528
  10 H :    0.300429
  11 H :    0.250585
  12 H :    0.276581
  13 H :    0.245249
Sum of atomic charges:    0.0000000

LOEWDIN ATOMIC CHARGES
----------------------
   0 C :   -0.213998
   1 C :   -1.214679
   2 O :    0.833141
   3 C :    0.155373
   4 C :    0.911611
   5 O :    0.715004
   6 Cl:    1.134415
   7 H :   -0.411183
   8 H :   -0.437269
   9 H :   -0.304113
  10 H :   -0.302371
  11 H :   -0.288859
  12 H :   -0.288019
  13 H :   -0.289053

  Mayer bond orders larger than 0.100000
B(  0-C ,  1-C ) :   0.9315 B(  0-C ,  6-Cl) :   0.9026 B(  0-C ,  7-H ) :   0.8412
B(  0-C ,  8-H ) :   0.9119 B(  1-C ,  2-O ) :   1.0367 B(  1-C ,  5-O ) :   1.4250
B(  2-O ,  3-C ) :   0.7813 B(  3-C ,  4-C ) :   0.9677 B(  3-C ,  5-O ) :   0.1156
B(  3-C ,  9-H ) :   0.8701 B(  3-C , 10-H ) :   0.8487 B(  4-C , 11-H ) :   0.9273
B(  4-C , 12-H ) :   0.9815 B(  4-C , 13-H ) :   0.9320

MP2 TOTAL ENERGY:     -766.378974833 Eh
FINAL SINGLE POINT ENERGY      -766.378974832536

DIPOLE MOMENT
-------------
                                X             Y             Z
Electronic contribution:     12.58076      -0.25355      -1.38743
Nuclear contribution   :    -13.14507      -0.03138       1.99475
                        -----------------------------------------
Total Dipole Moment    :     -0.56431      -0.28493       0.60732
                        -----------------------------------------
Magnitude (a.u.)       :      0.87662
Magnitude (Debye)      :      2.22819

Rotational constants in cm-1:     0.118910     0.039612     0.031808
Rotational constants in MHz :  3564.830146  1187.529884   953.590678

                             ****ORCA TERMINATED NORMALLY****
TOTAL RUN TIME: 0 days 0 hours 14 minutes 50 seconds 532 msec
