                         Program Version 4.2.1 -  RELEASE  -
|  1> %pal
|  2>  nprocs 32
|  3> end
|  4> !RI-MP2 aug-cc-pVQZ aug-cc-pVQZ/C TightSCF
|  5> %maxcore 4500
|  6> *xyzfile -1 1  09_17P.xyz
|  7>
|  8>
|  9>                          ****END OF INPUT****

CARTESIAN COORDINATES (ANGSTROEM)
---------------------------------
  C      1.149311    0.580615    0.054989
  C      0.138867    1.684130   -0.053265
  O      0.335159    2.603055   -0.835435
  C     -1.070464    1.673194    0.849588
  C     -1.902592    0.419511    0.628969
  C     -2.257234   -0.339820    1.734478
  C     -2.109520    0.152093   -0.706813
  O     -2.816738   -0.986313   -1.114978
  C     -2.008450   -2.141191   -1.113287
  H     -2.027505    0.009373    2.734665
  H     -2.877255   -1.221693    1.636613
  H     -2.655339   -2.998346   -1.326948
  H     -1.227779   -2.078597   -1.883399
  H     -1.525437   -2.285819   -0.140727
  C      1.113226   -0.385124    1.062832
  C      2.099275   -1.359727    1.129862
  C      3.137341   -1.379860    0.207786
  C      3.181589   -0.415805   -0.795433
  C      2.197608    0.554771   -0.867587
  H      0.280824   -0.411623    1.755628
  H      2.048154   -2.114798    1.906726
  H      3.907702   -2.141094    0.267966
  H      3.986176   -0.426052   -1.522978
  H      2.210469    1.312661   -1.640647
  H     -1.638007    2.578200    0.626559
  H     -0.751320    1.727941    1.894598
  H     -1.891790    0.859174   -1.497467

 Total Charge           Charge          ....   -1
 Multiplicity           Mult            ....    1
 Number of Electrons    NEL             ....  102
 Basis Dimension        Dim             .... 1718

ORBITAL ENERGIES
----------------

  NO   OCC          E(Eh)            E(eV)
   0   2.0000     -20.406786      -555.2969
   1   2.0000     -20.391966      -554.8936
   2   2.0000     -11.200216      -304.7734
   3   2.0000     -11.136875      -303.0498
   4   2.0000     -11.130086      -302.8650
   5   2.0000     -11.126908      -302.7786
   6   2.0000     -11.125944      -302.7523
   7   2.0000     -11.123892      -302.6965
   8   2.0000     -11.120410      -302.6017
   9   2.0000     -11.119496      -302.5769
  10   2.0000     -11.089709      -301.7663
  11   2.0000     -11.070921      -301.2551
  12   2.0000     -11.053386      -300.7779
  13   2.0000     -11.000961      -299.3514
  14   2.0000      -1.250099       -34.0169
  15   2.0000      -1.207246       -32.8508
  16   2.0000      -1.049295       -28.5528
  17   2.0000      -0.946188       -25.7471
  18   2.0000      -0.913439       -24.8559
  19   2.0000      -0.907450       -24.6930
  20   2.0000      -0.813154       -22.1271
  21   2.0000      -0.780265       -21.2321
  22   2.0000      -0.737971       -20.0812
  23   2.0000      -0.718541       -19.5525
  24   2.0000      -0.701089       -19.0776
  25   2.0000      -0.639388       -17.3986
  26   2.0000      -0.588345       -16.0097
  27   2.0000      -0.556396       -15.1403
  28   2.0000      -0.530064       -14.4238
  29   2.0000      -0.526521       -14.3274
  30   2.0000      -0.508513       -13.8373
  31   2.0000      -0.503578       -13.7030
  32   2.0000      -0.482817       -13.1381
  33   2.0000      -0.479581       -13.0501
  34   2.0000      -0.467121       -12.7110
  35   2.0000      -0.445764       -12.1299
  36   2.0000      -0.434327       -11.8186
  37   2.0000      -0.424761       -11.5583
  38   2.0000      -0.406643       -11.0653
  39   2.0000      -0.398487       -10.8434
  40   2.0000      -0.383434       -10.4338
  41   2.0000      -0.369656       -10.0589
  42   2.0000      -0.368925       -10.0390
  43   2.0000      -0.352992        -9.6054
  44   2.0000      -0.323795        -8.8109
  45   2.0000      -0.284546        -7.7429
  46   2.0000      -0.270172        -7.3518
  47   2.0000      -0.237685        -6.4677
  48   2.0000      -0.231514        -6.2998
  49   2.0000      -0.209499        -5.7008
  50   2.0000      -0.049025        -1.3340
  51   0.0000       0.085337         2.3221
  52   0.0000       0.094414         2.5691
  53   0.0000       0.103882         2.8268
  54   0.0000       0.108305         2.9471
  55   0.0000       0.112908         3.0724

MULLIKEN ATOMIC CHARGES
-----------------------
   0 C :    0.224017
   1 C :    1.522208
   2 O :   -1.061363
   3 C :   -0.582135
   4 C :    0.264661
   5 C :   -1.256341
   6 C :    0.042743
   7 O :   -1.079809
   8 C :   -0.670517
   9 H :    0.186785
  10 H :    0.229981
  11 H :    0.476698
  12 H :    0.218970
  13 H :    0.256982
  14 C :   -0.367762
  15 C :   -0.397876
  16 C :   -0.438127
  17 C :   -0.325799
  18 C :   -0.578308
  19 H :    0.499828
  20 H :    0.205202
  21 H :    0.314999
  22 H :    0.218485
  23 H :    0.238724
  24 H :    0.280717
  25 H :    0.220670
  26 H :    0.356368
Sum of atomic charges:   -1.0000000

LOEWDIN ATOMIC CHARGES
----------------------
   0 C :   -0.110292
   1 C :   -0.692648
   2 O :    0.742458
   3 C :    0.374372
   4 C :   -0.252047
   5 C :    0.675737
   6 C :   -0.083265
   7 O :    0.791289
   8 C :    0.497961
   9 H :   -0.410669
  10 H :   -0.405606
  11 H :   -0.335281
  12 H :   -0.315967
  13 H :   -0.357377
  14 C :    0.324281
  15 C :    0.346038
  16 C :    0.320379
  17 C :    0.330428
  18 C :    0.307656
  19 H :   -0.386484
  20 H :   -0.323901
  21 H :   -0.329861
  22 H :   -0.332016
  23 H :   -0.352491
  24 H :   -0.309405
  25 H :   -0.317864
  26 H :   -0.395427

  Mayer bond orders larger than 0.100000
B(  0-C ,  1-C ) :   0.8711 B(  0-C ,  2-O ) :   0.4737 B(  0-C , 14-C ) :   0.9715
B(  0-C , 15-C ) :  -0.4949 B(  0-C , 17-C ) :  -0.4628 B(  0-C , 18-C ) :   1.0866
B(  0-C , 19-H ) :  -0.1272 B(  1-C ,  3-C ) :   1.0679 B(  1-C , 14-C ) :  -0.2861
B(  1-C , 18-C ) :  -0.2933 B(  2-O ,  3-C ) :   0.3454 B(  2-O , 23-H ) :   0.1315
B(  3-C ,  4-C ) :   0.5969 B(  3-C ,  5-C ) :  -0.1159 B(  3-C , 24-H ) :   1.0137
B(  3-C , 25-H ) :   1.0179 B(  4-C ,  5-C ) :   0.9928 B(  4-C ,  6-C ) :   1.4616
B(  4-C , 10-H ) :  -0.1731 B(  4-C , 24-H ) :  -0.1189 B(  5-C ,  6-C ) :   0.1045
B(  5-C ,  9-H ) :   1.1504 B(  5-C , 10-H ) :   1.1230 B(  6-C ,  7-O ) :   0.3696
B(  6-C , 26-H ) :   0.9843 B(  7-O ,  8-C ) :   0.8856 B(  8-C , 11-H ) :   0.7782
B(  8-C , 12-H ) :   0.9557 B(  8-C , 13-H ) :   0.9229 B( 14-C , 15-C ) :   1.1364
B( 14-C , 19-H ) :   0.6834 B( 14-C , 20-H ) :  -0.1197 B( 15-C , 16-C ) :   1.2756
B( 15-C , 18-C ) :   0.1758 B( 15-C , 19-H ) :  -0.1147 B( 15-C , 20-H ) :   1.1501
B( 16-C , 17-C ) :   1.1620 B( 16-C , 18-C ) :   0.1526 B( 16-C , 21-H ) :   1.0196
B( 16-C , 22-H ) :  -0.1120 B( 17-C , 18-C ) :   1.4079 B( 17-C , 22-H ) :   1.1618
B( 18-C , 22-H ) :  -0.1758 B( 18-C , 23-H ) :   0.9382

MP2 TOTAL ENERGY:     -614.484015026 Eh
FINAL SINGLE POINT ENERGY      -614.484015025955

DIPOLE MOMENT
-------------
                                X             Y             Z
Electronic contribution:      5.38528       6.41775      -2.82636
Nuclear contribution   :     -2.20547      -7.18228       2.78647
                        -----------------------------------------
Total Dipole Moment    :      3.17981      -0.76452      -0.03989
                        -----------------------------------------
Magnitude (a.u.)       :      3.27067
Magnitude (Debye)      :      8.31337

Rotational constants in cm-1:     0.031804     0.017148     0.014650
Rotational constants in MHz :   953.467782   514.079638   439.195530

                             ****ORCA TERMINATED NORMALLY****
TOTAL RUN TIME: 0 days 2 hours 47 minutes 28 seconds 965 msec
