                         Program Version 4.2.1 -  RELEASE  -
|  1> %pal
|  2>  nprocs 32
|  3> end
|  4> !RI-MP2 aug-cc-pVQZ aug-cc-pVQZ/C TightSCF
|  5> %maxcore 4500
|  6> *xyzfile 0 1  06_35R1.xyz
|  7>
|  8>
|  9>                          ****END OF INPUT****

CARTESIAN COORDINATES (ANGSTROEM)
---------------------------------
  C      0.563554   -0.447110    0.000015
  C      1.640542    0.326479   -0.000098
  C      3.050252   -0.179335   -0.000115
  H      3.596830    0.176723    0.878092
  H      3.081764   -1.270422    0.000004
  H      3.596740    0.176529   -0.878457
  C     -1.049230    1.501036   -0.000105
  C     -0.885344   -0.018511    0.000039
  H     -0.594170    1.951802    0.884754
  H     -0.594246    1.951625   -0.885092
  H     -2.109931    1.763114   -0.000085
  C     -1.560875   -0.601988   -1.250462
  C     -1.560759   -0.601739    1.250719
  H     -1.461070   -1.690074   -1.279250
  H     -2.627602   -0.362193   -1.260214
  H     -1.110604   -0.198722   -2.160202
  H     -2.627486   -0.361943    1.260521
  H     -1.460951   -1.689819    1.279715
  H     -1.110404   -0.198291    2.160337
  H      0.708424   -1.528081    0.000106
  H      1.523869    1.406770   -0.000190

 Total Charge           Charge          ....    0
 Multiplicity           Mult            ....    1
 Number of Electrons    NEL             ....   56
 Basis Dimension        Dim             .... 1204

ORBITAL ENERGIES
----------------

  NO   OCC          E(Eh)            E(eV)
   0   2.0000     -11.233076      -305.6675
   1   2.0000     -11.218674      -305.2756
   2   2.0000     -11.215344      -305.1850
   3   2.0000     -11.214282      -305.1561
   4   2.0000     -11.208322      -304.9940
   5   2.0000     -11.208305      -304.9935
   6   2.0000     -11.206918      -304.9557
   7   2.0000      -1.115917       -30.3657
   8   2.0000      -1.042000       -28.3543
   9   2.0000      -0.930527       -25.3209
  10   2.0000      -0.927875       -25.2488
  11   2.0000      -0.923332       -25.1251
  12   2.0000      -0.787700       -21.4344
  13   2.0000      -0.715715       -19.4756
  14   2.0000      -0.640080       -17.4174
  15   2.0000      -0.611148       -16.6302
  16   2.0000      -0.597087       -16.2476
  17   2.0000      -0.566136       -15.4054
  18   2.0000      -0.561748       -15.2859
  19   2.0000      -0.553768       -15.0688
  20   2.0000      -0.538425       -14.6513
  21   2.0000      -0.524075       -14.2608
  22   2.0000      -0.510491       -13.8912
  23   2.0000      -0.501331       -13.6419
  24   2.0000      -0.466797       -12.7022
  25   2.0000      -0.457337       -12.4448
  26   2.0000      -0.451863       -12.2958
  27   2.0000      -0.343593        -9.3496
  28   0.0000       0.026028         0.7083
  29   0.0000       0.029410         0.8003
  30   0.0000       0.031572         0.8591
  31   0.0000       0.033749         0.9184
  32   0.0000       0.044443         1.2093

MULLIKEN ATOMIC CHARGES
-----------------------
   0 C :   -0.328935
   1 C :   -0.441224
   2 C :   -0.800230
   3 H :    0.241366
   4 H :    0.215054
   5 H :    0.241362
   6 C :   -1.098441
   7 C :    1.474402
   8 H :    0.205218
   9 H :    0.205252
  10 H :    0.274350
  11 C :   -1.092119
  12 C :   -1.092075
  13 H :    0.231385
  14 H :    0.245318
  15 H :    0.247818
  16 H :    0.245315
  17 H :    0.231393
  18 H :    0.247811
  19 H :    0.191408
  20 H :    0.355570
Sum of atomic charges:   -0.0000000

LOEWDIN ATOMIC CHARGES
----------------------
   0 C :    0.357769
   1 C :    0.399934
   2 C :    0.899562
   3 H :   -0.293774
   4 H :   -0.315329
   5 H :   -0.293773
   6 C :    0.877771
   7 C :   -0.337145
   8 H :   -0.273493
   9 H :   -0.273494
  10 H :   -0.269202
  11 C :    0.899905
  12 C :    0.899905
  13 H :   -0.273230
  14 H :   -0.271578
  15 H :   -0.266653
  16 H :   -0.271578
  17 H :   -0.273230
  18 H :   -0.266653
  19 H :   -0.314793
  20 H :   -0.340920

  Mayer bond orders larger than 0.100000
B(  0-C ,  1-C ) :   1.3142 B(  0-C ,  2-C ) :  -0.1886 B(  0-C ,  6-C ) :   0.1016
B(  0-C ,  7-C ) :   0.5717 B(  0-C , 19-H ) :   1.0395 B(  1-C ,  2-C ) :   0.8425
B(  1-C ,  7-C ) :  -0.1530 B(  1-C , 20-H ) :   0.8549 B(  2-C ,  3-H ) :   1.0153
B(  2-C ,  4-H ) :   1.0087 B(  2-C ,  5-H ) :   1.0153 B(  6-C ,  7-C ) :   0.4141
B(  6-C ,  8-H ) :   1.0752 B(  6-C ,  9-H ) :   1.0752 B(  6-C , 10-H ) :   0.9900
B(  6-C , 11-C ) :   0.1108 B(  6-C , 12-C ) :   0.1108 B(  7-C ,  8-H ) :  -0.1146
B(  7-C ,  9-H ) :  -0.1146 B(  7-C , 11-C ) :   0.3902 B(  7-C , 12-C ) :   0.3902
B(  7-C , 13-H ) :  -0.1205 B(  7-C , 15-H ) :  -0.1133 B(  7-C , 17-H ) :  -0.1205
B(  7-C , 18-H ) :  -0.1133 B( 11-C , 12-C ) :   0.1618 B( 11-C , 13-H ) :   1.0388
B( 11-C , 14-H ) :   1.0285 B( 11-C , 15-H ) :   1.0438 B( 12-C , 16-H ) :   1.0285
B( 12-C , 17-H ) :   1.0388 B( 12-C , 18-H ) :   1.0439

MP2 TOTAL ENERGY:     -274.624368858 Eh
FINAL SINGLE POINT ENERGY      -274.624368857980

DIPOLE MOMENT
-------------
                                X             Y             Z
Electronic contribution:      1.28061      -0.11388      -0.00005
Nuclear contribution   :     -1.27339       0.13605       0.00004
                        -----------------------------------------
Total Dipole Moment    :      0.00723       0.02217      -0.00000
                        -----------------------------------------
Magnitude (a.u.)       :      0.02332
Magnitude (Debye)      :      0.05926

Rotational constants in cm-1:     0.141184     0.048157     0.047322
Rotational constants in MHz :  4232.593442  1443.699248  1418.683646

                             ****ORCA TERMINATED NORMALLY****
TOTAL RUN TIME: 0 days 0 hours 41 minutes 33 seconds 100 msec
