                         Program Version 4.2.1 -  RELEASE  -
|  1> %pal
|  2>  nprocs 32
|  3> end
|  4> !RI-MP2 aug-cc-pVQZ aug-cc-pVQZ/C TightSCF
|  5> %maxcore 4500
|  6> *xyzfile 0 1  03_27P2.xyz
|  7>
|  8>
|  9>                          ****END OF INPUT****

CARTESIAN COORDINATES (ANGSTROEM)
---------------------------------
  N     -0.026097   -0.358681   -0.000014
  C      1.366764   -0.091891    0.000002
  C     -1.158222    0.464685   -0.000005
  O     -1.035247    1.662497   -0.000018
  O      2.135455   -1.009890    0.000002
  C     -2.470476   -0.262495    0.000019
  C      1.756265    1.355857    0.000014
  F     -0.307416   -1.701451   -0.000007
  H     -2.556526   -0.902484    0.878979
  H     -2.556550   -0.902497   -0.878929
  H     -3.259855    0.484436    0.000024
  H      2.843270    1.389726    0.000054
  H      1.355679    1.868432    0.873857
  H      1.355750    1.868419   -0.873871

 Total Charge           Charge          ....    0
 Multiplicity           Mult            ....    1
 Number of Electrons    NEL             ....   62
 Basis Dimension        Dim             ....  916

ORBITAL ENERGIES
----------------

  NO   OCC          E(Eh)            E(eV)
   0   2.0000     -26.354259      -717.1358
   1   2.0000     -20.565420      -559.6135
   2   2.0000     -20.558325      -559.4205
   3   2.0000     -15.704553      -427.3426
   4   2.0000     -11.400469      -310.2225
   5   2.0000     -11.389643      -309.9279
   6   2.0000     -11.259669      -306.3912
   7   2.0000     -11.247182      -306.0514
   8   2.0000      -1.670964       -45.4692
   9   2.0000      -1.435873       -39.0721
  10   2.0000      -1.420724       -38.6599
  11   2.0000      -1.223725       -33.2993
  12   2.0000      -1.058254       -28.7966
  13   2.0000      -1.014900       -27.6168
  14   2.0000      -0.902463       -24.5573
  15   2.0000      -0.793339       -21.5878
  16   2.0000      -0.756770       -20.5928
  17   2.0000      -0.732732       -19.9386
  18   2.0000      -0.722608       -19.6632
  19   2.0000      -0.657390       -17.8885
  20   2.0000      -0.644108       -17.5271
  21   2.0000      -0.642744       -17.4900
  22   2.0000      -0.638127       -17.3643
  23   2.0000      -0.618760       -16.8373
  24   2.0000      -0.590503       -16.0684
  25   2.0000      -0.581977       -15.8364
  26   2.0000      -0.553095       -15.0505
  27   2.0000      -0.533793       -14.5252
  28   2.0000      -0.477800       -13.0016
  29   2.0000      -0.455416       -12.3925
  30   2.0000      -0.439079       -11.9480
  31   0.0000       0.022270         0.6060
  32   0.0000       0.029745         0.8094
  33   0.0000       0.035767         0.9733
  34   0.0000       0.040012         1.0888
  35   0.0000       0.049059         1.3350

MULLIKEN ATOMIC CHARGES
-----------------------
   0 N :    0.055957
   1 C :    0.865203
   2 C :    0.873475
   3 O :   -0.760246
   4 O :   -0.767298
   5 C :   -0.807554
   6 C :   -0.726336
   7 F :   -0.511758
   8 H :    0.276885
   9 H :    0.276883
  10 H :    0.331430
  11 H :    0.354079
  12 H :    0.269639
  13 H :    0.269640
Sum of atomic charges:    0.0000000

LOEWDIN ATOMIC CHARGES
----------------------
   0 N :   -0.170304
   1 C :   -0.886759
   2 C :   -0.889286
   3 O :    0.731412
   4 O :    0.702314
   5 C :    0.872404
   6 C :    0.862227
   7 F :    0.636656
   8 H :   -0.299267
   9 H :   -0.299267
  10 H :   -0.317361
  11 H :   -0.316443
  12 H :   -0.313168
  13 H :   -0.313158

  Mayer bond orders larger than 0.100000
B(  0-N ,  1-C ) :   0.9974 B(  0-N ,  2-C ) :   0.9202 B(  0-N ,  3-O ) :   0.1054
B(  0-N ,  4-O ) :   0.1591 B(  0-N ,  7-F ) :   0.4809 B(  1-C ,  4-O ) :   1.3993
B(  1-C ,  6-C ) :   0.8715 B(  2-C ,  3-O ) :   1.3861 B(  2-C ,  5-C ) :   0.8528
B(  5-C ,  8-H ) :   0.9322 B(  5-C ,  9-H ) :   0.9322 B(  5-C , 10-H ) :   0.9684
B(  6-C , 11-H ) :   0.9018 B(  6-C , 12-H ) :   0.9369 B(  6-C , 13-H ) :   0.9369

MP2 TOTAL ENERGY:     -460.417577098 Eh
FINAL SINGLE POINT ENERGY      -460.417577097834

DIPOLE MOMENT
-------------
                                X             Y             Z
Electronic contribution:      1.51459      -5.00117      -0.00009
Nuclear contribution   :     -2.44178       5.37208       0.00012
                        -----------------------------------------
Total Dipole Moment    :     -0.92718       0.37091       0.00002
                        -----------------------------------------
Magnitude (a.u.)       :      0.99862
Magnitude (Debye)      :      2.53829

Rotational constants in cm-1:     0.108325     0.060071     0.039199
Rotational constants in MHz :  3247.497159  1800.883118  1175.148165

                             ****ORCA TERMINATED NORMALLY****
TOTAL RUN TIME: 0 days 0 hours 16 minutes 56 seconds 863 msec
