                         Program Version 4.2.1 -  RELEASE  -
|  1> %pal
|  2>  nprocs 32
|  3> end
|  4> !RI-MP2 aug-cc-pVQZ aug-cc-pVQZ/C TightSCF
|  5> %maxcore 4500
|  6> *xyzfile 0 1  04_5P2.xyz
|  7>
|  8>
|  9>                          ****END OF INPUT****

CARTESIAN COORDINATES (ANGSTROEM)
---------------------------------
  C      0.663693   -0.020627    0.000000
  H      1.024004   -0.544893    0.891833
  H      1.024003   -0.544900   -0.891829
  H      1.082752    0.984635   -0.000004
  O     -0.745360    0.122086    0.000000
  H     -1.150031   -0.747773    0.000000

 Total Charge           Charge          ....    0
 Multiplicity           Mult            ....    1
 Number of Electrons    NEL             ....   18
 Basis Dimension        Dim             ....  344

ORBITAL ENERGIES
----------------

  NO   OCC          E(Eh)            E(eV)
   0   2.0000     -20.556214      -559.3630
   1   2.0000     -11.270830      -306.6949
   2   2.0000      -1.358117       -36.9562
   3   2.0000      -0.925391       -25.1812
   4   2.0000      -0.692055       -18.8318
   5   2.0000      -0.620581       -16.8869
   6   2.0000      -0.594899       -16.1880
   7   2.0000      -0.502703       -13.6792
   8   2.0000      -0.451306       -12.2807
   9   0.0000       0.025381         0.6906
  10   0.0000       0.038954         1.0600
  11   0.0000       0.042088         1.1453
  12   0.0000       0.047754         1.2995
  13   0.0000       0.086556         2.3553

MULLIKEN ATOMIC CHARGES
-----------------------
   0 C :   -0.395925
   1 H :    0.234212
   2 H :    0.234212
   3 H :    0.281484
   4 O :   -0.681746
   5 H :    0.327764
Sum of atomic charges:    0.0000000

LOEWDIN ATOMIC CHARGES
----------------------
   0 C :    0.566549
   1 H :   -0.319085
   2 H :   -0.319085
   3 H :   -0.342754
   4 O :    1.225384
   5 H :   -0.811008

  Mayer bond orders larger than 0.100000
B(  0-C ,  1-H ) :   0.9337 B(  0-C ,  2-H ) :   0.9337 B(  0-C ,  3-H ) :   0.9123
B(  0-C ,  4-O ) :   0.8293 B(  4-O ,  5-H ) :   0.9065

MP2 TOTAL ENERGY:     -115.563008425 Eh
FINAL SINGLE POINT ENERGY      -115.563008424997

DIPOLE MOMENT
-------------
                                X             Y             Z
Electronic contribution:     -1.72854       0.29381      -0.00000
Nuclear contribution   :      2.07733      -0.89784      -0.00000
                        -----------------------------------------
Total Dipole Moment    :      0.34879      -0.60403      -0.00000
                        -----------------------------------------
Magnitude (a.u.)       :      0.69750
Magnitude (Debye)      :      1.77289

Rotational constants in cm-1:     4.289901     0.829344     0.800869
Rotational constants in MHz : 128608.001858 24863.116166 24009.457579

                             ****ORCA TERMINATED NORMALLY****
TOTAL RUN TIME: 0 days 0 hours 0 minutes 36 seconds 577 msec
