                         Program Version 4.2.1 -  RELEASE  -
|  1> %pal
|  2>  nprocs 32
|  3> end
|  4> !RI-MP2 aug-cc-pVQZ aug-cc-pVQZ/C TightSCF
|  5> %maxcore 4500
|  6> *xyzfile 0 1  02_15TS.xyz
|  7>
|  8>
|  9>                          ****END OF INPUT****

CARTESIAN COORDINATES (ANGSTROEM)
---------------------------------
  C     -2.308501    1.265198   -0.053410
  C     -0.795339    1.242518   -0.105007
  C     -0.188308   -0.444016    0.931039
  C     -2.955766   -0.051191   -0.451775
  H     -2.624136    1.552361    0.961902
  C     -2.494492   -1.261128    0.346536
  H     -4.035409    0.081297   -0.368430
  H     -2.735578   -0.233096   -1.507778
  C     -1.001405   -1.495415    0.206041
  H     -2.741713   -1.122294    1.411871
  C     -0.066963    2.266436    0.492788
  H     -0.404329    0.829750   -1.030343
  C      1.319089    2.344222    0.404571
  C      1.214956   -0.459716    1.057550
  C      2.069620    1.412405   -0.271457
  H      1.640162    0.842911   -1.084723
  H     -0.666853   -0.139665    1.858941
  H     -0.777316   -2.474648    0.638120
  H     -0.742907   -1.557003   -0.848762
  C      3.574339    1.466909   -0.252817
  H      3.939245    1.426988    0.781109
  H      3.889325    2.433352   -0.658848
  C      2.090695   -1.306462    0.252359
  C      2.405207   -2.463573   -1.780744
  H      2.812553   -3.320014   -1.245750
  H      3.219865   -1.846712   -2.160926
  H      1.766919   -2.789175   -2.598276
  O      1.562064   -1.688923   -0.922979
  O     -2.843599    2.206157   -0.979474
  O     -3.126200   -2.446115   -0.108318
  O      3.223321   -1.622250    0.575964
  O      4.193502    0.477729   -1.045404
  H      4.217666   -0.341987   -0.534159
  C     -2.705616    3.566351   -0.643645
  H     -3.065738    3.762461    0.374916
  H     -1.669887    3.909917   -0.726012
  H     -3.319303    4.125063   -1.349075
  C     -4.482822   -2.572587    0.245443
  H     -4.792301   -3.578058   -0.036436
  H     -4.622564   -2.447727    1.327255
  H     -5.120475   -1.851857   -0.277670
  C      1.782655   -0.006537    2.374857
  H      1.278514    0.906451    2.700812
  H      1.621778   -0.764467    3.148492
  H      2.854197    0.175811    2.320630
  H      1.832768    3.067383    1.032311
  H     -0.571287    2.919686    1.198551

 Total Charge           Charge          ....    0
 Multiplicity           Mult            ....    1
 Number of Electrons    NEL             ....  162
 Basis Dimension        Dim             .... 2876

ORBITAL ENERGIES
----------------

  NO   OCC          E(Eh)            E(eV)
   0   2.0000     -20.593510      -560.3779
   1   2.0000     -20.558545      -559.4265
   2   2.0000     -20.554892      -559.3270
   3   2.0000     -20.542219      -558.9822
   4   2.0000     -20.525845      -558.5366
   5   2.0000     -11.371544      -309.4354
   6   2.0000     -11.293619      -307.3150
   7   2.0000     -11.282754      -307.0194
   8   2.0000     -11.280774      -306.9655
   9   2.0000     -11.278286      -306.8978
  10   2.0000     -11.271882      -306.7235
  11   2.0000     -11.271515      -306.7135
  12   2.0000     -11.264604      -306.5255
  13   2.0000     -11.259695      -306.3919
  14   2.0000     -11.248484      -306.0868
  15   2.0000     -11.246595      -306.0354
  16   2.0000     -11.240741      -305.8761
  17   2.0000     -11.230621      -305.6007
  18   2.0000     -11.225263      -305.4549
  19   2.0000     -11.221107      -305.3418
  20   2.0000     -11.215719      -305.1952
  21   2.0000      -1.456133       -39.6234
  22   2.0000      -1.381623       -37.5959
  23   2.0000      -1.378551       -37.5123
  24   2.0000      -1.356721       -36.9183
  25   2.0000      -1.345308       -36.6077
  26   2.0000      -1.142106       -31.0783
  27   2.0000      -1.100552       -29.9475
  28   2.0000      -1.082554       -29.4578
  29   2.0000      -1.033117       -28.1125
  30   2.0000      -1.011203       -27.5162
  31   2.0000      -0.975240       -26.5376
  32   2.0000      -0.958680       -26.0870
  33   2.0000      -0.926051       -25.1991
  34   2.0000      -0.923876       -25.1399
  35   2.0000      -0.887054       -24.1380
  36   2.0000      -0.851121       -23.1602
  37   2.0000      -0.838376       -22.8134
  38   2.0000      -0.821214       -22.3464
  39   2.0000      -0.794375       -21.6160
  40   2.0000      -0.754745       -20.5376
  41   2.0000      -0.746059       -20.3013
  42   2.0000      -0.705981       -19.2107
  43   2.0000      -0.691143       -18.8070
  44   2.0000      -0.681224       -18.5370
  45   2.0000      -0.679150       -18.4806
  46   2.0000      -0.670998       -18.2588
  47   2.0000      -0.668830       -18.1998
  48   2.0000      -0.654100       -17.7990
  49   2.0000      -0.643390       -17.5075
  50   2.0000      -0.637686       -17.3523
  51   2.0000      -0.633716       -17.2443
  52   2.0000      -0.620544       -16.8859
  53   2.0000      -0.612941       -16.6790
  54   2.0000      -0.605344       -16.4722
  55   2.0000      -0.598147       -16.2764
  56   2.0000      -0.596296       -16.2260
  57   2.0000      -0.580618       -15.7994
  58   2.0000      -0.575927       -15.6718
  59   2.0000      -0.570976       -15.5371
  60   2.0000      -0.551725       -15.0132
  61   2.0000      -0.545636       -14.8475
  62   2.0000      -0.536171       -14.5900
  63   2.0000      -0.531626       -14.4663
  64   2.0000      -0.527994       -14.3675
  65   2.0000      -0.517179       -14.0732
  66   2.0000      -0.509445       -13.8627
  67   2.0000      -0.505977       -13.7683
  68   2.0000      -0.503457       -13.6998
  69   2.0000      -0.498176       -13.5561
  70   2.0000      -0.491306       -13.3691
  71   2.0000      -0.474767       -12.9191
  72   2.0000      -0.464803       -12.6479
  73   2.0000      -0.460237       -12.5237
  74   2.0000      -0.455698       -12.4002
  75   2.0000      -0.448644       -12.2082
  76   2.0000      -0.443859       -12.0780
  77   2.0000      -0.430848       -11.7240
  78   2.0000      -0.421278       -11.4636
  79   2.0000      -0.333113        -9.0645
  80   2.0000      -0.291834        -7.9412
  81   0.0000       0.017718         0.4821
  82   0.0000       0.024007         0.6533
  83   0.0000       0.026545         0.7223
  84   0.0000       0.027230         0.7410
  85   0.0000       0.033800         0.9197

MULLIKEN ATOMIC CHARGES
-----------------------
   0 C :    1.776372
   1 C :    0.469273
   2 C :    0.767542
   3 C :   -1.012520
   4 H :    0.066603
   5 C :    1.502627
   6 H :    0.212293
   7 H :    0.220027
   8 C :   -0.809367
   9 H :    0.173967
  10 C :   -0.641913
  11 H :    0.170288
  12 C :   -0.419755
  13 C :   -0.247071
  14 C :    0.129667
  15 H :    0.292469
  16 H :    0.245044
  17 H :    0.323109
  18 H :    0.114283
  19 C :   -0.123506
  20 H :    0.123588
  21 H :    0.292968
  22 C :    2.066605
  23 C :   -1.013577
  24 H :    0.334199
  25 H :    0.360903
  26 H :    0.363541
  27 O :   -0.884723
  28 O :   -1.220416
  29 O :   -1.195743
  30 O :   -1.310396
  31 O :   -1.131942
  32 H :    0.422004
  33 C :   -0.792408
  34 H :    0.188671
  35 H :    0.195231
  36 H :    0.388833
  37 C :   -0.789719
  38 H :    0.389228
  39 H :    0.233884
  40 H :    0.269808
  41 C :   -1.306616
  42 H :    0.222509
  43 H :    0.205172
  44 H :    0.248500
  45 H :    0.008239
  46 H :    0.122223
Sum of atomic charges:    0.0000000

LOEWDIN ATOMIC CHARGES
----------------------
   0 C :   -0.216651
   1 C :    0.258828
   2 C :    0.282291
   3 C :    0.496370
   4 H :   -0.292282
   5 C :   -0.222516
   6 H :   -0.289394
   7 H :   -0.264304
   8 C :    0.499092
   9 H :   -0.287544
  10 C :    0.358656
  11 H :   -0.321643
  12 C :    0.364707
  13 C :   -0.133073
  14 C :    0.323283
  15 H :   -0.351895
  16 H :   -0.307284
  17 H :   -0.257143
  18 H :   -0.320838
  19 C :    0.188527
  20 H :   -0.305743
  21 H :   -0.304456
  22 C :   -1.079267
  23 C :    0.609710
  24 H :   -0.314920
  25 H :   -0.321280
  26 H :   -0.311503
  27 O :    0.880983
  28 O :    0.920214
  29 O :    0.920481
  30 O :    0.809560
  31 O :    1.303054
  32 H :   -0.996070
  33 C :    0.579112
  34 H :   -0.298838
  35 H :   -0.331586
  36 H :   -0.316734
  37 C :    0.581779
  38 H :   -0.319206
  39 H :   -0.301389
  40 H :   -0.314675
  41 C :    0.873292
  42 H :   -0.297104
  43 H :   -0.252813
  44 H :   -0.320668
  45 H :   -0.299941
  46 H :   -0.299179

  Mayer bond orders larger than 0.100000
B(  0-C ,  1-C ) :   0.3839 B(  0-C ,  3-C ) :   0.6755 B(  0-C ,  4-H ) :   1.2742
B(  0-C ,  6-H ) :  -0.1015 B(  0-C , 10-C ) :  -0.2225 B(  0-C , 28-O ) :  -0.7785
B(  0-C , 33-C ) :  -0.5364 B(  0-C , 34-H ) :  -0.1281 B(  1-C ,  2-C ) :   0.4346
B(  1-C ,  4-H ) :  -0.2424 B(  1-C , 10-C ) :   0.7059 B(  1-C , 11-H ) :   1.2635
B(  1-C , 12-C ) :  -0.5150 B(  1-C , 14-C ) :   0.1899 B(  1-C , 28-O ) :   0.5438
B(  2-C ,  8-C ) :   0.6354 B(  2-C , 10-C ) :  -0.1092 B(  2-C , 12-C ) :   0.1135
B(  2-C , 13-C ) :  -0.2546 B(  2-C , 16-H ) :   1.1194 B(  2-C , 17-H ) :  -0.1186
B(  2-C , 29-O ) :   0.1579 B(  2-C , 41-C ) :  -0.2628 B(  3-C ,  5-C ) :   0.8280
B(  3-C ,  6-H ) :   1.0674 B(  3-C ,  7-H ) :   0.9881 B(  3-C , 28-O ) :   0.2747
B(  3-C , 29-O ) :   0.3491 B(  3-C , 37-C ) :   0.1231 B(  5-C ,  8-C ) :   1.1515
B(  5-C ,  9-H ) :   0.9855 B(  5-C , 29-O ) :  -0.6988 B(  5-C , 37-C ) :  -0.5787
B(  5-C , 40-H ) :  -0.1877 B(  8-C , 13-C ) :   0.2059 B(  8-C , 16-H ) :  -0.1276
B(  8-C , 17-H ) :   0.9427 B(  8-C , 18-H ) :   1.0301 B(  8-C , 29-O ) :   0.3706
B( 10-C , 11-H ) :  -0.1057 B( 10-C , 12-C ) :   1.2492 B( 10-C , 13-C ) :   0.1721
B( 10-C , 45-H ) :  -0.2799 B( 10-C , 46-H ) :   1.1074 B( 11-H , 14-C ) :  -0.1739
B( 12-C , 14-C ) :   0.9895 B( 12-C , 45-H ) :   1.3462 B( 12-C , 46-H ) :  -0.1618
B( 13-C , 14-C ) :   0.3098 B( 13-C , 16-H ) :  -0.1661 B( 13-C , 22-C ) :   1.3429
B( 13-C , 27-O ) :  -0.2741 B( 13-C , 30-O ) :   0.3628 B( 13-C , 41-C ) :   0.3294
B( 13-C , 42-H ) :  -0.2421 B( 13-C , 43-H ) :  -0.1549 B( 13-C , 44-H ) :  -0.1709
B( 14-C , 15-H ) :   1.0176 B( 14-C , 19-C ) :   0.4345 B( 14-C , 20-H ) :  -0.1644
B( 14-C , 21-H ) :  -0.1570 B( 14-C , 31-O ) :  -0.3843 B( 15-H , 31-O ) :   0.2021
B( 18-H , 27-O ) :   0.1600 B( 19-C , 20-H ) :   1.1517 B( 19-C , 21-H ) :   1.0280
B( 19-C , 31-O ) :   0.6744 B( 22-C , 23-C ) :  -0.1873 B( 22-C , 27-O ) :   0.8624
B( 22-C , 30-O ) :  -0.2009 B( 22-C , 41-C ) :   0.1087 B( 23-C , 24-H ) :   0.9614
B( 23-C , 25-H ) :   0.9126 B( 23-C , 26-H ) :   0.9437 B( 23-C , 27-O ) :   0.9676
B( 27-O , 30-O ) :   0.3025 B( 28-O , 33-C ) :   1.1818 B( 29-O , 37-C ) :   1.1477
B( 29-O , 40-H ) :   0.1014 B( 30-O , 41-C ) :   0.1164 B( 31-O , 32-H ) :   0.7023
B( 33-C , 34-H ) :   0.9969 B( 33-C , 35-H ) :   0.9645 B( 33-C , 36-H ) :   0.8859
B( 37-C , 38-H ) :   0.9202 B( 37-C , 39-H ) :   0.9317 B( 37-C , 40-H ) :   0.9347
B( 41-C , 42-H ) :   1.1536 B( 41-C , 43-H ) :   1.1308 B( 41-C , 44-H ) :   1.1283

MP2 TOTAL ENERGY:     -999.813343337 Eh
FINAL SINGLE POINT ENERGY      -999.813343336713

DIPOLE MOMENT
-------------
                                X             Y             Z
Electronic contribution:      7.60931      -2.88711      -2.60121
Nuclear contribution   :     -8.94185       3.58748       3.35331
                        -----------------------------------------
Total Dipole Moment    :     -1.33255       0.70037       0.75209
                        -----------------------------------------
Magnitude (a.u.)       :      1.68281
Magnitude (Debye)      :      4.27736

Rotational constants in cm-1:     0.013537     0.007498     0.005651
Rotational constants in MHz :   405.828316   224.777756   169.420171

                             ****ORCA TERMINATED NORMALLY****
TOTAL RUN TIME: 0 days 13 hours 32 minutes 5 seconds 17 msec
