                         Program Version 4.2.1 -  RELEASE  -
|  1> %pal
|  2>  nprocs 32
|  3> end
|  4> !RI-MP2 aug-cc-pVQZ aug-cc-pVQZ/C TightSCF
|  5> %maxcore 4500
|  6> *xyzfile 0 1  05_22R1.xyz
|  7>
|  8>
|  9>                          ****END OF INPUT****

CARTESIAN COORDINATES (ANGSTROEM)
---------------------------------
  C      2.584957    0.642421   -0.000005
  C      1.101677    0.395438   -0.000002
  C      0.584487   -0.894363   -0.000020
  C      0.231931    1.485022    0.000017
  C     -0.786626   -1.099357   -0.000020
  H      1.264869   -1.733921   -0.000033
  C     -1.137113    1.297031    0.000015
  H      0.629874    2.493794    0.000032
  C     -1.625082   -0.000043   -0.000003
  H     -1.210127   -2.093560   -0.000033
  H     -1.826925    2.128602    0.000029
  O      3.284541   -0.572136    0.000010
  C      4.682132   -0.398835    0.000013
  H      5.014684    0.146186    0.892171
  H      5.130610   -1.390521    0.000020
  H      5.014690    0.146177   -0.892147
  N     -3.081146   -0.211626   -0.000003
  O     -3.486560   -1.357908   -0.000007
  O     -3.795246    0.773116    0.000002
  H      2.855140    1.238071   -0.884748
  H      2.855141    1.238094    0.884721

 Total Charge           Charge          ....    0
 Multiplicity           Mult            ....    1
 Number of Electrons    NEL             ....   88
 Basis Dimension        Dim             .... 1374

ORBITAL ENERGIES
----------------

  NO   OCC          E(Eh)            E(eV)
   0   2.0000     -20.593328      -560.3729
   1   2.0000     -20.593193      -560.3693
   2   2.0000     -20.577748      -559.9490
   3   2.0000     -15.846702      -431.2107
   4   2.0000     -11.304757      -307.6181
   5   2.0000     -11.299743      -307.4816
   6   2.0000     -11.288058      -307.1637
   7   2.0000     -11.272434      -306.7385
   8   2.0000     -11.268084      -306.6202
   9   2.0000     -11.266779      -306.5846
  10   2.0000     -11.256775      -306.3124
  11   2.0000     -11.250312      -306.1366
  12   2.0000      -1.607454       -43.7410
  13   2.0000      -1.404487       -38.2180
  14   2.0000      -1.398550       -38.0565
  15   2.0000      -1.199263       -32.6336
  16   2.0000      -1.104706       -30.0606
  17   2.0000      -1.048522       -28.5317
  18   2.0000      -1.010358       -27.4932
  19   2.0000      -0.942094       -25.6357
  20   2.0000      -0.894397       -24.3378
  21   2.0000      -0.859593       -23.3907
  22   2.0000      -0.812313       -22.1042
  23   2.0000      -0.778217       -21.1764
  24   2.0000      -0.726817       -19.7777
  25   2.0000      -0.719158       -19.5693
  26   2.0000      -0.701066       -19.0770
  27   2.0000      -0.692405       -18.8413
  28   2.0000      -0.684191       -18.6178
  29   2.0000      -0.649073       -17.6622
  30   2.0000      -0.635840       -17.3021
  31   2.0000      -0.620346       -16.8805
  32   2.0000      -0.607506       -16.5311
  33   2.0000      -0.588074       -16.0023
  34   2.0000      -0.532366       -14.4864
  35   2.0000      -0.526914       -14.3381
  36   2.0000      -0.526556       -14.3283
  37   2.0000      -0.501496       -13.6464
  38   2.0000      -0.490122       -13.3369
  39   2.0000      -0.489569       -13.3218
  40   2.0000      -0.452005       -12.2997
  41   2.0000      -0.451492       -12.2857
  42   2.0000      -0.365216        -9.9380
  43   2.0000      -0.363393        -9.8884
  44   0.0000       0.017146         0.4666
  45   0.0000       0.025374         0.6905
  46   0.0000       0.030433         0.8281
  47   0.0000       0.031115         0.8467
  48   0.0000       0.039569         1.0767

MULLIKEN ATOMIC CHARGES
-----------------------
   0 C :    0.548205
   1 C :    0.295785
   2 C :   -0.353597
   3 C :   -0.327568
   4 C :   -0.302840
   5 H :    0.241151
   6 C :   -0.195609
   7 H :    0.198241
   8 C :   -0.166048
   9 H :    0.346775
  10 H :    0.294602
  11 O :   -0.837381
  12 C :   -0.712463
  13 H :    0.282457
  14 H :    0.368638
  15 H :    0.282461
  16 N :    0.779660
  17 O :   -0.618821
  18 O :   -0.624449
  19 H :    0.250405
  20 H :    0.250395
Sum of atomic charges:   -0.0000000

LOEWDIN ATOMIC CHARGES
----------------------
   0 C :    0.124475
   1 C :   -0.067739
   2 C :    0.368685
   3 C :    0.364293
   4 C :    0.335084
   5 H :   -0.346924
   6 C :    0.328441
   7 H :   -0.305624
   8 C :   -0.303387
   9 H :   -0.344851
  10 H :   -0.346542
  11 O :    0.879501
  12 C :    0.581985
  13 H :   -0.303902
  14 H :   -0.319513
  15 H :   -0.303903
  16 N :   -0.847746
  17 O :    0.545896
  18 O :    0.544957
  19 H :   -0.291590
  20 H :   -0.291593

  Mayer bond orders larger than 0.100000
B(  0-C ,  1-C ) :   0.8395 B(  0-C ,  2-C ) :  -0.3061 B(  0-C ,  3-C ) :  -0.3009
B(  0-C , 11-O ) :   0.6311 B(  0-C , 12-C ) :  -0.1692 B(  0-C , 19-H ) :   0.9586
B(  0-C , 20-H ) :   0.9587 B(  1-C ,  2-C ) :   1.0599 B(  1-C ,  3-C ) :   0.9512
B(  1-C ,  4-C ) :  -0.2393 B(  1-C ,  6-C ) :  -0.2376 B(  2-C ,  4-C ) :   1.1390
B(  2-C ,  5-H ) :   1.0340 B(  2-C ,  6-C ) :   0.1302 B(  2-C ,  8-C ) :  -0.2681
B(  2-C ,  9-H ) :  -0.1300 B(  3-C ,  4-C ) :   0.1036 B(  3-C ,  6-C ) :   1.3461
B(  3-C ,  7-H ) :   1.1256 B(  3-C ,  8-C ) :  -0.1765 B(  3-C , 10-H ) :  -0.1077
B(  4-C ,  5-H ) :  -0.1035 B(  4-C ,  8-C ) :   1.2799 B(  4-C ,  9-H ) :   0.9051
B(  4-C , 16-N ) :  -0.1034 B(  6-C ,  7-H ) :  -0.1337 B(  6-C ,  8-C ) :   1.2301
B(  6-C , 10-H ) :   0.9425 B(  6-C , 16-N ) :  -0.1394 B(  8-C , 10-H ) :  -0.1044
B(  8-C , 16-N ) :   0.8229 B(  8-C , 17-O ) :   0.2720 B(  8-C , 18-O ) :   0.3057
B( 11-O , 12-C ) :   0.9529 B( 12-C , 13-H ) :   0.9219 B( 12-C , 14-H ) :   0.9102
B( 12-C , 15-H ) :   0.9219 B( 16-N , 17-O ) :   1.1775 B( 16-N , 18-O ) :   1.1609

MP2 TOTAL ENERGY:     -589.705067745 Eh
FINAL SINGLE POINT ENERGY      -589.705067744583

DIPOLE MOMENT
-------------
                                X             Y             Z
Electronic contribution:    -16.83446      -1.43931      -0.00002
Nuclear contribution   :     19.42430       2.12905       0.00001
                        -----------------------------------------
Total Dipole Moment    :      2.58985       0.68974      -0.00000
                        -----------------------------------------
Magnitude (a.u.)       :      2.68012
Magnitude (Debye)      :      6.81233

Rotational constants in cm-1:     0.111630     0.013491     0.012092
Rotational constants in MHz :  3346.591611   404.463835   362.499398

                             ****ORCA TERMINATED NORMALLY****
TOTAL RUN TIME: 0 days 1 hours 6 minutes 34 seconds 575 msec
