                         Program Version 4.2.1 -  RELEASE  -
|  1> %pal
|  2>  nprocs 32
|  3> end
|  4> !RI-MP2 aug-cc-pVQZ aug-cc-pVQZ/C TightSCF
|  5> %maxcore 4500
|  6> *xyzfile 0 1  10_20R1.xyz
|  7>
|  8>
|  9>                          ****END OF INPUT****

CARTESIAN COORDINATES (ANGSTROEM)
---------------------------------
  N      1.467630   -0.895202   -0.000005
  N      2.396874   -0.093300   -0.000014
  N      3.320947    0.547447   -0.000023
  C      0.149692   -0.371226    0.000001
  C     -0.137466    0.990551   -0.000004
  C     -0.882104   -1.304114    0.000012
  C     -1.459849    1.410672    0.000002
  C     -2.197404   -0.872426    0.000018
  C     -2.493524    0.485499    0.000013
  H      0.661389    1.722991   -0.000013
  H     -1.679660    2.471293   -0.000002
  H     -3.523386    0.819359    0.000018
  H     -2.997764   -1.602225    0.000026
  H     -0.634804   -2.357767    0.000015

 Total Charge           Charge          ....    0
 Multiplicity           Mult            ....    1
 Number of Electrons    NEL             ....   62
 Basis Dimension        Dim             ....  950

ORBITAL ENERGIES
----------------

  NO   OCC          E(Eh)            E(eV)
   0   2.0000     -15.792356      -429.7318
   1   2.0000     -15.679213      -426.6531
   2   2.0000     -15.618989      -425.0143
   3   2.0000     -11.295360      -307.3624
   4   2.0000     -11.246410      -306.0304
   5   2.0000     -11.244779      -305.9860
   6   2.0000     -11.243087      -305.9399
   7   2.0000     -11.238701      -305.8206
   8   2.0000     -11.236421      -305.7586
   9   2.0000      -1.523658       -41.4608
  10   2.0000      -1.316915       -35.8351
  11   2.0000      -1.165169       -31.7059
  12   2.0000      -1.040407       -28.3109
  13   2.0000      -1.029875       -28.0243
  14   2.0000      -0.884689       -24.0736
  15   2.0000      -0.845461       -23.0062
  16   2.0000      -0.770122       -20.9561
  17   2.0000      -0.721203       -19.6249
  18   2.0000      -0.719921       -19.5901
  19   2.0000      -0.690197       -18.7812
  20   2.0000      -0.680833       -18.5264
  21   2.0000      -0.636754       -17.3269
  22   2.0000      -0.618573       -16.8322
  23   2.0000      -0.598821       -16.2948
  24   2.0000      -0.533505       -14.5174
  25   2.0000      -0.531559       -14.4644
  26   2.0000      -0.512064       -13.9340
  27   2.0000      -0.458347       -12.4723
  28   2.0000      -0.438364       -11.9285
  29   2.0000      -0.351786        -9.5726
  30   2.0000      -0.313975        -8.5437
  31   0.0000       0.024549         0.6680
  32   0.0000       0.028759         0.7826
  33   0.0000       0.033118         0.9012
  34   0.0000       0.043523         1.1843
  35   0.0000       0.047206         1.2845

MULLIKEN ATOMIC CHARGES
-----------------------
   0 N :   -0.458456
   1 N :    0.240764
   2 N :   -0.308291
   3 C :    0.649662
   4 C :   -0.235533
   5 C :   -0.402723
   6 C :   -0.330964
   7 C :   -0.348423
   8 C :   -0.307671
   9 H :    0.294179
  10 H :    0.281472
  11 H :    0.298770
  12 H :    0.232468
  13 H :    0.394746
Sum of atomic charges:   -0.0000000

LOEWDIN ATOMIC CHARGES
----------------------
   0 N :    0.332994
   1 N :   -0.274610
   2 N :    0.394920
   3 C :   -0.407017
   4 C :    0.297663
   5 C :    0.297518
   6 C :    0.333457
   7 C :    0.332456
   8 C :    0.333543
   9 H :   -0.349753
  10 H :   -0.318926
  11 H :   -0.325298
  12 H :   -0.319234
  13 H :   -0.327712

  Mayer bond orders larger than 0.100000
B(  0-N ,  1-N ) :   1.3630 B(  0-N ,  2-N ) :   0.2131 B(  0-N ,  3-C ) :   0.5086
B(  0-N ,  4-C ) :  -0.1251 B(  1-N ,  2-N ) :   2.2169 B(  1-N ,  3-C ) :  -0.2550
B(  1-N ,  4-C ) :   0.1234 B(  3-C ,  4-C ) :   1.2086 B(  3-C ,  5-C ) :   1.1792
B(  3-C ,  6-C ) :  -0.1572 B(  3-C ,  7-C ) :  -0.2697 B(  4-C ,  6-C ) :   1.1730
B(  4-C ,  7-C ) :   0.1040 B(  4-C ,  9-H ) :   0.9785 B(  4-C , 10-H ) :  -0.1103
B(  5-C ,  6-C ) :   0.1324 B(  5-C ,  7-C ) :   1.3380 B(  5-C , 12-H ) :  -0.1113
B(  5-C , 13-H ) :   0.8482 B(  6-C ,  8-C ) :   1.1991 B(  6-C , 10-H ) :   1.0514
B(  7-C ,  8-C ) :   1.1491 B(  7-C , 12-H ) :   1.1348 B(  8-C , 11-H ) :   1.0346

MP2 TOTAL ENERGY:     -395.198810189 Eh
FINAL SINGLE POINT ENERGY      -395.198810189284

DIPOLE MOMENT
-------------
                                X             Y             Z
Electronic contribution:      7.42003      -0.77705      -0.00004
Nuclear contribution   :     -7.94866       1.02736       0.00004
                        -----------------------------------------
Total Dipole Moment    :     -0.52863       0.25031       0.00000
                        -----------------------------------------
Magnitude (a.u.)       :      0.58490
Magnitude (Debye)      :      1.48670

Rotational constants in cm-1:     0.163200     0.036811     0.030036
Rotational constants in MHz :  4892.617863  1103.568816   900.462375

                             ****ORCA TERMINATED NORMALLY****
TOTAL RUN TIME: 0 days 0 hours 26 minutes 14 seconds 632 msec
