                         Program Version 4.2.1 -  RELEASE  -
|  1> %pal
|  2>  nprocs 32
|  3> end
|  4> !RI-MP2 aug-cc-pVQZ aug-cc-pVQZ/C TightSCF
|  5> %maxcore 4500
|  6> *xyzfile 1 1  10_14P.xyz
|  7>
|  8>
|  9>                          ****END OF INPUT****

CARTESIAN COORDINATES (ANGSTROEM)
---------------------------------
  C      2.216789   -0.507831   -0.225816
  N      0.814202   -0.871366   -0.076088
  N      0.079839    0.114804   -0.190236
  C     -1.341224    0.011443   -0.062711
  C     -2.129033    1.119354   -0.358230
  C     -1.899846   -1.197420    0.346287
  C     -3.504949    1.007627   -0.245692
  H     -1.695476    2.055861   -0.679305
  C     -3.273357   -1.288220    0.456694
  H     -1.264119   -2.041401    0.573196
  C     -4.075637   -0.190079    0.161044
  H     -4.130336    1.859862   -0.476212
  H     -3.722672   -2.219082    0.776866
  H     -5.151573   -0.270108    0.250838
  C      2.892193   -0.471532    1.174394
  C      2.841015   -1.352824   -1.315341
  H      2.342165   -1.203061   -2.274873
  H      3.889383   -1.074474   -1.425872
  H      2.789756   -2.411075   -1.056014
  C      2.223755    1.044632   -0.273824
  C      0.775363    1.422377   -0.477108
  C      2.755042    1.071430    1.181341
  H      2.370654   -1.015104    1.961039
  H      3.918818   -0.830846    1.122741
  H      2.031751    1.449181    1.905544
  H      3.686772    1.616098    1.315054
  H      0.516571    1.710845   -1.496380
  H      0.400894    2.168472    0.221518
  H      2.878450    1.487036   -1.020094

 Total Charge           Charge          ....    1
 Multiplicity           Mult            ....    1
 Number of Electrons    NEL             ....  100
 Basis Dimension        Dim             .... 1810

ORBITAL ENERGIES
----------------

  NO   OCC          E(Eh)            E(eV)
   0   2.0000     -15.893239      -432.4770
   1   2.0000     -15.837016      -430.9471
   2   2.0000     -11.450843      -311.5933
   3   2.0000     -11.436356      -311.1991
   4   2.0000     -11.434081      -311.1372
   5   2.0000     -11.393433      -310.0311
   6   2.0000     -11.392739      -310.0122
   7   2.0000     -11.386058      -309.8304
   8   2.0000     -11.375969      -309.5558
   9   2.0000     -11.373066      -309.4769
  10   2.0000     -11.372649      -309.4655
  11   2.0000     -11.371801      -309.4424
  12   2.0000     -11.369045      -309.3674
  13   2.0000     -11.362088      -309.1781
  14   2.0000      -1.624878       -44.2152
  15   2.0000      -1.345640       -36.6167
  16   2.0000      -1.298817       -35.3426
  17   2.0000      -1.264061       -34.3969
  18   2.0000      -1.188535       -32.3417
  19   2.0000      -1.169535       -31.8247
  20   2.0000      -1.143767       -31.1235
  21   2.0000      -1.091489       -29.7009
  22   2.0000      -1.041209       -28.3327
  23   2.0000      -0.993775       -27.0420
  24   2.0000      -0.979290       -26.6478
  25   2.0000      -0.952597       -25.9215
  26   2.0000      -0.923343       -25.1254
  27   2.0000      -0.898405       -24.4468
  28   2.0000      -0.858467       -23.3601
  29   2.0000      -0.823763       -22.4157
  30   2.0000      -0.809261       -22.0211
  31   2.0000      -0.783493       -21.3199
  32   2.0000      -0.770761       -20.9735
  33   2.0000      -0.756992       -20.5988
  34   2.0000      -0.743622       -20.2350
  35   2.0000      -0.740869       -20.1601
  36   2.0000      -0.733334       -19.9550
  37   2.0000      -0.725255       -19.7352
  38   2.0000      -0.696781       -18.9604
  39   2.0000      -0.691425       -18.8146
  40   2.0000      -0.668083       -18.1795
  41   2.0000      -0.655066       -17.8252
  42   2.0000      -0.644803       -17.5460
  43   2.0000      -0.639054       -17.3895
  44   2.0000      -0.627827       -17.0840
  45   2.0000      -0.626410       -17.0455
  46   2.0000      -0.588037       -16.0013
  47   2.0000      -0.585083       -15.9209
  48   2.0000      -0.485342       -13.2068
  49   2.0000      -0.481361       -13.0985
  50   0.0000      -0.111936        -3.0459
  51   0.0000      -0.070552        -1.9198
  52   0.0000      -0.057160        -1.5554
  53   0.0000      -0.056478        -1.5369
  54   0.0000      -0.053622        -1.4591

MULLIKEN ATOMIC CHARGES
-----------------------
   0 C :    0.999337
   1 N :   -0.598678
   2 N :    0.327888
   3 C :    1.130964
   4 C :   -0.201935
   5 C :   -0.517071
   6 C :   -0.460931
   7 H :    0.186021
   8 C :   -0.360579
   9 H :    0.284424
  10 C :   -0.440360
  11 H :    0.281844
  12 H :    0.275924
  13 H :    0.329375
  14 C :   -0.795137
  15 C :   -0.962550
  16 H :    0.227285
  17 H :    0.293781
  18 H :    0.261383
  19 C :   -0.301635
  20 C :   -0.511284
  21 C :   -0.692139
  22 H :    0.309904
  23 H :    0.313880
  24 H :    0.274680
  25 H :    0.305282
  26 H :    0.345490
  27 H :    0.312839
  28 H :    0.381998
Sum of atomic charges:    1.0000000

LOEWDIN ATOMIC CHARGES
----------------------
   0 C :   -0.443092
   1 N :    0.631387
   2 N :    0.298445
   3 C :   -0.194377
   4 C :    0.362915
   5 C :    0.359771
   6 C :    0.388886
   7 H :   -0.331316
   8 C :    0.387518
   9 H :   -0.323651
  10 C :    0.385175
  11 H :   -0.302071
  12 H :   -0.302245
  13 H :   -0.297951
  14 C :    0.600250
  15 C :    0.970214
  16 H :   -0.260390
  17 H :   -0.265957
  18 H :   -0.260023
  19 C :    0.174995
  20 C :    0.490703
  21 C :    0.613597
  22 H :   -0.238587
  23 H :   -0.247564
  24 H :   -0.251312
  25 H :   -0.236814
  26 H :   -0.231017
  27 H :   -0.254671
  28 H :   -0.222816

  Mayer bond orders larger than 0.100000
B(  0-C ,  1-N ) :   0.6665 B(  0-C ,  2-N ) :  -0.2466 B(  0-C , 14-C ) :   0.7472
B(  0-C , 15-C ) :   0.2972 B(  0-C , 16-H ) :  -0.1317 B(  0-C , 18-H ) :  -0.1594
B(  0-C , 19-C ) :   0.8335 B(  0-C , 21-C ) :  -0.2868 B(  1-N ,  2-N ) :   0.2763
B(  1-N , 14-C ) :   0.1209 B(  2-N ,  3-C ) :   0.9613 B(  2-N ,  5-C ) :   0.1689
B(  2-N , 20-C ) :   0.6939 B(  3-C ,  4-C ) :   0.7834 B(  3-C ,  5-C ) :   0.6255
B(  3-C ,  6-C ) :  -0.4580 B(  3-C ,  8-C ) :  -0.4149 B(  3-C , 10-C ) :  -0.1841
B(  3-C , 20-C ) :  -0.1242 B(  4-C ,  6-C ) :   1.1921 B(  4-C ,  7-H ) :   1.0641
B(  4-C , 11-H ) :  -0.1268 B(  5-C ,  6-C ) :   0.1385 B(  5-C ,  8-C ) :   1.2464
B(  5-C ,  9-H ) :   0.9419 B(  5-C , 10-C ) :   0.1015 B(  5-C , 12-H ) :  -0.1546
B(  6-C , 10-C ) :   1.2173 B(  6-C , 11-H ) :   1.0933 B(  8-C , 10-C ) :   1.1515
B(  8-C , 12-H ) :   1.1326 B(  8-C , 13-H ) :  -0.1009 B( 10-C , 11-H ) :  -0.1146
B( 10-C , 13-H ) :   1.0292 B( 14-C , 21-C ) :   1.2789 B( 14-C , 22-H ) :   0.9228
B( 14-C , 23-H ) :   0.8708 B( 15-C , 16-H ) :   1.0814 B( 15-C , 17-H ) :   0.9837
B( 15-C , 18-H ) :   1.0759 B( 19-C , 20-C ) :   1.0168 B( 19-C , 21-C ) :   1.0514
B( 19-C , 28-H ) :   0.8145 B( 20-C , 26-H ) :   0.8650 B( 20-C , 27-H ) :   0.9335
B( 21-C , 24-H ) :   0.9189 B( 21-C , 25-H ) :   0.9089

MP2 TOTAL ENERGY:     -574.495149281 Eh
FINAL SINGLE POINT ENERGY      -574.495149280974

DIPOLE MOMENT
-------------
                                X             Y             Z
Electronic contribution:     -8.39770      -0.68290       0.05401
Nuclear contribution   :      8.98083       1.29427      -0.30744
                        -----------------------------------------
Total Dipole Moment    :      0.58314       0.61137      -0.25343
                        -----------------------------------------
Magnitude (a.u.)       :      0.88207
Magnitude (Debye)      :      2.24204

Rotational constants in cm-1:     0.058952     0.013522     0.012454
Rotational constants in MHz :  1767.349034   405.374262   373.347365

                             ****ORCA TERMINATED NORMALLY****
TOTAL RUN TIME: 0 days 3 hours 24 minutes 50 seconds 368 msec
