                         Program Version 4.2.1 -  RELEASE  -
|  1> %pal
|  2>  nprocs 32
|  3> end
|  4> !RI-MP2 aug-cc-pVQZ aug-cc-pVQZ/C TightSCF
|  5> %maxcore 4500
|  6> *xyzfile 0 1  10_5TS.xyz
|  7>
|  8>
|  9>                          ****END OF INPUT****

CARTESIAN COORDINATES (ANGSTROEM)
---------------------------------
  C      2.131256   -1.939602    0.039311
  C     -1.611307   -0.384606    0.907320
  C     -0.527131    0.101871    0.265335
  C      2.636889   -0.648599    0.055145
  O      0.734245    0.133820    1.200772
  C      1.634655    1.511614   -0.309221
  H      2.292610    1.570748   -1.171261
  N      1.782781    0.438748    0.421918
  H      1.100362   -2.117715    0.311945
  O     -0.259097    0.549012   -0.863232
  C      2.967470   -2.977138   -0.340604
  C      4.287452   -2.727125   -0.694191
  H      4.933609   -3.544618   -0.988524
  C      4.781312   -1.430809   -0.658746
  H      5.814594   -1.233379   -0.914961
  C      3.958197   -0.383565   -0.272144
  H      4.344962    0.625758   -0.203032
  H      2.581256   -3.988339   -0.365169
  C     -2.903132   -0.466339    0.206559
  C     -4.053022   -0.860590    0.907678
  C     -3.062091   -0.168631   -1.157802
  C     -5.290896   -0.944854    0.287395
  H     -3.986217   -1.103173    1.959281
  C     -4.300465   -0.253993   -1.771962
  H     -2.199902    0.127912   -1.736254
  C     -5.427824   -0.641274   -1.058477
  H     -6.154993   -1.251394    0.866114
  H     -4.383740   -0.017706   -2.827008
  H     -6.393739   -0.707829   -1.544448
  C     -1.537773   -0.855092    2.336797
  H     -1.888782   -1.887651    2.431097
  H     -2.166340   -0.243818    2.992664
  H     -0.524348   -0.812081    2.725025
  C      0.975544    2.765630    0.156984
  H      0.184418    2.509265    0.860097
  C      0.385567    3.534478   -1.021215
  H     -0.071709    4.459829   -0.667739
  H     -0.372607    2.936551   -1.523561
  H      1.161213    3.802639   -1.745164
  C      2.044086    3.589035    0.895815
  H      2.876981    3.847044    0.235646
  H      2.438597    3.050187    1.758696
  H      1.600414    4.521410    1.248947

 Total Charge           Charge          ....    0
 Multiplicity           Mult            ....    1
 Number of Electrons    NEL             ....  158
 Basis Dimension        Dim             .... 2726

ORBITAL ENERGIES
----------------

  NO   OCC          E(Eh)            E(eV)
   0   2.0000     -20.614438      -560.9474
   1   2.0000     -20.511935      -558.1581
   2   2.0000     -15.701082      -427.2482
   3   2.0000     -11.372980      -309.4745
   4   2.0000     -11.329160      -308.2821
   5   2.0000     -11.305208      -307.6303
   6   2.0000     -11.268862      -306.6413
   7   2.0000     -11.263598      -306.4981
   8   2.0000     -11.259120      -306.3762
   9   2.0000     -11.256005      -306.2915
  10   2.0000     -11.254442      -306.2489
  11   2.0000     -11.253512      -306.2236
  12   2.0000     -11.248487      -306.0869
  13   2.0000     -11.230826      -305.6063
  14   2.0000     -11.216012      -305.2032
  15   2.0000     -11.203822      -304.8715
  16   2.0000     -11.202076      -304.8240
  17   2.0000     -11.197104      -304.6887
  18   2.0000     -11.195850      -304.6546
  19   2.0000     -11.194213      -304.6100
  20   2.0000     -11.189843      -304.4911
  21   2.0000     -11.188619      -304.4578
  22   2.0000      -1.498782       -40.7839
  23   2.0000      -1.347662       -36.6717
  24   2.0000      -1.238722       -33.7073
  25   2.0000      -1.178650       -32.0727
  26   2.0000      -1.126971       -30.6665
  27   2.0000      -1.117210       -30.4008
  28   2.0000      -1.053048       -28.6549
  29   2.0000      -1.047477       -28.5033
  30   2.0000      -1.040797       -28.3215
  31   2.0000      -0.983447       -26.7610
  32   2.0000      -0.966669       -26.3044
  33   2.0000      -0.959315       -26.1043
  34   2.0000      -0.932999       -25.3882
  35   2.0000      -0.890281       -24.2258
  36   2.0000      -0.861313       -23.4375
  37   2.0000      -0.845502       -23.0073
  38   2.0000      -0.825846       -22.4724
  39   2.0000      -0.796100       -21.6630
  40   2.0000      -0.789221       -21.4758
  41   2.0000      -0.776351       -21.1256
  42   2.0000      -0.742856       -20.2141
  43   2.0000      -0.705111       -19.1870
  44   2.0000      -0.698171       -18.9982
  45   2.0000      -0.682741       -18.5783
  46   2.0000      -0.661910       -18.0115
  47   2.0000      -0.650941       -17.7130
  48   2.0000      -0.643445       -17.5090
  49   2.0000      -0.631372       -17.1805
  50   2.0000      -0.626340       -17.0436
  51   2.0000      -0.617509       -16.8033
  52   2.0000      -0.615940       -16.7606
  53   2.0000      -0.596371       -16.2281
  54   2.0000      -0.594856       -16.1869
  55   2.0000      -0.571297       -15.5458
  56   2.0000      -0.568552       -15.4711
  57   2.0000      -0.562026       -15.2935
  58   2.0000      -0.555336       -15.1115
  59   2.0000      -0.549690       -14.9578
  60   2.0000      -0.540973       -14.7206
  61   2.0000      -0.537329       -14.6215
  62   2.0000      -0.528461       -14.3801
  63   2.0000      -0.525626       -14.3030
  64   2.0000      -0.523958       -14.2576
  65   2.0000      -0.515586       -14.0298
  66   2.0000      -0.508501       -13.8370
  67   2.0000      -0.505397       -13.7525
  68   2.0000      -0.497301       -13.5323
  69   2.0000      -0.475220       -12.9314
  70   2.0000      -0.473323       -12.8798
  71   2.0000      -0.460385       -12.5277
  72   2.0000      -0.446411       -12.1474
  73   2.0000      -0.423030       -11.5112
  74   2.0000      -0.364255        -9.9119
  75   2.0000      -0.349344        -9.5061
  76   2.0000      -0.346303        -9.4234
  77   2.0000      -0.307710        -8.3732
  78   2.0000      -0.242792        -6.6067
  79   0.0000       0.012819         0.3488
  80   0.0000       0.020385         0.5547
  81   0.0000       0.025539         0.6950
  82   0.0000       0.027180         0.7396
  83   0.0000       0.032934         0.8962

MULLIKEN ATOMIC CHARGES
-----------------------
   0 C :   -0.677402
   1 C :    0.036309
   2 C :    1.564354
   3 C :    1.060968
   4 O :   -1.286778
   5 C :    0.906820
   6 H :    0.699811
   7 N :   -0.120040
   8 H :    0.368578
   9 O :   -1.178596
  10 C :   -0.456095
  11 C :   -0.433871
  12 H :    0.329691
  13 C :   -0.467305
  14 H :    0.210866
  15 C :   -0.348517
  16 H :    0.288115
  17 H :    0.221263
  18 C :    0.626679
  19 C :   -0.469643
  20 C :   -0.696912
  21 C :   -0.396461
  22 H :    0.264611
  23 C :   -0.451758
  24 H :    0.451528
  25 C :   -0.383703
  26 H :    0.204886
  27 H :    0.165581
  28 H :    0.345612
  29 C :   -1.175477
  30 H :    0.241903
  31 H :    0.272817
  32 H :    0.346362
  33 C :    0.134581
  34 H :    0.345545
  35 C :   -1.168680
  36 H :    0.268652
  37 H :    0.401283
  38 H :    0.190362
  39 C :   -1.031228
  40 H :    0.192108
  41 H :    0.323883
  42 H :    0.279302
Sum of atomic charges:    0.0000000

LOEWDIN ATOMIC CHARGES
----------------------
   0 C :    0.362757
   1 C :   -0.114230
   2 C :   -0.906421
   3 C :   -0.237490
   4 O :    0.722595
   5 C :    0.072981
   6 H :   -0.250685
   7 N :    0.041617
   8 H :   -0.330228
   9 O :    0.762572
  10 C :    0.367231
  11 C :    0.350135
  12 H :   -0.317930
  13 C :    0.354652
  14 H :   -0.315585
  15 C :    0.343940
  16 H :   -0.312351
  17 H :   -0.311462
  18 C :   -0.104891
  19 C :    0.324388
  20 C :    0.328423
  21 C :    0.334702
  22 H :   -0.367270
  23 C :    0.334525
  24 H :   -0.428278
  25 C :    0.323264
  26 H :   -0.323972
  27 H :   -0.324836
  28 H :   -0.331116
  29 C :    0.840279
  30 H :   -0.288470
  31 H :   -0.285395
  32 H :   -0.367322
  33 C :    0.104590
  34 H :   -0.312083
  35 C :    0.938968
  36 H :   -0.264690
  37 H :   -0.296985
  38 H :   -0.267335
  39 C :    0.948848
  40 H :   -0.267622
  41 H :   -0.264252
  42 H :   -0.265566

  Mayer bond orders larger than 0.100000
B(  0-C ,  3-C ) :   1.0722 B(  0-C ,  4-O ) :   0.1198 B(  0-C ,  5-C ) :  -0.1534
B(  0-C ,  7-N ) :  -0.1079 B(  0-C ,  8-H ) :   0.7596 B(  0-C , 10-C ) :   1.1975
B(  0-C , 17-H ) :  -0.1304 B(  1-C ,  2-C ) :   1.4730 B(  1-C ,  4-O ) :  -0.2459
B(  1-C ,  9-O ) :   0.2849 B(  1-C , 18-C ) :   0.3527 B(  1-C , 19-C ) :  -0.5236
B(  1-C , 22-H ) :   0.1528 B(  1-C , 24-H ) :   0.1023 B(  1-C , 29-C ) :   0.4329
B(  1-C , 30-H ) :  -0.1498 B(  1-C , 31-H ) :  -0.1787 B(  2-C ,  4-O ) :   0.6566
B(  2-C , 18-C ) :  -0.1847 B(  2-C , 20-C ) :   0.1454 B(  2-C , 29-C ) :  -0.1496
B(  3-C ,  4-O ) :  -0.2422 B(  3-C ,  6-H ) :  -0.1458 B(  3-C ,  7-N ) :   1.1351
B(  3-C , 10-C ) :  -0.5252 B(  3-C , 13-C ) :  -0.4899 B(  3-C , 15-C ) :   0.9040
B(  4-O ,  8-H ) :   0.1856 B(  5-C ,  6-H ) :   0.8278 B(  5-C ,  7-N ) :   1.2605
B(  5-C , 33-C ) :   0.5781 B(  5-C , 35-C ) :  -0.1787 B(  6-H ,  7-N ) :  -0.1845
B(  6-H , 15-C ) :  -0.1106 B(  7-N ,  9-O ) :   0.2509 B(  7-N , 33-C ) :  -0.1111
B(  9-O , 18-C ) :  -0.1479 B(  9-O , 33-C ) :   0.1464 B( 10-C , 11-C ) :   1.2622
B( 10-C , 12-H ) :  -0.1236 B( 10-C , 17-H ) :   1.1636 B( 11-C , 12-H ) :   1.0192
B( 11-C , 13-C ) :   1.2155 B( 11-C , 14-H ) :  -0.1034 B( 13-C , 14-H ) :   1.2098
B( 13-C , 15-C ) :   1.2823 B( 14-H , 15-C ) :  -0.1758 B( 15-C , 16-H ) :   0.9199
B( 18-C , 19-C ) :   1.1615 B( 18-C , 20-C ) :   1.1664 B( 18-C , 21-C ) :  -0.4380
B( 18-C , 22-H ) :  -0.1790 B( 18-C , 23-C ) :  -0.4078 B( 18-C , 24-H ) :  -0.1412
B( 19-C , 21-C ) :   1.1571 B( 19-C , 22-H ) :   0.9666 B( 19-C , 26-H ) :  -0.1666
B( 20-C , 21-C ) :   0.1027 B( 20-C , 23-C ) :   1.3027 B( 20-C , 24-H ) :   0.6939
B( 20-C , 27-H ) :  -0.1346 B( 21-C , 25-C ) :   1.1878 B( 21-C , 26-H ) :   1.1949
B( 23-C , 25-C ) :   1.2440 B( 23-C , 27-H ) :   1.2077 B( 23-C , 28-H ) :  -0.1197
B( 25-C , 26-H ) :  -0.1146 B( 25-C , 28-H ) :   1.0079 B( 29-C , 30-H ) :   1.0959
B( 29-C , 31-H ) :   1.0306 B( 29-C , 32-H ) :   0.9562 B( 30-H , 31-H ) :   0.1037
B( 33-C , 34-H ) :   0.9118 B( 33-C , 35-C ) :   0.7016 B( 33-C , 38-H ) :  -0.1354
B( 33-C , 39-C ) :   0.4466 B( 33-C , 42-H ) :  -0.1512 B( 35-C , 36-H ) :   1.0364
B( 35-C , 37-H ) :   0.8785 B( 35-C , 38-H ) :   1.0576 B( 35-C , 39-C ) :   0.1455
B( 39-C , 40-H ) :   1.0487 B( 39-C , 41-H ) :   0.9700 B( 39-C , 42-H ) :   1.0337

MP2 TOTAL ENERGY:     -940.165200851 Eh
FINAL SINGLE POINT ENERGY      -940.165200850857

DIPOLE MOMENT
-------------
                                X             Y             Z
Electronic contribution:      1.79249      -9.66489      -1.81471
Nuclear contribution   :      1.21011      10.60535       1.71802
                        -----------------------------------------
Total Dipole Moment    :      3.00260       0.94046      -0.09668
                        -----------------------------------------
Magnitude (a.u.)       :      3.14792
Magnitude (Debye)      :      8.00138

Rotational constants in cm-1:     0.014441     0.005646     0.004704
Rotational constants in MHz :   432.939189   169.250750   141.017587

                             ****ORCA TERMINATED NORMALLY****
TOTAL RUN TIME: 0 days 9 hours 57 minutes 47 seconds 96 msec
