                         Program Version 4.2.1 -  RELEASE  -
|  1> %pal
|  2>  nprocs 32
|  3> end
|  4> !RI-MP2 aug-cc-pVQZ aug-cc-pVQZ/C TightSCF
|  5> %maxcore 4500
|  6> *xyzfile -1 1  09_6P.xyz
|  7>
|  8>
|  9>                          ****END OF INPUT****

CARTESIAN COORDINATES (ANGSTROEM)
---------------------------------
  C      1.234983    1.207897    0.769167
  C      1.233033   -0.009803   -0.125298
  C     -0.006097   -0.257366   -0.950254
  O      2.222991   -0.713918   -0.215629
  C     -1.276046   -0.198156   -0.109700
  C     -2.100654    0.895843   -0.325896
  C     -1.385729   -1.217436    0.824159
  H      1.977533    1.079197    1.556504
  H      1.515320    2.076886    0.163354
  H      0.239621    1.392799    1.172988
  H     -0.657587   -2.019044    0.860028
  H     -2.235059   -1.279414    1.496542
  H      0.113235   -1.231521   -1.429351
  H     -0.046195    0.506343   -1.736124
  H     -3.006836    1.043649    0.252827
  H     -1.880900    1.616577   -1.104799

 Total Charge           Charge          ....   -1
 Multiplicity           Mult            ....    1
 Number of Electrons    NEL             ....   54
 Basis Dimension        Dim             ....  974

ORBITAL ENERGIES
----------------

  NO   OCC          E(Eh)            E(eV)
   0   2.0000     -20.395412      -554.9874
   1   2.0000     -11.183828      -304.3274
   2   2.0000     -11.085952      -301.6641
   3   2.0000     -11.074349      -301.3483
   4   2.0000     -11.063653      -301.0573
   5   2.0000     -10.995359      -299.1989
   6   2.0000     -10.991123      -299.0837
   7   2.0000      -1.237754       -33.6810
   8   2.0000      -0.928107       -25.2551
   9   2.0000      -0.854999       -23.2657
  10   2.0000      -0.780021       -21.2255
  11   2.0000      -0.710056       -19.3216
  12   2.0000      -0.594257       -16.1705
  13   2.0000      -0.532382       -14.4869
  14   2.0000      -0.494935       -13.4679
  15   2.0000      -0.487279       -13.2595
  16   2.0000      -0.462550       -12.5866
  17   2.0000      -0.427968       -11.6456
  18   2.0000      -0.422147       -11.4872
  19   2.0000      -0.394369       -10.7313
  20   2.0000      -0.363669        -9.8959
  21   2.0000      -0.342472        -9.3191
  22   2.0000      -0.330985        -9.0066
  23   2.0000      -0.303125        -8.2485
  24   2.0000      -0.269357        -7.3296
  25   2.0000      -0.211474        -5.7545
  26   2.0000      -0.043116        -1.1733
  27   0.0000       0.109687         2.9847
  28   0.0000       0.116700         3.1756
  29   0.0000       0.118524         3.2252
  30   0.0000       0.122763         3.3405
  31   0.0000       0.128886         3.5072

MULLIKEN ATOMIC CHARGES
-----------------------
   0 C :   -0.981222
   1 C :    1.060354
   2 C :   -0.479998
   3 O :   -0.920515
   4 C :    0.283251
   5 C :   -1.125246
   6 C :   -1.105717
   7 H :    0.322589
   8 H :    0.278462
   9 H :    0.262381
  10 H :    0.259333
  11 H :    0.212124
  12 H :    0.320100
  13 H :    0.219537
  14 H :    0.197841
  15 H :    0.196725
Sum of atomic charges:   -1.0000000

LOEWDIN ATOMIC CHARGES
----------------------
   0 C :    0.861301
   1 C :   -0.683027
   2 C :    0.359454
   3 O :    0.705901
   4 C :   -0.287655
   5 C :    0.659077
   6 C :    0.659509
   7 H :   -0.316448
   8 H :   -0.290124
   9 H :   -0.346341
  10 H :   -0.419613
  11 H :   -0.411564
  12 H :   -0.324479
  13 H :   -0.325425
  14 H :   -0.410797
  15 H :   -0.429769

  Mayer bond orders larger than 0.100000
B(  0-C ,  1-C ) :   0.8224 B(  0-C ,  3-O ) :   0.1203 B(  0-C ,  7-H ) :   0.9479
B(  0-C ,  8-H ) :   0.9093 B(  0-C ,  9-H ) :   0.9835 B(  1-C ,  2-C ) :   0.9481
B(  1-C ,  3-O ) :   0.9055 B(  2-C ,  3-O ) :   0.2548 B(  2-C ,  4-C ) :   0.7464
B(  2-C , 12-H ) :   0.9164 B(  2-C , 13-H ) :   0.9742 B(  4-C ,  5-C ) :   1.1429
B(  4-C ,  6-C ) :   1.2837 B(  4-C , 11-H ) :  -0.1008 B(  4-C , 14-H ) :  -0.1737
B(  5-C , 14-H ) :   1.1433 B(  5-C , 15-H ) :   1.0747 B(  6-C , 10-H ) :   1.0011
B(  6-C , 11-H ) :   1.0879

MP2 TOTAL ENERGY:     -308.720007255 Eh
FINAL SINGLE POINT ENERGY      -308.720007255200

DIPOLE MOMENT
-------------
                                X             Y             Z
Electronic contribution:      5.54443      -2.34325      -1.52027
Nuclear contribution   :     -4.04335       3.25267       1.25893
                        -----------------------------------------
Total Dipole Moment    :      1.50108       0.90942      -0.26134
                        -----------------------------------------
Magnitude (a.u.)       :      1.77443
Magnitude (Debye)      :      4.51024

Rotational constants in cm-1:     0.147010     0.060783     0.054618
Rotational constants in MHz :  4407.253122  1822.223637  1637.419323

                             ****ORCA TERMINATED NORMALLY****
TOTAL RUN TIME: 0 days 0 hours 21 minutes 48 seconds 560 msec
