                         Program Version 4.2.1 -  RELEASE  -
|  1> %pal
|  2>  nprocs 32
|  3> end
|  4> !RI-MP2 aug-cc-pVQZ aug-cc-pVQZ/C TightSCF
|  5> %maxcore 4500
|  6> *xyzfile 0 1  03_43R1.xyz
|  7>
|  8>
|  9>                          ****END OF INPUT****

CARTESIAN COORDINATES (ANGSTROEM)
---------------------------------
  C      2.563204    0.729675    0.274361
  C      1.662325   -0.235878    1.009686
  C      1.034566   -1.306913    0.118990
  C      0.022372   -0.794387   -0.900664
  N     -1.169850   -0.196366   -0.276965
  C     -2.156490   -1.056632    0.169205
  O     -2.084600   -2.254625    0.078535
  C     -1.268007    1.194963   -0.180708
  O     -0.369537    1.897663   -0.580308
  C     -2.513528    1.790388    0.430781
  H      0.888500    0.349581    1.517141
  H      2.244735   -0.724483    1.795369
  H      0.550299   -2.063113    0.740079
  H      1.827358   -1.818610   -0.432249
  H     -0.326532   -1.624238   -1.512990
  H      0.452031   -0.036327   -1.550314
  H     -3.022766   -0.556849    0.618201
  H     -2.647391    1.469274    1.465060
  H     -3.408576    1.518123   -0.130395
  H     -2.393670    2.870172    0.407250
  H      3.013690    1.451119    0.958481
  H      2.038022    1.266172   -0.515222
  F      3.615522    0.022459   -0.326375

 Total Charge           Charge          ....    0
 Multiplicity           Mult            ....    1
 Number of Electrons    NEL             ....   86
 Basis Dimension        Dim             .... 1432

ORBITAL ENERGIES
----------------

  NO   OCC          E(Eh)            E(eV)
   0   2.0000     -26.260601      -714.5873
   1   2.0000     -20.558446      -559.4237
   2   2.0000     -20.556116      -559.3604
   3   2.0000     -15.626225      -425.2112
   4   2.0000     -11.386707      -309.8480
   5   2.0000     -11.376681      -309.5752
   6   2.0000     -11.294576      -307.3410
   7   2.0000     -11.269971      -306.6715
   8   2.0000     -11.263795      -306.5035
   9   2.0000     -11.228742      -305.5496
  10   2.0000     -11.226327      -305.4839
  11   2.0000      -1.569625       -42.7117
  12   2.0000      -1.433383       -39.0043
  13   2.0000      -1.414218       -38.4828
  14   2.0000      -1.272931       -34.6382
  15   2.0000      -1.088869       -29.6296
  16   2.0000      -1.042276       -28.3618
  17   2.0000      -0.990129       -26.9428
  18   2.0000      -0.910428       -24.7740
  19   2.0000      -0.888530       -24.1781
  20   2.0000      -0.814895       -22.1744
  21   2.0000      -0.776129       -21.1195
  22   2.0000      -0.727172       -19.7874
  23   2.0000      -0.695482       -18.9250
  24   2.0000      -0.692573       -18.8459
  25   2.0000      -0.685527       -18.6541
  26   2.0000      -0.664339       -18.0776
  27   2.0000      -0.648569       -17.6484
  28   2.0000      -0.637297       -17.3417
  29   2.0000      -0.624911       -17.0047
  30   2.0000      -0.610410       -16.6101
  31   2.0000      -0.608079       -16.5467
  32   2.0000      -0.583025       -15.8649
  33   2.0000      -0.572528       -15.5793
  34   2.0000      -0.547681       -14.9032
  35   2.0000      -0.535618       -14.5749
  36   2.0000      -0.531603       -14.4656
  37   2.0000      -0.503236       -13.6937
  38   2.0000      -0.479852       -13.0574
  39   2.0000      -0.476491       -12.9660
  40   2.0000      -0.464579       -12.6418
  41   2.0000      -0.452864       -12.3231
  42   2.0000      -0.416612       -11.3366
  43   0.0000       0.016374         0.4456
  44   0.0000       0.027390         0.7453
  45   0.0000       0.031002         0.8436
  46   0.0000       0.032821         0.8931
  47   0.0000       0.040926         1.1137

MULLIKEN ATOMIC CHARGES
-----------------------
   0 C :    0.014479
   1 C :   -0.619610
   2 C :   -0.372741
   3 C :   -0.472326
   4 N :   -0.451411
   5 C :    0.596666
   6 O :   -0.845846
   7 C :    1.046940
   8 O :   -0.886402
   9 C :   -0.758019
  10 H :    0.257043
  11 H :    0.242859
  12 H :    0.300351
  13 H :    0.314025
  14 H :    0.370193
  15 H :    0.286178
  16 H :    0.357114
  17 H :    0.202202
  18 H :    0.255564
  19 H :    0.292782
  20 H :    0.393992
  21 H :    0.235973
  22 F :   -0.760006
Sum of atomic charges:   -0.0000000

LOEWDIN ATOMIC CHARGES
----------------------
   0 C :   -0.008513
   1 C :    0.490170
   2 C :    0.535366
   3 C :    0.348572
   4 N :    0.401297
   5 C :   -0.415977
   6 O :    0.746279
   7 C :   -0.797415
   8 O :    0.786521
   9 C :    0.896641
  10 H :   -0.291564
  11 H :   -0.274734
  12 H :   -0.282665
  13 H :   -0.274083
  14 H :   -0.300605
  15 H :   -0.340811
  16 H :   -0.402560
  17 H :   -0.285798
  18 H :   -0.284879
  19 H :   -0.313517
  20 H :   -0.317883
  21 H :   -0.379358
  22 F :    0.765516

  Mayer bond orders larger than 0.100000
B(  0-C ,  1-C ) :   0.9740 B(  0-C , 20-H ) :   0.8532 B(  0-C , 21-H ) :   0.9494
B(  0-C , 22-F ) :   0.3067 B(  1-C ,  2-C ) :   0.8460 B(  1-C , 10-H ) :   0.9174
B(  1-C , 11-H ) :   0.9380 B(  2-C ,  3-C ) :   0.9326 B(  2-C ,  4-N ) :  -0.1020
B(  2-C , 12-H ) :   0.8825 B(  2-C , 13-H ) :   0.8543 B(  3-C ,  4-N ) :   0.8995
B(  3-C , 14-H ) :   0.8272 B(  3-C , 15-H ) :   0.9405 B(  4-N ,  5-C ) :   1.1378
B(  4-N ,  6-O ) :   0.2049 B(  4-N ,  7-C ) :   0.9060 B(  4-N ,  8-O ) :   0.1715
B(  5-C ,  6-O ) :   1.3698 B(  5-C , 16-H ) :   0.8710 B(  7-C ,  8-O ) :   1.1722
B(  7-C ,  9-C ) :   0.7703 B(  9-C , 17-H ) :   0.9996 B(  9-C , 18-H ) :   0.9931
B(  9-C , 19-H ) :   0.9879 B( 21-H , 22-F ) :   0.1211

MP2 TOTAL ENERGY:     -578.207778894 Eh
FINAL SINGLE POINT ENERGY      -578.207778893965

DIPOLE MOMENT
-------------
                                X             Y             Z
Electronic contribution:      3.03052      -1.24889      -2.98136
Nuclear contribution   :     -4.40974       2.07621       3.68091
                        -----------------------------------------
Total Dipole Moment    :     -1.37922       0.82732       0.69955
                        -----------------------------------------
Magnitude (a.u.)       :      1.75388
Magnitude (Debye)      :      4.45800

Rotational constants in cm-1:     0.052585     0.023352     0.017864
Rotational constants in MHz :  1576.472473   700.088757   535.556721

                             ****ORCA TERMINATED NORMALLY****
TOTAL RUN TIME: 0 days 1 hours 19 minutes 37 seconds 513 msec
