                         Program Version 4.2.1 -  RELEASE  -
|  1> %pal
|  2>  nprocs 32
|  3> end
|  4> !RI-MP2 aug-cc-pVQZ aug-cc-pVQZ/C TightSCF
|  5> %maxcore 4500
|  6> *xyzfile 0 1  10_41P.xyz
|  7>
|  8>
|  9>                          ****END OF INPUT****

CARTESIAN COORDINATES (ANGSTROEM)
---------------------------------
  C      0.816628   -1.766343   -0.641377
  H      0.722850   -2.047449   -1.711449
  C      1.868989   -0.710591   -0.507442
  C      0.145947    0.964885    0.060832
  H     -0.066658    1.069435    1.130265
  H     -0.019659    1.945752   -0.386938
  C     -0.838350   -0.037121   -0.542265
  H     -0.738247    0.014900   -1.644839
  N     -0.460375   -1.368028   -0.085473
  C      2.662628    1.537675    0.003747
  C      3.288044   -1.099419   -0.822526
  C      3.928061    1.118277    0.090154
  C      4.292191   -0.343104    0.048521
  C      1.574959    0.545487   -0.159318
  C      4.364148   -0.911969    1.471299
  H      4.678991   -1.959117    1.458042
  H      5.077211   -0.351541    2.079656
  H      3.387892   -0.851900    1.957548
  C     -1.486087   -2.366948   -0.307918
  H     -1.783877   -2.411550   -1.371984
  H     -1.075273   -3.344829   -0.046994
  C     -2.276557    0.307329   -0.203814
  C     -3.151867   -0.637907    0.330125
  C     -2.689602   -2.052237    0.558701
  H     -2.412745   -2.188083    1.608595
  H     -3.505282   -2.747409    0.343808
  H      1.149319   -2.669271   -0.118470
  C     -4.462797   -0.267585    0.625079
  H     -5.137151   -1.010376    1.038297
  C     -2.748252    1.595625   -0.457204
  H     -2.086009    2.331373   -0.897845
  C     -4.915744    1.018486    0.390450
  H     -5.938638    1.287425    0.624916
  C     -4.051898    1.955246   -0.162790
  H     -4.394763    2.962332   -0.367335
  C      2.311662    2.995952    0.101238
  H      1.635506    3.192247    0.937672
  H      1.810453    3.348322   -0.805028
  H      3.209461    3.597594    0.243981
  H      3.484839   -0.877640   -1.879840
  H      3.426048   -2.178134   -0.700881
  H      5.281395   -0.446827   -0.406767
  H      4.724349    1.836516    0.260945

 Total Charge           Charge          ....    0
 Multiplicity           Mult            ....    1
 Number of Electrons    NEL             ....  144
 Basis Dimension        Dim             .... 2658

ORBITAL ENERGIES
----------------

  NO   OCC          E(Eh)            E(eV)
   0   2.0000     -15.542561      -422.9346
   1   2.0000     -11.257540      -306.3332
   2   2.0000     -11.250250      -306.1349
   3   2.0000     -11.246938      -306.0447
   4   2.0000     -11.232618      -305.6551
   5   2.0000     -11.231396      -305.6218
   6   2.0000     -11.226812      -305.4971
   7   2.0000     -11.226242      -305.4816
   8   2.0000     -11.226116      -305.4782
   9   2.0000     -11.225059      -305.4494
  10   2.0000     -11.224788      -305.4420
  11   2.0000     -11.224255      -305.4275
  12   2.0000     -11.221703      -305.3581
  13   2.0000     -11.221525      -305.3532
  14   2.0000     -11.218919      -305.2823
  15   2.0000     -11.218620      -305.2742
  16   2.0000     -11.217714      -305.2495
  17   2.0000     -11.215865      -305.1992
  18   2.0000     -11.210642      -305.0571
  19   2.0000     -11.206528      -304.9451
  20   2.0000      -1.251980       -34.0681
  21   2.0000      -1.155928       -31.4544
  22   2.0000      -1.143549       -31.1176
  23   2.0000      -1.075617       -29.2690
  24   2.0000      -1.061283       -28.8790
  25   2.0000      -1.040812       -28.3219
  26   2.0000      -1.035076       -28.1658
  27   2.0000      -0.992101       -26.9964
  28   2.0000      -0.973470       -26.4895
  29   2.0000      -0.928773       -25.2732
  30   2.0000      -0.924200       -25.1488
  31   2.0000      -0.880218       -23.9520
  32   2.0000      -0.860249       -23.4086
  33   2.0000      -0.840810       -22.8796
  34   2.0000      -0.809516       -22.0280
  35   2.0000      -0.793750       -21.5990
  36   2.0000      -0.762203       -20.7406
  37   2.0000      -0.740138       -20.1402
  38   2.0000      -0.692799       -18.8520
  39   2.0000      -0.667980       -18.1766
  40   2.0000      -0.660903       -17.9841
  41   2.0000      -0.648813       -17.6551
  42   2.0000      -0.640001       -17.4153
  43   2.0000      -0.619107       -16.8468
  44   2.0000      -0.616099       -16.7649
  45   2.0000      -0.607703       -16.5364
  46   2.0000      -0.599904       -16.3242
  47   2.0000      -0.590278       -16.0623
  48   2.0000      -0.584683       -15.9100
  49   2.0000      -0.570212       -15.5162
  50   2.0000      -0.565866       -15.3980
  51   2.0000      -0.559379       -15.2215
  52   2.0000      -0.551206       -14.9991
  53   2.0000      -0.548014       -14.9122
  54   2.0000      -0.541630       -14.7385
  55   2.0000      -0.530160       -14.4264
  56   2.0000      -0.521981       -14.2038
  57   2.0000      -0.517181       -14.0732
  58   2.0000      -0.512355       -13.9419
  59   2.0000      -0.500514       -13.6197
  60   2.0000      -0.496475       -13.5098
  61   2.0000      -0.482600       -13.1322
  62   2.0000      -0.477090       -12.9823
  63   2.0000      -0.470530       -12.8038
  64   2.0000      -0.459570       -12.5055
  65   2.0000      -0.444744       -12.1021
  66   2.0000      -0.424437       -11.5495
  67   2.0000      -0.390503       -10.6261
  68   2.0000      -0.358711        -9.7610
  69   2.0000      -0.326736        -8.8909
  70   2.0000      -0.319711        -8.6998
  71   2.0000      -0.287867        -7.8333
  72   0.0000       0.021542         0.5862
  73   0.0000       0.024820         0.6754
  74   0.0000       0.025101         0.6830
  75   0.0000       0.029393         0.7998
  76   0.0000       0.032631         0.8879

MULLIKEN ATOMIC CHARGES
-----------------------
   0 C :   -0.301217
   1 H :    0.183191
   2 C :    0.463499
   3 C :   -0.141451
   4 H :    0.233198
   5 H :    0.152372
   6 C :    1.461917
   7 H :    0.214531
   8 N :   -0.248272
   9 C :    0.005145
  10 C :   -0.842458
  11 C :   -0.541825
  12 C :   -0.051331
  13 C :    0.745266
  14 C :   -1.042254
  15 H :    0.225603
  16 H :    0.261620
  17 H :    0.158436
  18 C :   -0.740701
  19 H :    0.232603
  20 H :    0.217974
  21 C :    0.473489
  22 C :    0.281878
  23 C :   -0.685108
  24 H :    0.204935
  25 H :    0.182274
  26 H :    0.096765
  27 C :   -0.694113
  28 H :    0.239057
  29 C :   -0.862838
  30 H :    0.115935
  31 C :   -0.422416
  32 H :    0.260798
  33 C :   -0.463808
  34 H :    0.204668
  35 C :   -0.976790
  36 H :    0.144010
  37 H :    0.163989
  38 H :    0.206958
  39 H :    0.270543
  40 H :    0.197223
  41 H :    0.247215
  42 H :    0.169492
Sum of atomic charges:   -0.0000000

LOEWDIN ATOMIC CHARGES
----------------------
   0 C :    0.349878
   1 H :   -0.240032
   2 C :    0.008766
   3 C :    0.504453
   4 H :   -0.235761
   5 H :   -0.328950
   6 C :   -0.049236
   7 H :   -0.250982
   8 N :    0.535233
   9 C :   -0.009936
  10 C :    0.508696
  11 C :    0.392238
  12 C :    0.097157
  13 C :    0.013386
  14 C :    0.934513
  15 H :   -0.270024
  16 H :   -0.269469
  17 H :   -0.276118
  18 C :    0.352466
  19 H :   -0.238819
  20 H :   -0.275275
  21 C :   -0.024272
  22 C :   -0.038126
  23 C :    0.524096
  24 H :   -0.255803
  25 H :   -0.274135
  26 H :   -0.282365
  27 C :    0.357159
  28 H :   -0.312988
  29 C :    0.360662
  30 H :   -0.320888
  31 C :    0.348834
  32 H :   -0.320769
  33 C :    0.356694
  34 H :   -0.319786
  35 C :    0.906971
  36 H :   -0.280067
  37 H :   -0.275255
  38 H :   -0.304154
  39 H :   -0.246682
  40 H :   -0.276481
  41 H :   -0.276213
  42 H :   -0.298616

  Mayer bond orders larger than 0.100000
B(  0-C ,  1-H ) :   1.0999 B(  0-C ,  2-C ) :   0.2752 B(  0-C ,  8-N ) :   0.9498
B(  0-C ,  9-C ) :  -0.1112 B(  0-C , 13-C ) :  -0.3158 B(  0-C , 26-H ) :   1.2525
B(  1-H ,  2-C ) :  -0.1207 B(  1-H ,  8-N ) :  -0.1139 B(  2-C ,  3-C ) :  -0.2388
B(  2-C ,  6-C ) :   0.1181 B(  2-C ,  9-C ) :  -0.2164 B(  2-C , 10-C ) :   0.3613
B(  2-C , 12-C ) :  -0.2461 B(  2-C , 13-C ) :   1.4062 B(  2-C , 26-H ) :  -0.2693
B(  2-C , 40-H ) :  -0.2278 B(  3-C ,  4-H ) :   0.9279 B(  3-C ,  5-H ) :   1.1007
B(  3-C ,  6-C ) :   0.6855 B(  3-C ,  9-C ) :  -0.1130 B(  3-C , 22-C ) :  -0.1003
B(  3-C , 29-C ) :   0.1740 B(  3-C , 35-C ) :  -0.1087 B(  6-C ,  7-H ) :   1.0770
B(  6-C ,  8-N ) :   0.4573 B(  6-C , 13-C ) :  -0.2104 B(  6-C , 18-C ) :  -0.1022
B(  6-C , 21-C ) :  -0.3804 B(  6-C , 22-C ) :  -0.5093 B(  6-C , 29-C ) :  -0.7951
B(  8-N , 13-C ) :   0.1457 B(  8-N , 18-C ) :   0.7622 B(  8-N , 19-H ) :  -0.1070
B(  8-N , 21-C ) :  -0.1068 B(  9-C , 10-C ) :   0.1147 B(  9-C , 11-C ) :   1.3709
B(  9-C , 12-C ) :  -0.3121 B(  9-C , 13-C ) :   0.1924 B(  9-C , 35-C ) :   0.4753
B(  9-C , 36-H ) :  -0.2427 B(  9-C , 37-H ) :  -0.2416 B(  9-C , 38-H ) :  -0.1291
B(  9-C , 42-H ) :  -0.1252 B( 10-C , 12-C ) :   1.1497 B( 10-C , 13-C ) :  -0.3146
B( 10-C , 39-H ) :   0.9147 B( 10-C , 40-H ) :   1.1167 B( 11-C , 12-C ) :   0.9456
B( 11-C , 13-C ) :  -0.2703 B( 11-C , 41-H ) :  -0.1400 B( 11-C , 42-H ) :   1.1264
B( 12-C , 13-C ) :   0.1279 B( 12-C , 14-C ) :   0.6729 B( 12-C , 41-H ) :   1.0260
B( 13-C , 36-H ) :   0.1331 B( 14-C , 15-H ) :   1.0326 B( 14-C , 16-H ) :   1.0277
B( 14-C , 17-H ) :   1.0322 B( 18-C , 19-H ) :   1.0078 B( 18-C , 20-H ) :   1.0228
B( 18-C , 23-C ) :   1.1427 B( 18-C , 25-H ) :  -0.1076 B( 21-C , 22-C ) :   1.1267
B( 21-C , 23-C ) :  -0.1678 B( 21-C , 27-C ) :  -0.5672 B( 21-C , 29-C ) :   1.0675
B( 21-C , 30-H ) :  -0.1161 B( 21-C , 33-C ) :  -0.3510 B( 22-C , 23-C ) :   0.3711
B( 22-C , 25-H ) :  -0.1830 B( 22-C , 27-C ) :   1.0489 B( 22-C , 28-H ) :  -0.1071
B( 22-C , 29-C ) :  -0.1135 B( 22-C , 31-C ) :  -0.2555 B( 23-C , 24-H ) :   1.0652
B( 23-C , 25-H ) :   1.1617 B( 27-C , 28-H ) :   1.0517 B( 27-C , 29-C ) :   0.1731
B( 27-C , 31-C ) :   1.2953 B( 27-C , 32-H ) :  -0.1969 B( 27-C , 33-C ) :   0.1515
B( 29-C , 30-H ) :   1.2661 B( 29-C , 33-C ) :   1.2157 B( 29-C , 34-H ) :  -0.1888
B( 31-C , 32-H ) :   1.1540 B( 31-C , 33-C ) :   1.1858 B( 32-H , 33-C ) :  -0.1354
B( 33-C , 34-H ) :   1.2063 B( 35-C , 36-H ) :   1.1752 B( 35-C , 37-H ) :   1.1752
B( 35-C , 38-H ) :   1.0804

MP2 TOTAL ENERGY:     -791.164221801 Eh
FINAL SINGLE POINT ENERGY      -791.164221800968

DIPOLE MOMENT
-------------
                                X             Y             Z
Electronic contribution:    -11.56283       1.31083      -1.58838
Nuclear contribution   :     11.64442      -1.53488       1.37041
                        -----------------------------------------
Total Dipole Moment    :      0.08160      -0.22405      -0.21798
                        -----------------------------------------
Magnitude (a.u.)       :      0.32306
Magnitude (Debye)      :      0.82116

Rotational constants in cm-1:     0.024801     0.006818     0.005683
Rotational constants in MHz :   743.512120   204.402907   170.364266

                             ****ORCA TERMINATED NORMALLY****
TOTAL RUN TIME: 0 days 9 hours 49 minutes 54 seconds 64 msec
