                         Program Version 4.2.1 -  RELEASE  -
|  1> %pal
|  2>  nprocs 32
|  3> end
|  4> !RI-MP2 aug-cc-pVQZ aug-cc-pVQZ/C TightSCF
|  5> %maxcore 4500
|  6> *xyzfile 1 1  10_30TS.xyz
|  7>
|  8>
|  9>                          ****END OF INPUT****

CARTESIAN COORDINATES (ANGSTROEM)
---------------------------------
  C     -2.728638    2.755464   -0.070629
  C     -1.797764    1.742919    0.620243
  C     -0.375626    3.265593   -0.130697
  C     -1.729186    3.821410   -0.605798
  H     -3.320395    2.285187   -0.854208
  H     -3.417071    3.178030    0.661483
  H     -1.764025    3.932222   -1.690476
  H     -1.909886    4.805276   -0.172569
  C     -0.725224    2.650117    1.225644
  H      0.099191    2.115442    1.691147
  H     -1.141418    3.376965    1.920534
  H     -2.280229    1.006323    1.248902
  H      0.472628    3.943161   -0.177970
  N     -0.072661    2.027193   -0.891701
  N     -1.026617    1.106294   -0.471825
  C     -0.816933   -0.177488   -0.778578
  C     -1.670171   -1.249125   -0.231569
  C     -1.792118   -1.477874    1.139949
  C     -2.335085   -2.087207   -1.125162
  C     -2.588865   -2.509449    1.606136
  H     -1.239919   -0.870506    1.846545
  C     -3.140585   -3.113609   -0.655863
  H     -2.226815   -1.931781   -2.192358
  C     -3.269874   -3.323896    0.709166
  H     -2.672534   -2.686543    2.670907
  H     -3.661132   -3.753197   -1.357125
  H     -3.891866   -4.130459    1.076460
  H     -0.478239   -0.333836   -1.797509
  H     -0.091670    2.151905   -1.900930
  C      1.157304   -0.590886   -0.138937
  H      0.989682   -0.748844    0.925023
  C      1.833955    0.558947   -0.472522
  H      2.153887    0.672237   -1.506347
  C      1.435905   -1.849644   -0.925026
  H      0.606113   -2.557167   -0.856762
  H      1.567975   -1.599154   -1.983530
  C      2.575981    1.372125    0.523275
  H      2.113285    1.281061    1.509251
  H      2.617618    2.430381    0.257213
  C      4.019846    0.817743    0.603507
  H      4.549875    1.068181   -0.320481
  H      4.529074    1.361718    1.402691
  C      4.134800   -0.691740    0.860726
  H      5.127626   -0.863039    1.280623
  H      3.436130   -0.982030    1.652403
  C      2.716117   -2.521472   -0.402062
  H      2.916295   -3.390084   -1.034758
  H      2.526913   -2.918337    0.600631
  C      3.966663   -1.630373   -0.363774
  H      4.830764   -2.296800   -0.391266
  H      4.030069   -1.050044   -1.291025

 Total Charge           Charge          ....    1
 Multiplicity           Mult            ....    1
 Number of Electrons    NEL             ....  162
 Basis Dimension        Dim             .... 3094

ORBITAL ENERGIES
----------------

  NO   OCC          E(Eh)            E(eV)
   0   2.0000     -15.764605      -428.9767
   1   2.0000     -15.745974      -428.4697
   2   2.0000     -11.462684      -311.9155
   3   2.0000     -11.405387      -310.3563
   4   2.0000     -11.398502      -310.1690
   5   2.0000     -11.396529      -310.1153
   6   2.0000     -11.371546      -309.4355
   7   2.0000     -11.360139      -309.1251
   8   2.0000     -11.359407      -309.1052
   9   2.0000     -11.355451      -308.9975
  10   2.0000     -11.350442      -308.8612
  11   2.0000     -11.348118      -308.7980
  12   2.0000     -11.346617      -308.7572
  13   2.0000     -11.346485      -308.7535
  14   2.0000     -11.346066      -308.7422
  15   2.0000     -11.345430      -308.7248
  16   2.0000     -11.341412      -308.6155
  17   2.0000     -11.335352      -308.4506
  18   2.0000     -11.328906      -308.2752
  19   2.0000     -11.315965      -307.9231
  20   2.0000     -11.314712      -307.8890
  21   2.0000     -11.312371      -307.8253
  22   2.0000      -1.510269       -41.0965
  23   2.0000      -1.307896       -35.5897
  24   2.0000      -1.269772       -34.5522
  25   2.0000      -1.246497       -33.9189
  26   2.0000      -1.238360       -33.6975
  27   2.0000      -1.169638       -31.8275
  28   2.0000      -1.160710       -31.5845
  29   2.0000      -1.151237       -31.3268
  30   2.0000      -1.138913       -30.9914
  31   2.0000      -1.108566       -30.1656
  32   2.0000      -1.083280       -29.4775
  33   2.0000      -1.036118       -28.1942
  34   2.0000      -1.025517       -27.9057
  35   2.0000      -1.000079       -27.2135
  36   2.0000      -0.962896       -26.2017
  37   2.0000      -0.951741       -25.8982
  38   2.0000      -0.920150       -25.0386
  39   2.0000      -0.901864       -24.5410
  40   2.0000      -0.898968       -24.4622
  41   2.0000      -0.888896       -24.1881
  42   2.0000      -0.882097       -24.0031
  43   2.0000      -0.860510       -23.4157
  44   2.0000      -0.828021       -22.5316
  45   2.0000      -0.812217       -22.1015
  46   2.0000      -0.794090       -21.6083
  47   2.0000      -0.781086       -21.2544
  48   2.0000      -0.757293       -20.6070
  49   2.0000      -0.752474       -20.4758
  50   2.0000      -0.748817       -20.3763
  51   2.0000      -0.737473       -20.0677
  52   2.0000      -0.736623       -20.0445
  53   2.0000      -0.719870       -19.5887
  54   2.0000      -0.709307       -19.3012
  55   2.0000      -0.699117       -19.0239
  56   2.0000      -0.691817       -18.8253
  57   2.0000      -0.686504       -18.6807
  58   2.0000      -0.672584       -18.3019
  59   2.0000      -0.669712       -18.2238
  60   2.0000      -0.659931       -17.9576
  61   2.0000      -0.654805       -17.8182
  62   2.0000      -0.645747       -17.5717
  63   2.0000      -0.638094       -17.3634
  64   2.0000      -0.633897       -17.2492
  65   2.0000      -0.629867       -17.1396
  66   2.0000      -0.622363       -16.9353
  67   2.0000      -0.621401       -16.9092
  68   2.0000      -0.614763       -16.7285
  69   2.0000      -0.611919       -16.6512
  70   2.0000      -0.601302       -16.3623
  71   2.0000      -0.596396       -16.2288
  72   2.0000      -0.586617       -15.9627
  73   2.0000      -0.578879       -15.7521
  74   2.0000      -0.561248       -15.2723
  75   2.0000      -0.551558       -15.0086
  76   2.0000      -0.542192       -14.7538
  77   2.0000      -0.511961       -13.9312
  78   2.0000      -0.458329       -12.4718
  79   2.0000      -0.454119       -12.3572
  80   2.0000      -0.441850       -12.0233
  81   0.0000      -0.070335        -1.9139
  82   0.0000      -0.061809        -1.6819
  83   0.0000      -0.054934        -1.4948
  84   0.0000      -0.050110        -1.3636
  85   0.0000      -0.045222        -1.2306

MULLIKEN ATOMIC CHARGES
-----------------------
   0 C :   -0.869300
   1 C :    0.056024
   2 C :    0.089316
   3 C :   -0.728629
   4 H :    0.227017
   5 H :    0.212565
   6 H :    0.229773
   7 H :    0.210542
   8 C :   -0.868513
   9 H :    0.518051
  10 H :    0.097206
  11 H :    0.403081
  12 H :    0.424862
  13 N :   -0.600571
  14 N :   -0.045098
  15 C :    1.645840
  16 C :    0.537692
  17 C :   -0.647985
  18 C :   -0.648938
  19 C :   -0.418421
  20 H :    0.223049
  21 C :   -0.421576
  22 H :    0.217183
  23 C :   -0.458649
  24 H :    0.223745
  25 H :    0.238125
  26 H :    0.359040
  27 H :    0.316459
  28 H :    0.057986
  29 C :    0.875059
  30 H :    0.006693
  31 C :    0.185897
  32 H :    0.423204
  33 C :   -0.886241
  34 H :    0.346340
  35 H :    0.152028
  36 C :   -0.527831
  37 H :    0.162170
  38 H :    0.167278
  39 C :   -0.623996
  40 H :    0.225548
  41 H :    0.198235
  42 C :   -0.664996
  43 H :    0.257616
  44 H :    0.304891
  45 C :   -0.576879
  46 H :    0.185421
  47 H :    0.247746
  48 C :   -0.607930
  49 H :    0.246369
  50 H :    0.323502
Sum of atomic charges:    1.0000000

LOEWDIN ATOMIC CHARGES
----------------------
   0 C :    0.594877
   1 C :    0.054273
   2 C :    0.043096
   3 C :    0.593928
   4 H :   -0.243502
   5 H :   -0.242343
   6 H :   -0.247819
   7 H :   -0.243441
   8 C :    0.567789
   9 H :   -0.268397
  10 H :   -0.226461
  11 H :   -0.278389
  12 H :   -0.227381
  13 N :    0.789161
  14 N :    0.394211
  15 C :    0.143481
  16 C :   -0.079630
  17 C :    0.347125
  18 C :    0.370485
  19 C :    0.390121
  20 H :   -0.311372
  21 C :    0.382410
  22 H :   -0.294867
  23 C :    0.375368
  24 H :   -0.304074
  25 H :   -0.305852
  26 H :   -0.303165
  27 H :   -0.316942
  28 H :   -0.432714
  29 C :    0.277612
  30 H :   -0.293042
  31 C :    0.357482
  32 H :   -0.244667
  33 C :    0.529814
  34 H :   -0.276533
  35 H :   -0.261466
  36 C :    0.559423
  37 H :   -0.287900
  38 H :   -0.259129
  39 C :    0.578295
  40 H :   -0.260570
  41 H :   -0.254604
  42 C :    0.574566
  43 H :   -0.265976
  44 H :   -0.278715
  45 C :    0.577708
  46 H :   -0.256903
  47 H :   -0.261462
  48 C :    0.572306
  49 H :   -0.266379
  50 H :   -0.279837

  Mayer bond orders larger than 0.100000
B(  0-C ,  1-C ) :   0.2887 B(  0-C ,  2-C ) :  -0.2496 B(  0-C ,  3-C ) :   1.2277
B(  0-C ,  4-H ) :   1.0750 B(  0-C ,  5-H ) :   1.0939 B(  0-C ,  8-C ) :   0.1470
B(  0-C , 14-N ) :  -0.1418 B(  1-C ,  3-C ) :  -0.2757 B(  1-C ,  8-C ) :   0.8657
B(  1-C , 11-H ) :   0.8854 B(  1-C , 14-N ) :   0.5245 B(  2-C ,  3-C ) :   0.5368
B(  2-C ,  8-C ) :   0.9061 B(  2-C , 12-H ) :   0.8984 B(  2-C , 13-N ) :   0.9500
B(  2-C , 14-N ) :  -0.1536 B(  3-C ,  6-H ) :   1.0468 B(  3-C ,  7-H ) :   1.0807
B(  8-C ,  9-H ) :   0.6761 B(  8-C , 10-H ) :   1.1682 B(  9-H , 10-H ) :  -0.1113
B( 13-N , 14-N ) :   0.7473 B( 13-N , 16-C ) :   0.1095 B( 13-N , 28-H ) :   1.1284
B( 13-N , 29-C ) :   0.1353 B( 13-N , 31-C ) :   0.4641 B( 14-N , 15-C ) :   0.9148
B( 14-N , 16-C ) :   0.4292 B( 14-N , 17-C ) :   0.1192 B( 14-N , 27-H ) :   0.1097
B( 15-C , 16-C ) :  -1.1573 B( 15-C , 17-C ) :  -0.4862 B( 15-C , 18-C ) :  -0.2044
B( 15-C , 23-C ) :  -0.1071 B( 15-C , 27-H ) :   0.8166 B( 15-C , 29-C ) :   0.5415
B( 15-C , 31-C ) :   0.1402 B( 15-C , 33-C ) :   0.1267 B( 16-C , 17-C ) :   0.6946
B( 16-C , 18-C ) :   0.8800 B( 16-C , 19-C ) :  -0.4341 B( 16-C , 20-H ) :  -0.1748
B( 16-C , 21-C ) :  -0.3674 B( 16-C , 26-H ) :   0.1039 B( 16-C , 27-H ) :  -0.2133
B( 16-C , 29-C ) :   0.1242 B( 16-C , 30-H ) :   0.1258 B( 17-C , 19-C ) :   1.6613
B( 17-C , 20-H ) :   1.1253 B( 17-C , 21-C ) :   0.1640 B( 17-C , 29-C ) :   0.1999
B( 17-C , 30-H ) :  -0.1039 B( 18-C , 19-C ) :   0.2041 B( 18-C , 21-C ) :   1.4554
B( 18-C , 22-H ) :   1.0727 B( 18-C , 23-C ) :   0.1527 B( 18-C , 25-H ) :  -0.1317
B( 18-C , 26-H ) :  -0.1066 B( 19-C , 23-C ) :   1.1640 B( 19-C , 24-H ) :   1.1202
B( 19-C , 26-H ) :  -0.1097 B( 21-C , 23-C ) :   1.0824 B( 21-C , 25-H ) :   1.1761
B( 23-C , 24-H ) :  -0.1121 B( 23-C , 26-H ) :   1.0289 B( 29-C , 30-H ) :   0.9227
B( 29-C , 31-C ) :   1.5185 B( 29-C , 32-H ) :   0.1500 B( 29-C , 33-C ) :  -0.1548
B( 29-C , 34-H ) :  -0.2293 B( 29-C , 35-H ) :  -0.2465 B( 29-C , 42-C ) :  -0.3181
B( 29-C , 44-H ) :  -0.1290 B( 29-C , 45-C ) :  -0.2029 B( 30-H , 31-C ) :   0.2308
B( 30-H , 32-H ) :   0.1266 B( 30-H , 33-C ) :  -0.1202 B( 31-C , 32-H ) :   0.7519
B( 31-C , 33-C ) :   0.1547 B( 31-C , 36-C ) :   0.3225 B( 31-C , 38-H ) :  -0.2362
B( 31-C , 39-C ) :  -0.2034 B( 33-C , 34-H ) :   1.0201 B( 33-C , 35-H ) :   1.1672
B( 33-C , 45-C ) :   0.6827 B( 33-C , 46-H ) :  -0.1548 B( 36-C , 37-H ) :   1.0269
B( 36-C , 38-H ) :   1.1277 B( 36-C , 39-C ) :   0.5952 B( 36-C , 41-H ) :  -0.1048
B( 39-C , 40-H ) :   1.0559 B( 39-C , 41-H ) :   1.0974 B( 39-C , 42-C ) :   0.7625
B( 42-C , 43-H ) :   1.0168 B( 42-C , 44-H ) :   1.0159 B( 42-C , 48-C ) :   0.9707
B( 45-C , 46-H ) :   1.1232 B( 45-C , 47-H ) :   0.9887 B( 45-C , 48-C ) :   0.8000
B( 48-C , 49-H ) :   1.0218 B( 48-C , 50-H ) :   0.9864

MP2 TOTAL ENERGY:     -887.175119853 Eh
FINAL SINGLE POINT ENERGY      -887.175119853093

DIPOLE MOMENT
-------------
                                X             Y             Z
Electronic contribution:    -15.38919      -2.50857      -1.59739
Nuclear contribution   :     14.88660       3.61698       1.24368
                        -----------------------------------------
Total Dipole Moment    :     -0.50259       1.10840      -0.35371
                        -----------------------------------------
Magnitude (a.u.)       :      1.26739
Magnitude (Debye)      :      3.22144

Rotational constants in cm-1:     0.010517     0.008663     0.005400
Rotational constants in MHz :   315.304978   259.717171   161.886942

                             ****ORCA TERMINATED NORMALLY****
TOTAL RUN TIME: 0 days 22 hours 50 minutes 6 seconds 291 msec
