                         Program Version 4.2.1 -  RELEASE  -
|  1> %pal
|  2>  nprocs 32
|  3> end
|  4> !RI-MP2 aug-cc-pVQZ aug-cc-pVQZ/C TightSCF
|  5> %maxcore 4500
|  6> *xyzfile 0 2  03_40P1.xyz
|  7>
|  8>
|  9>                          ****END OF INPUT****

CARTESIAN COORDINATES (ANGSTROEM)
---------------------------------
  C     -1.453573    0.356007    0.266815
  C     -2.573431   -0.325838   -0.443526
  C     -0.503739   -0.465823    1.078111
  C     -1.131520    1.763695   -0.101469
  H     -2.032561    2.386135   -0.126349
  H     -0.681908    1.838174   -1.104857
  H     -0.420798    2.212916    0.594157
  H     -2.902935   -1.224283    0.085372
  H     -2.289856   -0.641630   -1.460680
  H     -3.436473    0.336699   -0.559844
  H     -1.063237   -1.042905    1.825608
  H      0.178338    0.187052    1.628711
  C      0.326834   -1.467721    0.256246
  H      0.965105   -2.044154    0.931400
  C      1.197377   -0.809468   -0.822382
  H     -0.340801   -2.180562   -0.235953
  H      0.561175   -0.282413   -1.539527
  H      1.726183   -1.581618   -1.387856
  C      2.175176    0.129801   -0.282386
  C      2.972104    0.896016    0.177100
  H      3.682400    1.576581    0.578765

 Total Charge           Charge          ....    0
 Multiplicity           Mult            ....    2
 Number of Electrons    NEL             ....   61
 Basis Dimension        Dim             .... 1238

ORBITAL ENERGIES
----------------
                 SPIN UP ORBITALS
  NO   OCC          E(Eh)            E(eV)
   0   1.0000     -11.247630      -306.0636
   1   1.0000     -11.228711      -305.5488
   2   1.0000     -11.228424      -305.5410
   3   1.0000     -11.221935      -305.3644
   4   1.0000     -11.214905      -305.1731
   5   1.0000     -11.214415      -305.1597
   6   1.0000     -11.212533      -305.1085
   7   1.0000     -11.208651      -305.0029
   8   1.0000      -1.114452       -30.3258
   9   1.0000      -1.068318       -29.0704
  10   1.0000      -1.005690       -27.3662
  11   1.0000      -0.940394       -25.5894
  12   1.0000      -0.935407       -25.4537
  13   1.0000      -0.839410       -22.8415
  14   1.0000      -0.738439       -20.0940
  15   1.0000      -0.710101       -19.3228
  16   1.0000      -0.651780       -17.7358
  17   1.0000      -0.641867       -17.4661
  18   1.0000      -0.610371       -16.6090
  19   1.0000      -0.597551       -16.2602
  20   1.0000      -0.586628       -15.9630
  21   1.0000      -0.552687       -15.0394
  22   1.0000      -0.538795       -14.6613
  23   1.0000      -0.524585       -14.2747
  24   1.0000      -0.502911       -13.6849
  25   1.0000      -0.501116       -13.6361
  26   1.0000      -0.472206       -12.8494
  27   1.0000      -0.467620       -12.7246
  28   1.0000      -0.383985       -10.4488
  29   1.0000      -0.383435       -10.4338
  30   1.0000      -0.306894        -8.3510
  31   0.0000       0.024731         0.6730
  32   0.0000       0.028070         0.7638
  33   0.0000       0.030606         0.8328
  34   0.0000       0.032719         0.8903
  35   0.0000       0.040971         1.1149

                 SPIN DOWN ORBITALS
  NO   OCC          E(Eh)            E(eV)
   0   1.0000     -11.247749      -306.0668
   1   1.0000     -11.228403      -305.5404
   2   1.0000     -11.226373      -305.4851
   3   1.0000     -11.218187      -305.2624
   4   1.0000     -11.215775      -305.1968
   5   1.0000     -11.214421      -305.1599
   6   1.0000     -11.211974      -305.0933
   7   1.0000     -11.197106      -304.6887
   8   1.0000      -1.099351       -29.9149
   9   1.0000      -1.046816       -28.4853
  10   1.0000      -1.000248       -27.2181
  11   1.0000      -0.940207       -25.5843
  12   1.0000      -0.935309       -25.4511
  13   1.0000      -0.831257       -22.6197
  14   1.0000      -0.718621       -19.5547
  15   1.0000      -0.694506       -18.8985
  16   1.0000      -0.644640       -17.5415
  17   1.0000      -0.626888       -17.0585
  18   1.0000      -0.605985       -16.4897
  19   1.0000      -0.593656       -16.1542
  20   1.0000      -0.557688       -15.1755
  21   1.0000      -0.547232       -14.8910
  22   1.0000      -0.531317       -14.4579
  23   1.0000      -0.519357       -14.1324
  24   1.0000      -0.499305       -13.5868
  25   1.0000      -0.492111       -13.3910
  26   1.0000      -0.467856       -12.7310
  27   1.0000      -0.459681       -12.5086
  28   1.0000      -0.383442       -10.4340
  29   1.0000      -0.383330       -10.4309
  30   0.0000       0.024891         0.6773
  31   0.0000       0.028102         0.7647
  32   0.0000       0.030649         0.8340
  33   0.0000       0.032514         0.8847
  34   0.0000       0.041033         1.1166

MULLIKEN ATOMIC CHARGES AND SPIN POPULATIONS
--------------------------------------------
   0 C :    0.249206    1.186531
   1 C :   -0.901228   -0.171676
   2 C :   -0.337874   -0.212919
   3 C :   -0.916265   -0.165724
   4 H :    0.331723    0.035333
   5 H :    0.209592    0.080858
   6 H :    0.230094    0.011167
   7 H :    0.225296    0.015180
   8 H :    0.195518    0.079749
   9 H :    0.294469    0.025530
  10 H :    0.296539    0.050656
  11 H :    0.203513    0.005830
  12 C :   -0.412867    0.068486
  13 H :    0.256252   -0.002058
  14 C :   -0.089970   -0.000839
  15 H :    0.256017   -0.008790
  16 H :    0.184070    0.001032
  17 H :    0.366991    0.000260
  18 C :    0.308358    0.001280
  19 C :   -1.202013    0.000046
  20 H :    0.252579    0.000067
Sum of atomic charges         :   -0.0000000

LOEWDIN ATOMIC CHARGES AND SPIN POPULATIONS
-------------------------------------------
   0 C :    0.024401    0.453050
   1 C :    0.894747    0.122357
   2 C :    0.494406    0.115322
   3 C :    0.898402    0.126614
   4 H :   -0.291125    0.017814
   5 H :   -0.280226    0.028371
   6 H :   -0.300309    0.008685
   7 H :   -0.294526    0.009410
   8 H :   -0.274515    0.027352
   9 H :   -0.294203    0.014611
  10 H :   -0.275250    0.020467
  11 H :   -0.310061    0.006908
  12 C :    0.507091    0.025899
  13 H :   -0.262493    0.006443
  14 C :    0.430505    0.007114
  15 H :   -0.273855    0.004865
  16 H :   -0.316464    0.003552
  17 H :   -0.290094    0.000396
  18 C :    0.089816    0.000805
  19 C :    0.584202    0.000049
  20 H :   -0.460450   -0.000083

  Mayer bond orders larger than 0.100000
B(  0-C ,  1-C ) :   0.6708 B(  0-C ,  2-C ) :   0.6474 B(  0-C ,  3-C ) :   0.7452
B(  0-C ,  4-H ) :  -0.1409 B(  0-C ,  9-H ) :  -0.1353 B(  1-C ,  7-H ) :   1.0427
B(  1-C ,  8-H ) :   0.9504 B(  1-C ,  9-H ) :   0.9973 B(  2-C , 10-H ) :   0.9640
B(  2-C , 11-H ) :   0.9276 B(  2-C , 12-C ) :   0.8228 B(  3-C ,  4-H ) :   0.9783
B(  3-C ,  5-H ) :   0.9348 B(  3-C ,  6-H ) :   1.0432 B( 12-C , 13-H ) :   0.9374
B( 12-C , 14-C ) :   0.9602 B( 12-C , 15-H ) :   0.9227 B( 12-C , 18-C ) :  -0.1227
B( 14-C , 16-H ) :   0.9306 B( 14-C , 17-H ) :   0.8983 B( 14-C , 18-C ) :   0.5448
B( 14-C , 19-C ) :  -0.2745 B( 17-H , 18-C ) :  -0.1394 B( 18-C , 19-C ) :   2.2280
B( 18-C , 20-H ) :  -0.3413 B( 19-C , 20-H ) :   1.4093

MP2 TOTAL ENERGY:     -311.948513387 Eh
FINAL SINGLE POINT ENERGY      -311.948513387239

DIPOLE MOMENT
-------------
                                X             Y             Z
Electronic contribution:      6.16425       0.29835       0.75066
Nuclear contribution   :     -6.35319      -0.48263      -0.80898
                        -----------------------------------------
Total Dipole Moment    :     -0.18894      -0.18428      -0.05832
                        -----------------------------------------
Magnitude (a.u.)       :      0.27029
Magnitude (Debye)      :      0.68703

Rotational constants in cm-1:     0.104759     0.042419     0.035721
Rotational constants in MHz :  3140.596534  1271.684377  1070.882560

                             ****ORCA TERMINATED NORMALLY****
TOTAL RUN TIME: 0 days 1 hours 6 minutes 36 seconds 896 msec
