                         Program Version 4.2.1 -  RELEASE  -
|  1> %pal
|  2>  nprocs 32
|  3> end
|  4> !RI-MP2 aug-cc-pVQZ aug-cc-pVQZ/C TightSCF
|  5> %maxcore 4500
|  6> *xyzfile 1 1  05_18P1.xyz
|  7>
|  8>
|  9>                          ****END OF INPUT****

CARTESIAN COORDINATES (ANGSTROEM)
---------------------------------
  C     -2.798739    1.389427    0.142417
  C     -1.914908    2.464155    0.073062
  C     -0.598455    2.225784   -0.225558
  N     -0.165571    0.968037   -0.441711
  C     -0.994192   -0.072306   -0.386099
  C     -2.336968    0.106527   -0.099241
  C     -3.150534   -1.163236   -0.002555
  O     -2.577874   -2.211533    0.194956
  N     -4.489579   -1.038889   -0.119563
  C      1.317873    0.750315   -0.711236
  C      2.127267    0.870211    0.589194
  C      2.190158   -0.592224    1.036585
  C      2.242264   -1.361577   -0.284073
  O      1.510510   -0.506072   -1.216224
  H      1.598620    1.517023   -1.433993
  C      3.623765   -1.642952   -0.828611
  H      1.664642   -2.285070   -0.205600
  H      3.544423   -2.093541   -1.817767
  H      4.145083   -2.346754   -0.176355
  H      4.211112   -0.728565   -0.905640
  O      0.968406   -0.803619    1.725177
  H      3.057549   -0.792096    1.670195
  O      3.366557    1.409566    0.210447
  H      1.622622    1.475680    1.346118
  H      3.909950    1.580033    0.985991
  H      0.934268   -1.690736    2.096274
  H     -5.037042   -1.886310   -0.079178
  H     -4.934507   -0.211790   -0.479615
  H     -0.578879   -1.050626   -0.567282
  H      0.142437    3.011031   -0.300535
  H     -2.245888    3.477262    0.253777
  H     -3.834321    1.568952    0.404376

 Total Charge           Charge          ....    1
 Multiplicity           Mult            ....    1
 Number of Electrons    NEL             ....  126
 Basis Dimension        Dim             .... 2050

ORBITAL ENERGIES
----------------

  NO   OCC          E(Eh)            E(eV)
   0   2.0000     -20.709572      -563.5361
   1   2.0000     -20.700078      -563.2778
   2   2.0000     -20.695274      -563.1470
   3   2.0000     -20.649667      -561.9060
   4   2.0000     -15.823166      -430.5702
   5   2.0000     -15.711262      -427.5252
   6   2.0000     -11.492481      -312.7263
   7   2.0000     -11.487974      -312.6037
   8   2.0000     -11.473404      -312.2072
   9   2.0000     -11.468333      -312.0692
  10   2.0000     -11.441746      -311.3457
  11   2.0000     -11.433920      -311.1328
  12   2.0000     -11.420418      -310.7654
  13   2.0000     -11.416174      -310.6499
  14   2.0000     -11.415800      -310.6397
  15   2.0000     -11.414276      -310.5982
  16   2.0000     -11.324816      -308.1639
  17   2.0000      -1.569047       -42.6959
  18   2.0000      -1.522049       -41.4171
  19   2.0000      -1.512121       -41.1469
  20   2.0000      -1.501709       -40.8636
  21   2.0000      -1.491736       -40.5922
  22   2.0000      -1.347125       -36.6571
  23   2.0000      -1.290569       -35.1182
  24   2.0000      -1.237122       -33.6638
  25   2.0000      -1.188688       -32.3458
  26   2.0000      -1.175177       -31.9782
  27   2.0000      -1.081871       -29.4392
  28   2.0000      -1.075558       -29.2674
  29   2.0000      -1.034886       -28.1607
  30   2.0000      -0.982007       -26.7218
  31   2.0000      -0.951282       -25.8857
  32   2.0000      -0.947788       -25.7906
  33   2.0000      -0.915912       -24.9232
  34   2.0000      -0.874540       -23.7974
  35   2.0000      -0.871125       -23.7045
  36   2.0000      -0.864905       -23.5353
  37   2.0000      -0.848112       -23.0783
  38   2.0000      -0.827629       -22.5209
  39   2.0000      -0.808829       -22.0094
  40   2.0000      -0.803817       -21.8730
  41   2.0000      -0.789333       -21.4788
  42   2.0000      -0.776018       -21.1165
  43   2.0000      -0.773464       -21.0470
  44   2.0000      -0.755020       -20.5451
  45   2.0000      -0.740343       -20.1458
  46   2.0000      -0.722247       -19.6533
  47   2.0000      -0.714182       -19.4339
  48   2.0000      -0.709964       -19.3191
  49   2.0000      -0.700672       -19.0662
  50   2.0000      -0.694413       -18.8959
  51   2.0000      -0.690027       -18.7766
  52   2.0000      -0.670353       -18.2412
  53   2.0000      -0.649154       -17.6644
  54   2.0000      -0.647917       -17.6307
  55   2.0000      -0.621220       -16.9042
  56   2.0000      -0.603571       -16.4240
  57   2.0000      -0.578545       -15.7430
  58   2.0000      -0.571451       -15.5500
  59   2.0000      -0.568401       -15.4670
  60   2.0000      -0.560955       -15.2644
  61   2.0000      -0.545409       -14.8413
  62   2.0000      -0.524203       -14.2643
  63   0.0000      -0.098964        -2.6930
  64   0.0000      -0.071198        -1.9374
  65   0.0000      -0.061376        -1.6701
  66   0.0000      -0.059721        -1.6251
  67   0.0000      -0.054201        -1.4749

MULLIKEN ATOMIC CHARGES
-----------------------
   0 C :   -0.041777
   1 C :   -0.360327
   2 C :   -0.172752
   3 N :   -0.384881
   4 C :    0.243383
   5 C :   -0.265913
   6 C :    1.230347
   7 O :   -0.853914
   8 N :   -0.800040
   9 C :    0.546658
  10 C :    0.393861
  11 C :    0.304167
  12 C :    0.398024
  13 O :   -1.322073
  14 H :    0.540623
  15 C :   -0.942239
  16 H :    0.406663
  17 H :    0.257120
  18 H :    0.232227
  19 H :    0.225904
  20 O :   -1.082234
  21 H :    0.443776
  22 O :   -1.018156
  23 H :    0.333350
  24 H :    0.315960
  25 H :    0.334966
  26 H :    0.208977
  27 H :    0.362407
  28 H :    0.533202
  29 H :    0.336656
  30 H :    0.263643
  31 H :    0.332391
Sum of atomic charges:    1.0000000

LOEWDIN ATOMIC CHARGES
----------------------
   0 C :    0.405521
   1 C :    0.444890
   2 C :    0.279099
   3 N :    0.505034
   4 C :    0.205810
   5 C :   -0.048808
   6 C :   -0.826324
   7 O :    0.735311
   8 N :    1.256048
   9 C :   -0.339361
  10 C :   -0.228332
  11 C :   -0.200760
  12 C :   -0.154226
  13 O :    0.955721
  14 H :   -0.295197
  15 C :    0.953749
  16 H :   -0.288399
  17 H :   -0.267973
  18 H :   -0.265504
  19 H :   -0.296189
  20 O :    1.320172
  21 H :   -0.263019
  22 O :    1.332302
  23 H :   -0.288615
  24 H :   -0.729436
  25 H :   -0.731227
  26 H :   -0.471583
  27 H :   -0.495205
  28 H :   -0.356453
  29 H :   -0.265366
  30 H :   -0.294420
  31 H :   -0.287259

  Mayer bond orders larger than 0.100000
B(  0-C ,  1-C ) :   1.0675 B(  0-C ,  4-C ) :  -0.1052 B(  0-C ,  5-C ) :   1.1179
B(  0-C ,  6-C ) :  -0.1844 B(  0-C , 30-H ) :  -0.1465 B(  0-C , 31-H ) :   0.9046
B(  1-C ,  2-C ) :   1.3379 B(  1-C ,  5-C ) :  -0.1876 B(  1-C , 30-H ) :   1.1203
B(  2-C ,  3-N ) :   1.0526 B(  2-C ,  4-C ) :   0.3361 B(  2-C , 29-H ) :   0.8971
B(  2-C , 30-H ) :  -0.1263 B(  3-N ,  4-C ) :   1.3019 B(  3-N ,  5-C ) :  -0.1204
B(  3-N ,  9-C ) :   0.8508 B(  4-C ,  5-C ) :   0.8595 B(  4-C ,  6-C ) :  -0.3765
B(  4-C ,  7-O ) :  -0.1283 B(  4-C , 28-H ) :   0.7288 B(  5-C ,  6-C ) :   1.3583
B(  5-C ,  7-O ) :   0.4854 B(  5-C , 28-H ) :  -0.1024 B(  5-C , 31-H ) :  -0.1075
B(  6-C ,  7-O ) :   0.9756 B(  6-C ,  8-N ) :   1.0510 B(  7-O ,  8-N ) :   0.1539
B(  8-N , 26-H ) :   1.0687 B(  8-N , 27-H ) :   0.8178 B(  9-C , 10-C ) :   1.0170
B(  9-C , 11-C ) :  -0.2068 B(  9-C , 13-O ) :   0.4415 B(  9-C , 14-H ) :   0.7184
B(  9-C , 22-O ) :   0.1704 B( 10-C , 11-C ) :   1.0096 B( 10-C , 20-O ) :   0.2625
B( 10-C , 23-H ) :   0.9353 B( 11-C , 12-C ) :   1.1196 B( 11-C , 20-O ) :   0.2677
B( 11-C , 21-H ) :   0.7879 B( 11-C , 22-O ) :   0.2381 B( 12-C , 13-O ) :   0.4828
B( 12-C , 15-C ) :   0.3339 B( 12-C , 16-H ) :   0.7583 B( 12-C , 17-H ) :  -0.1352
B( 12-C , 18-H ) :  -0.1249 B( 12-C , 19-H ) :  -0.1043 B( 12-C , 20-O ) :   0.1685
B( 15-C , 17-H ) :   1.0331 B( 15-C , 18-H ) :   1.0636 B( 15-C , 19-H ) :   1.0581
B( 20-O , 25-H ) :   0.8942 B( 22-O , 24-H ) :   0.9402

MP2 TOTAL ENERGY:     -837.138946166 Eh
FINAL SINGLE POINT ENERGY      -837.138946165748

DIPOLE MOMENT
-------------
                                X             Y             Z
Electronic contribution:     -9.19830       2.42056      -0.33503
Nuclear contribution   :      8.19896      -0.48771       0.79942
                        -----------------------------------------
Total Dipole Moment    :     -0.99933       1.93285       0.46439
                        -----------------------------------------
Magnitude (a.u.)       :      2.22492
Magnitude (Debye)      :      5.65528

Rotational constants in cm-1:     0.028965     0.010590     0.008789
Rotational constants in MHz :   868.334981   317.468128   263.484510

                             ****ORCA TERMINATED NORMALLY****
TOTAL RUN TIME: 0 days 4 hours 44 minutes 12 seconds 660 msec
