                         Program Version 4.2.1 -  RELEASE  -
|  1> %pal
|  2>  nprocs 32
|  3> end
|  4> !RI-MP2 aug-cc-pVQZ aug-cc-pVQZ/C TightSCF
|  5> %maxcore 4500
|  6> *xyzfile 0 2  04_28TS.xyz
|  7>
|  8>
|  9>                          ****END OF INPUT****

CARTESIAN COORDINATES (ANGSTROEM)
---------------------------------
  C     -0.568254   -1.541204   -0.716078
  H     -0.033787   -2.497163   -0.710574
  H     -0.841447   -1.340921   -1.756458
  C     -1.841646   -1.676975    0.127810
  H     -2.302182   -2.628438   -0.151360
  C     -2.564917    0.784776    0.554430
  H     -3.474274    1.381451    0.641914
  H     -1.572829   -1.777120    1.184767
  H     -2.147557    0.684792    1.558819
  C     -2.906478   -0.586331   -0.024494
  H     -0.352266    0.705084   -0.401683
  H     -3.806837   -0.944297    0.486656
  H     -3.171556   -0.473337   -1.080018
  C      0.396805   -0.466071   -0.273853
  C      2.194614    0.756937    1.143479
  C      2.965552    0.350331   -0.101062
  H      2.838475    0.788984    2.022168
  H      1.712780    1.726906    1.015872
  H      3.542643    1.185264   -0.497814
  H      3.635873   -0.482127    0.110264
  S      0.908314   -0.493285    1.426982
  S      1.770876   -0.177078   -1.381430
  S     -1.434259    1.791747   -0.463299

 Total Charge           Charge          ....    0
 Multiplicity           Mult            ....    2
 Number of Electrons    NEL             ....  103
 Basis Dimension        Dim             .... 1410

ORBITAL ENERGIES
----------------
                 SPIN UP ORBITALS
  NO   OCC          E(Eh)            E(eV)
   0   1.0000     -91.966935     -2502.5475
   1   1.0000     -91.963425     -2502.4520
   2   1.0000     -91.929222     -2501.5213
   3   1.0000     -11.313095      -307.8450
   4   1.0000     -11.276922      -306.8607
   5   1.0000     -11.275594      -306.8245
   6   1.0000     -11.247013      -306.0468
   7   1.0000     -11.242970      -305.9368
   8   1.0000     -11.230845      -305.6068
   9   1.0000     -11.226208      -305.4806
  10   1.0000      -8.969346      -244.0683
  11   1.0000      -8.965585      -243.9660
  12   1.0000      -8.931760      -243.0456
  13   1.0000      -6.651032      -180.9838
  14   1.0000      -6.649965      -180.9547
  15   1.0000      -6.649010      -180.9288
  16   1.0000      -6.647349      -180.8836
  17   1.0000      -6.646161      -180.8512
  18   1.0000      -6.645150      -180.8237
  19   1.0000      -6.621252      -180.1734
  20   1.0000      -6.610742      -179.8874
  21   1.0000      -6.609694      -179.8589
  22   1.0000      -1.164645       -31.6916
  23   1.0000      -1.098931       -29.9034
  24   1.0000      -1.048604       -28.5340
  25   1.0000      -1.002933       -27.2912
  26   1.0000      -0.994970       -27.0745
  27   1.0000      -0.924835       -25.1660
  28   1.0000      -0.852526       -23.1984
  29   1.0000      -0.819325       -22.2950
  30   1.0000      -0.796466       -21.6729
  31   1.0000      -0.747167       -20.3314
  32   1.0000      -0.662327       -18.0228
  33   1.0000      -0.651424       -17.7261
  34   1.0000      -0.638524       -17.3751
  35   1.0000      -0.613314       -16.6891
  36   1.0000      -0.608625       -16.5615
  37   1.0000      -0.577875       -15.7248
  38   1.0000      -0.564977       -15.3738
  39   1.0000      -0.561004       -15.2657
  40   1.0000      -0.540791       -14.7157
  41   1.0000      -0.507490       -13.8095
  42   1.0000      -0.489228       -13.3126
  43   1.0000      -0.487741       -13.2721
  44   1.0000      -0.477304       -12.9881
  45   1.0000      -0.463856       -12.6222
  46   1.0000      -0.447749       -12.1839
  47   1.0000      -0.434559       -11.8249
  48   1.0000      -0.403318       -10.9748
  49   1.0000      -0.363747        -9.8980
  50   1.0000      -0.340951        -9.2778
  51   1.0000      -0.298501        -8.1226
  52   0.0000       0.022473         0.6115
  53   0.0000       0.025410         0.6915
  54   0.0000       0.031120         0.8468
  55   0.0000       0.034906         0.9498
  56   0.0000       0.040177         1.0933

                 SPIN DOWN ORBITALS
  NO   OCC          E(Eh)            E(eV)
   0   1.0000     -91.966671     -2502.5404
   1   1.0000     -91.963086     -2502.4428
   2   1.0000     -91.924000     -2501.3792
   3   1.0000     -11.294114      -307.3285
   4   1.0000     -11.276835      -306.8583
   5   1.0000     -11.275598      -306.8246
   6   1.0000     -11.247504      -306.0601
   7   1.0000     -11.244227      -305.9710
   8   1.0000     -11.230646      -305.6014
   9   1.0000     -11.226075      -305.4770
  10   1.0000      -8.969058      -244.0605
  11   1.0000      -8.965189      -243.9552
  12   1.0000      -8.925980      -242.8883
  13   1.0000      -6.650988      -180.9826
  14   1.0000      -6.649925      -180.9536
  15   1.0000      -6.647575      -180.8897
  16   1.0000      -6.647137      -180.8778
  17   1.0000      -6.646033      -180.8477
  18   1.0000      -6.643663      -180.7833
  19   1.0000      -6.608076      -179.8149
  20   1.0000      -6.606523      -179.7726
  21   1.0000      -6.598112      -179.5438
  22   1.0000      -1.149858       -31.2892
  23   1.0000      -1.096171       -29.8283
  24   1.0000      -1.037163       -28.2226
  25   1.0000      -0.992029       -26.9945
  26   1.0000      -0.986391       -26.8411
  27   1.0000      -0.913507       -24.8578
  28   1.0000      -0.837663       -22.7940
  29   1.0000      -0.815700       -22.1963
  30   1.0000      -0.783754       -21.3270
  31   1.0000      -0.718282       -19.5454
  32   1.0000      -0.658581       -17.9209
  33   1.0000      -0.640118       -17.4185
  34   1.0000      -0.628865       -17.1123
  35   1.0000      -0.606724       -16.5098
  36   1.0000      -0.601970       -16.3804
  37   1.0000      -0.561905       -15.2902
  38   1.0000      -0.559135       -15.2148
  39   1.0000      -0.540893       -14.7185
  40   1.0000      -0.537561       -14.6278
  41   1.0000      -0.499431       -13.5902
  42   1.0000      -0.487209       -13.2576
  43   1.0000      -0.482830       -13.1385
  44   1.0000      -0.473656       -12.8888
  45   1.0000      -0.453925       -12.3519
  46   1.0000      -0.440880       -11.9970
  47   1.0000      -0.428136       -11.6502
  48   1.0000      -0.364051        -9.9063
  49   1.0000      -0.351116        -9.5544
  50   1.0000      -0.331156        -9.0112
  51   0.0000       0.021960         0.5976
  52   0.0000       0.025320         0.6890
  53   0.0000       0.030738         0.8364
  54   0.0000       0.034957         0.9512
  55   0.0000       0.038324         1.0428

MULLIKEN ATOMIC CHARGES AND SPIN POPULATIONS
--------------------------------------------
   0 C :   -0.426493   -0.032080
   1 H :    0.285425    0.055312
   2 H :    0.261082    0.002319
   3 C :   -0.387754    0.006185
   4 H :    0.223550   -0.001624
   5 C :   -0.572732   -0.067962
   6 H :    0.336002    0.008688
   7 H :    0.257152   -0.003706
   8 H :    0.249656    0.002946
   9 C :   -0.515286    0.007623
  10 H :   -0.115024   -0.340403
  11 H :    0.248890   -0.000279
  12 H :    0.270709   -0.002728
  13 C :    0.307032    0.640286
  14 C :   -0.686839    0.002293
  15 C :   -0.601652   -0.002824
  16 H :    0.396640    0.000003
  17 H :    0.312819    0.001430
  18 H :    0.362888   -0.000682
  19 H :    0.274607    0.000025
  20 S :   -0.117429    0.042100
  21 S :   -0.181670    0.061704
  22 S :   -0.181572    0.621374
Sum of atomic charges         :   -0.0000000

LOEWDIN ATOMIC CHARGES AND SPIN POPULATIONS
-------------------------------------------
   0 C :    0.346340    0.053960
   1 H :   -0.295846    0.013444
   2 H :   -0.297511    0.002253
   3 C :    0.494750    0.000453
   4 H :   -0.271084    0.000659
   5 C :    0.113690    0.059289
   6 H :   -0.380468    0.015587
   7 H :   -0.309482    0.000146
   8 H :   -0.368776    0.001776
   9 C :    0.452406    0.000849
  10 H :   -1.041173    0.102011
  11 H :   -0.278180    0.000469
  12 H :   -0.294185   -0.000171
  13 C :   -0.853355    0.275806
  14 C :    0.097896    0.008282
  15 C :    0.108067    0.008762
  16 H :   -0.351385    0.001556
  17 H :   -0.361460    0.000918
  18 H :   -0.357174    0.000465
  19 H :   -0.365922    0.002922
  20 S :    1.349024    0.082554
  21 S :    1.346811    0.081647
  22 S :    1.517017    0.286361

  Mayer bond orders larger than 0.100000
B(  0-C ,  1-H ) :   0.9482 B(  0-C ,  2-H ) :   1.0079 B(  0-C ,  3-C ) :   0.7629
B(  0-C , 13-C ) :   0.6550 B(  0-C , 21-S ) :  -0.1441 B(  3-C ,  4-H ) :   1.0084
B(  3-C ,  7-H ) :   0.9279 B(  3-C ,  9-C ) :   0.8470 B(  5-C ,  6-H ) :   0.8832
B(  5-C ,  8-H ) :   0.9330 B(  5-C ,  9-C ) :   0.9619 B(  5-C , 22-S ) :   0.9665
B(  9-C , 11-H ) :   0.9336 B(  9-C , 12-H ) :   0.9086 B( 10-H , 13-C ) :   0.3180
B( 10-H , 22-S ) :   0.5865 B( 13-C , 14-C ) :  -0.1019 B( 13-C , 20-S ) :   0.8691
B( 13-C , 21-S ) :   0.7516 B( 14-C , 15-C ) :   1.0729 B( 14-C , 16-H ) :   0.7824
B( 14-C , 17-H ) :   0.8665 B( 14-C , 20-S ) :   1.0546 B( 15-C , 18-H ) :   0.8187
B( 15-C , 19-H ) :   0.9091 B( 15-C , 21-S ) :   0.9752

MP2 TOTAL ENERGY:    -1467.205047906 Eh
FINAL SINGLE POINT ENERGY     -1467.205047905927

DIPOLE MOMENT
-------------
                                X             Y             Z
Electronic contribution:      6.49910       3.16140      -1.84500
Nuclear contribution   :     -6.01388      -3.70707       2.43646
                        -----------------------------------------
Total Dipole Moment    :      0.48522      -0.54567       0.59146
                        -----------------------------------------
Magnitude (a.u.)       :      0.93969
Magnitude (Debye)      :      2.38850

Rotational constants in cm-1:     0.042311     0.019946     0.018825
Rotational constants in MHz :  1268.446405   597.952187   564.356933

                             ****ORCA TERMINATED NORMALLY****
TOTAL RUN TIME: 0 days 2 hours 19 minutes 29 seconds 439 msec
