                         Program Version 4.2.1 -  RELEASE  -
|  1> %pal
|  2>  nprocs 32
|  3> end
|  4> !RI-MP2 aug-cc-pVQZ aug-cc-pVQZ/C TightSCF
|  5> %maxcore 4500
|  6> *xyzfile 1 1  10_15TS.xyz
|  7>
|  8>
|  9>                          ****END OF INPUT****

CARTESIAN COORDINATES (ANGSTROEM)
---------------------------------
  C     -1.675994   -0.862910    0.302207
  N     -0.344341   -0.777693    0.180438
  N      0.396110    0.176610    0.220212
  C      1.784421    0.037394    0.043253
  C      2.520345    1.215983    0.134466
  C      2.401250   -1.190654   -0.208711
  C      3.894631    1.168122   -0.027556
  H      2.011235    2.150544    0.331640
  C      3.770768   -1.223956   -0.368811
  H      1.807682   -2.093267   -0.275266
  C      4.515192   -0.047876   -0.278395
  H      4.480274    2.075278    0.041301
  H      4.268253   -2.164874   -0.564985
  H      5.589948   -0.085533   -0.405495
  C     -2.445108   -1.109161   -0.972668
  C     -2.159398   -1.482843    1.581697
  H     -1.672998   -1.040522    2.450550
  H     -3.238876   -1.375845    1.668404
  H     -1.929615   -2.551710    1.564333
  C     -2.378587    1.256671    0.488441
  C     -1.207190    1.941034    0.565961
  H     -2.871312    1.014756    1.425799
  H     -0.731989    2.144037    1.516478
  H     -0.788584    2.437806   -0.301009
  C     -3.233589    1.212343   -0.749411
  H     -4.095383    1.872265   -0.625817
  H     -2.663696    1.585456   -1.605032
  C     -3.689299   -0.221308   -1.006193
  H     -1.803824   -0.889394   -1.827994
  H     -2.711907   -2.168820   -1.015807
  H     -4.402612   -0.536061   -0.240081
  H     -4.193639   -0.323573   -1.967245

 Total Charge           Charge          ....    1
 Multiplicity           Mult            ....    1
 Number of Electrons    NEL             ....  108
 Basis Dimension        Dim             .... 1982

ORBITAL ENERGIES
----------------

  NO   OCC          E(Eh)            E(eV)
   0   2.0000     -15.819360      -430.4667
   1   2.0000     -15.805791      -430.0974
   2   2.0000     -11.512511      -313.2713
   3   2.0000     -11.409664      -310.4728
   4   2.0000     -11.404117      -310.3218
   5   2.0000     -11.389796      -309.9321
   6   2.0000     -11.389153      -309.9146
   7   2.0000     -11.374200      -309.5077
   8   2.0000     -11.374034      -309.5032
   9   2.0000     -11.371221      -309.4267
  10   2.0000     -11.365112      -309.2604
  11   2.0000     -11.364474      -309.2430
  12   2.0000     -11.360123      -309.1246
  13   2.0000     -11.357031      -309.0405
  14   2.0000     -11.355802      -309.0071
  15   2.0000      -1.575782       -42.8792
  16   2.0000      -1.333894       -36.2971
  17   2.0000      -1.282573       -34.9006
  18   2.0000      -1.237491       -33.6738
  19   2.0000      -1.188468       -32.3399
  20   2.0000      -1.165741       -31.7214
  21   2.0000      -1.151725       -31.3400
  22   2.0000      -1.106468       -30.1085
  23   2.0000      -1.082595       -29.4589
  24   2.0000      -1.002338       -27.2750
  25   2.0000      -0.975623       -26.5481
  26   2.0000      -0.958507       -26.0823
  27   2.0000      -0.915245       -24.9051
  28   2.0000      -0.889011       -24.1912
  29   2.0000      -0.857997       -23.3473
  30   2.0000      -0.831800       -22.6344
  31   2.0000      -0.808962       -22.0130
  32   2.0000      -0.799421       -21.7534
  33   2.0000      -0.790739       -21.5171
  34   2.0000      -0.777132       -21.1468
  35   2.0000      -0.752910       -20.4877
  36   2.0000      -0.746315       -20.3083
  37   2.0000      -0.738860       -20.1054
  38   2.0000      -0.726533       -19.7700
  39   2.0000      -0.720555       -19.6073
  40   2.0000      -0.711567       -19.3627
  41   2.0000      -0.702712       -19.1218
  42   2.0000      -0.691078       -18.8052
  43   2.0000      -0.656831       -17.8733
  44   2.0000      -0.645943       -17.5770
  45   2.0000      -0.635549       -17.2942
  46   2.0000      -0.630051       -17.1446
  47   2.0000      -0.626927       -17.0596
  48   2.0000      -0.616949       -16.7880
  49   2.0000      -0.614441       -16.7198
  50   2.0000      -0.555795       -15.1239
  51   2.0000      -0.506788       -13.7904
  52   2.0000      -0.468300       -12.7431
  53   2.0000      -0.465555       -12.6684
  54   0.0000      -0.094034        -2.5588
  55   0.0000      -0.086174        -2.3449
  56   0.0000      -0.063078        -1.7165
  57   0.0000      -0.055990        -1.5236
  58   0.0000      -0.054776        -1.4905

MULLIKEN ATOMIC CHARGES
-----------------------
   0 C :    1.850418
   1 N :   -0.656371
   2 N :   -0.558441
   3 C :    1.130916
   4 C :   -0.424921
   5 C :   -0.477815
   6 C :   -0.397140
   7 H :    0.300894
   8 C :   -0.321556
   9 H :    0.287562
  10 C :   -0.467277
  11 H :    0.265944
  12 H :    0.307417
  13 H :    0.314498
  14 C :   -0.709518
  15 C :   -1.080601
  16 H :    0.294128
  17 H :    0.301687
  18 H :    0.273996
  19 C :    0.027937
  20 C :   -0.752938
  21 H :    0.268085
  22 H :    0.350973
  23 H :    0.264189
  24 C :   -0.494682
  25 H :    0.341951
  26 H :    0.152393
  27 C :   -0.475939
  28 H :    0.244030
  29 H :    0.337817
  30 H :    0.193334
  31 H :    0.309028
Sum of atomic charges:    1.0000000

LOEWDIN ATOMIC CHARGES
----------------------
   0 C :   -0.278773
   1 N :    0.434207
   2 N :    0.386398
   3 C :   -0.307002
   4 C :    0.327136
   5 C :    0.342149
   6 C :    0.375401
   7 H :   -0.315547
   8 C :    0.376480
   9 H :   -0.317679
  10 C :    0.375136
  11 H :   -0.308168
  12 H :   -0.307623
  13 H :   -0.300672
  14 C :    0.545169
  15 C :    0.963175
  16 H :   -0.257012
  17 H :   -0.276063
  18 H :   -0.245412
  19 C :    0.314766
  20 C :    0.784576
  21 H :   -0.310896
  22 H :   -0.282319
  23 H :   -0.287631
  24 C :    0.530270
  25 H :   -0.245628
  26 H :   -0.273266
  27 C :    0.556801
  28 H :   -0.263609
  29 H :   -0.239127
  30 H :   -0.258280
  31 H :   -0.236955

  Mayer bond orders larger than 0.100000
B(  0-C ,  1-N ) :   0.2775 B(  0-C ,  2-N ) :  -0.3314 B(  0-C ,  5-C ) :  -0.1740
B(  0-C , 14-C ) :   0.5142 B(  0-C , 15-C ) :   0.2636 B(  0-C , 16-H ) :  -0.1911
B(  0-C , 17-H ) :  -0.1153 B(  0-C , 19-C ) :   0.2816 B(  0-C , 20-C ) :   0.1349
B(  0-C , 28-H ) :  -0.1004 B(  1-N ,  2-N ) :   0.8633 B(  1-N ,  3-C ) :  -0.1667
B(  1-N ,  5-C ) :   0.1407 B(  1-N ,  9-H ) :   0.1309 B(  1-N , 14-C ) :   0.1059
B(  2-N ,  3-C ) :   1.0742 B(  2-N ,  4-C ) :   0.2314 B(  2-N ,  5-C ) :   0.1631
B(  2-N , 10-C ) :   0.1208 B(  2-N , 19-C ) :   0.1129 B(  3-C ,  4-C ) :   0.7797
B(  3-C ,  5-C ) :   0.7189 B(  3-C ,  6-C ) :  -0.4745 B(  3-C ,  8-C ) :  -0.4080
B(  3-C , 10-C ) :  -0.1643 B(  4-C ,  6-C ) :   1.2914 B(  4-C ,  7-H ) :   0.9152
B(  4-C ,  8-C ) :   0.1147 B(  4-C , 10-C ) :   0.1267 B(  4-C , 11-H ) :  -0.1237
B(  5-C ,  6-C ) :   0.1319 B(  5-C ,  8-C ) :   1.2117 B(  5-C ,  9-H ) :   0.9626
B(  5-C , 10-C ) :   0.1482 B(  5-C , 12-H ) :  -0.1644 B(  6-C , 10-C ) :   1.1837
B(  6-C , 11-H ) :   1.1297 B(  8-C , 10-C ) :   1.1121 B(  8-C , 12-H ) :   1.0937
B(  8-C , 13-H ) :  -0.1138 B( 10-C , 11-H ) :  -0.1095 B( 10-C , 13-H ) :   1.0471
B( 14-C , 27-C ) :   1.0009 B( 14-C , 28-H ) :   1.0795 B( 14-C , 29-H ) :   0.8441
B( 15-C , 16-H ) :   1.0505 B( 15-C , 17-H ) :   1.0238 B( 15-C , 18-H ) :   0.9876
B( 19-C , 20-C ) :   1.3571 B( 19-C , 21-H ) :   0.9644 B( 19-C , 22-H ) :  -0.1425
B( 19-C , 24-C ) :   0.6810 B( 19-C , 27-C ) :  -0.1933 B( 20-C , 22-H ) :   0.9710
B( 20-C , 23-H ) :   1.0198 B( 24-C , 25-H ) :   0.8245 B( 24-C , 26-H ) :   1.0722
B( 24-C , 27-C ) :   1.0571 B( 27-C , 30-H ) :   0.9940 B( 27-C , 31-H ) :   0.8821

MP2 TOTAL ENERGY:     -613.685960358 Eh
FINAL SINGLE POINT ENERGY      -613.685960357530

DIPOLE MOMENT
-------------
                                X             Y             Z
Electronic contribution:     11.98295      -0.26442       0.09276
Nuclear contribution   :    -13.16651       0.04781       0.17505
                        -----------------------------------------
Total Dipole Moment    :     -1.18356      -0.21661       0.26780
                        -----------------------------------------
Magnitude (a.u.)       :      1.23266
Magnitude (Debye)      :      3.13317

Rotational constants in cm-1:     0.046504     0.010554     0.009584
Rotational constants in MHz :  1394.158992   316.400671   287.317399

                             ****ORCA TERMINATED NORMALLY****
TOTAL RUN TIME: 0 days 4 hours 9 minutes 55 seconds 783 msec
