                         Program Version 4.2.1 -  RELEASE  -
|  1> %pal
|  2>  nprocs 32
|  3> end
|  4> !RI-MP2 aug-cc-pVQZ aug-cc-pVQZ/C TightSCF
|  5> %maxcore 4500
|  6> *xyzfile -1 1  05_4R.xyz
|  7>
|  8>
|  9>                          ****END OF INPUT****

CARTESIAN COORDINATES (ANGSTROEM)
---------------------------------
  O     -2.870674   -1.201143   -0.462460
  C     -2.589824    0.086690    0.051355
  C     -1.185513    0.579601   -0.277371
  H     -2.729649    0.119138    1.140990
  H     -3.302207    0.782291   -0.395475
  C     -0.104971   -0.167559    0.521863
  O     -0.307124   -1.579219    0.409765
  C      1.309509    0.303709    0.131205
  H     -0.243391    0.094617    1.577789
  C      2.407860   -0.742270   -0.046632
  O      3.603882   -0.369013   -0.379558
  O      1.474858    1.505315    0.016750
  O     -1.156273    1.958243    0.028129
  H     -1.004735    0.411090   -1.349401
  H     -0.210597    2.200577    0.028267
  H      0.431314   -1.943945   -0.095701
  H     -2.111375   -1.749059   -0.216229
  H      2.299899   -1.328040    0.922450
  H      1.891028   -1.461161   -0.796217

 Total Charge           Charge          ....   -1
 Multiplicity           Mult            ....    1
 Number of Electrons    NEL             ....   80
 Basis Dimension        Dim             .... 1214

ORBITAL ENERGIES
----------------

  NO   OCC          E(Eh)            E(eV)
   0   2.0000     -20.461417      -556.7835
   1   2.0000     -20.439331      -556.1825
   2   2.0000     -20.431457      -555.9682
   3   2.0000     -20.411912      -555.4364
   4   2.0000     -20.260534      -551.3172
   5   2.0000     -11.188906      -304.4656
   6   2.0000     -11.177687      -304.1603
   7   2.0000     -11.169993      -303.9510
   8   2.0000     -11.164691      -303.8067
   9   2.0000     -11.119048      -302.5647
  10   2.0000      -1.281020       -34.8583
  11   2.0000      -1.257162       -34.2091
  12   2.0000      -1.247400       -33.9435
  13   2.0000      -1.234455       -33.5912
  14   2.0000      -1.087147       -29.5828
  15   2.0000      -0.919046       -25.0085
  16   2.0000      -0.842327       -22.9209
  17   2.0000      -0.779491       -21.2110
  18   2.0000      -0.705898       -19.2085
  19   2.0000      -0.629875       -17.1398
  20   2.0000      -0.599400       -16.3105
  21   2.0000      -0.576778       -15.6949
  22   2.0000      -0.564790       -15.3687
  23   2.0000      -0.521818       -14.1994
  24   2.0000      -0.509527       -13.8649
  25   2.0000      -0.493549       -13.4302
  26   2.0000      -0.475013       -12.9258
  27   2.0000      -0.465690       -12.6721
  28   2.0000      -0.445296       -12.1171
  29   2.0000      -0.443829       -12.0772
  30   2.0000      -0.424385       -11.5481
  31   2.0000      -0.403587       -10.9822
  32   2.0000      -0.373022       -10.1504
  33   2.0000      -0.359590        -9.7849
  34   2.0000      -0.358651        -9.7594
  35   2.0000      -0.333766        -9.0822
  36   2.0000      -0.313910        -8.5419
  37   2.0000      -0.283353        -7.7104
  38   2.0000      -0.174247        -4.7415
  39   2.0000      -0.171821        -4.6755
  40   0.0000       0.101326         2.7572
  41   0.0000       0.108734         2.9588
  42   0.0000       0.113900         3.0994
  43   0.0000       0.121885         3.3167
  44   0.0000       0.128045         3.4843

MULLIKEN ATOMIC CHARGES
-----------------------
   0 O :   -0.974295
   1 C :   -0.039119
   2 C :    0.506927
   3 H :    0.177101
   4 H :    0.316755
   5 C :    0.370760
   6 O :   -0.943366
   7 C :    0.425515
   8 H :    0.243376
   9 C :    0.504526
  10 O :   -1.131465
  11 O :   -0.793938
  12 O :   -1.025090
  13 H :    0.267993
  14 H :    0.340212
  15 H :    0.368390
  16 H :    0.352651
  17 H :    0.050965
  18 H :   -0.017896
Sum of atomic charges:   -1.0000000

LOEWDIN ATOMIC CHARGES
----------------------
   0 O :    1.272598
   1 C :    0.142614
   2 C :   -0.280206
   3 H :   -0.299666
   4 H :   -0.324896
   5 C :   -0.224769
   6 O :    1.346891
   7 C :   -0.605345
   8 H :   -0.314656
   9 C :   -0.361886
  10 O :    0.503729
  11 O :    0.819332
  12 O :    1.288115
  13 H :   -0.290791
  14 H :   -1.056161
  15 H :   -0.890700
  16 H :   -0.984342
  17 H :   -0.361621
  18 H :   -0.378241

  Mayer bond orders larger than 0.100000
B(  0-O ,  1-C ) :   0.5942 B(  0-O , 16-H ) :   0.8249 B(  1-C ,  2-C ) :   0.7875
B(  1-C ,  3-H ) :   1.0213 B(  1-C ,  4-H ) :   0.9175 B(  1-C , 12-O ) :   0.1511
B(  2-C ,  5-C ) :   0.7991 B(  2-C , 12-O ) :   0.2951 B(  2-C , 13-H ) :   0.9124
B(  5-C ,  6-O ) :   0.3978 B(  5-C ,  7-C ) :   0.8415 B(  5-C ,  8-H ) :   0.8799
B(  5-C , 11-O ) :   0.2886 B(  5-C , 12-O ) :   0.1402 B(  6-O , 15-H ) :   0.8719
B(  7-C ,  9-C ) :   0.9523 B(  7-C , 10-O ) :   0.2153 B(  7-C , 11-O ) :   1.0206
B(  9-C , 10-O ) :   0.8815 B(  9-C , 17-H ) :   1.0195 B(  9-C , 18-H ) :   0.9997
B( 11-O , 14-H ) :   0.1016 B( 12-O , 14-H ) :   0.8354

MP2 TOTAL ENERGY:     -571.320987329 Eh
FINAL SINGLE POINT ENERGY      -571.320987328660

DIPOLE MOMENT
-------------
                                X             Y             Z
Electronic contribution:      1.54523       2.42773      -0.13642
Nuclear contribution   :     -4.94285      -2.85503       0.80627
                        -----------------------------------------
Total Dipole Moment    :     -3.39762      -0.42729       0.66984
                        -----------------------------------------
Magnitude (a.u.)       :      3.48928
Magnitude (Debye)      :      8.86904

Rotational constants in cm-1:     0.079680     0.026399     0.020821
Rotational constants in MHz :  2388.749823   791.411008   624.203651

                             ****ORCA TERMINATED NORMALLY****
TOTAL RUN TIME: 0 days 0 hours 44 minutes 32 seconds 86 msec
