                         Program Version 4.2.1 -  RELEASE  -
|  1> %pal
|  2>  nprocs 32
|  3> end
|  4> !RI-MP2 aug-cc-pVQZ aug-cc-pVQZ/C TightSCF
|  5> %maxcore 4500
|  6> *xyzfile -1 1  09_24TS.xyz
|  7>
|  8>
|  9>                          ****END OF INPUT****

CARTESIAN COORDINATES (ANGSTROEM)
---------------------------------
  C     -2.851424    1.215091   -0.547034
  C     -3.693235   -0.012861   -0.168783
  C     -3.141136   -1.344137   -0.710859
  H     -4.712954    0.133249   -0.550266
  H     -3.784639   -0.076450    0.921683
  C     -1.783695   -1.659693   -0.143127
  H     -3.085932   -1.262273   -1.806676
  H     -3.857647   -2.149392   -0.493317
  C     -0.772776   -0.837563   -0.555322
  C     -1.770969   -2.384773    1.174049
  H     -2.309499   -1.850340    1.976674
  H     -0.754932   -2.554449    1.539408
  H     -2.254699   -3.368540    1.091991
  C      0.618205   -0.865397    0.024534
  C      1.627238   -0.120200   -0.854775
  H      0.961723   -1.901283    0.144053
  H      0.600479   -0.427946    1.026070
  C      2.963248    0.100735   -0.193288
  H      1.186197    0.844767   -1.117706
  H      1.766253   -0.678807   -1.785464
  C      4.027578   -0.626439   -0.535085
  C      5.418389   -0.561474    0.023224
  H      3.883499   -1.370246   -1.316817
  H      6.146036   -0.324976   -0.760912
  H      5.715896   -1.527001    0.446446
  H      5.525340    0.188444    0.806770
  C      2.972140    1.182075    0.852279
  H      2.784301    2.152935    0.383440
  H      3.908301    1.245120    1.406129
  H      2.160903    1.028416    1.567061
  C     -1.460753    1.331612    0.034225
  H     -3.446116    2.130201   -0.286883
  H     -2.777698    1.237061   -1.647850
  C     -1.463864    1.388392    1.533501
  H     -2.083542    2.232729    1.934340
  H     -0.453424    1.538372    1.934957
  H     -1.855416    0.473427    1.986686
  C     -0.787285    2.540078   -0.549804
  H     -1.373949    3.482706   -0.381207
  H     -0.660581    2.458511   -1.639141
  H      0.203778    2.717222   -0.114801
  H     -0.841659   -0.444140   -1.567076

 Total Charge           Charge          ....   -1
 Multiplicity           Mult            ....    1
 Number of Electrons    NEL             ....  118
 Basis Dimension        Dim             .... 2442

ORBITAL ENERGIES
----------------

  NO   OCC          E(Eh)            E(eV)
   0   2.0000     -11.133040      -302.9454
   1   2.0000     -11.127659      -302.7990
   2   2.0000     -11.116159      -302.4861
   3   2.0000     -11.115676      -302.4729
   4   2.0000     -11.096035      -301.9385
   5   2.0000     -11.084237      -301.6174
   6   2.0000     -11.083436      -301.5956
   7   2.0000     -11.072486      -301.2976
   8   2.0000     -11.066092      -301.1237
   9   2.0000     -11.063350      -301.0491
  10   2.0000     -11.051384      -300.7235
  11   2.0000     -11.050998      -300.7129
  12   2.0000     -11.047067      -300.6060
  13   2.0000     -11.025161      -300.0099
  14   2.0000     -10.992750      -299.1279
  15   2.0000      -1.002170       -27.2704
  16   2.0000      -0.954034       -25.9606
  17   2.0000      -0.916471       -24.9385
  18   2.0000      -0.894510       -24.3409
  19   2.0000      -0.874000       -23.7827
  20   2.0000      -0.841482       -22.8979
  21   2.0000      -0.807187       -21.9647
  22   2.0000      -0.769443       -20.9376
  23   2.0000      -0.760353       -20.6903
  24   2.0000      -0.755950       -20.5705
  25   2.0000      -0.698354       -19.0032
  26   2.0000      -0.644143       -17.5280
  27   2.0000      -0.604350       -16.4452
  28   2.0000      -0.567053       -15.4303
  29   2.0000      -0.546350       -14.8669
  30   2.0000      -0.533681       -14.5222
  31   2.0000      -0.505127       -13.7452
  32   2.0000      -0.486882       -13.2487
  33   2.0000      -0.472226       -12.8499
  34   2.0000      -0.470771       -12.8103
  35   2.0000      -0.460686       -12.5359
  36   2.0000      -0.456718       -12.4279
  37   2.0000      -0.441146       -12.0042
  38   2.0000      -0.437733       -11.9113
  39   2.0000      -0.426996       -11.6191
  40   2.0000      -0.418144       -11.3783
  41   2.0000      -0.409460       -11.1420
  42   2.0000      -0.400134       -10.8882
  43   2.0000      -0.394151       -10.7254
  44   2.0000      -0.387173       -10.5355
  45   2.0000      -0.381388       -10.3781
  46   2.0000      -0.373708       -10.1691
  47   2.0000      -0.363866        -9.9013
  48   2.0000      -0.349466        -9.5094
  49   2.0000      -0.346871        -9.4388
  50   2.0000      -0.339678        -9.2431
  51   2.0000      -0.325702        -8.8628
  52   2.0000      -0.316424        -8.6103
  53   2.0000      -0.298395        -8.1197
  54   2.0000      -0.282178        -7.6785
  55   2.0000      -0.270536        -7.3617
  56   2.0000      -0.233475        -6.3532
  57   2.0000      -0.183120        -4.9830
  58   2.0000      -0.027071        -0.7366
  59   0.0000       0.080917         2.2019
  60   0.0000       0.094287         2.5657
  61   0.0000       0.096147         2.6163
  62   0.0000       0.099311         2.7024
  63   0.0000       0.102154         2.7798

MULLIKEN ATOMIC CHARGES
-----------------------
   0 C :   -0.586705
   1 C :   -0.252620
   2 C :   -0.961151
   3 H :    0.164315
   4 H :    0.125714
   5 C :   -0.100434
   6 H :    0.092640
   7 H :    0.148181
   8 C :    0.340646
   9 C :   -1.157957
  10 H :    0.124460
  11 H :    0.202213
  12 H :    0.271689
  13 C :    0.036831
  14 C :   -0.556411
  15 H :    0.315412
  16 H :    0.361443
  17 C :    0.163250
  18 H :    0.558888
  19 H :    0.175744
  20 C :   -0.475730
  21 C :   -0.823622
  22 H :    0.161134
  23 H :    0.231460
  24 H :    0.216231
  25 H :    0.259302
  26 C :   -0.955053
  27 H :    0.176918
  28 H :    0.337490
  29 H :    0.227395
  30 C :    1.490985
  31 H :    0.095973
  32 H :    0.099330
  33 C :   -1.504687
  34 H :    0.082584
  35 H :    0.285482
  36 H :    0.287131
  37 C :   -1.544643
  38 H :    0.146491
  39 H :    0.149907
  40 H :    0.331574
  41 H :    0.258197
Sum of atomic charges:   -1.0000000

LOEWDIN ATOMIC CHARGES
----------------------
   0 C :    0.407765
   1 C :    0.505964
   2 C :    0.455316
   3 H :   -0.273826
   4 H :   -0.295486
   5 C :   -0.028848
   6 H :   -0.292338
   7 H :   -0.286965
   8 C :    0.283774
   9 C :    0.852902
  10 H :   -0.292227
  11 H :   -0.327014
  12 H :   -0.296301
  13 C :    0.496597
  14 C :    0.488339
  15 H :   -0.269261
  16 H :   -0.316977
  17 C :    0.003430
  18 H :   -0.330956
  19 H :   -0.284547
  20 C :    0.396283
  21 C :    0.887151
  22 H :   -0.337853
  23 H :   -0.295542
  24 H :   -0.294585
  25 H :   -0.343412
  26 C :    0.916238
  27 H :   -0.271441
  28 H :   -0.321727
  29 H :   -0.296320
  30 C :   -0.106327
  31 H :   -0.278679
  32 H :   -0.294835
  33 C :    0.805839
  34 H :   -0.275010
  35 H :   -0.310579
  36 H :   -0.332918
  37 C :    0.789697
  38 H :   -0.286798
  39 H :   -0.295191
  40 H :   -0.322770
  41 H :   -0.330561

  Mayer bond orders larger than 0.100000
B(  0-C ,  1-C ) :   0.6334 B(  0-C ,  3-H ) :  -0.1381 B(  0-C , 30-C ) :   0.1705
B(  0-C , 31-H ) :   1.0976 B(  0-C , 32-H ) :   1.2255 B(  0-C , 37-C ) :   0.1032
B(  1-C ,  2-C ) :   0.7367 B(  1-C ,  3-H ) :   1.0632 B(  1-C ,  4-H ) :   1.0600
B(  1-C , 30-C ) :  -0.1836 B(  2-C ,  5-C ) :   1.2850 B(  2-C ,  6-H ) :   1.2677
B(  2-C ,  7-H ) :   1.1724 B(  2-C ,  8-C ) :  -0.5035 B(  5-C ,  8-C ) :   0.9639
B(  5-C ,  9-C ) :   0.4525 B(  5-C , 11-H ) :  -0.1213 B(  5-C , 12-H ) :  -0.2183
B(  5-C , 13-C ) :  -0.5611 B(  5-C , 15-H ) :  -0.1876 B(  5-C , 41-H ) :  -0.2330
B(  8-C , 13-C ) :   0.9096 B(  8-C , 14-C ) :  -0.1202 B(  8-C , 41-H ) :   1.1691
B(  9-C , 10-H ) :   1.0860 B(  9-C , 11-H ) :   1.1321 B(  9-C , 12-H ) :   1.0710
B( 13-C , 14-C ) :   1.0799 B( 13-C , 15-H ) :   1.0516 B( 13-C , 16-H ) :   0.7767
B( 13-C , 17-C ) :  -0.1772 B( 13-C , 18-H ) :   0.1142 B( 13-C , 30-C ) :   0.1005
B( 14-C , 17-C ) :   0.7689 B( 14-C , 18-H ) :   0.5854 B( 14-C , 19-H ) :   1.0793
B( 14-C , 20-C ) :  -0.2286 B( 17-C , 20-C ) :   1.3591 B( 17-C , 21-C ) :  -0.1197
B( 17-C , 22-H ) :  -0.1143 B( 17-C , 26-C ) :   0.5449 B( 17-C , 28-H ) :  -0.1015
B( 20-C , 21-C ) :   0.7687 B( 20-C , 22-H ) :   1.1590 B( 20-C , 23-H ) :  -0.1618
B( 20-C , 24-H ) :  -0.1229 B( 21-C , 23-H ) :   1.0681 B( 21-C , 24-H ) :   1.0405
B( 21-C , 25-H ) :   0.9475 B( 26-C , 27-H ) :   1.0619 B( 26-C , 28-H ) :   0.9939
B( 26-C , 29-H ) :   1.0173 B( 27-H , 29-H ) :   0.1107 B( 30-C , 32-H ) :  -0.2136
B( 30-C , 33-C ) :   0.4510 B( 30-C , 35-H ) :  -0.1822 B( 30-C , 39-H ) :  -0.2917
B( 30-C , 40-H ) :  -0.2307 B( 33-C , 34-H ) :   1.2023 B( 33-C , 35-H ) :   1.0484
B( 33-C , 36-H ) :   0.9963 B( 33-C , 37-C ) :   0.1808 B( 37-C , 38-H ) :   1.2330
B( 37-C , 39-H ) :   1.2036 B( 37-C , 40-H ) :   0.9849

MP2 TOTAL ENERGY:     -586.633218316 Eh
FINAL SINGLE POINT ENERGY      -586.633218315551

DIPOLE MOMENT
-------------
                                X             Y             Z
Electronic contribution:      2.04831      -4.95831      -3.95382
Nuclear contribution   :      0.62517       4.16127       3.91785
                        -----------------------------------------
Total Dipole Moment    :      2.67348      -0.79704      -0.03597
                        -----------------------------------------
Magnitude (a.u.)       :      2.78999
Magnitude (Debye)      :      7.09160

Rotational constants in cm-1:     0.032489     0.009914     0.008595
Rotational constants in MHz :   973.991253   297.203330   257.670632

                             ****ORCA TERMINATED NORMALLY****
TOTAL RUN TIME: 0 days 7 hours 22 minutes 33 seconds 596 msec
