                         Program Version 4.2.1 -  RELEASE  -
|  1> %pal
|  2>  nprocs 32
|  3> end
|  4> !RI-MP2 aug-cc-pVQZ aug-cc-pVQZ/C TightSCF
|  5> %maxcore 4500
|  6> *xyzfile 0 1  10_49R.xyz
|  7>
|  8>
|  9>                          ****END OF INPUT****

CARTESIAN COORDINATES (ANGSTROEM)
---------------------------------
  C      0.003200    0.786020   -0.198775
  C     -0.003200    0.665662    1.314438
  C      0.003200   -0.665662    1.314438
  C     -0.003200   -0.786020   -0.198775
  C      1.175628   -1.482936   -0.855133
  H      1.163581   -2.556512   -0.649923
  H      1.156759   -1.351075   -1.940189
  H      2.120702   -1.081472   -0.480021
  C     -1.175628    1.482936   -0.855133
  H     -1.163581    2.556512   -0.649923
  H     -1.156759    1.351075   -1.940189
  H     -2.120702    1.081472   -0.480021
  H      0.016104   -1.411647    2.100740
  H     -0.016104    1.411647    2.100740
  H      0.944916    1.181645   -0.593788
  H     -0.944916   -1.181645   -0.593788

 Total Charge           Charge          ....    0
 Multiplicity           Mult            ....    1
 Number of Electrons    NEL             ....   46
 Basis Dimension        Dim             ....  940

ORBITAL ENERGIES
----------------

  NO   OCC          E(Eh)            E(eV)
   0   2.0000     -11.226355      -305.4846
   1   2.0000     -11.225841      -305.4707
   2   2.0000     -11.221484      -305.3521
   3   2.0000     -11.219754      -305.3050
   4   2.0000     -11.209943      -305.0380
   5   2.0000     -11.209941      -305.0380
   6   2.0000      -1.156251       -31.4632
   7   2.0000      -0.989290       -26.9200
   8   2.0000      -0.975670       -26.5493
   9   2.0000      -0.831854       -22.6359
  10   2.0000      -0.823210       -22.4007
  11   2.0000      -0.700271       -19.0553
  12   2.0000      -0.661366       -17.9967
  13   2.0000      -0.606752       -16.5106
  14   2.0000      -0.592494       -16.1226
  15   2.0000      -0.563223       -15.3261
  16   2.0000      -0.550975       -14.9928
  17   2.0000      -0.519478       -14.1357
  18   2.0000      -0.497564       -13.5394
  19   2.0000      -0.479516       -13.0483
  20   2.0000      -0.432824       -11.7777
  21   2.0000      -0.427429       -11.6309
  22   2.0000      -0.349730        -9.5166
  23   0.0000       0.027506         0.7485
  24   0.0000       0.030554         0.8314
  25   0.0000       0.031980         0.8702
  26   0.0000       0.035417         0.9637
  27   0.0000       0.045549         1.2394

MULLIKEN ATOMIC CHARGES
-----------------------
   0 C :    0.080792
   1 C :   -0.606431
   2 C :   -0.606431
   3 C :    0.080792
   4 C :   -0.962097
   5 H :    0.273342
   6 H :    0.237765
   7 H :    0.209159
   8 C :   -0.962097
   9 H :    0.273342
  10 H :    0.237765
  11 H :    0.209159
  12 H :    0.425281
  13 H :    0.425281
  14 H :    0.342190
  15 H :    0.342190
Sum of atomic charges:   -0.0000000

LOEWDIN ATOMIC CHARGES
----------------------
   0 C :    0.061733
   1 C :    0.413359
   2 C :    0.413359
   3 C :    0.061733
   4 C :    0.928933
   5 H :   -0.280532
   6 H :   -0.277479
   7 H :   -0.287822
   8 C :    0.928933
   9 H :   -0.280532
  10 H :   -0.277479
  11 H :   -0.287822
  12 H :   -0.284193
  13 H :   -0.284193
  14 H :   -0.273998
  15 H :   -0.273998

  Mayer bond orders larger than 0.100000
B(  0-C ,  1-C ) :   0.9844 B(  0-C ,  2-C ) :  -0.2127 B(  0-C ,  3-C ) :   0.7454
B(  0-C ,  8-C ) :   0.7233 B(  0-C , 14-H ) :   0.7901 B(  1-C ,  2-C ) :   1.8355
B(  1-C ,  3-C ) :  -0.2127 B(  1-C , 13-H ) :   0.8533 B(  2-C ,  3-C ) :   0.9844
B(  2-C , 12-H ) :   0.8533 B(  3-C ,  4-C ) :   0.7233 B(  3-C , 15-H ) :   0.7901
B(  4-C ,  5-H ) :   0.9996 B(  4-C ,  6-H ) :   0.9947 B(  4-C ,  7-H ) :   0.9826
B(  8-C ,  9-H ) :   0.9996 B(  8-C , 10-H ) :   0.9947 B(  8-C , 11-H ) :   0.9826

MP2 TOTAL ENERGY:     -234.147968853 Eh
FINAL SINGLE POINT ENERGY      -234.147968853140

DIPOLE MOMENT
-------------
                                X             Y             Z
Electronic contribution:     -0.00000       0.00000       3.22014
Nuclear contribution   :      0.00000       0.00000      -3.28793
                        -----------------------------------------
Total Dipole Moment    :     -0.00000       0.00000      -0.06779
                        -----------------------------------------
Magnitude (a.u.)       :      0.06779
Magnitude (Debye)      :      0.17232

Rotational constants in cm-1:     0.176936     0.109569     0.078259
Rotational constants in MHz :  5304.410524  3284.789781  2346.152533

                             ****ORCA TERMINATED NORMALLY****
TOTAL RUN TIME: 0 days 0 hours 19 minutes 18 seconds 420 msec
