                         Program Version 4.2.1 -  RELEASE  -
|  1> %pal
|  2>  nprocs 32
|  3> end
|  4> !RI-MP2 aug-cc-pVQZ aug-cc-pVQZ/C TightSCF
|  5> %maxcore 4500
|  6> *xyzfile 1 1  05_19P1.xyz
|  7>
|  8>
|  9>                          ****END OF INPUT****

CARTESIAN COORDINATES (ANGSTROEM)
---------------------------------
  C      4.366697   -0.670126    0.015299
  C      3.162762   -0.000000    0.003858
  C      4.366697    0.670126    0.015304
  H      4.922139   -1.595785    0.020594
  H      4.922139    1.595785    0.020606
  C      1.748011    0.000000   -0.008684
  C      1.053614    1.219304   -0.015922
  C      1.053614   -1.219304   -0.015921
  C     -0.325026    1.215237   -0.028693
  H      1.596158    2.156465   -0.013295
  C     -0.325026   -1.215237   -0.028691
  H      1.596158   -2.156465   -0.013294
  C     -1.003412    0.000000   -0.034377
  H     -0.878374    2.144611   -0.041459
  H     -0.878375   -2.144611   -0.041455
  C     -2.516644    0.000000    0.001920
  F     -2.942703   -0.000005    1.271397
  F     -3.015736    1.082030   -0.599930
  F     -3.015736   -1.082025   -0.599939

 Total Charge           Charge          ....    1
 Multiplicity           Mult            ....    1
 Number of Electrons    NEL             ....   92
 Basis Dimension        Dim             .... 1316

ORBITAL ENERGIES
----------------

  NO   OCC          E(Eh)            E(eV)
   0   2.0000     -26.445582      -719.6209
   1   2.0000     -26.445562      -719.6203
   2   2.0000     -26.442052      -719.5248
   3   2.0000     -11.625965      -316.3586
   4   2.0000     -11.527291      -313.6735
   5   2.0000     -11.516035      -313.3673
   6   2.0000     -11.514446      -313.3240
   7   2.0000     -11.433111      -311.1108
   8   2.0000     -11.426446      -310.9294
   9   2.0000     -11.423749      -310.8560
  10   2.0000     -11.423659      -310.8536
  11   2.0000     -11.400814      -310.2319
  12   2.0000     -11.400773      -310.2308
  13   2.0000      -1.840620       -50.0858
  14   2.0000      -1.746136       -47.5148
  15   2.0000      -1.742171       -47.4069
  16   2.0000      -1.471746       -40.0482
  17   2.0000      -1.344208       -36.5778
  18   2.0000      -1.240987       -33.7690
  19   2.0000      -1.199102       -32.6292
  20   2.0000      -1.118902       -30.4469
  21   2.0000      -1.037810       -28.2402
  22   2.0000      -1.034530       -28.1510
  23   2.0000      -1.005954       -27.3734
  24   2.0000      -0.980224       -26.6733
  25   2.0000      -0.933442       -25.4003
  26   2.0000      -0.931517       -25.3479
  27   2.0000      -0.931303       -25.3421
  28   2.0000      -0.920086       -25.0368
  29   2.0000      -0.831657       -22.6305
  30   2.0000      -0.820994       -22.3404
  31   2.0000      -0.806655       -21.9502
  32   2.0000      -0.801791       -21.8178
  33   2.0000      -0.786403       -21.3991
  34   2.0000      -0.778611       -21.1871
  35   2.0000      -0.772539       -21.0219
  36   2.0000      -0.760173       -20.6854
  37   2.0000      -0.755745       -20.5649
  38   2.0000      -0.751139       -20.4395
  39   2.0000      -0.730087       -19.8667
  40   2.0000      -0.725600       -19.7446
  41   2.0000      -0.672470       -18.2988
  42   2.0000      -0.670637       -18.2490
  43   2.0000      -0.666991       -18.1498
  44   2.0000      -0.524573       -14.2743
  45   2.0000      -0.510852       -13.9010
  46   0.0000      -0.130199        -3.5429
  47   0.0000      -0.095723        -2.6048
  48   0.0000      -0.086724        -2.3599
  49   0.0000      -0.073924        -2.0116
  50   0.0000      -0.064268        -1.7488

MULLIKEN ATOMIC CHARGES
-----------------------
   0 C :   -0.523909
   1 C :   -0.148104
   2 C :   -0.523896
   3 H :    0.579899
   4 H :    0.579822
   5 C :    0.787308
   6 C :   -0.188398
   7 C :   -0.188603
   8 C :   -0.159155
   9 H :    0.345777
  10 C :   -0.159472
  11 H :    0.345989
  12 C :   -0.663433
  13 H :    0.303837
  14 H :    0.303774
  15 C :    2.279260
  16 F :   -0.623627
  17 F :   -0.673530
  18 F :   -0.673541
Sum of atomic charges:    1.0000000

LOEWDIN ATOMIC CHARGES
----------------------
   0 C :    0.575482
   1 C :    0.020138
   2 C :    0.575482
   3 H :   -0.237092
   4 H :   -0.237092
   5 C :   -0.073646
   6 C :    0.379228
   7 C :    0.379228
   8 C :    0.374412
   9 H :   -0.289056
  10 C :    0.374412
  11 H :   -0.289056
  12 C :   -0.171588
  13 H :   -0.314221
  14 H :   -0.314220
  15 C :   -2.137185
  16 F :    0.785315
  17 F :    0.799729
  18 F :    0.799729

  Mayer bond orders larger than 0.100000
B(  0-C ,  1-C ) :   1.3453 B(  0-C ,  2-C ) :   1.6118 B(  0-C ,  3-H ) :   0.6620
B(  0-C ,  5-C ) :  -0.4023 B(  1-C ,  2-C ) :   1.3452 B(  1-C ,  5-C ) :   0.6854
B(  1-C ,  6-C ) :  -0.3578 B(  1-C ,  7-C ) :  -0.3573 B(  2-C ,  4-H ) :   0.6621
B(  2-C ,  5-C ) :  -0.4023 B(  5-C ,  6-C ) :   0.8200 B(  5-C ,  7-C ) :   0.8196
B(  5-C ,  8-C ) :  -0.2961 B(  5-C ,  9-H ) :  -0.1157 B(  5-C , 10-C ) :  -0.2961
B(  5-C , 11-H ) :  -0.1156 B(  5-C , 12-C ) :  -0.1284 B(  6-C ,  8-C ) :   1.3282
B(  6-C ,  9-H ) :   0.9601 B(  6-C , 10-C ) :   0.1119 B(  7-C ,  8-C ) :   0.1119
B(  7-C , 10-C ) :   1.3284 B(  7-C , 11-H ) :   0.9598 B(  8-C ,  9-H ) :  -0.1141
B(  8-C , 12-C ) :   0.9736 B(  8-C , 13-H ) :   0.9931 B(  8-C , 15-C ) :  -0.2312
B( 10-C , 11-H ) :  -0.1141 B( 10-C , 12-C ) :   0.9738 B( 10-C , 14-H ) :   0.9932
B( 10-C , 15-C ) :  -0.2312 B( 12-C , 13-H ) :  -0.1174 B( 12-C , 14-H ) :  -0.1173
B( 12-C , 15-C ) :   1.1734 B( 12-C , 17-F ) :   0.1209 B( 12-C , 18-F ) :   0.1207
B( 15-C , 16-F ) :   0.3255 B( 15-C , 17-F ) :   0.2801 B( 15-C , 18-F ) :   0.2801

MP2 TOTAL ENERGY:     -682.923159199 Eh
FINAL SINGLE POINT ENERGY      -682.923159198739

DIPOLE MOMENT
-------------
                                X             Y             Z
Electronic contribution:    -12.76205       0.00000       0.10384
Nuclear contribution   :     19.20881       0.00000      -0.13250
                        -----------------------------------------
Total Dipole Moment    :      6.44675       0.00000      -0.02866
                        -----------------------------------------
Magnitude (a.u.)       :      6.44682
Magnitude (Debye)      :     16.38650

Rotational constants in cm-1:     0.086592     0.012579     0.011659
Rotational constants in MHz :  2595.959229   377.113611   349.518110

                             ****ORCA TERMINATED NORMALLY****
TOTAL RUN TIME: 0 days 0 hours 58 minutes 24 seconds 21 msec
