                         Program Version 4.2.1 -  RELEASE  -
|  1> %pal
|  2>  nprocs 32
|  3> end
|  4> !RI-MP2 aug-cc-pVQZ aug-cc-pVQZ/C TightSCF
|  5> %maxcore 4500
|  6> *xyzfile 0 1  10_49P.xyz
|  7>
|  8>
|  9>                          ****END OF INPUT****

CARTESIAN COORDINATES (ANGSTROEM)
---------------------------------
  C     -1.792588   -0.430864   -0.000057
  C     -0.669467    0.285521    0.000016
  C      0.669467   -0.285521   -0.000018
  C      1.792588    0.430864    0.000055
  C      3.174358   -0.138459    0.000030
  H      3.155360   -1.229770   -0.000081
  H      3.737333    0.192201   -0.878020
  H      3.737292    0.192023    0.878173
  C     -3.174358    0.138459   -0.000027
  H     -3.155360    1.229770    0.000052
  H     -3.737307   -0.192048   -0.878151
  H     -3.737319   -0.192175    0.878042
  H      1.715297    1.516568    0.000144
  H      0.734001   -1.372124   -0.000107
  H     -0.734001    1.372124    0.000105
  H     -1.715297   -1.516568   -0.000148

 Total Charge           Charge          ....    0
 Multiplicity           Mult            ....    1
 Number of Electrons    NEL             ....   46
 Basis Dimension        Dim             ....  940

ORBITAL ENERGIES
----------------

  NO   OCC          E(Eh)            E(eV)
   0   2.0000     -11.226447      -305.4872
   1   2.0000     -11.226420      -305.4864
   2   2.0000     -11.222501      -305.3798
   3   2.0000     -11.221682      -305.3575
   4   2.0000     -11.219011      -305.2848
   5   2.0000     -11.219011      -305.2848
   6   2.0000      -1.099405       -29.9163
   7   2.0000      -1.048391       -28.5282
   8   2.0000      -0.966947       -26.3120
   9   2.0000      -0.895684       -24.3728
  10   2.0000      -0.762861       -20.7585
  11   2.0000      -0.749570       -20.3968
  12   2.0000      -0.646505       -17.5923
  13   2.0000      -0.611970       -16.6526
  14   2.0000      -0.567494       -15.4423
  15   2.0000      -0.564290       -15.3551
  16   2.0000      -0.557188       -15.1618
  17   2.0000      -0.548307       -14.9202
  18   2.0000      -0.513559       -13.9746
  19   2.0000      -0.502008       -13.6603
  20   2.0000      -0.479942       -13.0599
  21   2.0000      -0.425107       -11.5677
  22   2.0000      -0.302069        -8.2197
  23   0.0000       0.026503         0.7212
  24   0.0000       0.028323         0.7707
  25   0.0000       0.031130         0.8471
  26   0.0000       0.041277         1.1232
  27   0.0000       0.044652         1.2150

MULLIKEN ATOMIC CHARGES
-----------------------
   0 C :   -0.360592
   1 C :   -0.431942
   2 C :   -0.431936
   3 C :   -0.360616
   4 C :   -0.706450
   5 H :    0.238005
   6 H :    0.225420
   7 H :    0.225426
   8 C :   -0.706467
   9 H :    0.238007
  10 H :    0.225420
  11 H :    0.225419
  12 H :    0.405279
  13 H :    0.404871
  14 H :    0.404868
  15 H :    0.405289
Sum of atomic charges:    0.0000000

LOEWDIN ATOMIC CHARGES
----------------------
   0 C :    0.367590
   1 C :    0.332257
   2 C :    0.332257
   3 C :    0.367590
   4 C :    0.884045
   5 H :   -0.316746
   6 H :   -0.296065
   7 H :   -0.296065
   8 C :    0.884044
   9 H :   -0.316746
  10 H :   -0.296065
  11 H :   -0.296065
  12 H :   -0.327930
  13 H :   -0.347086
  14 H :   -0.347086
  15 H :   -0.327930

  Mayer bond orders larger than 0.100000
B(  0-C ,  1-C ) :   1.6073 B(  0-C ,  2-C ) :  -0.3630 B(  0-C ,  8-C ) :   0.9567
B(  0-C , 15-H ) :   0.7717 B(  1-C ,  2-C ) :   1.0557 B(  1-C ,  3-C ) :  -0.3630
B(  1-C ,  8-C ) :  -0.2005 B(  1-C , 14-H ) :   0.7825 B(  2-C ,  3-C ) :   1.6073
B(  2-C ,  4-C ) :  -0.2005 B(  2-C , 13-H ) :   0.7825 B(  3-C ,  4-C ) :   0.9567
B(  3-C , 12-H ) :   0.7717 B(  4-C ,  5-H ) :   0.9593 B(  4-C ,  6-H ) :   0.9933
B(  4-C ,  7-H ) :   0.9933 B(  8-C ,  9-H ) :   0.9593 B(  8-C , 10-H ) :   0.9933
B(  8-C , 11-H ) :   0.9933

MP2 TOTAL ENERGY:     -234.164576279 Eh
FINAL SINGLE POINT ENERGY      -234.164576278947

DIPOLE MOMENT
-------------
                                X             Y             Z
Electronic contribution:      0.00000      -0.00000      -0.00001
Nuclear contribution   :     -0.00000       0.00000       0.00001
                        -----------------------------------------
Total Dipole Moment    :      0.00000       0.00000       0.00000
                        -----------------------------------------
Magnitude (a.u.)       :      0.00000
Magnitude (Debye)      :      0.00000

Rotational constants in cm-1:     0.780084     0.040471     0.039028
Rotational constants in MHz : 23386.321641  1213.281066  1170.044722

                             ****ORCA TERMINATED NORMALLY****
TOTAL RUN TIME: 0 days 0 hours 15 minutes 13 seconds 127 msec
