                         Program Version 4.2.1 -  RELEASE  -
|  1> %pal
|  2>  nprocs 32
|  3> end
|  4> !RI-MP2 aug-cc-pVQZ aug-cc-pVQZ/C TightSCF
|  5> %maxcore 4500
|  6> *xyzfile 0 2  01_9P.xyz
|  7>
|  8>
|  9>                          ****END OF INPUT****

CARTESIAN COORDINATES (ANGSTROEM)
---------------------------------
  C     -1.810488   -1.335143   -0.717672
  S     -2.107723    0.330296   -0.066328
  C     -0.637162    0.532269    1.018802
  C      0.618848    0.662145    0.245453
  C      1.473904   -0.501144    0.158030
  O      2.610355   -0.296823   -0.553455
  C      0.949667    1.950297   -0.415336
  O      1.231166   -1.580537    0.662142
  H     -2.708313   -1.613650   -1.268293
  H     -0.959087   -1.358377   -1.395456
  H     -1.650379   -2.043617    0.093322
  H      1.297428    2.678734    0.328737
  H      0.056219    2.372724   -0.882240
  H      1.730648    1.839755   -1.163761
  H      3.096879   -1.131495   -0.541340
  H     -0.844170    1.447776    1.576536
  H     -0.596440   -0.308249    1.708587

 Total Charge           Charge          ....    0
 Multiplicity           Mult            ....    2
 Number of Electrons    NEL             ....   71
 Basis Dimension        Dim             .... 1058

ORBITAL ENERGIES
----------------
                 SPIN UP ORBITALS
  NO   OCC          E(Eh)            E(eV)
   0   1.0000     -91.948119     -2502.0355
   1   1.0000     -20.607817      -560.7672
   2   1.0000     -20.558491      -559.4250
   3   1.0000     -11.378616      -309.6279
   4   1.0000     -11.276283      -306.8433
   5   1.0000     -11.263664      -306.4999
   6   1.0000     -11.247508      -306.0602
   7   1.0000     -11.231904      -305.6357
   8   1.0000      -8.949754      -243.5352
   9   1.0000      -6.632540      -180.4806
  10   1.0000      -6.630313      -180.4200
  11   1.0000      -6.629206      -180.3899
  12   1.0000      -1.468162       -39.9507
  13   1.0000      -1.369821       -37.2747
  14   1.0000      -1.133456       -30.8429
  15   1.0000      -1.042199       -28.3597
  16   1.0000      -0.956829       -26.0366
  17   1.0000      -0.922560       -25.1041
  18   1.0000      -0.830440       -22.5974
  19   1.0000      -0.763335       -20.7714
  20   1.0000      -0.713815       -19.4239
  21   1.0000      -0.689960       -18.7748
  22   1.0000      -0.663437       -18.0530
  23   1.0000      -0.616016       -16.7626
  24   1.0000      -0.607441       -16.5293
  25   1.0000      -0.589891       -16.0517
  26   1.0000      -0.583192       -15.8695
  27   1.0000      -0.582289       -15.8449
  28   1.0000      -0.562312       -15.3013
  29   1.0000      -0.532687       -14.4952
  30   1.0000      -0.520327       -14.1588
  31   1.0000      -0.502279       -13.6677
  32   1.0000      -0.470748       -12.8097
  33   1.0000      -0.447853       -12.1867
  34   1.0000      -0.362176        -9.8553
  35   1.0000      -0.341906        -9.3037
  36   0.0000       0.024260         0.6602
  37   0.0000       0.029282         0.7968
  38   0.0000       0.033444         0.9101
  39   0.0000       0.035601         0.9688
  40   0.0000       0.047046         1.2802

                 SPIN DOWN ORBITALS
  NO   OCC          E(Eh)            E(eV)
   0   1.0000     -91.947116     -2502.0082
   1   1.0000     -20.608176      -560.7770
   2   1.0000     -20.546227      -559.0913
   3   1.0000     -11.384094      -309.7769
   4   1.0000     -11.267074      -306.5927
   5   1.0000     -11.255436      -306.2760
   6   1.0000     -11.247586      -306.0624
   7   1.0000     -11.234513      -305.7066
   8   1.0000      -8.948605      -243.5039
   9   1.0000      -6.630050      -180.4128
  10   1.0000      -6.628748      -180.3774
  11   1.0000      -6.627801      -180.3516
  12   1.0000      -1.462145       -39.7870
  13   1.0000      -1.350395       -36.7461
  14   1.0000      -1.099856       -29.9286
  15   1.0000      -1.029441       -28.0125
  16   1.0000      -0.957137       -26.0450
  17   1.0000      -0.910399       -24.7732
  18   1.0000      -0.823327       -22.4039
  19   1.0000      -0.750793       -20.4301
  20   1.0000      -0.706134       -19.2149
  21   1.0000      -0.677673       -18.4404
  22   1.0000      -0.630737       -17.1632
  23   1.0000      -0.612668       -16.6715
  24   1.0000      -0.598049       -16.2737
  25   1.0000      -0.583503       -15.8779
  26   1.0000      -0.581197       -15.8152
  27   1.0000      -0.566356       -15.4113
  28   1.0000      -0.557562       -15.1720
  29   1.0000      -0.528967       -14.3939
  30   1.0000      -0.494890       -13.4666
  31   1.0000      -0.458698       -12.4818
  32   1.0000      -0.456867       -12.4320
  33   1.0000      -0.435545       -11.8518
  34   1.0000      -0.342527        -9.3206
  35   0.0000       0.024279         0.6607
  36   0.0000       0.029231         0.7954
  37   0.0000       0.033113         0.9010
  38   0.0000       0.035600         0.9687
  39   0.0000       0.046981         1.2784

MULLIKEN ATOMIC CHARGES AND SPIN POPULATIONS
--------------------------------------------
   0 C :   -1.001765   -0.004114
   1 S :   -0.038889    0.101315
   2 C :   -0.411079   -0.180082
   3 C :   -0.170774    1.030165
   4 C :    1.432599   -0.234468
   5 O :   -0.754575   -0.004145
   6 C :   -0.852990   -0.131475
   7 O :   -0.825553    0.280853
   8 H :    0.421719   -0.000752
   9 H :    0.281605    0.002398
  10 H :    0.276532    0.000173
  11 H :    0.287088    0.058826
  12 H :    0.233137    0.033590
  13 H :    0.283010    0.007293
  14 H :    0.306631   -0.002371
  15 H :    0.324556    0.032173
  16 H :    0.208748    0.010622
Sum of atomic charges         :    0.0000000

LOEWDIN ATOMIC CHARGES AND SPIN POPULATIONS
-------------------------------------------
   0 C :    0.548225    0.010767
   1 S :    1.324348    0.053388
   2 C :    0.119350    0.092792
   3 C :   -0.163396    0.381167
   4 C :   -1.051451    0.114383
   5 O :    1.247652   -0.008670
   6 C :    0.881793    0.113360
   7 O :    0.725068    0.187077
   8 H :   -0.389911    0.002356
   9 H :   -0.372416    0.001104
  10 H :   -0.369927   -0.000150
  11 H :   -0.273934    0.024957
  12 H :   -0.305496    0.013599
  13 H :   -0.326751    0.006923
  14 H :   -0.814891   -0.004398
  15 H :   -0.377484    0.009065
  16 H :   -0.400781    0.002282

  Mayer bond orders larger than 0.100000
B(  0-C ,  1-S ) :   1.0337 B(  0-C ,  8-H ) :   0.8311 B(  0-C ,  9-H ) :   0.9115
B(  0-C , 10-H ) :   0.9181 B(  1-S ,  2-C ) :   0.9214 B(  2-C ,  3-C ) :   0.7334
B(  2-C , 15-H ) :   0.9051 B(  2-C , 16-H ) :   0.9428 B(  3-C ,  4-C ) :   1.3377
B(  3-C ,  5-O ) :   0.1922 B(  3-C ,  6-C ) :   0.6559 B(  3-C ,  7-O ) :   0.3035
B(  4-C ,  5-O ) :   0.5596 B(  4-C ,  7-O ) :   1.1174 B(  5-O ,  7-O ) :   0.1279
B(  5-O , 14-H ) :   0.9570 B(  6-C , 11-H ) :   0.9333 B(  6-C , 12-H ) :   1.0177
B(  6-C , 13-H ) :   1.0015

MP2 TOTAL ENERGY:     -743.578075302 Eh
FINAL SINGLE POINT ENERGY      -743.578075301530

DIPOLE MOMENT
-------------
                                X             Y             Z
Electronic contribution:      0.96109      -1.55053       1.34207
Nuclear contribution   :     -0.45216       1.84600      -1.54198
                        -----------------------------------------
Total Dipole Moment    :      0.50894       0.29547      -0.19990
                        -----------------------------------------
Magnitude (a.u.)       :      0.62151
Magnitude (Debye)      :      1.57976

Rotational constants in cm-1:     0.085575     0.038857     0.031206
Rotational constants in MHz :  2565.480227  1164.898872   935.527032

                             ****ORCA TERMINATED NORMALLY****
TOTAL RUN TIME: 0 days 0 hours 55 minutes 51 seconds 362 msec
