                         Program Version 4.2.1 -  RELEASE  -
|  1> %pal
|  2>  nprocs 32
|  3> end
|  4> !RI-MP2 aug-cc-pVQZ aug-cc-pVQZ/C TightSCF
|  5> %maxcore 4500
|  6> *xyzfile 1 1  05_9P.xyz
|  7>
|  8>
|  9>                          ****END OF INPUT****

CARTESIAN COORDINATES (ANGSTROEM)
---------------------------------
  C     -1.521243   -1.546057   -0.088705
  C     -0.688997   -1.273574    1.184288
  C      0.704158   -0.705729    1.118710
  C      1.829063   -1.242082    0.294210
  C      2.838107   -0.162766   -0.022216
  C      2.437762    1.102830    0.046343
  C      1.062796    1.489822    0.418452
  C      0.181230    2.138853   -0.627297
  C     -1.287935    2.078601   -0.256850
  C     -1.998537    0.966236   -0.437934
  C     -1.515824   -0.323375   -1.037282
  H     -0.515205   -0.207860   -1.464131
  C     -2.948760   -1.843850    0.389684
  H     -3.607274   -2.019243   -0.462834
  H     -3.366386   -1.024440    0.976904
  H     -2.969371   -2.741493    1.011922
  C     -1.022917   -2.771800   -0.863766
  H     -0.909609   -3.637543   -0.207362
  H     -0.073713   -2.602575   -1.372966
  H     -1.747287   -3.040225   -1.634761
  C      4.201992   -0.595429   -0.448968
  H      4.821183    0.252673   -0.736816
  H      4.140363   -1.281925   -1.297640
  H      4.706022   -1.130536    0.360071
  H      1.489965   -1.717375   -0.624990
  H      2.307643   -2.025079    0.894835
  H      3.098266    1.917099   -0.236643
  H      0.438177    0.427167    0.579066
  H      0.939802    1.928616    1.410131
  H     -2.162441   -0.575545   -1.883633
  H     -3.045402    0.992637   -0.151138
  C     -1.872453    3.329373    0.330047
  H     -1.312782    3.657364    1.212046
  H     -2.911771    3.186402    0.623308
  H     -1.832119    4.149981   -0.392015
  H      0.513149    3.182294   -0.684691
  H      0.382444    1.694232   -1.602008
  H      1.047372   -0.384182    2.100683
  H     -0.558044   -2.216579    1.735700
  H     -1.263618   -0.630179    1.854663

 Total Charge           Charge          ....    1
 Multiplicity           Mult            ....    1
 Number of Electrons    NEL             ....  114
 Basis Dimension        Dim             .... 2350

ORBITAL ENERGIES
----------------

  NO   OCC          E(Eh)            E(eV)
   0   2.0000     -11.481000      -312.4139
   1   2.0000     -11.469717      -312.1069
   2   2.0000     -11.398998      -310.1825
   3   2.0000     -11.396195      -310.1062
   4   2.0000     -11.383935      -309.7726
   5   2.0000     -11.382722      -309.7396
   6   2.0000     -11.378911      -309.6359
   7   2.0000     -11.371789      -309.4421
   8   2.0000     -11.363050      -309.2043
   9   2.0000     -11.351049      -308.8777
  10   2.0000     -11.350513      -308.8632
  11   2.0000     -11.346391      -308.7510
  12   2.0000     -11.333491      -308.4000
  13   2.0000     -11.331909      -308.3569
  14   2.0000     -11.326507      -308.2099
  15   2.0000      -1.324538       -36.0425
  16   2.0000      -1.258913       -34.2568
  17   2.0000      -1.251679       -34.0599
  18   2.0000      -1.194685       -32.5090
  19   2.0000      -1.180292       -32.1174
  20   2.0000      -1.108697       -30.1692
  21   2.0000      -1.096830       -29.8463
  22   2.0000      -1.080855       -29.4116
  23   2.0000      -1.052308       -28.6348
  24   2.0000      -1.020551       -27.7706
  25   2.0000      -1.006357       -27.3844
  26   2.0000      -0.956794       -26.0357
  27   2.0000      -0.900525       -24.5045
  28   2.0000      -0.872113       -23.7314
  29   2.0000      -0.841814       -22.9069
  30   2.0000      -0.839030       -22.8312
  31   2.0000      -0.802626       -21.8406
  32   2.0000      -0.778422       -21.1819
  33   2.0000      -0.769233       -20.9319
  34   2.0000      -0.763607       -20.7788
  35   2.0000      -0.740849       -20.1595
  36   2.0000      -0.729825       -19.8595
  37   2.0000      -0.724215       -19.7069
  38   2.0000      -0.717277       -19.5181
  39   2.0000      -0.703429       -19.1413
  40   2.0000      -0.698975       -19.0201
  41   2.0000      -0.687847       -18.7173
  42   2.0000      -0.682322       -18.5669
  43   2.0000      -0.673452       -18.3256
  44   2.0000      -0.666442       -18.1348
  45   2.0000      -0.663545       -18.0560
  46   2.0000      -0.649023       -17.6608
  47   2.0000      -0.641418       -17.4539
  48   2.0000      -0.635497       -17.2928
  49   2.0000      -0.633581       -17.2406
  50   2.0000      -0.628520       -17.1029
  51   2.0000      -0.606510       -16.5040
  52   2.0000      -0.594642       -16.1810
  53   2.0000      -0.584870       -15.9151
  54   2.0000      -0.576244       -15.6804
  55   2.0000      -0.505078       -13.7439
  56   2.0000      -0.468947       -12.7607
  57   0.0000      -0.086398        -2.3510
  58   0.0000      -0.071055        -1.9335
  59   0.0000      -0.058462        -1.5908
  60   0.0000      -0.056087        -1.5262
  61   0.0000      -0.051519        -1.4019

MULLIKEN ATOMIC CHARGES
-----------------------
   0 C :    1.618575
   1 C :   -0.385874
   2 C :   -0.087948
   3 C :   -0.303968
   4 C :    0.154081
   5 C :   -0.613241
   6 C :   -0.011091
   7 C :   -0.216562
   8 C :   -0.062722
   9 C :   -0.110686
  10 C :   -0.301704
  11 H :    0.283667
  12 C :   -1.202080
  13 H :    0.186716
  14 H :    0.224945
  15 H :    0.225100
  16 C :   -1.334099
  17 H :    0.148729
  18 H :    0.232182
  19 H :    0.176663
  20 C :   -0.948746
  21 H :    0.208828
  22 H :    0.210260
  23 H :    0.243782
  24 H :    0.329904
  25 H :    0.294906
  26 H :    0.239988
  27 H :    0.401527
  28 H :    0.387758
  29 H :    0.256086
  30 H :    0.054664
  31 C :   -0.995515
  32 H :    0.180680
  33 H :    0.192043
  34 H :    0.262072
  35 H :    0.160422
  36 H :    0.247694
  37 H :    0.340657
  38 H :    0.091720
  39 H :    0.220587
Sum of atomic charges:    1.0000000

LOEWDIN ATOMIC CHARGES
----------------------
   0 C :   -0.217974
   1 C :    0.621752
   2 C :    0.551073
   3 C :    0.604877
   4 C :    0.047627
   5 C :    0.489768
   6 C :    0.506336
   7 C :    0.585760
   8 C :    0.036359
   9 C :    0.440736
  10 C :    0.524421
  11 H :   -0.315072
  12 C :    0.933385
  13 H :   -0.252804
  14 H :   -0.273183
  15 H :   -0.249051
  16 C :    0.947946
  17 H :   -0.248205
  18 H :   -0.292054
  19 H :   -0.254940
  20 C :    0.953486
  21 H :   -0.287648
  22 H :   -0.266414
  23 H :   -0.267389
  24 H :   -0.290221
  25 H :   -0.230611
  26 H :   -0.276373
  27 H :   -0.688400
  28 H :   -0.178433
  29 H :   -0.252224
  30 H :   -0.308036
  31 C :    0.933114
  32 H :   -0.271528
  33 H :   -0.293084
  34 H :   -0.268144
  35 H :   -0.251472
  36 H :   -0.263461
  37 H :   -0.187381
  38 H :   -0.236140
  39 H :   -0.256401

  Mayer bond orders larger than 0.100000
B(  0-C ,  1-C ) :   0.2963 B(  0-C ,  2-C ) :   0.1422 B(  0-C , 10-C ) :   0.6217
B(  0-C , 13-H ) :  -0.2074 B(  0-C , 14-H ) :  -0.2111 B(  0-C , 15-H ) :  -0.2206
B(  0-C , 17-H ) :  -0.2552 B(  0-C , 18-H ) :  -0.1852 B(  0-C , 19-H ) :  -0.2173
B(  0-C , 27-H ) :   0.1052 B(  0-C , 38-H ) :  -0.1174 B(  1-C ,  2-C ) :   0.7121
B(  1-C , 27-H ) :  -0.2258 B(  1-C , 38-H ) :   1.2131 B(  1-C , 39-H ) :   1.0633
B(  2-C ,  3-C ) :   0.9497 B(  2-C ,  4-C ) :  -0.1332 B(  2-C , 24-H ) :   0.1121
B(  2-C , 37-H ) :   1.0272 B(  2-C , 38-H ) :  -0.1345 B(  2-C , 39-H ) :  -0.1510
B(  3-C ,  4-C ) :   0.6592 B(  3-C , 24-H ) :   0.8045 B(  3-C , 25-H ) :   0.8740
B(  4-C ,  5-C ) :   1.2586 B(  4-C ,  6-C ) :  -0.3041 B(  4-C , 20-C ) :   0.5237
B(  4-C , 21-H ) :  -0.1112 B(  4-C , 22-H ) :  -0.2016 B(  4-C , 23-H ) :  -0.1851
B(  4-C , 26-H ) :  -0.1385 B(  5-C ,  6-C ) :   0.9236 B(  5-C , 26-H ) :   1.0824
B(  5-C , 27-H ) :  -0.1819 B(  6-C ,  7-C ) :   0.6275 B(  6-C , 27-H ) :   0.1723
B(  6-C , 28-H ) :   0.9687 B(  7-C ,  8-C ) :   0.6901 B(  7-C , 27-H ) :  -0.1059
B(  7-C , 35-H ) :   1.1038 B(  7-C , 36-H ) :   1.0655 B(  8-C ,  9-C ) :   0.9894
B(  8-C , 10-C ) :  -0.3335 B(  8-C , 30-H ) :  -0.1593 B(  8-C , 31-C ) :   0.5860
B(  8-C , 32-H ) :  -0.1401 B(  8-C , 34-H ) :  -0.1911 B(  8-C , 35-H ) :  -0.1227
B(  9-C , 10-C ) :   0.9862 B(  9-C , 29-H ) :  -0.1488 B(  9-C , 30-H ) :   1.2572
B(  9-C , 31-C ) :  -0.1843 B( 10-C , 11-H ) :   0.9034 B( 10-C , 16-C ) :   0.1161
B( 10-C , 29-H ) :   1.0635 B( 12-C , 13-H ) :   1.1765 B( 12-C , 14-H ) :   1.1316
B( 12-C , 15-H ) :   1.1469 B( 12-C , 16-C ) :   0.1770 B( 16-C , 17-H ) :   1.2562
B( 16-C , 18-H ) :   1.1042 B( 16-C , 19-H ) :   1.2013 B( 20-C , 21-H ) :   1.0977
B( 20-C , 22-H ) :   1.0909 B( 20-C , 23-H ) :   1.0729 B( 31-C , 32-H ) :   1.1016
B( 31-C , 33-H ) :   1.1089 B( 31-C , 34-H ) :   1.1065

MP2 TOTAL ENERGY:     -585.201575251 Eh
FINAL SINGLE POINT ENERGY      -585.201575250929

DIPOLE MOMENT
-------------
                                X             Y             Z
Electronic contribution:      3.70010       4.10074       0.71738
Nuclear contribution   :     -2.51419      -4.04509       0.00810
                        -----------------------------------------
Total Dipole Moment    :      1.18591       0.05565       0.72548
                        -----------------------------------------
Magnitude (a.u.)       :      1.39133
Magnitude (Debye)      :      3.53647

Rotational constants in cm-1:     0.023091     0.017140     0.011211
Rotational constants in MHz :   692.253193   513.831013   336.085327

                             ****ORCA TERMINATED NORMALLY****
TOTAL RUN TIME: 0 days 6 hours 25 minutes 55 seconds 636 msec
