                         Program Version 4.2.1 -  RELEASE  -
|  1> %pal
|  2>  nprocs 32
|  3> end
|  4> !RI-MP2 aug-cc-pVQZ aug-cc-pVQZ/C TightSCF
|  5> %maxcore 4500
|  6> *xyzfile 0 1  04_73P2.xyz
|  7>
|  8>
|  9>                          ****END OF INPUT****

CARTESIAN COORDINATES (ANGSTROEM)
---------------------------------
  N      0.680798    1.351069   -0.044114
  C      0.565696    0.099556   -0.019199
  C     -0.703900   -0.716624   -0.078970
  O      1.650035   -0.701194    0.063699
  N     -1.878240    0.128859    0.039176
  H     -0.631765   -1.503386    0.680555
  H     -0.715494   -1.224285   -1.046437
  H     -2.152591    0.273932    1.002010
  H     -2.669633   -0.240772   -0.467407
  H      2.424755   -0.123490    0.072342
  H     -0.244241    1.770462   -0.127072

 Total Charge           Charge          ....    0
 Multiplicity           Mult            ....    1
 Number of Electrons    NEL             ....   40
 Basis Dimension        Dim             ....  676

ORBITAL ENERGIES
----------------

  NO   OCC          E(Eh)            E(eV)
   0   2.0000     -20.590287      -560.2902
   1   2.0000     -15.559396      -423.3927
   2   2.0000     -15.524331      -422.4385
   3   2.0000     -11.330736      -308.3250
   4   2.0000     -11.274991      -306.8081
   5   2.0000      -1.422294       -38.7026
   6   2.0000      -1.215886       -33.0860
   7   2.0000      -1.171087       -31.8669
   8   2.0000      -0.964912       -26.2566
   9   2.0000      -0.798341       -21.7240
  10   2.0000      -0.713955       -19.4277
  11   2.0000      -0.695830       -18.9345
  12   2.0000      -0.657766       -17.8987
  13   2.0000      -0.608756       -16.5651
  14   2.0000      -0.601218       -16.3600
  15   2.0000      -0.571006       -15.5379
  16   2.0000      -0.537883       -14.6365
  17   2.0000      -0.433100       -11.7853
  18   2.0000      -0.416280       -11.3275
  19   2.0000      -0.402539       -10.9536
  20   0.0000       0.021478         0.5845
  21   0.0000       0.034257         0.9322
  22   0.0000       0.035595         0.9686
  23   0.0000       0.040450         1.1007
  24   0.0000       0.052024         1.4156

MULLIKEN ATOMIC CHARGES
-----------------------
   0 N :   -0.807602
   1 C :    0.641574
   2 C :   -0.209154
   3 O :   -0.727491
   4 N :   -0.651899
   5 H :    0.274499
   6 H :    0.314928
   7 H :    0.279635
   8 H :    0.212562
   9 H :    0.352594
  10 H :    0.320353
Sum of atomic charges:    0.0000000

LOEWDIN ATOMIC CHARGES
----------------------
   0 N :    0.978767
   1 C :   -0.678407
   2 C :    0.318127
   3 O :    1.254507
   4 N :    1.258122
   5 H :   -0.292242
   6 H :   -0.296337
   7 H :   -0.488895
   8 H :   -0.495221
   9 H :   -0.822478
  10 H :   -0.735943

  Mayer bond orders larger than 0.100000
B(  0-N ,  1-C ) :   1.6968 B(  0-N , 10-H ) :   0.8077 B(  1-C ,  2-C ) :   0.9960
B(  1-C ,  3-O ) :   0.8340 B(  2-C ,  4-N ) :   0.9890 B(  2-C ,  5-H ) :   0.9023
B(  2-C ,  6-H ) :   0.8593 B(  3-O ,  9-H ) :   0.9026 B(  4-N ,  7-H ) :   0.8963
B(  4-N ,  8-H ) :   0.9976

MP2 TOTAL ENERGY:     -264.172010767 Eh
FINAL SINGLE POINT ENERGY      -264.172010767426

DIPOLE MOMENT
-------------
                                X             Y             Z
Electronic contribution:      3.17378       0.34191       0.01715
Nuclear contribution   :     -4.02571      -1.06464       0.11658
                        -----------------------------------------
Total Dipole Moment    :     -0.85193      -0.72273       0.13373
                        -----------------------------------------
Magnitude (a.u.)       :      1.12517
Magnitude (Debye)      :      2.85996

Rotational constants in cm-1:     0.336906     0.128842     0.096411
Rotational constants in MHz : 10100.191005  3862.572913  2890.329085

                             ****ORCA TERMINATED NORMALLY****
TOTAL RUN TIME: 0 days 0 hours 6 minutes 21 seconds 653 msec
