                         Program Version 4.2.1 -  RELEASE  -
|  1> %pal
|  2>  nprocs 32
|  3> end
|  4> !RI-MP2 aug-cc-pVQZ aug-cc-pVQZ/C TightSCF
|  5> %maxcore 4500
|  6> *xyzfile 0 1  10_39TS.xyz
|  7>
|  8>
|  9>                          ****END OF INPUT****

CARTESIAN COORDINATES (ANGSTROEM)
---------------------------------
  C      0.324097   -2.406724   -0.464664
  H     -0.000746   -2.966316   -1.362089
  C      1.432440   -1.450766   -0.838937
  C     -0.136582    0.473485   -0.535164
  H     -0.312420    0.982839    0.415592
  H     -0.252876    1.222144   -1.319603
  C     -1.201994   -0.613015   -0.688855
  H     -1.226083   -0.938286   -1.747440
  N     -0.803244   -1.738226    0.149319
  C      2.338899    0.662928   -0.064425
  C      2.643585   -1.965872   -1.274451
  H      3.126698   -1.457203   -2.089480
  H      2.791777   -3.043275   -1.266414
  C      3.543328    0.122145    0.407296
  C      4.266366   -0.947898   -0.095601
  C      1.268751   -0.086002   -0.591355
  H      4.587708   -0.905121   -1.120134
  H      3.845861    0.525487    1.372477
  C      5.196830   -1.718515    0.802491
  H      5.254309   -2.764009    0.493230
  H      6.213415   -1.314187    0.753957
  H      4.865324   -1.693973    1.841213
  C     -1.883128   -2.658220    0.446472
  H     -2.341179   -3.057395   -0.477384
  H     -1.467871   -3.507031    0.994456
  C     -2.577775   -0.075897   -0.351137
  C     -3.393980   -0.693406    0.595079
  C     -2.931331   -1.950150    1.282502
  H     -2.498062   -1.704863    2.256880
  H     -3.783827   -2.610286    1.460923
  H      0.728833   -3.142557    0.238471
  C     -4.646368   -0.149825    0.875731
  H     -5.277446   -0.637641    1.611175
  C     -3.046386    1.058436   -1.014087
  H     -2.427323    1.530596   -1.768101
  C     -5.096260    0.987113    0.228122
  H     -6.073232    1.394537    0.458584
  C     -4.291430    1.591545   -0.729804
  H     -4.635824    2.473609   -1.256079
  C      2.074175    2.040385    0.460003
  O      2.393225    2.446100    1.548329
  O      1.469801    2.817868   -0.452316
  C      1.170895    4.151209   -0.030893
  H      2.083520    4.675270    0.251589
  H      0.490981    4.136969    0.821096
  H      0.702164    4.630791   -0.886195

 Total Charge           Charge          ....    0
 Multiplicity           Mult            ....    1
 Number of Electrons    NEL             ....  166
 Basis Dimension        Dim             .... 2898

ORBITAL ENERGIES
----------------

  NO   OCC          E(Eh)            E(eV)
   0   2.0000     -20.593985      -560.3908
   1   2.0000     -20.531525      -558.6912
   2   2.0000     -15.546039      -423.0292
   3   2.0000     -11.371043      -309.4218
   4   2.0000     -11.279156      -306.9214
   5   2.0000     -11.260471      -306.4130
   6   2.0000     -11.255218      -306.2700
   7   2.0000     -11.249413      -306.1121
   8   2.0000     -11.248962      -306.0998
   9   2.0000     -11.245769      -306.0129
  10   2.0000     -11.243572      -305.9532
  11   2.0000     -11.240202      -305.8614
  12   2.0000     -11.234737      -305.7127
  13   2.0000     -11.233502      -305.6791
  14   2.0000     -11.230841      -305.6067
  15   2.0000     -11.230744      -305.6041
  16   2.0000     -11.228685      -305.5481
  17   2.0000     -11.227976      -305.5287
  18   2.0000     -11.226963      -305.5012
  19   2.0000     -11.226106      -305.4779
  20   2.0000     -11.223637      -305.4107
  21   2.0000     -11.222370      -305.3762
  22   2.0000     -11.222066      -305.3679
  23   2.0000      -1.457752       -39.6674
  24   2.0000      -1.352535       -36.8044
  25   2.0000      -1.256705       -34.1967
  26   2.0000      -1.157971       -31.5100
  27   2.0000      -1.142093       -31.0779
  28   2.0000      -1.080046       -29.3895
  29   2.0000      -1.064362       -28.9628
  30   2.0000      -1.052710       -28.6457
  31   2.0000      -1.033283       -28.1171
  32   2.0000      -1.000749       -27.2318
  33   2.0000      -0.976899       -26.5828
  34   2.0000      -0.966138       -26.2900
  35   2.0000      -0.931808       -25.3558
  36   2.0000      -0.896114       -24.3845
  37   2.0000      -0.863209       -23.4891
  38   2.0000      -0.854152       -23.2427
  39   2.0000      -0.837284       -22.7836
  40   2.0000      -0.812005       -22.0958
  41   2.0000      -0.783719       -21.3261
  42   2.0000      -0.764479       -20.8025
  43   2.0000      -0.747071       -20.3288
  44   2.0000      -0.711177       -19.3521
  45   2.0000      -0.696956       -18.9651
  46   2.0000      -0.680381       -18.5141
  47   2.0000      -0.671229       -18.2651
  48   2.0000      -0.668908       -18.2019
  49   2.0000      -0.660595       -17.9757
  50   2.0000      -0.650075       -17.6894
  51   2.0000      -0.644267       -17.5314
  52   2.0000      -0.629498       -17.1295
  53   2.0000      -0.614777       -16.7289
  54   2.0000      -0.609453       -16.5841
  55   2.0000      -0.594186       -16.1686
  56   2.0000      -0.592661       -16.1271
  57   2.0000      -0.588399       -16.0111
  58   2.0000      -0.575735       -15.6666
  59   2.0000      -0.569017       -15.4838
  60   2.0000      -0.565812       -15.3965
  61   2.0000      -0.553467       -15.0606
  62   2.0000      -0.551338       -15.0027
  63   2.0000      -0.541560       -14.7366
  64   2.0000      -0.531319       -14.4579
  65   2.0000      -0.530358       -14.4318
  66   2.0000      -0.525098       -14.2887
  67   2.0000      -0.524004       -14.2589
  68   2.0000      -0.519558       -14.1379
  69   2.0000      -0.505061       -13.7434
  70   2.0000      -0.499046       -13.5797
  71   2.0000      -0.494042       -13.4436
  72   2.0000      -0.477945       -13.0055
  73   2.0000      -0.464655       -12.6439
  74   2.0000      -0.457514       -12.4496
  75   2.0000      -0.451820       -12.2947
  76   2.0000      -0.449031       -12.2187
  77   2.0000      -0.427784       -11.6406
  78   2.0000      -0.364333        -9.9140
  79   2.0000      -0.329203        -8.9581
  80   2.0000      -0.322290        -8.7700
  81   2.0000      -0.312510        -8.5038
  82   2.0000      -0.290113        -7.8944
  83   0.0000       0.020215         0.5501
  84   0.0000       0.023509         0.6397
  85   0.0000       0.025049         0.6816
  86   0.0000       0.029097         0.7918
  87   0.0000       0.032379         0.8811

MULLIKEN ATOMIC CHARGES
-----------------------
   0 C :   -0.170681
   1 H :    0.265927
   2 C :    0.047849
   3 C :    0.274860
   4 H :    0.111145
   5 H :    0.149267
   6 C :    1.578171
   7 H :    0.220779
   8 N :   -0.243556
   9 C :   -0.529390
  10 C :   -1.062071
  11 H :    0.276949
  12 H :    0.162971
  13 C :   -0.297272
  14 C :   -0.140308
  15 C :    0.035279
  16 H :    0.269309
  17 H :    0.308478
  18 C :   -0.929538
  19 H :    0.249756
  20 H :    0.301518
  21 H :    0.249352
  22 C :   -0.831223
  23 H :    0.262732
  24 H :    0.222214
  25 C :    0.545464
  26 C :    0.285384
  27 C :   -0.708153
  28 H :    0.206958
  29 H :    0.192381
  30 H :    0.152128
  31 C :   -0.683103
  32 H :    0.226294
  33 C :   -0.839013
  34 H :    0.119220
  35 C :   -0.434925
  36 H :    0.268324
  37 C :   -0.466776
  38 H :    0.212308
  39 C :    1.946068
  40 O :   -1.115726
  41 O :   -0.899841
  42 C :   -1.012358
  43 H :    0.413921
  44 H :    0.387234
  45 H :    0.421691
Sum of atomic charges:    0.0000000

LOEWDIN ATOMIC CHARGES
----------------------
   0 C :    0.335612
   1 H :   -0.255829
   2 C :   -0.033699
   3 C :    0.492374
   4 H :   -0.274827
   5 H :   -0.299170
   6 C :   -0.050171
   7 H :   -0.255444
   8 N :    0.536899
   9 C :   -0.083780
  10 C :    0.739073
  11 H :   -0.351170
  12 H :   -0.274494
  13 C :    0.341973
  14 C :    0.339408
  15 C :   -0.014763
  16 H :   -0.371148
  17 H :   -0.356061
  18 C :    0.927319
  19 H :   -0.291716
  20 H :   -0.279380
  21 H :   -0.297052
  22 C :    0.355120
  23 H :   -0.239576
  24 H :   -0.272588
  25 C :   -0.028985
  26 C :   -0.036825
  27 C :    0.525495
  28 H :   -0.254890
  29 H :   -0.274145
  30 H :   -0.274427
  31 C :    0.359122
  32 H :   -0.312575
  33 C :    0.360895
  34 H :   -0.316775
  35 C :    0.349670
  36 H :   -0.320472
  37 C :    0.357015
  38 H :   -0.319690
  39 C :   -1.120489
  40 O :    0.746343
  41 O :    0.853452
  42 C :    0.584690
  43 H :   -0.315175
  44 H :   -0.310375
  45 H :   -0.318770

  Mayer bond orders larger than 0.100000
B(  0-C ,  1-H ) :   1.0471 B(  0-C ,  2-C ) :   0.2638 B(  0-C ,  8-N ) :   1.0133
B(  0-C , 10-C ) :  -0.2293 B(  0-C , 30-H ) :   1.1084 B(  1-H ,  2-C ) :  -0.1667
B(  2-C ,  3-C ) :  -0.4026 B(  2-C ,  9-C ) :  -0.1767 B(  2-C , 10-C ) :   1.4121
B(  2-C , 11-H ) :  -0.1197 B(  2-C , 12-H ) :  -0.1475 B(  2-C , 14-C ) :  -0.1283
B(  2-C , 15-C ) :   1.0945 B(  2-C , 25-C ) :   0.1152 B(  3-C ,  4-H ) :   0.8274
B(  3-C ,  5-H ) :   0.8163 B(  3-C ,  6-C ) :   1.0721 B(  3-C ,  7-H ) :   0.1877
B(  3-C ,  8-N ) :   0.2102 B(  3-C ,  9-C ) :  -0.4418 B(  3-C , 10-C ) :  -0.1088
B(  3-C , 25-C ) :  -0.1915 B(  3-C , 41-O ) :  -0.3503 B(  4-H ,  5-H ) :   0.1239
B(  4-H ,  9-C ) :   0.1050 B(  4-H , 41-O ) :   0.1582 B(  5-H , 15-C ) :   0.1697
B(  5-H , 41-O ) :   0.1057 B(  6-C ,  7-H ) :   0.9228 B(  6-C ,  8-N ) :   0.3110
B(  6-C , 15-C ) :  -0.3149 B(  6-C , 22-C ) :  -0.1453 B(  6-C , 25-C ) :  -0.1735
B(  6-C , 26-C ) :  -0.5280 B(  6-C , 33-C ) :  -0.6577 B(  8-N , 15-C ) :  -0.1147
B(  8-N , 22-C ) :   0.7405 B(  8-N , 23-H ) :  -0.1413 B(  9-C , 10-C ) :   0.2395
B(  9-C , 13-C ) :   0.7465 B(  9-C , 14-C ) :  -0.4370 B(  9-C , 15-C ) :   1.2946
B(  9-C , 17-H ) :  -0.1190 B(  9-C , 39-C ) :   1.5077 B(  9-C , 40-O ) :   0.4928
B(  9-C , 41-O ) :   0.1568 B( 10-C , 11-H ) :   1.0560 B( 10-C , 12-H ) :   1.1857
B( 10-C , 14-C ) :   0.4318 B( 10-C , 15-C ) :  -0.2440 B( 13-C , 14-C ) :   1.2985
B( 13-C , 15-C ) :  -0.1055 B( 13-C , 17-H ) :   0.9583 B( 13-C , 39-C ) :  -0.3100
B( 14-C , 15-C ) :   0.2537 B( 14-C , 16-H ) :   0.9596 B( 14-C , 18-C ) :   0.6843
B( 14-C , 20-H ) :  -0.1004 B( 15-C , 39-C ) :  -0.1435 B( 18-C , 19-H ) :   1.0099
B( 18-C , 20-H ) :   0.9911 B( 18-C , 21-H ) :   0.9866 B( 22-C , 23-H ) :   0.9852
B( 22-C , 24-H ) :   1.0153 B( 22-C , 27-C ) :   1.2066 B( 25-C , 26-C ) :   1.0632
B( 25-C , 27-C ) :  -0.1327 B( 25-C , 31-C ) :  -0.5678 B( 25-C , 33-C ) :   1.0127
B( 25-C , 34-H ) :  -0.1166 B( 25-C , 37-C ) :  -0.2779 B( 26-C , 27-C ) :   0.3811
B( 26-C , 29-H ) :  -0.1720 B( 26-C , 31-C ) :   1.0746 B( 26-C , 32-H ) :  -0.1072
B( 26-C , 35-C ) :  -0.2917 B( 27-C , 28-H ) :   1.0388 B( 27-C , 29-H ) :   1.1529
B( 31-C , 32-H ) :   1.0658 B( 31-C , 33-C ) :   0.1780 B( 31-C , 35-C ) :   1.3040
B( 31-C , 36-H ) :  -0.1964 B( 31-C , 37-C ) :   0.1457 B( 33-C , 34-H ) :   1.2644
B( 33-C , 37-C ) :   1.2377 B( 33-C , 38-H ) :  -0.1847 B( 35-C , 36-H ) :   1.1405
B( 35-C , 37-C ) :   1.2088 B( 36-H , 37-C ) :  -0.1278 B( 37-C , 38-H ) :   1.2015
B( 39-C , 40-O ) :   0.3878 B( 39-C , 41-O ) :   0.7026 B( 39-C , 42-C ) :  -0.2477
B( 40-O , 41-O ) :   0.1569 B( 41-O , 42-C ) :   0.9975 B( 42-C , 43-H ) :   0.8560
B( 42-C , 44-H ) :   0.8427 B( 42-C , 45-H ) :   0.8572

MP2 TOTAL ENERGY:     -979.437435297 Eh
FINAL SINGLE POINT ENERGY      -979.437435296942

DIPOLE MOMENT
-------------
                                X             Y             Z
Electronic contribution:     -4.61585       7.46552      -0.44556
Nuclear contribution   :      4.48370      -8.15865      -0.30744
                        -----------------------------------------
Total Dipole Moment    :     -0.13215      -0.69313      -0.75300
                        -----------------------------------------
Magnitude (a.u.)       :      1.03194
Magnitude (Debye)      :      2.62299

Rotational constants in cm-1:     0.013409     0.005928     0.004537
Rotational constants in MHz :   401.992856   177.726210   136.018717

                             ****ORCA TERMINATED NORMALLY****
TOTAL RUN TIME: 0 days 14 hours 6 minutes 25 seconds 47 msec
