                         Program Version 4.2.1 -  RELEASE  -
|  1> %pal
|  2>  nprocs 32
|  3> end
|  4> !RI-MP2 aug-cc-pVQZ aug-cc-pVQZ/C TightSCF
|  5> %maxcore 4500
|  6> *xyzfile 0 1  05_37R1.xyz
|  7>
|  8>
|  9>                          ****END OF INPUT****

CARTESIAN COORDINATES (ANGSTROEM)
---------------------------------
  C     -2.518899    1.293054    0.108455
  C     -3.654872    0.551141    0.394266
  C     -3.637593   -0.828040    0.235813
  C     -2.482938   -1.459421   -0.210153
  C     -1.343465   -0.717292   -0.475264
  C     -1.345811    0.664947   -0.305011
  H     -2.533489    2.372426    0.215345
  H     -4.556049    1.048257    0.732048
  H     -4.526477   -1.409905    0.447603
  H     -2.474427   -2.532818   -0.356505
  H     -0.452267   -1.208270   -0.841533
  C     -0.149808    1.503527   -0.579916
  N      1.066950    1.204892   -0.485045
  Si     2.101428   -0.079687    0.086022
  C      2.453358   -1.232724   -1.350611
  H      2.826142   -0.669428   -2.209029
  H      3.219352   -1.961675   -1.072509
  H      1.571033   -1.787918   -1.675554
  C      3.688391    0.754893    0.616829
  H      3.499814    1.468982    1.422222
  H      4.423503    0.029723    0.976208
  H      4.129543    1.306655   -0.215920
  C      1.415267   -1.011922    1.566353
  H      0.554032   -1.636173    1.328246
  H      2.192347   -1.656467    1.987341
  H      1.110274   -0.313932    2.350436
  H     -0.413743    2.522943   -0.901948

 Total Charge           Charge          ....    0
 Multiplicity           Mult            ....    1
 Number of Electrons    NEL             ....   96
 Basis Dimension        Dim             .... 1654

ORBITAL ENERGIES
----------------

  NO   OCC          E(Eh)            E(eV)
   0   2.0000     -68.755463     -1870.9313
   1   2.0000     -15.520375      -422.3309
   2   2.0000     -11.291264      -307.2509
   3   2.0000     -11.246772      -306.0402
   4   2.0000     -11.245681      -306.0105
   5   2.0000     -11.245573      -306.0076
   6   2.0000     -11.244342      -305.9741
   7   2.0000     -11.242520      -305.9245
   8   2.0000     -11.242192      -305.9156
   9   2.0000     -11.192478      -304.5628
  10   2.0000     -11.189082      -304.4704
  11   2.0000     -11.183591      -304.3210
  12   2.0000      -6.101550      -166.0316
  13   2.0000      -4.208767      -114.5264
  14   2.0000      -4.208225      -114.5116
  15   2.0000      -4.207925      -114.5035
  16   2.0000      -1.200120       -32.6569
  17   2.0000      -1.158409       -31.5219
  18   2.0000      -1.035926       -28.1890
  19   2.0000      -1.028336       -27.9825
  20   2.0000      -0.961888       -26.1743
  21   2.0000      -0.920385       -25.0450
  22   2.0000      -0.914224       -24.8773
  23   2.0000      -0.873493       -23.7689
  24   2.0000      -0.839255       -22.8373
  25   2.0000      -0.787569       -21.4308
  26   2.0000      -0.719063       -19.5667
  27   2.0000      -0.668781       -18.1985
  28   2.0000      -0.656855       -17.8739
  29   2.0000      -0.624104       -16.9827
  30   2.0000      -0.606129       -16.4936
  31   2.0000      -0.597441       -16.2572
  32   2.0000      -0.575685       -15.6652
  33   2.0000      -0.556014       -15.1299
  34   2.0000      -0.554785       -15.0965
  35   2.0000      -0.543871       -14.7995
  36   2.0000      -0.535669       -14.5763
  37   2.0000      -0.526955       -14.3392
  38   2.0000      -0.523742       -14.2517
  39   2.0000      -0.518431       -14.1072
  40   2.0000      -0.515685       -14.0325
  41   2.0000      -0.502529       -13.6745
  42   2.0000      -0.463455       -12.6112
  43   2.0000      -0.430650       -11.7186
  44   2.0000      -0.416544       -11.3347
  45   2.0000      -0.360516        -9.8101
  46   2.0000      -0.348375        -9.4798
  47   2.0000      -0.337667        -9.1884
  48   0.0000       0.019889         0.5412
  49   0.0000       0.025995         0.7074
  50   0.0000       0.027108         0.7376
  51   0.0000       0.034645         0.9427
  52   0.0000       0.037820         1.0291

MULLIKEN ATOMIC CHARGES
-----------------------
   0 C :   -0.354792
   1 C :   -0.376862
   2 C :   -0.372656
   3 C :   -0.553597
   4 C :   -0.108162
   5 C :    0.145921
   6 H :    0.277366
   7 H :    0.269655
   8 H :    0.314168
   9 H :    0.228135
  10 H :    0.444831
  11 C :    0.273728
  12 N :   -1.348638
  13 Si:    1.594662
  14 C :   -1.231614
  15 H :    0.315843
  16 H :    0.318894
  17 H :    0.299170
  18 C :   -1.235169
  19 H :    0.291254
  20 H :    0.297591
  21 H :    0.301050
  22 C :   -1.252165
  23 H :    0.344256
  24 H :    0.348860
  25 H :    0.279161
  26 H :    0.489109
Sum of atomic charges:    0.0000000

LOEWDIN ATOMIC CHARGES
----------------------
   0 C :    0.330679
   1 C :    0.351020
   2 C :    0.345234
   3 C :    0.362846
   4 C :    0.310508
   5 C :   -0.104225
   6 H :   -0.315994
   7 H :   -0.318860
   8 H :   -0.318044
   9 H :   -0.312908
  10 H :   -0.368082
  11 C :    0.019602
  12 N :    0.569175
  13 Si:   -0.071063
  14 C :    0.990410
  15 H :   -0.334861
  16 H :   -0.335825
  17 H :   -0.350462
  18 C :    0.971232
  19 H :   -0.340101
  20 H :   -0.340232
  21 H :   -0.342646
  22 C :    0.991717
  23 H :   -0.364348
  24 H :   -0.335212
  25 H :   -0.330569
  26 H :   -0.358991

  Mayer bond orders larger than 0.100000
B(  0-C ,  1-C ) :   1.2819 B(  0-C ,  3-C ) :   0.1668 B(  0-C ,  5-C ) :   1.1547
B(  0-C ,  6-H ) :   0.9633 B(  0-C ,  7-H ) :  -0.1614 B(  0-C , 11-C ) :  -0.3856
B(  1-C ,  2-C ) :   1.1595 B(  1-C ,  4-C ) :   0.1053 B(  1-C ,  5-C ) :  -0.3086
B(  1-C ,  7-H ) :   1.1072 B(  2-C ,  3-C ) :   1.3246 B(  2-C ,  4-C ) :  -0.1464
B(  2-C ,  7-H ) :  -0.1077 B(  2-C ,  8-H ) :   1.0301 B(  3-C ,  4-C ) :   1.0824
B(  3-C ,  5-C ) :  -0.3398 B(  3-C ,  8-H ) :  -0.1054 B(  3-C ,  9-H ) :   1.1112
B(  3-C , 10-H ) :  -0.1584 B(  4-C ,  5-C ) :   1.2043 B(  4-C , 10-H ) :   0.6887
B(  4-C , 11-C ) :  -0.4337 B(  5-C , 10-H ) :  -0.1541 B(  5-C , 11-C ) :   0.8648
B(  5-C , 12-N ) :   0.1629 B(  5-C , 26-H ) :  -0.1559 B( 10-H , 11-C ) :   0.1192
B( 11-C , 12-N ) :   1.4441 B( 11-C , 26-H ) :   0.8161 B( 12-N , 13-Si) :   0.6756
B( 13-Si, 14-C ) :   0.6817 B( 13-Si, 18-C ) :   0.8417 B( 13-Si, 22-C ) :   0.6995
B( 14-C , 15-H ) :   0.9224 B( 14-C , 16-H ) :   0.9142 B( 14-C , 17-H ) :   0.9769
B( 18-C , 19-H ) :   0.9398 B( 18-C , 20-H ) :   0.9326 B( 18-C , 21-H ) :   0.9251
B( 22-C , 23-H ) :   0.9475 B( 22-C , 24-H ) :   0.9291 B( 22-C , 25-H ) :   0.9481

MP2 TOTAL ENERGY:     -733.133907518 Eh
FINAL SINGLE POINT ENERGY      -733.133907518268

DIPOLE MOMENT
-------------
                                X             Y             Z
Electronic contribution:     -9.36154       4.14013      -2.06160
Nuclear contribution   :      8.58987      -4.48970       2.21489
                        -----------------------------------------
Total Dipole Moment    :     -0.77167      -0.34957       0.15329
                        -----------------------------------------
Magnitude (a.u.)       :      0.86091
Magnitude (Debye)      :      2.18826

Rotational constants in cm-1:     0.058058     0.014786     0.013616
Rotational constants in MHz :  1740.527771   443.278647   408.188017

                             ****ORCA TERMINATED NORMALLY****
TOTAL RUN TIME: 0 days 2 hours 0 minutes 17 seconds 159 msec
