                         Program Version 4.2.1 -  RELEASE  -
|  1> %pal
|  2>  nprocs 32
|  3> end
|  4> !RI-MP2 aug-cc-pVQZ aug-cc-pVQZ/C TightSCF
|  5> %maxcore 4500
|  6> *xyzfile -1 1  09_20P.xyz
|  7>
|  8>
|  9>                          ****END OF INPUT****

CARTESIAN COORDINATES (ANGSTROEM)
---------------------------------
  C      0.177114   -0.160690    1.748036
  N     -0.334291    1.157945    1.383286
  C      0.280459    1.870915    0.528104
  C      1.513216    1.394336   -0.220430
  O      1.947296    2.084183   -1.123536
  C      2.033691    0.049072    0.152418
  C      2.951088   -0.581243   -0.889515
  C     -0.279707    3.193571    0.105282
  H     -1.132908    3.444997    0.732803
  H     -0.595741    3.145157   -0.939088
  H      0.481643    3.973479    0.169690
  C      0.857201   -0.919377    0.591225
  H      0.918601   -0.056591    2.544880
  H     -0.647109   -0.755840    2.139055
  O      1.334375   -2.107454    0.982329
  C     -0.142700   -1.045105   -0.603560
  O     -1.473969   -1.414956   -0.202244
  H      0.224062   -1.870275   -1.212890
  H     -0.199313   -0.146543   -1.219810
  C     -2.540484   -0.547705   -0.329147
  O     -3.645629   -1.367626   -0.546777
  O     -2.820644    0.210963    0.785659
  O     -2.381680    0.345386   -1.409359
  O      3.470265   -1.796621   -0.411600
  H      2.730573   -2.165573    0.168358
  H     -4.387000   -0.913442   -0.135058
  H     -2.331214   -0.192106   -2.207001
  H     -2.035937    0.739525    1.059492
  H      3.777316    0.095663   -1.128260
  H      2.388784   -0.724977   -1.826713
  H      2.608903    0.167270    1.081294

 Total Charge           Charge          ....   -1
 Multiplicity           Mult            ....    1
 Number of Electrons    NEL             ....  132
 Basis Dimension        Dim             .... 2004

ORBITAL ENERGIES
----------------

  NO   OCC          E(Eh)            E(eV)
   0   2.0000     -20.466313      -556.9167
   1   2.0000     -20.462007      -556.7995
   2   2.0000     -20.447206      -556.3968
   3   2.0000     -20.446769      -556.3849
   4   2.0000     -20.441710      -556.2472
   5   2.0000     -20.375049      -554.4333
   6   2.0000     -20.286031      -552.0110
   7   2.0000     -15.464328      -420.8058
   8   2.0000     -11.333401      -308.3975
   9   2.0000     -11.224165      -305.4251
  10   2.0000     -11.186356      -304.3962
  11   2.0000     -11.141909      -303.1867
  12   2.0000     -11.134413      -302.9828
  13   2.0000     -11.133516      -302.9584
  14   2.0000     -11.127958      -302.8071
  15   2.0000     -11.115430      -302.4662
  16   2.0000     -11.098406      -302.0030
  17   2.0000      -1.380050       -37.5531
  18   2.0000      -1.289259       -35.0825
  19   2.0000      -1.247320       -33.9413
  20   2.0000      -1.238383       -33.6981
  21   2.0000      -1.234496       -33.5924
  22   2.0000      -1.191721       -32.4284
  23   2.0000      -1.147515       -31.2255
  24   2.0000      -1.107672       -30.1413
  25   2.0000      -0.934583       -25.4313
  26   2.0000      -0.918595       -24.9962
  27   2.0000      -0.852008       -23.1843
  28   2.0000      -0.816217       -22.2104
  29   2.0000      -0.779966       -21.2240
  30   2.0000      -0.743637       -20.2354
  31   2.0000      -0.691907       -18.8277
  32   2.0000      -0.662158       -18.0182
  33   2.0000      -0.648088       -17.6354
  34   2.0000      -0.632469       -17.2104
  35   2.0000      -0.605634       -16.4801
  36   2.0000      -0.579929       -15.7807
  37   2.0000      -0.560831       -15.2610
  38   2.0000      -0.549772       -14.9601
  39   2.0000      -0.528015       -14.3680
  40   2.0000      -0.526582       -14.3290
  41   2.0000      -0.518067       -14.0973
  42   2.0000      -0.499992       -13.6055
  43   2.0000      -0.486935       -13.2502
  44   2.0000      -0.471053       -12.8180
  45   2.0000      -0.462376       -12.5819
  46   2.0000      -0.452752       -12.3200
  47   2.0000      -0.451118       -12.2755
  48   2.0000      -0.440435       -11.9849
  49   2.0000      -0.440342       -11.9823
  50   2.0000      -0.429886       -11.6978
  51   2.0000      -0.416876       -11.3438
  52   2.0000      -0.410269       -11.1640
  53   2.0000      -0.398092       -10.8326
  54   2.0000      -0.391100       -10.6424
  55   2.0000      -0.377213       -10.2645
  56   2.0000      -0.372946       -10.1484
  57   2.0000      -0.359954        -9.7948
  58   2.0000      -0.352869        -9.6021
  59   2.0000      -0.345658        -9.4058
  60   2.0000      -0.321319        -8.7435
  61   2.0000      -0.307356        -8.3636
  62   2.0000      -0.287320        -7.8184
  63   2.0000      -0.272142        -7.4054
  64   2.0000      -0.203288        -5.5318
  65   2.0000      -0.193259        -5.2589
  66   0.0000       0.090487         2.4623
  67   0.0000       0.097975         2.6660
  68   0.0000       0.103413         2.8140
  69   0.0000       0.108093         2.9414
  70   0.0000       0.113187         3.0800

MULLIKEN ATOMIC CHARGES
-----------------------
   0 C :   -0.501373
   1 N :   -0.707346
   2 C :    0.170986
   3 C :    1.413370
   4 O :   -1.114961
   5 C :   -0.491314
   6 C :   -0.028707
   7 C :   -1.109722
   8 H :    0.310387
   9 H :    0.237218
  10 H :    0.267182
  11 C :    2.176071
  12 H :    0.239342
  13 H :    0.423361
  14 O :   -1.530373
  15 C :   -0.560260
  16 O :   -0.954925
  17 H :    0.406573
  18 H :    0.149182
  19 C :    2.238042
  20 O :   -0.946677
  21 O :   -1.117577
  22 O :   -0.940967
  23 O :   -1.187257
  24 H :    0.374454
  25 H :    0.332459
  26 H :    0.312485
  27 H :    0.456599
  28 H :    0.260718
  29 H :    0.121662
  30 H :    0.301365
Sum of atomic charges:   -1.0000000

LOEWDIN ATOMIC CHARGES
----------------------
   0 C :    0.268829
   1 N :    0.684655
   2 C :   -0.282300
   3 C :   -0.651282
   4 O :    0.769674
   5 C :    0.005337
   6 C :    0.126471
   7 C :    0.868496
   8 H :   -0.313225
   9 H :   -0.292196
  10 H :   -0.299024
  11 C :   -0.851658
  12 H :   -0.300572
  13 H :   -0.322688
  14 O :    0.807521
  15 C :    0.155867
  16 O :    0.890975
  17 H :   -0.320165
  18 H :   -0.397349
  19 C :   -1.720783
  20 O :    1.225159
  21 O :    1.265277
  22 O :    1.252647
  23 O :    1.240759
  24 H :   -1.195702
  25 H :   -0.854616
  26 H :   -0.802331
  27 H :   -1.033127
  28 H :   -0.316325
  29 H :   -0.301838
  30 H :   -0.306486

  Mayer bond orders larger than 0.100000
B(  0-C ,  1-N ) :   0.8246 B(  0-C , 11-C ) :   0.8289 B(  0-C , 12-H ) :   1.0195
B(  0-C , 13-H ) :   0.8396 B(  0-C , 14-O ) :   0.1854 B(  1-N ,  2-C ) :   1.2744
B(  1-N ,  3-C ) :   0.1539 B(  2-C ,  3-C ) :   0.8630 B(  2-C ,  4-O ) :   0.3010
B(  2-C ,  5-C ) :  -0.2728 B(  2-C ,  7-C ) :   0.6984 B(  2-C ,  8-H ) :  -0.1255
B(  2-C , 10-H ) :  -0.1221 B(  3-C ,  5-C ) :   0.9465 B(  4-O ,  5-C ) :   0.4244
B(  5-C ,  6-C ) :   0.6528 B(  5-C , 11-C ) :   0.6408 B(  5-C , 14-O ) :   0.3712
B(  5-C , 29-H ) :  -0.1771 B(  5-C , 30-H ) :   0.8618 B(  6-C , 23-O ) :   0.6420
B(  6-C , 28-H ) :   1.0064 B(  6-C , 29-H ) :   1.1170 B(  7-C ,  8-H ) :   1.0377
B(  7-C ,  9-H ) :   1.0000 B(  7-C , 10-H ) :   1.0511 B( 11-C , 14-O ) :  -0.9435
B( 11-C , 15-C ) :   0.7148 B( 11-C , 23-O ) :  -0.1135 B( 14-O , 15-C ) :   0.5511
B( 14-O , 24-H ) :   0.2585 B( 15-C , 16-O ) :   0.5603 B( 15-C , 17-H ) :   0.8480
B( 15-C , 18-H ) :   1.0537 B( 16-O , 19-C ) :   0.6444 B( 19-C , 20-O ) :   0.2539
B( 19-C , 21-O ) :   0.4530 B( 19-C , 22-O ) :   0.4883 B( 20-O , 25-H ) :   0.9458
B( 21-O , 27-H ) :   0.6842 B( 22-O , 26-H ) :   0.8627 B( 23-O , 24-H ) :   0.6450

MP2 TOTAL ENERGY:     -931.497481832 Eh
FINAL SINGLE POINT ENERGY      -931.497481831626

DIPOLE MOMENT
-------------
                                X             Y             Z
Electronic contribution:     -3.61388      -2.01959       0.24086
Nuclear contribution   :      1.72709       4.64256      -0.78849
                        -----------------------------------------
Total Dipole Moment    :     -1.88679       2.62297      -0.54763
                        -----------------------------------------
Magnitude (a.u.)       :      3.27717
Magnitude (Debye)      :      8.32990

Rotational constants in cm-1:     0.022677     0.013103     0.010344
Rotational constants in MHz :   679.839835   392.832992   310.119638

                             ****ORCA TERMINATED NORMALLY****
TOTAL RUN TIME: 0 days 4 hours 9 minutes 53 seconds 465 msec
