                         Program Version 4.2.1 -  RELEASE  -
|  1> %pal
|  2>  nprocs 32
|  3> end
|  4> !RI-MP2 aug-cc-pVQZ aug-cc-pVQZ/C TightSCF
|  5> %maxcore 4500
|  6> *xyzfile 1 1  05_40R2.xyz
|  7>
|  8>
|  9>                          ****END OF INPUT****

CARTESIAN COORDINATES (ANGSTROEM)
---------------------------------
  N     -0.430743   -0.379633   -0.096559
  C      0.993289   -0.230471    0.010921
  C      1.554422    0.379848    1.130227
  C      2.922189    0.491522    1.227223
  C      3.746601   -0.014473    0.214573
  C      3.176205   -0.641135   -0.894851
  C      1.797668   -0.749121   -0.989072
  O      5.060678    0.143156    0.403595
  C      5.970810   -0.355074   -0.570806
  C     -1.335938    0.556872   -0.072035
  C     -2.739978    0.156123   -0.035612
  C     -3.114253   -1.021489    0.627055
  C     -4.438415   -1.416934    0.650809
  C     -5.402414   -0.650206    0.007398
  C     -5.043106    0.521118   -0.646350
  C     -3.722451    0.932800   -0.659353
  C     -0.938368    1.986803   -0.059569
  H      5.814416    0.132633   -1.535892
  H     -5.795253    1.116567   -1.147241
  H     -0.770470   -1.331402   -0.200044
  H      5.875115   -1.438361   -0.675431
  H      6.961783   -0.112769   -0.198402
  H     -4.722885   -2.315439    1.182794
  H     -6.439133   -0.962254    0.024533
  H     -1.041760    2.378421    0.956405
  H     -1.614117    2.567591   -0.684487
  H      0.088086    2.129439   -0.388026
  H     -2.382196   -1.600892    1.178057
  H     -3.460239    1.840243   -1.185775
  H      0.924003    0.749646    1.929519
  H      1.355059   -1.230209   -1.853440
  H      3.792187   -1.043954   -1.685118
  H      3.387616    0.955831    2.086357

 Total Charge           Charge          ....    1
 Multiplicity           Mult            ....    1
 Number of Electrons    NEL             ....  120
 Basis Dimension        Dim             .... 2096

ORBITAL ENERGIES
----------------

  NO   OCC          E(Eh)            E(eV)
   0   2.0000     -20.690430      -563.0152
   1   2.0000     -15.797855      -429.8815
   2   2.0000     -11.508995      -313.1757
   3   2.0000     -11.424393      -310.8735
   4   2.0000     -11.407090      -310.4027
   5   2.0000     -11.397960      -310.1543
   6   2.0000     -11.389554      -309.9255
   7   2.0000     -11.388234      -309.8896
   8   2.0000     -11.388117      -309.8864
   9   2.0000     -11.377148      -309.5879
  10   2.0000     -11.376940      -309.5823
  11   2.0000     -11.375074      -309.5315
  12   2.0000     -11.373630      -309.4922
  13   2.0000     -11.369306      -309.3745
  14   2.0000     -11.367984      -309.3386
  15   2.0000     -11.352768      -308.9245
  16   2.0000     -11.350063      -308.8509
  17   2.0000      -1.525889       -41.5216
  18   2.0000      -1.475463       -40.1494
  19   2.0000      -1.311336       -35.6833
  20   2.0000      -1.282066       -34.8868
  21   2.0000      -1.216349       -33.0985
  22   2.0000      -1.167596       -31.7719
  23   2.0000      -1.157996       -31.5107
  24   2.0000      -1.151092       -31.3228
  25   2.0000      -1.142420       -31.0868
  26   2.0000      -1.063341       -28.9350
  27   2.0000      -1.018005       -27.7013
  28   2.0000      -0.979263       -26.6471
  29   2.0000      -0.974847       -26.5269
  30   2.0000      -0.960979       -26.1496
  31   2.0000      -0.934322       -25.4242
  32   2.0000      -0.890585       -24.2340
  33   2.0000      -0.857552       -23.3352
  34   2.0000      -0.825470       -22.4622
  35   2.0000      -0.819442       -22.2981
  36   2.0000      -0.804668       -21.8961
  37   2.0000      -0.778911       -21.1953
  38   2.0000      -0.765198       -20.8221
  39   2.0000      -0.759894       -20.6778
  40   2.0000      -0.754386       -20.5279
  41   2.0000      -0.743965       -20.2443
  42   2.0000      -0.738381       -20.0924
  43   2.0000      -0.725496       -19.7417
  44   2.0000      -0.723812       -19.6959
  45   2.0000      -0.708070       -19.2676
  46   2.0000      -0.699957       -19.0468
  47   2.0000      -0.682014       -18.5585
  48   2.0000      -0.669346       -18.2138
  49   2.0000      -0.651459       -17.7271
  50   2.0000      -0.645144       -17.5553
  51   2.0000      -0.642445       -17.4818
  52   2.0000      -0.637068       -17.3355
  53   2.0000      -0.625647       -17.0247
  54   2.0000      -0.597059       -16.2468
  55   2.0000      -0.586551       -15.9609
  56   2.0000      -0.488487       -13.2924
  57   2.0000      -0.481145       -13.0926
  58   2.0000      -0.474265       -12.9054
  59   2.0000      -0.435284       -11.8447
  60   0.0000      -0.092764        -2.5242
  61   0.0000      -0.068514        -1.8644
  62   0.0000      -0.056792        -1.5454
  63   0.0000      -0.054215        -1.4753
  64   0.0000      -0.048789        -1.3276

MULLIKEN ATOMIC CHARGES
-----------------------
   0 N :   -0.548739
   1 C :    1.063981
   2 C :   -0.622194
   3 C :   -0.402669
   4 C :    1.272947
   5 C :   -0.507676
   6 C :   -0.627213
   7 O :   -0.839306
   8 C :   -0.734123
   9 C :    0.816152
  10 C :    0.456467
  11 C :   -0.479892
  12 C :   -0.354542
  13 C :   -0.350372
  14 C :   -0.288030
  15 C :   -0.487720
  16 C :   -0.904364
  17 H :    0.268808
  18 H :    0.261294
  19 H :    0.233248
  20 H :    0.272993
  21 H :    0.507022
  22 H :    0.278115
  23 H :    0.350621
  24 H :    0.286430
  25 H :    0.403712
  26 H :    0.381049
  27 H :    0.246408
  28 H :    0.277057
  29 H :    0.165858
  30 H :    0.213250
  31 H :    0.184304
  32 H :    0.207124
Sum of atomic charges:    1.0000000

LOEWDIN ATOMIC CHARGES
----------------------
   0 N :    0.899566
   1 C :   -0.203928
   2 C :    0.345953
   3 C :    0.360500
   4 C :   -0.447021
   5 C :    0.362739
   6 C :    0.375698
   7 O :    0.893408
   8 C :    0.613039
   9 C :   -0.087658
  10 C :   -0.044900
  11 C :    0.366216
  12 C :    0.394105
  13 C :    0.387350
  14 C :    0.395595
  15 C :    0.373973
  16 C :    0.989287
  17 H :   -0.298316
  18 H :   -0.302095
  19 H :   -0.481219
  20 H :   -0.297923
  21 H :   -0.306848
  22 H :   -0.302603
  23 H :   -0.295604
  24 H :   -0.234069
  25 H :   -0.295875
  26 H :   -0.283706
  27 H :   -0.306847
  28 H :   -0.321553
  29 H :   -0.300171
  30 H :   -0.293063
  31 H :   -0.344365
  32 H :   -0.309665

  Mayer bond orders larger than 0.100000
B(  0-N ,  1-C ) :   0.3553 B(  0-N ,  9-C ) :   1.1933 B(  0-N , 19-H ) :   1.1155
B(  1-C ,  2-C ) :   1.0403 B(  1-C ,  3-C ) :  -0.3126 B(  1-C ,  5-C ) :  -0.5323
B(  1-C ,  6-C ) :   1.2778 B(  1-C ,  9-C ) :  -0.1121 B(  2-C ,  3-C ) :   1.3204
B(  2-C ,  4-C ) :  -0.1859 B(  2-C ,  5-C ) :   0.1114 B(  2-C , 29-H ) :   1.1263
B(  3-C ,  4-C ) :   1.1035 B(  3-C ,  6-C ) :   0.2065 B(  3-C ,  7-O ) :   0.2939
B(  3-C , 29-H ) :  -0.1445 B(  3-C , 32-H ) :   1.0647 B(  4-C ,  5-C ) :   1.3026
B(  4-C ,  8-C ) :  -0.2111 B(  4-C , 32-H ) :  -0.1119 B(  5-C ,  6-C ) :   1.0289
B(  5-C ,  7-O ) :   0.2039 B(  5-C ,  8-C ) :   0.1951 B(  5-C , 30-H ) :  -0.1957
B(  5-C , 31-H ) :   1.1723 B(  6-C , 30-H ) :   1.0815 B(  6-C , 31-H ) :  -0.1351
B(  7-O ,  8-C ) :   0.9305 B(  8-C , 17-H ) :   0.9080 B(  8-C , 20-H ) :   0.9087
B(  8-C , 21-H ) :   0.7475 B(  9-C , 10-C ) :   0.7553 B(  9-C , 11-C ) :  -0.2297
B(  9-C , 15-C ) :  -0.5611 B(  9-C , 16-C ) :   0.6633 B(  9-C , 19-H ) :  -0.1130
B(  9-C , 26-H ) :  -0.1497 B( 10-C , 11-C ) :   0.9830 B( 10-C , 12-C ) :  -0.3848
B( 10-C , 14-C ) :  -0.4322 B( 10-C , 15-C ) :   1.0593 B( 10-C , 28-H ) :  -0.1108
B( 11-C , 12-C ) :   1.3036 B( 11-C , 14-C ) :   0.1220 B( 11-C , 15-C ) :   0.1142
B( 11-C , 22-H ) :  -0.1063 B( 11-C , 27-H ) :   0.9785 B( 12-C , 13-C ) :   1.1929
B( 12-C , 15-C ) :   0.1357 B( 12-C , 22-H ) :   1.0826 B( 13-C , 14-C ) :   1.1380
B( 13-C , 23-H ) :   1.0049 B( 14-C , 15-C ) :   1.3050 B( 14-C , 18-H ) :   1.1213
B( 15-C , 18-H ) :  -0.1360 B( 15-C , 28-H ) :   0.9933 B( 16-C , 24-H ) :   0.9259
B( 16-C , 25-H ) :   0.9250 B( 16-C , 26-H ) :   0.9667

MP2 TOTAL ENERGY:     -709.736253552 Eh
FINAL SINGLE POINT ENERGY      -709.736253552224

DIPOLE MOMENT
-------------
                                X             Y             Z
Electronic contribution:     -3.55302      -1.83690       1.67851
Nuclear contribution   :      2.05804       1.84280      -2.19957
                        -----------------------------------------
Total Dipole Moment    :     -1.49498       0.00591      -0.52106
                        -----------------------------------------
Magnitude (a.u.)       :      1.58319
Magnitude (Debye)      :      4.02416

Rotational constants in cm-1:     0.061805     0.005650     0.005539
Rotational constants in MHz :  1852.857453   169.380574   166.064321

                             ****ORCA TERMINATED NORMALLY****
TOTAL RUN TIME: 0 days 3 hours 43 minutes 23 seconds 247 msec
