                         Program Version 4.2.1 -  RELEASE  -
|  1> %pal
|  2>  nprocs 32
|  3> end
|  4> !RI-MP2 aug-cc-pVQZ aug-cc-pVQZ/C TightSCF
|  5> %maxcore 4500
|  6> *xyzfile 0 1  02_29P.xyz
|  7>
|  8>
|  9>                          ****END OF INPUT****

CARTESIAN COORDINATES (ANGSTROEM)
---------------------------------
  C      1.208205   -0.205209   -1.427911
  C     -1.208205    0.205209   -1.427911
  C     -0.761752    0.115221    0.066977
  C      0.761752   -0.115221    0.066977
  N     -0.813224   -1.074763   -2.041159
  N      0.399085   -1.284322   -2.029426
  N     -0.399085    1.284322   -2.029426
  N      0.813224    1.074763   -2.041159
  C      1.556414    0.944002    0.837794
  H      2.569701    0.998601    0.437975
  H      1.111373    1.927587    0.660793
  C     -1.556414   -0.944002    0.837794
  H     -2.569701   -0.998601    0.437975
  H     -1.111373   -1.927587    0.660793
  C      1.684649    0.692803    2.339108
  H      2.328521    1.481940    2.738412
  H      2.230717   -0.244500    2.498368
  C     -1.684649   -0.692803    2.339108
  H     -2.328521   -1.481940    2.738412
  H     -2.230717    0.244500    2.498368
  C     -0.399085   -0.660285    3.170819
  H     -0.686649   -0.873461    4.203178
  H      0.253222   -1.489695    2.875917
  C      0.399085    0.660285    3.170819
  H      0.686649    0.873461    4.203178
  H     -0.253222    1.489695    2.875917
  C     -2.668265    0.489837   -1.678399
  C      2.668265   -0.489837   -1.678399
  H      2.994978   -1.352038   -1.095177
  H      3.284826    0.371555   -1.429084
  H      2.812255   -0.717063   -2.734849
  H     -2.994978    1.352038   -1.095177
  H     -3.284826   -0.371555   -1.429084
  H     -2.812255    0.717063   -2.734849
  H     -0.982182    1.099314    0.488231
  H      0.982182   -1.099314    0.488231

 Total Charge           Charge          ....    0
 Multiplicity           Mult            ....    1
 Number of Electrons    NEL             ....  120
 Basis Dimension        Dim             .... 2200

ORBITAL ENERGIES
----------------

  NO   OCC          E(Eh)            E(eV)
   0   2.0000     -15.627329      -425.2412
   1   2.0000     -15.627310      -425.2407
   2   2.0000     -15.625817      -425.2001
   3   2.0000     -15.625811      -425.1999
   4   2.0000     -11.302028      -307.5438
   5   2.0000     -11.302001      -307.5431
   6   2.0000     -11.252600      -306.1988
   7   2.0000     -11.251998      -306.1824
   8   2.0000     -11.229109      -305.5596
   9   2.0000     -11.229107      -305.5595
  10   2.0000     -11.226743      -305.4952
  11   2.0000     -11.226732      -305.4949
  12   2.0000     -11.225008      -305.4480
  13   2.0000     -11.224444      -305.4326
  14   2.0000     -11.224410      -305.4317
  15   2.0000     -11.224410      -305.4317
  16   2.0000      -1.429296       -38.8931
  17   2.0000      -1.345103       -36.6021
  18   2.0000      -1.146769       -31.2052
  19   2.0000      -1.139173       -30.9985
  20   2.0000      -1.079955       -29.3871
  21   2.0000      -1.059330       -28.8258
  22   2.0000      -1.017474       -27.6869
  23   2.0000      -0.949235       -25.8300
  24   2.0000      -0.933446       -25.4004
  25   2.0000      -0.926834       -25.2204
  26   2.0000      -0.910766       -24.7832
  27   2.0000      -0.864799       -23.5324
  28   2.0000      -0.824040       -22.4233
  29   2.0000      -0.791929       -21.5495
  30   2.0000      -0.788895       -21.4669
  31   2.0000      -0.734239       -19.9797
  32   2.0000      -0.695916       -18.9368
  33   2.0000      -0.674656       -18.3583
  34   2.0000      -0.637574       -17.3493
  35   2.0000      -0.635994       -17.3063
  36   2.0000      -0.628794       -17.1104
  37   2.0000      -0.624639       -16.9973
  38   2.0000      -0.596082       -16.2202
  39   2.0000      -0.579964       -15.7816
  40   2.0000      -0.578802       -15.7500
  41   2.0000      -0.571129       -15.5412
  42   2.0000      -0.564585       -15.3631
  43   2.0000      -0.560273       -15.2458
  44   2.0000      -0.543289       -14.7836
  45   2.0000      -0.540723       -14.7138
  46   2.0000      -0.536419       -14.5967
  47   2.0000      -0.523039       -14.2326
  48   2.0000      -0.515044       -14.0150
  49   2.0000      -0.503167       -13.6919
  50   2.0000      -0.502624       -13.6771
  51   2.0000      -0.492634       -13.4053
  52   2.0000      -0.485876       -13.2214
  53   2.0000      -0.475817       -12.9476
  54   2.0000      -0.472572       -12.8593
  55   2.0000      -0.456640       -12.4258
  56   2.0000      -0.447841       -12.1864
  57   2.0000      -0.433557       -11.7977
  58   2.0000      -0.407649       -11.0927
  59   2.0000      -0.352348        -9.5879
  60   0.0000       0.018809         0.5118
  61   0.0000       0.023729         0.6457
  62   0.0000       0.026485         0.7207
  63   0.0000       0.028246         0.7686
  64   0.0000       0.037193         1.0121

MULLIKEN ATOMIC CHARGES
-----------------------
   0 C :    1.322955
   1 C :    1.324850
   2 C :    0.833169
   3 C :    0.837607
   4 N :   -0.408056
   5 N :   -0.707070
   6 N :   -0.706876
   7 N :   -0.408467
   8 C :   -0.711804
   9 H :    0.230591
  10 H :    0.166969
  11 C :   -0.711818
  12 H :    0.230758
  13 H :    0.166744
  14 C :   -0.596079
  15 H :    0.179451
  16 H :    0.243463
  17 C :   -0.595847
  18 H :    0.179372
  19 H :    0.244006
  20 C :   -0.530790
  21 H :    0.221578
  22 H :    0.305756
  23 C :   -0.530369
  24 H :    0.220996
  25 H :    0.305297
  26 C :   -1.171598
  27 C :   -1.172147
  28 H :    0.131825
  29 H :    0.184777
  30 H :    0.205220
  31 H :    0.131781
  32 H :    0.184750
  33 H :    0.205552
  34 H :    0.096389
  35 H :    0.097063
Sum of atomic charges:    0.0000000

LOEWDIN ATOMIC CHARGES
----------------------
   0 C :   -0.756180
   1 C :   -0.756179
   2 C :    0.116316
   3 C :    0.116317
   4 N :    0.402963
   5 N :    0.403917
   6 N :    0.403917
   7 N :    0.402963
   8 C :    0.564655
   9 H :   -0.305175
  10 H :   -0.257980
  11 C :    0.564655
  12 H :   -0.305175
  13 H :   -0.257980
  14 C :    0.573750
  15 H :   -0.264652
  16 H :   -0.265062
  17 C :    0.573751
  18 H :   -0.264652
  19 H :   -0.265062
  20 C :    0.570581
  21 H :   -0.273179
  22 H :   -0.274475
  23 C :    0.570581
  24 H :   -0.273179
  25 H :   -0.274475
  26 C :    0.891438
  27 C :    0.891438
  28 H :   -0.262599
  29 H :   -0.294472
  30 H :   -0.277463
  31 H :   -0.262599
  32 H :   -0.294472
  33 H :   -0.277463
  34 H :   -0.292383
  35 H :   -0.292383

  Mayer bond orders larger than 0.100000
B(  0-C ,  1-C ) :   0.1352 B(  0-C ,  3-C ) :   0.5654 B(  0-C ,  4-N ) :  -0.1636
B(  0-C ,  5-N ) :   0.3005 B(  0-C ,  7-N ) :   0.1871 B(  0-C , 27-C ) :  -0.3205
B(  0-C , 28-H ) :  -0.3310 B(  0-C , 29-H ) :  -0.2834 B(  0-C , 30-H ) :  -0.2152
B(  1-C ,  2-C ) :   0.5642 B(  1-C ,  4-N ) :   0.1865 B(  1-C ,  6-N ) :   0.3027
B(  1-C ,  7-N ) :  -0.1641 B(  1-C , 26-C ) :  -0.3205 B(  1-C , 31-H ) :  -0.3309
B(  1-C , 32-H ) :  -0.2825 B(  1-C , 33-H ) :  -0.2156 B(  2-C ,  3-C ) :   1.1372
B(  2-C ,  6-N ) :  -0.2326 B(  2-C ,  7-N ) :   0.1690 B(  2-C , 12-H ) :  -0.1642
B(  2-C , 13-H ) :  -0.1726 B(  2-C , 17-C ) :  -0.2636 B(  2-C , 20-C ) :   0.1180
B(  2-C , 23-C ) :  -0.1465 B(  2-C , 26-C ) :  -0.1033 B(  2-C , 34-H ) :   0.9607
B(  3-C ,  4-N ) :   0.1671 B(  3-C ,  5-N ) :  -0.2338 B(  3-C ,  9-H ) :  -0.1643
B(  3-C , 10-H ) :  -0.1726 B(  3-C , 14-C ) :  -0.2637 B(  3-C , 20-C ) :  -0.1467
B(  3-C , 23-C ) :   0.1181 B(  3-C , 27-C ) :  -0.1032 B(  3-C , 35-H ) :   0.9600
B(  4-N ,  5-N ) :   0.9371 B(  4-N , 11-C ) :   0.1530 B(  5-N ,  6-N ) :   0.1095
B(  5-N , 27-C ) :   0.1599 B(  6-N ,  7-N ) :   0.9377 B(  6-N , 26-C ) :   0.1593
B(  7-N ,  8-C ) :   0.1527 B(  8-C ,  9-H ) :   1.0597 B(  8-C , 10-H ) :   1.2201
B(  8-C , 14-C ) :   0.8346 B(  8-C , 15-H ) :  -0.1120 B(  8-C , 23-C ) :  -0.1232
B(  8-C , 35-H ) :  -0.1187 B( 11-C , 12-H ) :   1.0593 B( 11-C , 13-H ) :   1.2203
B( 11-C , 17-C ) :   0.8347 B( 11-C , 18-H ) :  -0.1124 B( 11-C , 20-C ) :  -0.1231
B( 11-C , 34-H ) :  -0.1185 B( 14-C , 15-H ) :   1.0944 B( 14-C , 16-H ) :   0.9781
B( 14-C , 23-C ) :   0.7480 B( 17-C , 18-H ) :   1.0946 B( 17-C , 19-H ) :   0.9778
B( 17-C , 20-C ) :   0.7480 B( 20-C , 21-H ) :   1.0562 B( 20-C , 22-H ) :   0.9776
B( 20-C , 23-C ) :   0.8342 B( 23-C , 24-H ) :   1.0566 B( 23-C , 25-H ) :   0.9783
B( 26-C , 31-H ) :   1.2427 B( 26-C , 32-H ) :   1.2259 B( 26-C , 33-H ) :   1.1622
B( 27-C , 28-H ) :   1.2425 B( 27-C , 29-H ) :   1.2259 B( 27-C , 30-H ) :   1.1625
B( 34-H , 35-H ) :   0.2512

MP2 TOTAL ENERGY:     -687.075254029 Eh
FINAL SINGLE POINT ENERGY      -687.075254028951

DIPOLE MOMENT
-------------
                                X             Y             Z
Electronic contribution:     -0.00000       0.00000     -16.12351
Nuclear contribution   :      0.00000       0.00000      17.63480
                        -----------------------------------------
Total Dipole Moment    :     -0.00000       0.00000       1.51129
                        -----------------------------------------
Magnitude (a.u.)       :      1.51129
Magnitude (Debye)      :      3.84138

Rotational constants in cm-1:     0.026957     0.017009     0.012814
Rotational constants in MHz :   808.149156   509.904976   384.143253

                             ****ORCA TERMINATED NORMALLY****
TOTAL RUN TIME: 0 days 7 hours 26 minutes 2 seconds 847 msec
