                         Program Version 4.2.1 -  RELEASE  -
|  1> %pal
|  2>  nprocs 32
|  3> end
|  4> !RI-MP2 aug-cc-pVQZ aug-cc-pVQZ/C TightSCF
|  5> %maxcore 4500
|  6> *xyzfile 0 1  02_23P.xyz
|  7>
|  8>
|  9>                          ****END OF INPUT****

CARTESIAN COORDINATES (ANGSTROEM)
---------------------------------
  O      3.234989   -1.304053    0.641684
  C      3.014079   -1.264809   -0.763056
  C      2.134566   -0.048104   -1.016279
  C      0.618429   -0.298650   -0.914657
  C      0.214472   -1.066791    0.336823
  O     -1.033750   -1.754859    0.192569
  H      0.194504   -0.427544    1.217676
  H      0.916558   -1.870388    0.538899
  H      2.554775   -2.210436   -1.057157
  H      3.970054   -1.167188   -1.292344
  C      3.165652    0.014194    1.177673
  C     -2.259696   -1.197224    0.146632
  C     -2.435503    0.329913    0.103712
  O     -3.198275   -1.944756    0.127027
  C      2.666154    0.935358    0.042930
  H      4.151646    0.315704    1.542857
  H      2.476338   -0.001011    2.026084
  C      1.671567    1.975182    0.460980
  C      0.438182    2.033432   -0.025100
  H      2.004920    2.720415    1.177194
  C     -0.103065    1.049879   -1.034693
  H     -0.221101    2.835473    0.291178
  C     -1.633482    0.963518   -1.055553
  H     -1.925766    0.437910   -1.970434
  H     -2.010214    1.984917   -1.170349
  C     -2.136306    0.938649    1.484982
  H     -2.755058    0.454943    2.243463
  H     -2.395422    1.999731    1.474168
  H     -1.097460    0.862581    1.793872
  C     -3.917366    0.596948   -0.195878
  H     -4.095468    1.674583   -0.209017
  H     -4.556800    0.143675    0.559535
  H     -4.207925    0.183229   -1.161927
  H      2.322868    0.351976   -2.015309
  H      3.535106    1.448481   -0.381437
  H      0.333614   -0.928772   -1.764392
  H      0.155017    1.452085   -2.023894

 Total Charge           Charge          ....    0
 Multiplicity           Mult            ....    1
 Number of Electrons    NEL             ....  128
 Basis Dimension        Dim             .... 2280

ORBITAL ENERGIES
----------------

  NO   OCC          E(Eh)            E(eV)
   0   2.0000     -20.584965      -560.1454
   1   2.0000     -20.557408      -559.3955
   2   2.0000     -20.523185      -558.4643
   3   2.0000     -11.365030      -309.2582
   4   2.0000     -11.286224      -307.1138
   5   2.0000     -11.281733      -306.9916
   6   2.0000     -11.281088      -306.9740
   7   2.0000     -11.259189      -306.3781
   8   2.0000     -11.246821      -306.0416
   9   2.0000     -11.246063      -306.0209
  10   2.0000     -11.243469      -305.9503
  11   2.0000     -11.242747      -305.9307
  12   2.0000     -11.239978      -305.8553
  13   2.0000     -11.239617      -305.8455
  14   2.0000     -11.237765      -305.7951
  15   2.0000     -11.228673      -305.5477
  16   2.0000     -11.212982      -305.1208
  17   2.0000      -1.446031       -39.3485
  18   2.0000      -1.385262       -37.6949
  19   2.0000      -1.348532       -36.6954
  20   2.0000      -1.162788       -31.6411
  21   2.0000      -1.117267       -30.4024
  22   2.0000      -1.064838       -28.9757
  23   2.0000      -1.052367       -28.6364
  24   2.0000      -0.994911       -27.0729
  25   2.0000      -0.982786       -26.7430
  26   2.0000      -0.943838       -25.6831
  27   2.0000      -0.913208       -24.8496
  28   2.0000      -0.874895       -23.8071
  29   2.0000      -0.838108       -22.8061
  30   2.0000      -0.814550       -22.1650
  31   2.0000      -0.807304       -21.9678
  32   2.0000      -0.753013       -20.4905
  33   2.0000      -0.723084       -19.6761
  34   2.0000      -0.702652       -19.1201
  35   2.0000      -0.690763       -18.7966
  36   2.0000      -0.681970       -18.5574
  37   2.0000      -0.659164       -17.9368
  38   2.0000      -0.656920       -17.8757
  39   2.0000      -0.633681       -17.2433
  40   2.0000      -0.619570       -16.8593
  41   2.0000      -0.615485       -16.7482
  42   2.0000      -0.602452       -16.3935
  43   2.0000      -0.598203       -16.2779
  44   2.0000      -0.589354       -16.0371
  45   2.0000      -0.585779       -15.9399
  46   2.0000      -0.575781       -15.6678
  47   2.0000      -0.555140       -15.1061
  48   2.0000      -0.545749       -14.8506
  49   2.0000      -0.542121       -14.7519
  50   2.0000      -0.534531       -14.5453
  51   2.0000      -0.521233       -14.1835
  52   2.0000      -0.516544       -14.0559
  53   2.0000      -0.502292       -13.6681
  54   2.0000      -0.495952       -13.4955
  55   2.0000      -0.487454       -13.2643
  56   2.0000      -0.478319       -13.0157
  57   2.0000      -0.464628       -12.6432
  58   2.0000      -0.452334       -12.3086
  59   2.0000      -0.449954       -12.2439
  60   2.0000      -0.434641       -11.8272
  61   2.0000      -0.423100       -11.5131
  62   2.0000      -0.418319       -11.3831
  63   2.0000      -0.361914        -9.8482
  64   0.0000       0.015927         0.4334
  65   0.0000       0.022623         0.6156
  66   0.0000       0.023729         0.6457
  67   0.0000       0.030113         0.8194
  68   0.0000       0.035098         0.9551

MULLIKEN ATOMIC CHARGES
-----------------------
   0 O :   -1.129939
   1 C :   -0.430601
   2 C :    0.217477
   3 C :    0.426835
   4 C :    0.301508
   5 O :   -1.256066
   6 H :   -0.011475
   7 H :    0.353209
   8 H :    0.326970
   9 H :    0.195871
  10 C :   -0.135018
  11 C :    1.875738
  12 C :    0.889129
  13 O :   -1.204387
  14 C :   -0.336942
  15 H :    0.370596
  16 H :    0.232567
  17 C :   -0.621588
  18 C :   -0.596800
  19 H :    0.152263
  20 C :    0.591318
  21 H :    0.029860
  22 C :   -0.568472
  23 H :    0.095693
  24 H :    0.154119
  25 C :   -1.162083
  26 H :    0.118228
  27 H :    0.181950
  28 H :    0.405362
  29 C :   -1.222521
  30 H :    0.192584
  31 H :    0.245041
  32 H :    0.232741
  33 H :    0.127161
  34 H :    0.299512
  35 H :    0.188043
  36 H :    0.472117
Sum of atomic charges:    0.0000000

LOEWDIN ATOMIC CHARGES
----------------------
   0 O :    0.922257
   1 C :    0.211287
   2 C :    0.131682
   3 C :    0.161351
   4 C :    0.234962
   5 O :    0.907358
   6 H :   -0.335811
   7 H :   -0.346809
   8 H :   -0.285453
   9 H :   -0.264655
  10 C :    0.218667
  11 C :   -1.019310
  12 C :   -0.283532
  13 O :    0.717948
  14 C :    0.113047
  15 H :   -0.275559
  16 H :   -0.300409
  17 C :    0.439971
  18 C :    0.409753
  19 H :   -0.291452
  20 C :    0.147813
  21 H :   -0.303961
  22 C :    0.535465
  23 H :   -0.255978
  24 H :   -0.276668
  25 C :    0.932566
  26 H :   -0.250288
  27 H :   -0.261131
  28 H :   -0.325025
  29 C :    0.863427
  30 H :   -0.270540
  31 H :   -0.285904
  32 H :   -0.268897
  33 H :   -0.251022
  34 H :   -0.267517
  35 H :   -0.258072
  36 H :   -0.269560

  Mayer bond orders larger than 0.100000
B(  0-O ,  1-C ) :   0.5995 B(  0-O ,  2-C ) :  -0.2450 B(  0-O ,  3-C ) :   0.1075
B(  0-O , 10-C ) :   0.5632 B(  0-O , 14-C ) :   0.2158 B(  1-C ,  2-C ) :   0.7614
B(  1-C ,  3-C ) :  -0.2724 B(  1-C ,  8-H ) :   0.9999 B(  1-C ,  9-H ) :   1.1787
B(  2-C ,  3-C ) :   0.5472 B(  2-C ,  9-H ) :  -0.1669 B(  2-C , 10-C ) :  -0.1338
B(  2-C , 14-C ) :   0.4189 B(  2-C , 33-H ) :   1.1997 B(  3-C ,  4-C ) :   0.7836
B(  3-C ,  5-O ) :  -0.1884 B(  3-C ,  6-H ) :  -0.1754 B(  3-C , 20-C ) :   0.7996
B(  3-C , 35-H ) :   0.9064 B(  4-C ,  6-H ) :   1.1696 B(  4-C ,  7-H ) :   0.9477
B(  4-C , 12-C ) :  -0.1081 B(  5-O ,  6-H ) :   0.2235 B(  5-O ,  7-H ) :  -0.1368
B(  5-O , 11-C ) :   0.7642 B(  5-O , 12-C ) :   0.1532 B(  5-O , 13-O ) :   0.2267
B(  5-O , 35-H ) :   0.1568 B( 10-C , 14-C ) :   1.0290 B( 10-C , 15-H ) :   0.8518
B( 10-C , 16-H ) :   0.9916 B( 11-C , 12-C ) :   1.1718 B( 12-C , 13-O ) :   0.3833
B( 12-C , 22-C ) :   0.5686 B( 12-C , 25-C ) :   0.4016 B( 12-C , 26-H ) :  -0.1518
B( 12-C , 27-H ) :  -0.1497 B( 12-C , 29-C ) :  -0.1893 B( 12-C , 30-H ) :  -0.2223
B( 12-C , 31-H ) :  -0.2355 B( 12-C , 32-H ) :  -0.2543 B( 13-O , 22-C ) :   0.1389
B( 13-O , 29-C ) :   0.1508 B( 14-C , 17-C ) :   0.8290 B( 14-C , 34-H ) :   0.9354
B( 17-C , 18-C ) :   1.6872 B( 17-C , 19-H ) :   1.2264 B( 17-C , 20-C ) :  -0.3615
B( 17-C , 21-H ) :  -0.1309 B( 17-C , 34-H ) :  -0.1144 B( 18-C , 19-H ) :  -0.1888
B( 18-C , 20-C ) :   0.3899 B( 18-C , 21-H ) :   1.3591 B( 18-C , 22-C ) :  -0.1407
B( 18-C , 36-H ) :  -0.3241 B( 20-C , 21-H ) :  -0.1762 B( 20-C , 22-C ) :   0.6689
B( 20-C , 23-H ) :  -0.1628 B( 20-C , 36-H ) :   0.9077 B( 22-C , 23-H ) :   1.2240
B( 22-C , 24-H ) :   1.1108 B( 25-C , 26-H ) :   1.2280 B( 25-C , 27-H ) :   1.0958
B( 25-C , 28-H ) :   0.8792 B( 25-C , 29-C ) :   0.1639 B( 29-C , 30-H ) :   1.1322
B( 29-C , 31-H ) :   1.1233 B( 29-C , 32-H ) :   1.1615

MP2 TOTAL ENERGY:     -769.930966241 Eh
FINAL SINGLE POINT ENERGY      -769.930966240699

DIPOLE MOMENT
-------------
                                X             Y             Z
Electronic contribution:      1.88043      -8.32677      -0.28008
Nuclear contribution   :     -0.67703      10.35738      -0.16905
                        -----------------------------------------
Total Dipole Moment    :      1.20340       2.03061      -0.44913
                        -----------------------------------------
Magnitude (a.u.)       :      2.40276
Magnitude (Debye)      :      6.10733

Rotational constants in cm-1:     0.031773     0.011523     0.009984
Rotational constants in MHz :   952.532785   345.447294   299.315239

                             ****ORCA TERMINATED NORMALLY****
TOTAL RUN TIME: 0 days 7 hours 22 minutes 54 seconds 213 msec
