                         Program Version 4.2.1 -  RELEASE  -
|  1> %pal
|  2>  nprocs 32
|  3> end
|  4> !RI-MP2 aug-cc-pVQZ aug-cc-pVQZ/C TightSCF
|  5> %maxcore 4500
|  6> *xyzfile 0 1  10_8P.xyz
|  7>
|  8>
|  9>                          ****END OF INPUT****

CARTESIAN COORDINATES (ANGSTROEM)
---------------------------------
  C      1.702747    0.482681   -0.042240
  C      1.918772   -0.785728    0.514928
  C      3.065621   -1.481922    0.119810
  C      3.990988   -0.953271   -0.759981
  C      3.789132    0.318125   -1.278541
  C      2.652515    1.015982   -0.922138
  H      3.238267   -2.468486    0.536413
  H      4.866312   -1.528912   -1.036004
  H      4.504749    0.756730   -1.963012
  H      2.470607    2.003798   -1.325794
  C      0.513457    1.326194    0.180563
  C     -0.820445    1.022387    0.018237
  C     -1.479899   -0.260104   -0.239430
  C     -2.306330   -0.441581   -1.347018
  C     -1.242488   -1.319501    0.642483
  C     -2.896768   -1.670566   -1.589329
  H     -2.467559    0.381570   -2.033001
  C     -1.841398   -2.548588    0.382833
  C     -2.660041   -2.728332   -0.721377
  H     -3.532412   -1.805456   -2.455657
  H     -1.669018   -3.374413    1.064525
  H     -3.116956   -3.693474   -0.903848
  C     -0.361348   -1.128718    1.847579
  H     -3.424234    1.704828    0.647103
  C     -2.870704    2.505317    0.158967
  N     -1.453408    2.208575    0.193354
  H     -3.018929    3.441062    0.692036
  H     -3.222082    2.614030   -0.867553
  N     -0.570735    3.184702    0.435090
  N      0.611650    2.662009    0.419661
  H     -0.455785   -0.108912    2.220322
  H     -0.713968   -1.785066    2.647203
  C      1.113343   -1.467242    1.610644
  H      1.182677   -2.543518    1.430892
  H      1.642846   -1.291583    2.553709

 Total Charge           Charge          ....    0
 Multiplicity           Mult            ....    1
 Number of Electrons    NEL             ....  138
 Basis Dimension        Dim             .... 2290

ORBITAL ENERGIES
----------------

  NO   OCC          E(Eh)            E(eV)
   0   2.0000     -15.653034      -425.9407
   1   2.0000     -15.627189      -425.2374
   2   2.0000     -15.583600      -424.0513
   3   2.0000     -11.281553      -306.9867
   4   2.0000     -11.277616      -306.8795
   5   2.0000     -11.256464      -306.3039
   6   2.0000     -11.252799      -306.2042
   7   2.0000     -11.250533      -306.1426
   8   2.0000     -11.249339      -306.1101
   9   2.0000     -11.246473      -306.0321
  10   2.0000     -11.243334      -305.9467
  11   2.0000     -11.242594      -305.9265
  12   2.0000     -11.241369      -305.8932
  13   2.0000     -11.240770      -305.8769
  14   2.0000     -11.236428      -305.7587
  15   2.0000     -11.235037      -305.7209
  16   2.0000     -11.228356      -305.5391
  17   2.0000     -11.225404      -305.4588
  18   2.0000     -11.224375      -305.4308
  19   2.0000     -11.223353      -305.4030
  20   2.0000      -1.438225       -39.1361
  21   2.0000      -1.221063       -33.2268
  22   2.0000      -1.183667       -32.2092
  23   2.0000      -1.158145       -31.5147
  24   2.0000      -1.102653       -30.0047
  25   2.0000      -1.085003       -29.5244
  26   2.0000      -1.039545       -28.2874
  27   2.0000      -1.033965       -28.1356
  28   2.0000      -1.008126       -27.4325
  29   2.0000      -0.984986       -26.8028
  30   2.0000      -0.975383       -26.5415
  31   2.0000      -0.896950       -24.4072
  32   2.0000      -0.863316       -23.4920
  33   2.0000      -0.847059       -23.0496
  34   2.0000      -0.820845       -22.3363
  35   2.0000      -0.811025       -22.0691
  36   2.0000      -0.791895       -21.5486
  37   2.0000      -0.763981       -20.7890
  38   2.0000      -0.725353       -19.7379
  39   2.0000      -0.689615       -18.7654
  40   2.0000      -0.681743       -18.5512
  41   2.0000      -0.674668       -18.3586
  42   2.0000      -0.657241       -17.8844
  43   2.0000      -0.642664       -17.4878
  44   2.0000      -0.634399       -17.2629
  45   2.0000      -0.625161       -17.0115
  46   2.0000      -0.611172       -16.6308
  47   2.0000      -0.599759       -16.3203
  48   2.0000      -0.595396       -16.2015
  49   2.0000      -0.582658       -15.8549
  50   2.0000      -0.577594       -15.7171
  51   2.0000      -0.574342       -15.6286
  52   2.0000      -0.563478       -15.3330
  53   2.0000      -0.551163       -14.9979
  54   2.0000      -0.528937       -14.3931
  55   2.0000      -0.514997       -14.0138
  56   2.0000      -0.507033       -13.7971
  57   2.0000      -0.503107       -13.6902
  58   2.0000      -0.496461       -13.5094
  59   2.0000      -0.486426       -13.2363
  60   2.0000      -0.479438       -13.0462
  61   2.0000      -0.474710       -12.9175
  62   2.0000      -0.433469       -11.7953
  63   2.0000      -0.402285       -10.9467
  64   2.0000      -0.378739       -10.3060
  65   2.0000      -0.347292        -9.4503
  66   2.0000      -0.338965        -9.2237
  67   2.0000      -0.325270        -8.8511
  68   2.0000      -0.302361        -8.2276
  69   0.0000       0.017980         0.4893
  70   0.0000       0.022753         0.6191
  71   0.0000       0.026832         0.7301
  72   0.0000       0.027799         0.7565
  73   0.0000       0.035314         0.9609

MULLIKEN ATOMIC CHARGES
-----------------------
   0 C :    0.682384
   1 C :    0.400209
   2 C :   -0.799798
   3 C :   -0.346575
   4 C :   -0.343153
   5 C :   -0.511846
   6 H :    0.189551
   7 H :    0.261143
   8 H :    0.253705
   9 H :    0.181793
  10 C :    0.938633
  11 C :    0.883073
  12 C :    0.108099
  13 C :   -0.512041
  14 C :    0.809004
  15 C :   -0.435206
  16 H :    0.205552
  17 C :   -0.743983
  18 C :   -0.368202
  19 H :    0.241031
  20 H :    0.243968
  21 H :    0.269975
  22 C :   -0.621371
  23 H :    0.341146
  24 C :   -1.142803
  25 N :   -0.138233
  26 H :    0.414239
  27 H :    0.342888
  28 N :   -0.491917
  29 N :   -0.761854
  30 H :    0.246675
  31 H :    0.144754
  32 C :   -0.401263
  33 H :    0.150946
  34 H :    0.309476
Sum of atomic charges:    0.0000000

LOEWDIN ATOMIC CHARGES
----------------------
   0 C :   -0.075129
   1 C :   -0.015890
   2 C :    0.342594
   3 C :    0.354867
   4 C :    0.357767
   5 C :    0.331796
   6 H :   -0.319761
   7 H :   -0.317521
   8 H :   -0.318814
   9 H :   -0.326848
  10 C :   -0.412489
  11 C :   -0.313556
  12 C :   -0.072260
  13 C :    0.352250
  14 C :   -0.049059
  15 C :    0.361901
  16 H :   -0.309830
  17 C :    0.370481
  18 C :    0.361449
  19 H :   -0.317420
  20 H :   -0.307239
  21 H :   -0.315124
  22 C :    0.527852
  23 H :   -0.282255
  24 C :    0.809619
  25 N :    0.153321
  26 H :   -0.301524
  27 H :   -0.275003
  28 N :    0.255856
  29 N :    0.344102
  30 H :   -0.295562
  31 H :   -0.276852
  32 C :    0.537878
  33 H :   -0.302635
  34 H :   -0.256961

  Mayer bond orders larger than 0.100000
B(  0-C ,  1-C ) :   0.8864 B(  0-C ,  2-C ) :  -0.5271 B(  0-C ,  3-C ) :   0.1282
B(  0-C ,  4-C ) :  -0.3016 B(  0-C ,  5-C ) :   1.4713 B(  0-C , 10-C ) :   0.5423
B(  0-C , 11-C ) :  -0.2784 B(  0-C , 12-C ) :   0.1461 B(  0-C , 29-N ) :  -0.2363
B(  0-C , 32-C ) :  -0.1562 B(  1-C ,  2-C ) :   1.0175 B(  1-C ,  3-C ) :  -0.2195
B(  1-C ,  5-C ) :  -0.3828 B(  1-C , 10-C ) :  -0.3040 B(  1-C , 32-C ) :   0.3673
B(  1-C , 33-H ) :  -0.1422 B(  1-C , 34-H ) :  -0.1067 B(  2-C ,  3-C ) :   1.3547
B(  2-C ,  4-C ) :   0.1411 B(  2-C ,  5-C ) :   0.2616 B(  2-C ,  6-H ) :   1.1244
B(  2-C ,  7-H ) :  -0.1710 B(  2-C , 32-C ) :  -0.1489 B(  3-C ,  4-C ) :   1.1696
B(  3-C ,  7-H ) :   1.1312 B(  4-C ,  5-C ) :   1.1981 B(  4-C ,  7-H ) :  -0.1011
B(  4-C ,  8-H ) :   1.1453 B(  5-C ,  8-H ) :  -0.1785 B(  5-C ,  9-H ) :   1.0917
B(  5-C , 10-C ) :  -0.4953 B( 10-C , 11-C ) :   1.9823 B( 10-C , 12-C ) :  -0.2579
B( 10-C , 14-C ) :  -0.1719 B( 10-C , 25-N ) :   0.3069 B( 10-C , 29-N ) :   0.1015
B( 11-C , 12-C ) :   0.3076 B( 11-C , 13-C ) :  -0.4444 B( 11-C , 14-C ) :  -0.3848
B( 11-C , 18-C ) :  -0.1110 B( 11-C , 22-C ) :  -0.1286 B( 11-C , 24-C ) :  -0.1762
B( 11-C , 25-N ) :   0.1967 B( 11-C , 29-N ) :   0.4104 B( 12-C , 13-C ) :   1.4109
B( 12-C , 14-C ) :   0.9875 B( 12-C , 15-C ) :  -0.2496 B( 12-C , 17-C ) :  -0.4985
B( 12-C , 18-C ) :   0.1127 B( 12-C , 25-N ) :   0.1654 B( 12-C , 28-N ) :   0.1127
B( 13-C , 14-C ) :  -0.3257 B( 13-C , 15-C ) :   1.2755 B( 13-C , 16-H ) :   1.0552
B( 13-C , 17-C ) :   0.2584 B( 13-C , 19-H ) :  -0.1747 B( 14-C , 17-C ) :   0.9602
B( 14-C , 18-C ) :  -0.2811 B( 14-C , 22-C ) :   0.7001 B( 14-C , 31-H ) :  -0.1573
B( 15-C , 17-C ) :   0.2025 B( 15-C , 18-C ) :   1.1574 B( 15-C , 19-H ) :   1.1502
B( 15-C , 21-H ) :  -0.1217 B( 17-C , 18-C ) :   1.2755 B( 17-C , 20-H ) :   1.0360
B( 17-C , 21-H ) :  -0.2071 B( 17-C , 22-C ) :  -0.1057 B( 18-C , 21-H ) :   1.1537
B( 22-C , 30-H ) :   0.9638 B( 22-C , 31-H ) :   1.1613 B( 22-C , 32-C ) :   1.0626
B( 23-H , 24-C ) :   0.9589 B( 24-C , 25-N ) :   0.6679 B( 24-C , 26-H ) :   0.8660
B( 24-C , 27-H ) :   0.9789 B( 25-N , 28-N ) :   0.7716 B( 28-N , 29-N ) :   1.0509
B( 32-C , 33-H ) :   1.1026 B( 32-C , 34-H ) :   0.9162

MP2 TOTAL ENERGY:     -819.664297783 Eh
FINAL SINGLE POINT ENERGY      -819.664297782900

DIPOLE MOMENT
-------------
                                X             Y             Z
Electronic contribution:      2.36560       6.17726      -1.36729
Nuclear contribution   :     -3.69308      -7.58746       1.20348
                        -----------------------------------------
Total Dipole Moment    :     -1.32748      -1.41020      -0.16380
                        -----------------------------------------
Magnitude (a.u.)       :      1.94363
Magnitude (Debye)      :      4.94032

Rotational constants in cm-1:     0.016110     0.011266     0.008062
Rotational constants in MHz :   482.969751   337.747974   241.681325

                             ****ORCA TERMINATED NORMALLY****
TOTAL RUN TIME: 0 days 6 hours 21 minutes 1 seconds 792 msec
