                         Program Version 4.2.1 -  RELEASE  -
|  1> %pal
|  2>  nprocs 32
|  3> end
|  4> !RI-MP2 aug-cc-pVQZ aug-cc-pVQZ/C TightSCF
|  5> %maxcore 4500
|  6> *xyzfile 0 1  02_27TS.xyz
|  7>
|  8>
|  9>                          ****END OF INPUT****

CARTESIAN COORDINATES (ANGSTROEM)
---------------------------------
  C      1.600495    1.011618   -0.099264
  C     -0.771235   -0.211075   -0.997171
  C     -0.933872    2.055089   -0.741668
  C     -0.350327    2.305893    0.482601
  C      0.914347    1.813103    0.800105
  C      2.902816    0.317548    0.178259
  C      2.843433   -1.118102   -0.405877
  C      1.499433   -1.311688   -1.117870
  H     -0.721884   -0.109248   -2.076331
  H     -1.980448    2.277152   -0.907264
  H     -0.968291    2.692993    1.286161
  H      1.254714    1.864538    1.830234
  H      3.722246    0.880894   -0.276075
  H      2.943055   -1.848999    0.398836
  H      1.527355   -0.873541   -2.118811
  H     -0.333760    2.020331   -1.638855
  H      1.444875    1.233085   -1.148963
  H      3.098623    0.295517    1.252796
  H      3.668720   -1.307390   -1.094013
  H      1.289641   -2.378273   -1.249845
  C      0.188677   -1.255315    1.067245
  H      1.067669   -1.062655    1.685521
  H      0.132437   -2.347461    0.957713
  C     -2.302857   -0.949258    0.909417
  C      0.373756   -0.670945   -0.325267
  C     -2.137474   -0.448291   -0.511646
  O     -3.105600   -0.317340   -1.237405
  C     -1.065763   -0.758377    1.776864
  H     -3.186561   -0.470450    1.334586
  H     -2.544928   -2.014836    0.819687
  H     -0.949421    0.296109    2.026002
  H     -1.187810   -1.290240    2.723494

 Total Charge           Charge          ....    0
 Multiplicity           Mult            ....    1
 Number of Electrons    NEL             ....  104
 Basis Dimension        Dim             .... 1948

ORBITAL ENERGIES
----------------

  NO   OCC          E(Eh)            E(eV)
   0   2.0000     -20.509557      -558.0934
   1   2.0000     -11.309506      -307.7473
   2   2.0000     -11.261875      -306.4512
   3   2.0000     -11.248283      -306.0813
   4   2.0000     -11.246677      -306.0377
   5   2.0000     -11.235448      -305.7321
   6   2.0000     -11.235190      -305.7251
   7   2.0000     -11.234113      -305.6958
   8   2.0000     -11.232075      -305.6403
   9   2.0000     -11.230647      -305.6014
  10   2.0000     -11.228828      -305.5520
  11   2.0000     -11.226839      -305.4978
  12   2.0000     -11.224499      -305.4341
  13   2.0000     -11.222694      -305.3850
  14   2.0000      -1.358119       -36.9563
  15   2.0000      -1.155406       -31.4402
  16   2.0000      -1.102636       -30.0043
  17   2.0000      -1.083237       -29.4764
  18   2.0000      -1.030611       -28.0443
  19   2.0000      -0.985113       -26.8063
  20   2.0000      -0.980858       -26.6905
  21   2.0000      -0.932908       -25.3857
  22   2.0000      -0.868683       -23.6381
  23   2.0000      -0.841168       -22.8894
  24   2.0000      -0.807185       -21.9646
  25   2.0000      -0.769247       -20.9323
  26   2.0000      -0.735005       -20.0005
  27   2.0000      -0.700713       -19.0674
  28   2.0000      -0.671318       -18.2675
  29   2.0000      -0.656005       -17.8508
  30   2.0000      -0.651868       -17.7382
  31   2.0000      -0.632010       -17.1979
  32   2.0000      -0.620968       -16.8974
  33   2.0000      -0.611557       -16.6413
  34   2.0000      -0.598189       -16.2776
  35   2.0000      -0.571191       -15.5429
  36   2.0000      -0.564679       -15.3657
  37   2.0000      -0.562588       -15.3088
  38   2.0000      -0.550372       -14.9764
  39   2.0000      -0.537078       -14.6146
  40   2.0000      -0.525661       -14.3039
  41   2.0000      -0.511863       -13.9285
  42   2.0000      -0.494348       -13.4519
  43   2.0000      -0.489965       -13.3326
  44   2.0000      -0.485585       -13.2134
  45   2.0000      -0.481104       -13.0915
  46   2.0000      -0.473414       -12.8823
  47   2.0000      -0.464647       -12.6437
  48   2.0000      -0.449409       -12.2290
  49   2.0000      -0.389686       -10.6039
  50   2.0000      -0.312629        -8.5071
  51   2.0000      -0.304864        -8.2958
  52   0.0000       0.018704         0.5090
  53   0.0000       0.023716         0.6453
  54   0.0000       0.027285         0.7425
  55   0.0000       0.030075         0.8184
  56   0.0000       0.037639         1.0242

MULLIKEN ATOMIC CHARGES
-----------------------
   0 C :    0.542015
   1 C :   -1.161691
   2 C :   -0.632250
   3 C :   -0.344136
   4 C :   -0.462100
   5 C :   -0.752138
   6 C :   -0.550863
   7 C :   -0.907742
   8 H :    0.036634
   9 H :    0.256022
  10 H :    0.130489
  11 H :    0.083511
  12 H :    0.296513
  13 H :    0.101345
  14 H :    0.104372
  15 H :    0.244075
  16 H :    0.451068
  17 H :    0.084124
  18 H :    0.259481
  19 H :    0.266134
  20 C :   -0.552880
  21 H :    0.337635
  22 H :    0.126507
  23 C :   -0.757349
  24 C :    1.962398
  25 C :    1.715474
  26 O :   -1.080006
  27 C :   -0.610130
  28 H :    0.208064
  29 H :    0.158378
  30 H :    0.243406
  31 H :    0.203639
Sum of atomic charges:   -0.0000000

LOEWDIN ATOMIC CHARGES
----------------------
   0 C :    0.249539
   1 C :    0.265628
   2 C :    0.724292
   3 C :    0.355158
   4 C :    0.374470
   5 C :    0.557642
   6 C :    0.567406
   7 C :    0.523674
   8 H :   -0.327347
   9 H :   -0.291922
  10 H :   -0.312940
  11 H :   -0.293570
  12 H :   -0.255194
  13 H :   -0.270717
  14 H :   -0.270949
  15 H :   -0.344848
  16 H :   -0.350968
  17 H :   -0.276090
  18 H :   -0.253752
  19 H :   -0.244803
  20 C :    0.521516
  21 H :   -0.287219
  22 H :   -0.248140
  23 C :    0.506444
  24 C :   -0.105732
  25 C :   -0.671943
  26 O :    0.733748
  27 C :    0.537387
  28 H :   -0.279166
  29 H :   -0.270881
  30 H :   -0.313693
  31 H :   -0.247031

  Mayer bond orders larger than 0.100000
B(  0-C ,  1-C ) :   0.1404 B(  0-C ,  3-C ) :  -0.4841 B(  0-C ,  4-C ) :   0.7058
B(  0-C ,  5-C ) :   0.3924 B(  0-C ,  6-C ) :  -0.1371 B(  0-C , 11-H ) :  -0.1552
B(  0-C , 12-H ) :  -0.1601 B(  0-C , 16-H ) :   0.8844 B(  0-C , 17-H ) :  -0.2097
B(  0-C , 24-C ) :   0.2588 B(  1-C ,  2-C ) :   0.2942 B(  1-C ,  8-H ) :   1.1868
B(  1-C , 24-C ) :   0.7082 B(  1-C , 25-C ) :   1.4287 B(  1-C , 26-O ) :   0.5444
B(  1-C , 27-C ) :   0.1005 B(  2-C ,  3-C ) :   1.3607 B(  2-C ,  9-H ) :   1.0531
B(  2-C , 15-H ) :   1.0836 B(  3-C ,  4-C ) :   1.1494 B(  3-C ,  9-H ) :  -0.1306
B(  3-C , 10-H ) :   1.2368 B(  3-C , 11-H ) :  -0.1341 B(  4-C ,  5-C ) :  -0.1828
B(  4-C , 10-H ) :  -0.2135 B(  4-C , 11-H ) :   1.2539 B(  4-C , 16-H ) :  -0.1105
B(  5-C ,  6-C ) :   1.1449 B(  5-C , 12-H ) :   1.0038 B(  5-C , 17-H ) :   1.2398
B(  6-C ,  7-C ) :   1.0283 B(  6-C , 13-H ) :   1.1422 B(  6-C , 18-H ) :   0.9794
B(  6-C , 24-C ) :  -0.4315 B(  7-C , 14-H ) :   1.3017 B(  7-C , 19-H ) :   1.0484
B(  8-H , 26-O ) :   0.1052 B( 14-H , 24-C ) :  -0.2366 B( 19-H , 24-C ) :  -0.1543
B( 20-C , 21-H ) :   0.9683 B( 20-C , 22-H ) :   1.1628 B( 20-C , 23-C ) :  -0.1048
B( 20-C , 24-C ) :   0.3441 B( 20-C , 27-C ) :   0.7483 B( 22-H , 24-C ) :  -0.1262
B( 23-C , 25-C ) :   0.7858 B( 23-C , 26-O ) :   0.2995 B( 23-C , 27-C ) :   0.9712
B( 23-C , 28-H ) :   0.9935 B( 23-C , 29-H ) :   1.0428 B( 24-C , 25-C ) :  -0.1317
B( 24-C , 26-O ) :   0.1360 B( 24-C , 27-C ) :  -0.1527 B( 25-C , 27-C ) :  -0.1114
B( 27-C , 30-H ) :   0.9666 B( 27-C , 31-H ) :   1.0373

MP2 TOTAL ENERGY:     -580.339704791 Eh
FINAL SINGLE POINT ENERGY      -580.339704790872

DIPOLE MOMENT
-------------
                                X             Y             Z
Electronic contribution:     -6.76952       1.97487      -3.06022
Nuclear contribution   :      8.44491      -2.20428       3.88550
                        -----------------------------------------
Total Dipole Moment    :      1.67539      -0.22942       0.82528
                        -----------------------------------------
Magnitude (a.u.)       :      1.88166
Magnitude (Debye)      :      4.78281

Rotational constants in cm-1:     0.035521     0.020281     0.017742
Rotational constants in MHz :  1064.885023   608.011404   531.902204

                             ****ORCA TERMINATED NORMALLY****
TOTAL RUN TIME: 0 days 5 hours 5 minutes 52 seconds 251 msec
