                         Program Version 4.2.1 -  RELEASE  -
|  1> %pal
|  2>  nprocs 32
|  3> end
|  4> !RI-MP2 aug-cc-pVQZ aug-cc-pVQZ/C TightSCF
|  5> %maxcore 4500
|  6> *xyzfile 0 1  10_92P.xyz
|  7>
|  8>
|  9>                          ****END OF INPUT****

CARTESIAN COORDINATES (ANGSTROEM)
---------------------------------
  C     -1.685171   -1.585303   -0.092372
  C     -3.019038   -0.893582    0.258797
  C     -2.840558    0.577517   -0.172046
  C     -1.348983    0.777654   -0.070734
  C     -0.693283   -0.453923   -0.035275
  H     -1.438863   -2.405088    0.584947
  H     -1.709814   -2.003423   -1.105147
  H     -3.167638   -0.934376    1.340627
  H     -3.880082   -1.371457   -0.209292
  H     -3.170065    0.723492   -1.206583
  H     -3.411944    1.270305    0.447938
  C      0.683817   -0.458684    0.024278
  C     -0.608551    1.945235   -0.029798
  C      1.678295   -1.585757    0.090354
  H      1.448150   -2.404097   -0.594902
  C      3.015904   -0.887311   -0.245757
  H      3.183083   -0.940538   -1.324323
  H      3.869558   -1.359268    0.241194
  C      2.825787    0.585610    0.164840
  H      3.145923    0.758305    1.198133
  H      3.374359    1.287604   -0.463553
  C      1.334568    0.777640    0.063971
  N      0.727983    1.954039    0.043482
  H      1.698390   -2.011143    1.100331
  H     -1.093660    2.916842   -0.051293

 Total Charge           Charge          ....    0
 Multiplicity           Mult            ....    1
 Number of Electrons    NEL             ....   86
 Basis Dimension        Dim             .... 1558

ORBITAL ENERGIES
----------------

  NO   OCC          E(Eh)            E(eV)
   0   2.0000     -15.545786      -423.0223
   1   2.0000     -11.256230      -306.2976
   2   2.0000     -11.255667      -306.2823
   3   2.0000     -11.240915      -305.8808
   4   2.0000     -11.232863      -305.6618
   5   2.0000     -11.228724      -305.5491
   6   2.0000     -11.228232      -305.5357
   7   2.0000     -11.227965      -305.5285
   8   2.0000     -11.223410      -305.4045
   9   2.0000     -11.223123      -305.3967
  10   2.0000     -11.222961      -305.3923
  11   2.0000     -11.219068      -305.2864
  12   2.0000      -1.252083       -34.0709
  13   2.0000      -1.144577       -31.1455
  14   2.0000      -1.120874       -30.5005
  15   2.0000      -1.020561       -27.7709
  16   2.0000      -0.998281       -27.1646
  17   2.0000      -0.954867       -25.9833
  18   2.0000      -0.935933       -25.4680
  19   2.0000      -0.842890       -22.9362
  20   2.0000      -0.816638       -22.2218
  21   2.0000      -0.779702       -21.2168
  22   2.0000      -0.771161       -20.9844
  23   2.0000      -0.701693       -19.0940
  24   2.0000      -0.655266       -17.8307
  25   2.0000      -0.648942       -17.6586
  26   2.0000      -0.626818       -17.0566
  27   2.0000      -0.583121       -15.8675
  28   2.0000      -0.581283       -15.8175
  29   2.0000      -0.566489       -15.4149
  30   2.0000      -0.558531       -15.1984
  31   2.0000      -0.547373       -14.8948
  32   2.0000      -0.535921       -14.5832
  33   2.0000      -0.501986       -13.6597
  34   2.0000      -0.497984       -13.5508
  35   2.0000      -0.489878       -13.3303
  36   2.0000      -0.488642       -13.2966
  37   2.0000      -0.485069       -13.1994
  38   2.0000      -0.472018       -12.8443
  39   2.0000      -0.466496       -12.6940
  40   2.0000      -0.395946       -10.7742
  41   2.0000      -0.352184        -9.5834
  42   2.0000      -0.313495        -8.5306
  43   0.0000       0.023291         0.6338
  44   0.0000       0.026482         0.7206
  45   0.0000       0.031062         0.8452
  46   0.0000       0.031405         0.8546
  47   0.0000       0.038746         1.0543

MULLIKEN ATOMIC CHARGES
-----------------------
   0 C :   -0.648158
   1 C :   -0.567255
   2 C :   -0.522289
   3 C :    0.269073
   4 C :    0.771281
   5 H :    0.248428
   6 H :    0.237414
   7 H :    0.188055
   8 H :    0.280955
   9 H :    0.241909
  10 H :    0.241596
  11 C :   -0.088360
  12 C :   -0.501976
  13 C :   -0.566933
  14 H :    0.249616
  15 C :   -0.568798
  16 H :    0.181953
  17 H :    0.278331
  18 C :   -0.628934
  19 H :    0.263425
  20 H :    0.257173
  21 C :    0.635471
  22 N :   -0.865084
  23 H :    0.220277
  24 H :    0.392830
Sum of atomic charges:   -0.0000000

LOEWDIN ATOMIC CHARGES
----------------------
   0 C :    0.547264
   1 C :    0.537585
   2 C :    0.530127
   3 C :   -0.073994
   4 C :   -0.043484
   5 H :   -0.258814
   6 H :   -0.253877
   7 H :   -0.264448
   8 H :   -0.255382
   9 H :   -0.261136
  10 H :   -0.264546
  11 C :   -0.039658
  12 C :    0.125930
  13 C :    0.534914
  14 H :   -0.262427
  15 C :    0.533283
  16 H :   -0.266543
  17 H :   -0.257540
  18 C :    0.522863
  19 H :   -0.262013
  20 H :   -0.268708
  21 C :   -0.336264
  22 N :    0.635087
  23 H :   -0.258186
  24 H :   -0.340032

  Mayer bond orders larger than 0.100000
B(  0-C ,  1-C ) :   1.0816 B(  0-C ,  4-C ) :   0.5444 B(  0-C ,  5-H ) :   1.0447
B(  0-C ,  6-H ) :   0.9325 B(  1-C ,  2-C ) :   1.1344 B(  1-C ,  3-C ) :  -0.1663
B(  1-C ,  7-H ) :   0.9744 B(  1-C ,  8-H ) :   0.9533 B(  2-C ,  3-C ) :   0.4928
B(  2-C ,  4-C ) :  -0.1607 B(  2-C ,  9-H ) :   0.9424 B(  2-C , 10-H ) :   1.0598
B(  3-C ,  4-C ) :   0.9626 B(  3-C , 10-H ) :  -0.1356 B(  3-C , 11-C ) :  -0.2267
B(  3-C , 12-C ) :   1.1888 B(  3-C , 24-H ) :  -0.1687 B(  4-C ,  5-H ) :  -0.1719
B(  4-C , 11-C ) :   0.4561 B(  4-C , 12-C ) :  -0.2110 B(  4-C , 21-C ) :  -0.4851
B(  4-C , 22-N ) :  -0.1061 B( 11-C , 12-C ) :   0.3115 B( 11-C , 13-C ) :   0.5477
B( 11-C , 14-H ) :  -0.1462 B( 11-C , 15-C ) :  -0.1346 B( 11-C , 18-C ) :  -0.1384
B( 11-C , 21-C ) :   1.2233 B( 11-C , 22-N ) :   0.4736 B( 12-C , 22-N ) :   1.1896
B( 12-C , 24-H ) :   0.9700 B( 13-C , 14-H ) :   1.0244 B( 13-C , 15-C ) :   1.0767
B( 13-C , 23-H ) :   0.9498 B( 15-C , 16-H ) :   0.9819 B( 15-C , 17-H ) :   0.9502
B( 15-C , 18-C ) :   1.1460 B( 15-C , 21-C ) :  -0.1269 B( 18-C , 19-H ) :   0.9123
B( 18-C , 20-H ) :   1.0201 B( 18-C , 21-C ) :   0.6484 B( 21-C , 22-N ) :   0.5335
B( 22-N , 24-H ) :  -0.1084

MP2 TOTAL ENERGY:     -480.891808249 Eh
FINAL SINGLE POINT ENERGY      -480.891808249393

DIPOLE MOMENT
-------------
                                X             Y             Z
Electronic contribution:      0.70940       5.55074       0.01279
Nuclear contribution   :     -1.16479      -6.55398      -0.04226
                        -----------------------------------------
Total Dipole Moment    :     -0.45539      -1.00325      -0.02947
                        -----------------------------------------
Magnitude (a.u.)       :      1.10216
Magnitude (Debye)      :      2.80147

Rotational constants in cm-1:     0.065649     0.025390     0.018831
Rotational constants in MHz :  1968.117837   761.186121   564.533686

                             ****ORCA TERMINATED NORMALLY****
TOTAL RUN TIME: 0 days 1 hours 56 minutes 9 seconds 52 msec
