                         Program Version 4.2.1 -  RELEASE  -
|  1> %pal
|  2>  nprocs 32
|  3> end
|  4> !RI-MP2 aug-cc-pVQZ aug-cc-pVQZ/C TightSCF
|  5> %maxcore 4500
|  6> *xyzfile -1 1  05_1TS.xyz
|  7>
|  8>
|  9>                          ****END OF INPUT****

CARTESIAN COORDINATES (ANGSTROEM)
---------------------------------
  O      1.407816    1.817604   -0.055324
  C      0.697819    0.785911    0.051541
  C      1.301744   -0.532783   -0.045701
  O      2.642916   -0.472412   -0.282217
  O      0.796021   -1.628727    0.345053
  C     -0.743743    0.897887    0.532981
  H      0.629926   -0.043241   -1.228868
  C     -1.847310    0.011283   -0.039446
  H     -1.050599    1.929824    0.383912
  H     -0.714764    0.707626    1.614048
  O     -2.908003    0.497467   -0.371217
  O     -1.625798   -1.282532   -0.087309
  H      2.819803    0.489553   -0.308164
  H     -0.639051   -1.508739    0.150932

 Total Charge           Charge          ....   -1
 Multiplicity           Mult            ....    1
 Number of Electrons    NEL             ....   70
 Basis Dimension        Dim             ....  950

ORBITAL ENERGIES
----------------

  NO   OCC          E(Eh)            E(eV)
   0   2.0000     -20.440172      -556.2053
   1   2.0000     -20.428003      -555.8742
   2   2.0000     -20.389758      -554.8335
   3   2.0000     -20.364767      -554.1535
   4   2.0000     -20.362580      -554.0940
   5   2.0000     -11.236034      -305.7480
   6   2.0000     -11.228232      -305.5357
   7   2.0000     -11.192702      -304.5689
   8   2.0000     -11.117303      -302.5172
   9   2.0000      -1.302203       -35.4347
  10   2.0000      -1.289143       -35.0794
  11   2.0000      -1.206278       -32.8245
  12   2.0000      -1.198422       -32.6107
  13   2.0000      -1.177485       -32.0410
  14   2.0000      -0.912270       -24.8241
  15   2.0000      -0.800567       -21.7845
  16   2.0000      -0.681619       -18.5478
  17   2.0000      -0.629324       -17.1248
  18   2.0000      -0.603960       -16.4346
  19   2.0000      -0.545702       -14.8493
  20   2.0000      -0.520384       -14.1604
  21   2.0000      -0.506868       -13.7926
  22   2.0000      -0.495382       -13.4800
  23   2.0000      -0.480147       -13.0655
  24   2.0000      -0.460368       -12.5272
  25   2.0000      -0.428178       -11.6513
  26   2.0000      -0.414279       -11.2731
  27   2.0000      -0.400148       -10.8886
  28   2.0000      -0.369808       -10.0630
  29   2.0000      -0.344247        -9.3674
  30   2.0000      -0.322494        -8.7755
  31   2.0000      -0.312156        -8.4942
  32   2.0000      -0.306435        -8.3385
  33   2.0000      -0.265273        -7.2184
  34   2.0000      -0.189012        -5.1433
  35   0.0000       0.117797         3.2054
  36   0.0000       0.121151         3.2967
  37   0.0000       0.127557         3.4710
  38   0.0000       0.133156         3.6234
  39   0.0000       0.147290         4.0080

MULLIKEN ATOMIC CHARGES
-----------------------
   0 O :   -1.032838
   1 C :    0.617267
   2 C :    1.160336
   3 O :   -0.923095
   4 O :   -1.032577
   5 C :   -0.599064
   6 H :    0.004369
   7 C :    1.147524
   8 H :    0.228755
   9 H :    0.259502
  10 O :   -0.843085
  11 O :   -0.912097
  12 H :    0.405205
  13 H :    0.519798
Sum of atomic charges:   -1.0000000

LOEWDIN ATOMIC CHARGES
----------------------
   0 O :    0.716641
   1 C :   -0.728903
   2 C :   -0.985953
   3 O :    1.241522
   4 O :    0.867445
   5 C :    0.410003
   6 H :   -0.253442
   7 C :   -1.088178
   8 H :   -0.365011
   9 H :   -0.291120
  10 O :    0.622131
  11 O :    1.174150
  12 H :   -1.001269
  13 H :   -1.318018

  Mayer bond orders larger than 0.100000
B(  0-O ,  1-C ) :   0.7204 B(  0-O ,  2-C ) :   0.1861 B(  0-O ,  5-C ) :   0.1438
B(  1-C ,  2-C ) :   1.3205 B(  1-C ,  3-O ) :   0.1681 B(  1-C ,  4-O ) :   0.1219
B(  1-C ,  5-C ) :   0.9551 B(  1-C ,  6-H ) :   0.4434 B(  1-C ,  7-C ) :  -0.1467
B(  2-C ,  3-O ) :   0.4740 B(  2-C ,  4-O ) :   1.0029 B(  2-C ,  6-H ) :   0.4947
B(  3-O ,  4-O ) :   0.1193 B(  3-O , 12-H ) :   0.7678 B(  4-O , 13-H ) :   0.1400
B(  5-C ,  7-C ) :   1.1598 B(  5-C ,  8-H ) :   0.9676 B(  5-C ,  9-H ) :   0.8236
B(  5-C , 10-O ) :   0.1414 B(  7-C , 10-O ) :   1.2829 B(  7-C , 11-O ) :   0.9202
B( 10-O , 11-O ) :   0.1207 B( 11-O , 13-H ) :   0.5984

MP2 TOTAL ENERGY:     -530.939913580 Eh
FINAL SINGLE POINT ENERGY      -530.939913580008

DIPOLE MOMENT
-------------
                                X             Y             Z
Electronic contribution:     -0.71639      -1.17147      -0.01485
Nuclear contribution   :      1.02269       1.51729       0.58888
                        -----------------------------------------
Total Dipole Moment    :      0.30630       0.34582       0.57403
                        -----------------------------------------
Magnitude (a.u.)       :      0.73684
Magnitude (Debye)      :      1.87289

Rotational constants in cm-1:     0.099242     0.039304     0.029474
Rotational constants in MHz :  2975.207700  1178.308523   883.619781

                             ****ORCA TERMINATED NORMALLY****
TOTAL RUN TIME: 0 days 0 hours 23 minutes 23 seconds 6 msec
