                         Program Version 4.2.1 -  RELEASE  -
|  1> %pal
|  2>  nprocs 32
|  3> end
|  4> !RI-MP2 aug-cc-pVQZ aug-cc-pVQZ/C TightSCF
|  5> %maxcore 4500
|  6> *xyzfile 0 1  03_33P2.xyz
|  7>
|  8>
|  9>                          ****END OF INPUT****

CARTESIAN COORDINATES (ANGSTROEM)
---------------------------------
  C     -0.654023    0.390951    0.344167
  C      0.678540    0.161465   -0.280003
  C      1.791859   -0.030783    0.413891
  C      3.147715   -0.238360   -0.179240
  C     -1.322427    1.672125   -0.115931
  H      0.702521    0.169561   -1.367364
  H      1.731284   -0.046611    1.500630
  H      3.115207   -0.209841   -1.269334
  H      3.560542   -1.203920    0.126140
  H      3.847491    0.528846    0.163676
  H     -1.441504    1.676967   -1.200693
  H     -0.700172    2.524282    0.167758
  H     -2.305614    1.787264    0.340431
  H     -0.570461    0.365859    1.429212
  Cl    -1.752310   -1.019106   -0.058103

 Total Charge           Charge          ....    0
 Multiplicity           Mult            ....    1
 Number of Electrons    NEL             ....   56
 Basis Dimension        Dim             ....  898

ORBITAL ENERGIES
----------------

  NO   OCC          E(Eh)            E(eV)
   0   2.0000    -104.810205     -2852.0307
   1   2.0000     -11.300078      -307.4907
   2   2.0000     -11.241690      -305.9019
   3   2.0000     -11.233841      -305.6884
   4   2.0000     -11.229462      -305.5692
   5   2.0000     -11.228184      -305.5344
   6   2.0000     -10.535991      -286.6989
   7   2.0000      -8.002926      -217.7707
   8   2.0000      -8.001384      -217.7287
   9   2.0000      -8.001365      -217.7282
  10   2.0000      -1.147315       -31.2200
  11   2.0000      -1.072645       -29.1881
  12   2.0000      -1.002965       -27.2921
  13   2.0000      -0.945788       -25.7362
  14   2.0000      -0.827420       -22.5152
  15   2.0000      -0.768183       -20.9033
  16   2.0000      -0.653823       -17.7914
  17   2.0000      -0.623192       -16.9579
  18   2.0000      -0.588147       -16.0043
  19   2.0000      -0.576344       -15.6831
  20   2.0000      -0.569297       -15.4914
  21   2.0000      -0.547767       -14.9055
  22   2.0000      -0.524860       -14.2822
  23   2.0000      -0.508094       -13.8259
  24   2.0000      -0.491668       -13.3790
  25   2.0000      -0.430761       -11.7216
  26   2.0000      -0.425960       -11.5909
  27   2.0000      -0.361931        -9.8487
  28   0.0000       0.024320         0.6618
  29   0.0000       0.029829         0.8117
  30   0.0000       0.031953         0.8695
  31   0.0000       0.038481         1.0471
  32   0.0000       0.045846         1.2475

MULLIKEN ATOMIC CHARGES
-----------------------
   0 C :    0.113744
   1 C :   -0.333604
   2 C :   -0.372449
   3 C :   -0.703129
   4 C :   -0.898794
   5 H :    0.413168
   6 H :    0.386305
   7 H :    0.223364
   8 H :    0.241028
   9 H :    0.234982
  10 H :    0.239024
  11 H :    0.282522
  12 H :    0.313952
  13 H :    0.314919
  14 Cl:   -0.455030
Sum of atomic charges:   -0.0000000

LOEWDIN ATOMIC CHARGES
----------------------
   0 C :   -0.561997
   1 C :    0.232675
   2 C :    0.375237
   3 C :    0.896679
   4 C :    0.798484
   5 H :   -0.335600
   6 H :   -0.318710
   7 H :   -0.312914
   8 H :   -0.292960
   9 H :   -0.293712
  10 H :   -0.307944
  11 H :   -0.283958
  12 H :   -0.308257
  13 H :   -0.421679
  14 Cl:    1.134655

  Mayer bond orders larger than 0.100000
B(  0-C ,  1-C ) :   0.9527 B(  0-C ,  2-C ) :  -0.1725 B(  0-C ,  4-C ) :   0.9175
B(  0-C , 13-H ) :   0.8285 B(  0-C , 14-Cl) :   0.6481 B(  1-C ,  2-C ) :   1.4826
B(  1-C ,  3-C ) :  -0.1346 B(  1-C ,  5-H ) :   0.7734 B(  2-C ,  3-C ) :   0.8543
B(  2-C ,  6-H ) :   0.8213 B(  3-C ,  7-H ) :   0.9694 B(  3-C ,  8-H ) :   0.9923
B(  3-C ,  9-H ) :   0.9949 B(  4-C , 10-H ) :   0.9533 B(  4-C , 11-H ) :   0.9050
B(  4-C , 12-H ) :   0.9548

MP2 TOTAL ENERGY:     -655.291479175 Eh
FINAL SINGLE POINT ENERGY      -655.291479174576

DIPOLE MOMENT
-------------
                                X             Y             Z
Electronic contribution:     -9.74268      -6.37843       0.21960
Nuclear contribution   :     10.50539       7.09031      -0.02657
                        -----------------------------------------
Total Dipole Moment    :      0.76271       0.71188       0.19303
                        -----------------------------------------
Magnitude (a.u.)       :      1.06102
Magnitude (Debye)      :      2.69690

Rotational constants in cm-1:     0.166736     0.046622     0.038881
Rotational constants in MHz :  4998.621348  1397.695438  1165.626066

                             ****ORCA TERMINATED NORMALLY****
TOTAL RUN TIME: 0 days 0 hours 14 minutes 25 seconds 374 msec
