                         Program Version 4.2.1 -  RELEASE  -
|  1> %pal
|  2>  nprocs 32
|  3> end
|  4> !RI-MP2 aug-cc-pVQZ aug-cc-pVQZ/C TightSCF
|  5> %maxcore 4500
|  6> *xyzfile 0 2  03_24TS.xyz
|  7>
|  8>
|  9>                          ****END OF INPUT****

CARTESIAN COORDINATES (ANGSTROEM)
---------------------------------
  C     -1.085262   -1.529991    0.297203
  C     -2.553203   -2.019987    0.426097
  O     -3.089216   -1.731484    1.606123
  O     -3.125452   -2.618750   -0.439990
  C     -0.831611   -1.020025   -1.083902
  F      1.352761   -1.166375   -1.045137
  S      3.121260   -0.980486   -0.916974
  C      2.980852    0.270188    0.367222
  H     -0.499202   -2.445396    0.428783
  N     -0.782687   -0.632972    1.407184
  H     -2.378907   -1.239761    2.086148
  C     -0.899417    0.427532   -1.392315
  H     -0.948798   -1.744259   -1.879494
  F      2.263038    1.336215   -0.008922
  F      4.214634    0.684883    0.673185
  F      2.412212   -0.190371    1.493989
  H      0.173184   -0.739283    1.718737
  H     -0.933334    0.356065    1.192723
  H     -0.236254    0.966463   -0.715095
  C     -2.325636    1.007881   -1.256852
  H     -0.532307    0.607169   -2.404771
  H     -2.913280    0.697499   -2.122899
  H     -2.829921    0.577568   -0.386787
  C     -2.333339    2.533790   -1.117706
  H     -3.235311    2.946338   -1.577363
  C     -2.301494    3.014960    0.329461
  H     -1.489593    2.962705   -1.671233
  H     -3.197020    2.648134    0.838838
  H     -2.351186    4.111368    0.344786
  N     -1.141362    2.495812    1.066614
  H     -1.192218    2.772143    2.041028
  H     -0.279468    2.887761    0.699251

 Total Charge           Charge          ....    0
 Multiplicity           Mult            ....    2
 Number of Electrons    NEL             ....  145
 Basis Dimension        Dim             .... 2054

ORBITAL ENERGIES
----------------
                 SPIN UP ORBITALS
  NO   OCC          E(Eh)            E(eV)
   0   1.0000     -92.094993     -2506.0322
   1   1.0000     -26.385529      -717.9867
   2   1.0000     -26.376888      -717.7516
   3   1.0000     -26.376286      -717.7352
   4   1.0000     -26.339264      -716.7278
   5   1.0000     -20.575278      -559.8818
   6   1.0000     -20.513481      -558.2002
   7   1.0000     -15.556266      -423.3075
   8   1.0000     -15.548423      -423.0941
   9   1.0000     -11.573891      -314.9416
  10   1.0000     -11.353693      -308.9497
  11   1.0000     -11.268266      -306.6251
  12   1.0000     -11.257238      -306.3250
  13   1.0000     -11.222317      -305.3748
  14   1.0000     -11.221419      -305.3503
  15   1.0000     -11.217970      -305.2565
  16   1.0000     -11.214323      -305.1573
  17   1.0000      -9.089479      -247.3373
  18   1.0000      -6.773875      -184.3265
  19   1.0000      -6.768363      -184.1765
  20   1.0000      -6.766762      -184.1330
  21   1.0000      -1.773632       -48.2630
  22   1.0000      -1.681030       -45.7432
  23   1.0000      -1.672706       -45.5166
  24   1.0000      -1.593031       -43.3486
  25   1.0000      -1.437547       -39.1177
  26   1.0000      -1.339991       -36.4630
  27   1.0000      -1.202442       -32.7201
  28   1.0000      -1.193360       -32.4730
  29   1.0000      -1.102419       -29.9984
  30   1.0000      -1.082779       -29.4639
  31   1.0000      -1.025713       -27.9111
  32   1.0000      -0.966894       -26.3105
  33   1.0000      -0.960626       -26.1400
  34   1.0000      -0.891519       -24.2595
  35   1.0000      -0.867994       -23.6193
  36   1.0000      -0.866017       -23.5655
  37   1.0000      -0.825212       -22.4552
  38   1.0000      -0.814809       -22.1721
  39   1.0000      -0.793276       -21.5861
  40   1.0000      -0.775074       -21.0908
  41   1.0000      -0.755355       -20.5543
  42   1.0000      -0.750835       -20.4313
  43   1.0000      -0.724302       -19.7093
  44   1.0000      -0.712607       -19.3910
  45   1.0000      -0.707116       -19.2416
  46   1.0000      -0.696730       -18.9590
  47   1.0000      -0.692753       -18.8508
  48   1.0000      -0.689928       -18.7739
  49   1.0000      -0.682732       -18.5781
  50   1.0000      -0.672644       -18.3036
  51   1.0000      -0.655704       -17.8426
  52   1.0000      -0.653146       -17.7730
  53   1.0000      -0.636452       -17.3187
  54   1.0000      -0.617011       -16.7897
  55   1.0000      -0.609867       -16.5953
  56   1.0000      -0.599620       -16.3165
  57   1.0000      -0.589877       -16.0514
  58   1.0000      -0.568806       -15.4780
  59   1.0000      -0.560046       -15.2396
  60   1.0000      -0.552561       -15.0360
  61   1.0000      -0.536749       -14.6057
  62   1.0000      -0.525771       -14.3070
  63   1.0000      -0.502587       -13.6761
  64   1.0000      -0.481797       -13.1104
  65   1.0000      -0.477786       -13.0012
  66   1.0000      -0.467569       -12.7232
  67   1.0000      -0.452063       -12.3012
  68   1.0000      -0.450428       -12.2568
  69   1.0000      -0.443916       -12.0796
  70   1.0000      -0.410237       -11.1631
  71   1.0000      -0.397637       -10.8202
  72   1.0000      -0.310019        -8.4360
  73   0.0000       0.014833         0.4036
  74   0.0000       0.018711         0.5091
  75   0.0000       0.026006         0.7077
  76   0.0000       0.027762         0.7554
  77   0.0000       0.034011         0.9255

                 SPIN DOWN ORBITALS
  NO   OCC          E(Eh)            E(eV)
   0   1.0000     -92.093102     -2505.9807
   1   1.0000     -26.385219      -717.9783
   2   1.0000     -26.376866      -717.7510
   3   1.0000     -26.376235      -717.7338
   4   1.0000     -26.346164      -716.9156
   5   1.0000     -20.574966      -559.8733
   6   1.0000     -20.513582      -558.2029
   7   1.0000     -15.556254      -423.3072
   8   1.0000     -15.548248      -423.0893
   9   1.0000     -11.573859      -314.9407
  10   1.0000     -11.351474      -308.8893
  11   1.0000     -11.271305      -306.7078
  12   1.0000     -11.257246      -306.3252
  13   1.0000     -11.222144      -305.3701
  14   1.0000     -11.217440      -305.2420
  15   1.0000     -11.215560      -305.1909
  16   1.0000     -11.196456      -304.6711
  17   1.0000      -9.087526      -247.2841
  18   1.0000      -6.768075      -184.1687
  19   1.0000      -6.765860      -184.1084
  20   1.0000      -6.763733      -184.0505
  21   1.0000      -1.773247       -48.2525
  22   1.0000      -1.680417       -45.7265
  23   1.0000      -1.672600       -45.5138
  24   1.0000      -1.614852       -43.9424
  25   1.0000      -1.436155       -39.0798
  26   1.0000      -1.339582       -36.4519
  27   1.0000      -1.200130       -32.6572
  28   1.0000      -1.192460       -32.4485
  29   1.0000      -1.092829       -29.7374
  30   1.0000      -1.070421       -29.1276
  31   1.0000      -1.003363       -27.3029
  32   1.0000      -0.963840       -26.2274
  33   1.0000      -0.956809       -26.0361
  34   1.0000      -0.878813       -23.9137
  35   1.0000      -0.867248       -23.5990
  36   1.0000      -0.865811       -23.5599
  37   1.0000      -0.826722       -22.4963
  38   1.0000      -0.801438       -21.8082
  39   1.0000      -0.791229       -21.5304
  40   1.0000      -0.759859       -20.6768
  41   1.0000      -0.753623       -20.5071
  42   1.0000      -0.750445       -20.4206
  43   1.0000      -0.719897       -19.5894
  44   1.0000      -0.712419       -19.3859
  45   1.0000      -0.706452       -19.2235
  46   1.0000      -0.698249       -19.0003
  47   1.0000      -0.696085       -18.9414
  48   1.0000      -0.690627       -18.7929
  49   1.0000      -0.683198       -18.5908
  50   1.0000      -0.678980       -18.4760
  51   1.0000      -0.669125       -18.2078
  52   1.0000      -0.653761       -17.7898
  53   1.0000      -0.636080       -17.3086
  54   1.0000      -0.615372       -16.7451
  55   1.0000      -0.608637       -16.5619
  56   1.0000      -0.596937       -16.2435
  57   1.0000      -0.586947       -15.9716
  58   1.0000      -0.565614       -15.3911
  59   1.0000      -0.555550       -15.1173
  60   1.0000      -0.544621       -14.8199
  61   1.0000      -0.532729       -14.4963
  62   1.0000      -0.519396       -14.1335
  63   1.0000      -0.500361       -13.6155
  64   1.0000      -0.474908       -12.9229
  65   1.0000      -0.470209       -12.7950
  66   1.0000      -0.465788       -12.6747
  67   1.0000      -0.450410       -12.2563
  68   1.0000      -0.449212       -12.2237
  69   1.0000      -0.441820       -12.0225
  70   1.0000      -0.408870       -11.1259
  71   1.0000      -0.392723       -10.6865
  72   0.0000       0.010253         0.2790
  73   0.0000       0.018871         0.5135
  74   0.0000       0.026400         0.7184
  75   0.0000       0.027815         0.7569
  76   0.0000       0.033950         0.9238

MULLIKEN ATOMIC CHARGES AND SPIN POPULATIONS
--------------------------------------------
   0 C :   -0.230091   -0.191433
   1 C :    1.548277    0.061878
   2 O :   -1.058801    0.007593
   3 O :   -0.952178   -0.003786
   4 C :   -0.103028    1.249496
   5 F :   -0.410684   -0.175347
   6 S :    0.348035    0.222215
   7 C :    1.707572   -0.011343
   8 H :    0.371536    0.046834
   9 N :   -0.723053    0.012567
  10 H :    0.398790   -0.001159
  11 C :   -0.309901   -0.206054
  12 H :    0.357021   -0.142377
  13 F :   -0.656338   -0.000162
  14 F :   -0.597952    0.000580
  15 F :   -0.620868   -0.000662
  16 H :    0.203828    0.001294
  17 H :    0.300469   -0.000827
  18 H :    0.249663    0.056498
  19 C :   -0.537634    0.074765
  20 H :    0.322982    0.004314
  21 H :    0.287298   -0.013325
  22 H :    0.249662    0.001207
  23 C :   -0.480566    0.005913
  24 H :    0.279091    0.001535
  25 C :   -0.583947    0.000641
  26 H :    0.259685   -0.000906
  27 H :    0.223393    0.000043
  28 H :    0.273782   -0.000015
  29 N :   -0.418197   -0.000006
  30 H :    0.048638    0.000046
  31 H :    0.253517   -0.000018
Sum of atomic charges         :   -0.0000000

LOEWDIN ATOMIC CHARGES AND SPIN POPULATIONS
-------------------------------------------
   0 C :   -0.091854    0.106820
   1 C :   -1.048863    0.027812
   2 O :    1.258194    0.008041
   3 O :    0.680282    0.006616
   4 C :    0.234885    0.427790
   5 F :    0.224536   -0.074351
   6 S :    0.757914    0.127704
   7 C :   -2.669964    0.037048
   8 H :   -0.313848    0.016449
   9 N :    1.293260    0.001145
  10 H :   -0.965709    0.000862
  11 C :    0.469572    0.109203
  12 H :   -0.297231    0.123377
  13 F :    0.694748    0.001572
  14 F :    0.674312    0.007250
  15 F :    0.705264    0.001078
  16 H :   -0.517542    0.000834
  17 H :   -0.607826    0.000051
  18 H :   -0.392062    0.012880
  19 C :    0.540499    0.026776
  20 H :   -0.269865    0.006886
  21 H :   -0.249606    0.006411
  22 H :   -0.305599    0.007824
  23 C :    0.538044    0.006361
  24 H :   -0.268193    0.001266
  25 C :    0.395169    0.000658
  26 H :   -0.269763    0.000250
  27 H :   -0.283951    0.000026
  28 H :   -0.264740    0.000187
  29 N :    1.295895    0.000520
  30 H :   -0.466095    0.000065
  31 H :   -0.479860    0.000588

  Mayer bond orders larger than 0.100000
B(  0-C ,  1-C ) :   1.2301 B(  0-C ,  3-O ) :   0.2780 B(  0-C ,  4-C ) :   0.6419
B(  0-C ,  8-H ) :   0.8790 B(  0-C ,  9-N ) :   0.6653 B(  1-C ,  2-O ) :   0.5645
B(  1-C ,  3-O ) :   1.0877 B(  2-O ,  3-O ) :   0.1873 B(  2-O , 10-H ) :   0.6801
B(  4-C ,  5-F ) :  -0.1328 B(  4-C , 11-C ) :   0.9273 B(  4-C , 12-H ) :   0.9185
B(  5-F ,  6-S ) :   0.5520 B(  6-S ,  7-C ) :   1.0096 B(  6-S , 14-F ) :   0.1084
B(  7-C , 13-F ) :   0.6256 B(  7-C , 14-F ) :   0.3658 B(  7-C , 15-F ) :   0.5675
B(  9-N , 10-H ) :   0.2117 B(  9-N , 16-H ) :   1.1683 B(  9-N , 17-H ) :   0.8993
B(  9-N , 29-N ) :   0.1075 B( 11-C , 18-H ) :   0.9659 B( 11-C , 19-C ) :   0.8911
B( 11-C , 20-H ) :   0.9116 B( 11-C , 23-C ) :  -0.1227 B( 13-F , 18-H ) :  -0.1931
B( 19-C , 21-H ) :   0.9198 B( 19-C , 22-H ) :   0.8794 B( 19-C , 23-C ) :   0.8496
B( 23-C , 24-H ) :   0.9685 B( 23-C , 25-C ) :   0.9799 B( 23-C , 26-H ) :   0.9217
B( 25-C , 27-H ) :   0.9922 B( 25-C , 28-H ) :   0.9146 B( 25-C , 29-N ) :   1.0682
B( 29-N , 30-H ) :   1.1469 B( 29-N , 31-H ) :   0.9503

MP2 TOTAL ENERGY:    -1369.642106906 Eh
FINAL SINGLE POINT ENERGY     -1369.642106906133

DIPOLE MOMENT
-------------
                                X             Y             Z
Electronic contribution:     34.75911     -12.50700       2.50318
Nuclear contribution   :    -32.33921      14.31559      -2.38458
                        -----------------------------------------
Total Dipole Moment    :      2.41990       1.80859       0.11860
                        -----------------------------------------
Magnitude (a.u.)       :      3.02341
Magnitude (Debye)      :      7.68489

Rotational constants in cm-1:     0.016698     0.008468     0.007015
Rotational constants in MHz :   500.600027   253.872356   210.317809

                             ****ORCA TERMINATED NORMALLY****
TOTAL RUN TIME: 0 days 7 hours 39 minutes 55 seconds 876 msec
