                         Program Version 4.2.1 -  RELEASE  -
|  1> %pal
|  2>  nprocs 32
|  3> end
|  4> !RI-MP2 aug-cc-pVQZ aug-cc-pVQZ/C TightSCF
|  5> %maxcore 4500
|  6> *xyzfile 0 1  02_42R1.xyz
|  7>
|  8>
|  9>                          ****END OF INPUT****

CARTESIAN COORDINATES (ANGSTROEM)
---------------------------------
  C      0.045543   -0.385809    1.261670
  C      0.045543   -1.611162    0.731860
  C      0.045543   -0.385809   -1.261670
  C      0.045543   -1.611162   -0.731860
  S      0.286337    0.849040    0.000000
  O     -0.735089    1.950549    0.000000
  H      0.054693   -0.088729   -2.298922
  H      0.048451   -2.523963   -1.313268
  H      0.054693   -0.088729    2.298922
  H      0.048451   -2.523963    1.313268

 Total Charge           Charge          ....    0
 Multiplicity           Mult            ....    1
 Number of Electrons    NEL             ....   52
 Basis Dimension        Dim             ....  668

ORBITAL ENERGIES
----------------

  NO   OCC          E(Eh)            E(eV)
   0   2.0000     -92.078771     -2505.5907
   1   2.0000     -20.515653      -558.2593
   2   2.0000     -11.278872      -306.9137
   3   2.0000     -11.278358      -306.8997
   4   2.0000     -11.276918      -306.8605
   5   2.0000     -11.276630      -306.8527
   6   2.0000      -9.065611      -246.6878
   7   2.0000      -6.747958      -183.6213
   8   2.0000      -6.747873      -183.6190
   9   2.0000      -6.746477      -183.5810
  10   2.0000      -1.340100       -36.4660
  11   2.0000      -1.179090       -32.0847
  12   2.0000      -1.021773       -27.8039
  13   2.0000      -0.969657       -26.3857
  14   2.0000      -0.791136       -21.5279
  15   2.0000      -0.778490       -21.1838
  16   2.0000      -0.723921       -19.6989
  17   2.0000      -0.615150       -16.7391
  18   2.0000      -0.599252       -16.3065
  19   2.0000      -0.583285       -15.8720
  20   2.0000      -0.579532       -15.7699
  21   2.0000      -0.563654       -15.3378
  22   2.0000      -0.476531       -12.9671
  23   2.0000      -0.438453       -11.9309
  24   2.0000      -0.370320       -10.0769
  25   2.0000      -0.361636        -9.8406
  26   0.0000       0.018408         0.5009
  27   0.0000       0.026613         0.7242
  28   0.0000       0.033081         0.9002
  29   0.0000       0.042259         1.1499
  30   0.0000       0.046163         1.2562

MULLIKEN ATOMIC CHARGES
-----------------------
   0 C :   -0.610155
   1 C :   -0.328735
   2 C :   -0.610155
   3 C :   -0.328735
   4 S :    1.277303
   5 O :   -1.121007
   6 H :    0.439236
   7 H :    0.421505
   8 H :    0.439236
   9 H :    0.421505
Sum of atomic charges:    0.0000000

LOEWDIN ATOMIC CHARGES
----------------------
   0 C :    0.133137
   1 C :    0.234964
   2 C :    0.133137
   3 C :    0.234964
   4 S :    0.616584
   5 O :    0.039442
   6 H :   -0.374590
   7 H :   -0.321524
   8 H :   -0.374590
   9 H :   -0.321524

  Mayer bond orders larger than 0.100000
B(  0-C ,  1-C ) :   1.5552 B(  0-C ,  4-S ) :   1.0115 B(  0-C ,  8-H ) :   0.8339
B(  1-C ,  3-C ) :   0.9393 B(  1-C ,  9-H ) :   0.8726 B(  2-C ,  3-C ) :   1.5552
B(  2-C ,  4-S ) :   1.0115 B(  2-C ,  6-H ) :   0.8339 B(  3-C ,  7-H ) :   0.8726
B(  4-S ,  5-O ) :   1.2746

MP2 TOTAL ENERGY:     -627.347529270 Eh
FINAL SINGLE POINT ENERGY      -627.347529270248

DIPOLE MOMENT
-------------
                                X             Y             Z
Electronic contribution:      0.48030       3.19041      -0.00000
Nuclear contribution   :      0.18127      -5.09178       0.00000
                        -----------------------------------------
Total Dipole Moment    :      0.66157      -1.90137      -0.00000
                        -----------------------------------------
Magnitude (a.u.)       :      2.01318
Magnitude (Debye)      :      5.11709

Rotational constants in cm-1:     0.225965     0.096945     0.073371
Rotational constants in MHz :  6774.251065  2906.350411  2199.612318

                             ****ORCA TERMINATED NORMALLY****
TOTAL RUN TIME: 0 days 0 hours 8 minutes 4 seconds 823 msec
