                         Program Version 4.2.1 -  RELEASE  -
|  1> %pal
|  2>  nprocs 32
|  3> end
|  4> !RI-MP2 aug-cc-pVQZ aug-cc-pVQZ/C TightSCF
|  5> %maxcore 4500
|  6> *xyzfile 1 1  03_16P2.xyz
|  7>
|  8>
|  9>                          ****END OF INPUT****

CARTESIAN COORDINATES (ANGSTROEM)
---------------------------------
  C      0.000000   -1.817884    0.000000
  C      0.000000   -1.124983    1.205530
  C      0.000000    0.251864    1.193572
  N      0.000000    0.853443    0.000000
  C      0.000000    0.251864   -1.193572
  C      0.000000   -1.124983   -1.205530
  F      0.000001    2.199176    0.000000
  H      0.000001   -2.900678    0.000000
  H     -0.000001   -1.639272    2.156841
  H      0.000000    0.898636    2.060973
  H      0.000000    0.898636   -2.060973
  H     -0.000001   -1.639272   -2.156841

 Total Charge           Charge          ....    1
 Multiplicity           Mult            ....    1
 Number of Electrons    NEL             ....   50
 Basis Dimension        Dim             ....  790

ORBITAL ENERGIES
----------------

  NO   OCC          E(Eh)            E(eV)
   0   2.0000     -26.565255      -722.8773
   1   2.0000     -15.959985      -434.2933
   2   2.0000     -11.523869      -313.5804
   3   2.0000     -11.523835      -313.5795
   4   2.0000     -11.476970      -312.3042
   5   2.0000     -11.457792      -311.7824
   6   2.0000     -11.457742      -311.7810
   7   2.0000      -1.891098       -51.4594
   8   2.0000      -1.524548       -41.4851
   9   2.0000      -1.312897       -35.7257
  10   2.0000      -1.296250       -35.2728
  11   2.0000      -1.126894       -30.6643
  12   2.0000      -1.099336       -29.9144
  13   2.0000      -1.001413       -27.2498
  14   2.0000      -0.962511       -26.1912
  15   2.0000      -0.939646       -25.5691
  16   2.0000      -0.915875       -24.9222
  17   2.0000      -0.868598       -23.6358
  18   2.0000      -0.857336       -23.3293
  19   2.0000      -0.834624       -22.7113
  20   2.0000      -0.787822       -21.4377
  21   2.0000      -0.754772       -20.5384
  22   2.0000      -0.748264       -20.3613
  23   2.0000      -0.616395       -16.7730
  24   2.0000      -0.577881       -15.7250
  25   0.0000      -0.136635        -3.7180
  26   0.0000      -0.095208        -2.5907
  27   0.0000      -0.087514        -2.3814
  28   0.0000      -0.071709        -1.9513
  29   0.0000      -0.068510        -1.8643

MULLIKEN ATOMIC CHARGES
-----------------------
   0 C :   -0.045014
   1 C :   -0.296217
   2 C :   -0.182767
   3 N :    0.282893
   4 C :   -0.182769
   5 C :   -0.296217
   6 F :   -0.449851
   7 H :    0.396445
   8 H :    0.351137
   9 H :    0.535610
  10 H :    0.535612
  11 H :    0.351138
Sum of atomic charges:    1.0000000

LOEWDIN ATOMIC CHARGES
----------------------
   0 C :    0.418250
   1 C :    0.417898
   2 C :    0.245620
   3 N :   -0.104416
   4 C :    0.245620
   5 C :    0.417898
   6 F :    0.759940
   7 H :   -0.271392
   8 H :   -0.291226
   9 H :   -0.273484
  10 H :   -0.273484
  11 H :   -0.291226

  Mayer bond orders larger than 0.100000
B(  0-C ,  1-C ) :   1.1358 B(  0-C ,  2-C ) :  -0.1164 B(  0-C ,  4-C ) :  -0.1164
B(  0-C ,  5-C ) :   1.1358 B(  0-C ,  7-H ) :   0.9265 B(  1-C ,  2-C ) :   1.2996
B(  1-C ,  4-C ) :   0.1025 B(  1-C ,  8-H ) :   0.9569 B(  2-C ,  3-N ) :   1.0577
B(  2-C ,  5-C ) :   0.1025 B(  2-C ,  9-H ) :   0.8013 B(  3-N ,  4-C ) :   1.0577
B(  3-N ,  6-F ) :   0.4548 B(  4-C ,  5-C ) :   1.2996 B(  4-C , 10-H ) :   0.8012
B(  5-C , 11-H ) :   0.9569

MP2 TOTAL ENERGY:     -347.275215290 Eh
FINAL SINGLE POINT ENERGY      -347.275215289880

DIPOLE MOMENT
-------------
                                X             Y             Z
Electronic contribution:      0.00000       5.42884       0.00000
Nuclear contribution   :     -0.00000      -6.39406       0.00000
                        -----------------------------------------
Total Dipole Moment    :     -0.00000      -0.96523       0.00000
                        -----------------------------------------
Magnitude (a.u.)       :      0.96523
Magnitude (Debye)      :      2.45341

Rotational constants in cm-1:     0.193599     0.089290     0.061107
Rotational constants in MHz :  5803.965875  2676.839375  1831.935049

                             ****ORCA TERMINATED NORMALLY****
TOTAL RUN TIME: 0 days 0 hours 12 minutes 42 seconds 55 msec
