                         Program Version 4.2.1 -  RELEASE  -
|  1> %pal
|  2>  nprocs 32
|  3> end
|  4> !RI-MP2 aug-cc-pVQZ aug-cc-pVQZ/C TightSCF
|  5> %maxcore 4500
|  6> *xyzfile 0 1  10_11TS.xyz
|  7>
|  8>
|  9>                          ****END OF INPUT****

CARTESIAN COORDINATES (ANGSTROEM)
---------------------------------
  C      0.281274   -0.783254   -0.178074
  C     -0.500407    0.155483   -0.203987
  C      1.698992   -1.195102   -0.068881
  C     -0.729156    1.612599   -0.198050
  C      2.528529    0.071989   -0.389780
  H      3.577215   -0.100264   -0.135728
  H      2.479548    0.279216   -1.460843
  C      0.662882    2.227158   -0.497381
  H      0.633668    3.303640   -0.312767
  N     -0.998926   -2.600139   -0.062882
  N     -2.000881   -2.037898   -0.050260
  N     -2.540103   -0.926516   -0.189130
  C     -3.795555   -0.678899    0.510378
  H     -4.084610    0.346485    0.290838
  H     -4.588241   -1.339699    0.152393
  H     -3.691055   -0.791373    1.593447
  S      2.074092    1.610619    0.485923
  C     -1.698723    2.060100   -1.294779
  H     -2.694965    1.654861   -1.117715
  H     -1.768515    3.150715   -1.317659
  H     -1.367561    1.712077   -2.274615
  C     -1.227410    2.069010    1.176731
  H     -1.367650    3.153194    1.187220
  H     -2.181294    1.598455    1.417515
  H     -0.508833    1.802518    1.952438
  C      2.065848   -2.285341   -1.080025
  H      3.133175   -2.514090   -1.020606
  H      1.504445   -3.197049   -0.875765
  H      1.837430   -1.966859   -2.099147
  C      1.982357   -1.682455    1.355632
  H      1.352892   -2.540699    1.593365
  H      3.029313   -1.983501    1.449188
  H      1.780079   -0.892634    2.080060
  H      0.907054    2.079248   -1.551182

 Total Charge           Charge          ....    0
 Multiplicity           Mult            ....    1
 Number of Electrons    NEL             ....  122
 Basis Dimension        Dim             .... 2078

ORBITAL ENERGIES
----------------

  NO   OCC          E(Eh)            E(eV)
   0   2.0000     -91.935332     -2501.6876
   1   2.0000     -15.729304      -428.0161
   2   2.0000     -15.656590      -426.0375
   3   2.0000     -15.604881      -424.6304
   4   2.0000     -11.270691      -306.6911
   5   2.0000     -11.259974      -306.3995
   6   2.0000     -11.255426      -306.2757
   7   2.0000     -11.254828      -306.2594
   8   2.0000     -11.250950      -306.1539
   9   2.0000     -11.221454      -305.3513
  10   2.0000     -11.218077      -305.2594
  11   2.0000     -11.215020      -305.1762
  12   2.0000     -11.211740      -305.0870
  13   2.0000     -11.208522      -304.9994
  14   2.0000     -11.202393      -304.8326
  15   2.0000      -8.937157      -243.1924
  16   2.0000      -6.618709      -180.1042
  17   2.0000      -6.617824      -180.0802
  18   2.0000      -6.617081      -180.0599
  19   2.0000      -1.477371       -40.2013
  20   2.0000      -1.253165       -34.1003
  21   2.0000      -1.142771       -31.0964
  22   2.0000      -1.106963       -30.1220
  23   2.0000      -1.022613       -27.8267
  24   2.0000      -0.993714       -27.0403
  25   2.0000      -0.985566       -26.8186
  26   2.0000      -0.939312       -25.5600
  27   2.0000      -0.933581       -25.4040
  28   2.0000      -0.932058       -25.3626
  29   2.0000      -0.831241       -22.6192
  30   2.0000      -0.824712       -22.4415
  31   2.0000      -0.757022       -20.5996
  32   2.0000      -0.745940       -20.2981
  33   2.0000      -0.695215       -18.9178
  34   2.0000      -0.679874       -18.5003
  35   2.0000      -0.673466       -18.3259
  36   2.0000      -0.651200       -17.7200
  37   2.0000      -0.639486       -17.4013
  38   2.0000      -0.613515       -16.6946
  39   2.0000      -0.607331       -16.5263
  40   2.0000      -0.598869       -16.2960
  41   2.0000      -0.588632       -16.0175
  42   2.0000      -0.584930       -15.9168
  43   2.0000      -0.572270       -15.5723
  44   2.0000      -0.564215       -15.3531
  45   2.0000      -0.546096       -14.8600
  46   2.0000      -0.540359       -14.7039
  47   2.0000      -0.529580       -14.4106
  48   2.0000      -0.524259       -14.2658
  49   2.0000      -0.510748       -13.8982
  50   2.0000      -0.502462       -13.6727
  51   2.0000      -0.498159       -13.5556
  52   2.0000      -0.492994       -13.4151
  53   2.0000      -0.476898       -12.9771
  54   2.0000      -0.461870       -12.5681
  55   2.0000      -0.426577       -11.6077
  56   2.0000      -0.411686       -11.2025
  57   2.0000      -0.368505       -10.0275
  58   2.0000      -0.365124        -9.9355
  59   2.0000      -0.337908        -9.1949
  60   2.0000      -0.324602        -8.8329
  61   0.0000       0.023039         0.6269
  62   0.0000       0.027847         0.7577
  63   0.0000       0.029453         0.8015
  64   0.0000       0.031236         0.8500
  65   0.0000       0.039030         1.0621

MULLIKEN ATOMIC CHARGES
-----------------------
   0 C :   -0.465863
   1 C :    0.191897
   2 C :    1.636910
   3 C :    1.997811
   4 C :   -0.916212
   5 H :    0.198298
   6 H :    0.233995
   7 C :   -0.926112
   8 H :    0.194474
   9 N :   -0.297031
  10 N :    0.080404
  11 N :   -0.041421
  12 C :   -0.926896
  13 H :    0.367338
  14 H :    0.366933
  15 H :    0.355936
  16 S :   -0.246427
  17 C :   -1.318359
  18 H :    0.318075
  19 H :    0.202816
  20 H :    0.206745
  21 C :   -1.303355
  22 H :    0.219170
  23 H :    0.285662
  24 H :    0.251017
  25 C :   -1.202669
  26 H :    0.228836
  27 H :    0.243304
  28 H :    0.243224
  29 C :   -1.159499
  30 H :    0.224771
  31 H :    0.241186
  32 H :    0.265404
  33 H :    0.249639
Sum of atomic charges:    0.0000000

LOEWDIN ATOMIC CHARGES
----------------------
   0 C :   -0.042392
   1 C :    0.009171
   2 C :   -0.430691
   3 C :   -0.406427
   4 C :    0.168843
   5 H :   -0.356247
   6 H :   -0.352849
   7 C :    0.168359
   8 H :   -0.355126
   9 N :    0.414621
  10 N :   -0.134140
  11 N :    0.309820
  12 C :    0.677904
  13 H :   -0.346682
  14 H :   -0.308202
  15 H :   -0.301042
  16 S :    1.422016
  17 C :    0.901305
  18 H :   -0.301760
  19 H :   -0.263854
  20 H :   -0.263917
  21 C :    0.887569
  22 H :   -0.266452
  23 H :   -0.292859
  24 H :   -0.287935
  25 C :    0.891924
  26 H :   -0.267557
  27 H :   -0.296844
  28 H :   -0.267783
  29 C :    0.882595
  30 H :   -0.280410
  31 H :   -0.269136
  32 H :   -0.289977
  33 H :   -0.351846

  Mayer bond orders larger than 0.100000
B(  0-C ,  1-C ) :   1.1532 B(  0-C ,  2-C ) :   0.3593 B(  0-C ,  3-C ) :  -0.1082
B(  0-C ,  9-N ) :   0.2338 B(  0-C , 11-N ) :  -0.3006 B(  1-C ,  3-C ) :   0.2629
B(  1-C ,  9-N ) :  -0.1896 B(  1-C , 10-N ) :   0.1278 B(  1-C , 11-N ) :   0.3999
B(  2-C ,  4-C ) :   0.1588 B(  2-C ,  6-H ) :  -0.1304 B(  2-C , 25-C ) :   0.1474
B(  2-C , 26-H ) :  -0.1172 B(  2-C , 27-H ) :  -0.1800 B(  2-C , 28-H ) :  -0.2093
B(  2-C , 29-C ) :   0.2397 B(  2-C , 32-H ) :  -0.1454 B(  3-C ,  8-H ) :  -0.1151
B(  3-C , 16-S ) :  -0.1411 B(  3-C , 18-H ) :  -0.1724 B(  3-C , 19-H ) :  -0.1368
B(  3-C , 20-H ) :  -0.2411 B(  3-C , 21-C ) :   0.1188 B(  3-C , 23-H ) :  -0.1001
B(  3-C , 24-H ) :  -0.2173 B(  3-C , 33-H ) :  -0.1429 B(  4-C ,  5-H ) :   1.1036
B(  4-C ,  6-H ) :   1.0177 B(  4-C , 16-S ) :   0.9104 B(  4-C , 25-C ) :   0.1967
B(  7-C ,  8-H ) :   1.1099 B(  7-C , 16-S ) :   0.9618 B(  7-C , 17-C ) :   0.1996
B(  7-C , 33-H ) :   1.0276 B(  9-N , 10-N ) :   1.8686 B(  9-N , 11-N ) :   0.1505
B( 10-N , 11-N ) :   0.8163 B( 11-N , 12-C ) :   0.9194 B( 12-C , 13-H ) :   0.8862
B( 12-C , 14-H ) :   0.9048 B( 12-C , 15-H ) :   0.8640 B( 17-C , 18-H ) :   0.9948
B( 17-C , 19-H ) :   1.1229 B( 17-C , 20-H ) :   1.1556 B( 17-C , 21-C ) :   0.2002
B( 21-C , 22-H ) :   1.1146 B( 21-C , 23-H ) :   1.0242 B( 21-C , 24-H ) :   1.1549
B( 25-C , 26-H ) :   1.0725 B( 25-C , 27-H ) :   1.0627 B( 25-C , 28-H ) :   1.1014
B( 25-C , 29-C ) :   0.1554 B( 29-C , 30-H ) :   1.0859 B( 29-C , 31-H ) :   1.0620
B( 29-C , 32-H ) :   1.0832

MP2 TOTAL ENERGY:     -991.431690042 Eh
FINAL SINGLE POINT ENERGY      -991.431690042023

DIPOLE MOMENT
-------------
                                X             Y             Z
Electronic contribution:      1.37100      -3.57265       0.36420
Nuclear contribution   :     -2.14980       3.73332      -0.47414
                        -----------------------------------------
Total Dipole Moment    :     -0.77880       0.16067      -0.10994
                        -----------------------------------------
Magnitude (a.u.)       :      0.80276
Magnitude (Debye)      :      2.04046

Rotational constants in cm-1:     0.021825     0.016770     0.011084
Rotational constants in MHz :   654.309922   502.749637   332.292681

                             ****ORCA TERMINATED NORMALLY****
TOTAL RUN TIME: 0 days 5 hours 25 minutes 16 seconds 596 msec
