                         Program Version 4.2.1 -  RELEASE  -
|  1> %pal
|  2>  nprocs 32
|  3> end
|  4> !RI-MP2 aug-cc-pVQZ aug-cc-pVQZ/C TightSCF
|  5> %maxcore 4500
|  6> *xyzfile 0 1  09_16R1.xyz
|  7>
|  8>
|  9>                          ****END OF INPUT****

CARTESIAN COORDINATES (ANGSTROEM)
---------------------------------
  C     -2.154666   -0.431786    0.000100
  C     -1.040241    0.239700    0.000035
  C      0.050451    0.958477   -0.000019
  O      1.331027    0.502923   -0.000064
  C      1.481993   -0.904199   -0.000046
  H      0.014528    2.040864   -0.000039
  H      2.551888   -1.099123   -0.000086
  H      1.022474   -1.343983    0.890190
  H      1.022401   -1.344015   -0.890229
  H     -2.642406   -0.725162   -0.924986
  H     -2.642323   -0.725122    0.925243

 Total Charge           Charge          ....    0
 Multiplicity           Mult            ....    1
 Number of Electrons    NEL             ....   38
 Basis Dimension        Dim             ....  676

ORBITAL ENERGIES
----------------

  NO   OCC          E(Eh)            E(eV)
   0   2.0000     -20.582960      -560.0908
   1   2.0000     -11.297113      -307.4101
   2   2.0000     -11.277036      -306.8638
   3   2.0000     -11.242576      -305.9261
   4   2.0000     -11.238740      -305.8217
   5   2.0000      -1.408557       -38.3288
   6   2.0000      -1.067327       -29.0435
   7   2.0000      -0.980011       -26.6674
   8   2.0000      -0.911650       -24.8072
   9   2.0000      -0.735401       -20.0113
  10   2.0000      -0.685956       -18.6658
  11   2.0000      -0.660308       -17.9679
  12   2.0000      -0.653784       -17.7904
  13   2.0000      -0.605641       -16.4803
  14   2.0000      -0.568107       -15.4590
  15   2.0000      -0.512498       -13.9458
  16   2.0000      -0.499626       -13.5955
  17   2.0000      -0.387144       -10.5347
  18   2.0000      -0.344182        -9.3657
  19   0.0000       0.025641         0.6977
  20   0.0000       0.034588         0.9412
  21   0.0000       0.035604         0.9688
  22   0.0000       0.037994         1.0339
  23   0.0000       0.051698         1.4068

MULLIKEN ATOMIC CHARGES
-----------------------
   0 C :   -0.487764
   1 C :   -0.447163
   2 C :   -0.019040
   3 O :   -0.738115
   4 C :   -0.637211
   5 H :    0.586207
   6 H :    0.496948
   7 H :    0.268102
   8 H :    0.268102
   9 H :    0.354967
  10 H :    0.354968
Sum of atomic charges:    0.0000000

LOEWDIN ATOMIC CHARGES
----------------------
   0 C :    0.706652
   1 C :    0.136233
   2 C :   -0.089346
   3 O :    0.819058
   4 C :    0.542944
   5 H :   -0.398337
   6 H :   -0.321532
   7 H :   -0.313142
   8 H :   -0.313141
   9 H :   -0.384695
  10 H :   -0.384694

  Mayer bond orders larger than 0.100000
B(  0-C ,  1-C ) :   1.8693 B(  0-C ,  2-C ) :  -0.1630 B(  0-C ,  9-H ) :   0.8692
B(  0-C , 10-H ) :   0.8692 B(  1-C ,  2-C ) :   2.1372 B(  1-C ,  3-O ) :   0.1580
B(  2-C ,  3-O ) :   0.7224 B(  2-C ,  5-H ) :   0.6059 B(  3-O ,  4-C ) :   0.8517
B(  4-C ,  6-H ) :   0.7318 B(  4-C ,  7-H ) :   0.9165 B(  4-C ,  8-H ) :   0.9165

MP2 TOTAL ENERGY:     -230.789711705 Eh
FINAL SINGLE POINT ENERGY      -230.789711705074

DIPOLE MOMENT
-------------
                                X             Y             Z
Electronic contribution:      0.48754       2.81053      -0.00008
Nuclear contribution   :     -0.66433      -3.24665       0.00009
                        -----------------------------------------
Total Dipole Moment    :     -0.17680      -0.43612       0.00002
                        -----------------------------------------
Magnitude (a.u.)       :      0.47059
Magnitude (Debye)      :      1.19614

Rotational constants in cm-1:     0.410132     0.112682     0.091588
Rotational constants in MHz : 12295.457669  3378.124257  2745.724267

                             ****ORCA TERMINATED NORMALLY****
TOTAL RUN TIME: 0 days 0 hours 5 minutes 12 seconds 638 msec
