                         Program Version 4.2.1 -  RELEASE  -
|  1> %pal
|  2>  nprocs 32
|  3> end
|  4> !RI-MP2 aug-cc-pVQZ aug-cc-pVQZ/C TightSCF
|  5> %maxcore 4500
|  6> *xyzfile 0 1  02_42TS.xyz
|  7>
|  8>
|  9>                          ****END OF INPUT****

CARTESIAN COORDINATES (ANGSTROEM)
---------------------------------
  C      0.773503   -1.008950    0.923619
  C      0.349631   -0.070851    1.850594
  C      1.176430    1.282179    0.161913
  C      0.591144    1.236821    1.423440
  H      1.592003    2.177306   -0.283062
  H      0.273343    2.115534    1.968823
  H     -0.198625   -0.323759    2.748024
  H      0.767226   -2.081447    1.060637
  S      2.093966   -0.253086   -0.019862
  O      2.183341   -0.730831   -1.431658
  C     -2.434213    0.652327    0.089191
  C     -0.630172   -0.668305   -0.830129
  C     -0.390597    0.651203   -1.189534
  H     -2.285504    0.908100    1.142329
  H     -0.176230   -1.517337   -1.320486
  H      0.247811    0.885409   -2.031594
  H     -3.505209    0.699744   -0.105654
  C     -1.580849    1.528536   -0.836443
  H     -1.298892    2.480550   -0.384988
  H     -2.124866    1.763467   -1.755523
  C     -1.921325   -0.768113   -0.118511
  O     -2.482821   -1.777579    0.235963

 Total Charge           Charge          ....    0
 Multiplicity           Mult            ....    1
 Number of Electrons    NEL             ....   96
 Basis Dimension        Dim             .... 1424

ORBITAL ENERGIES
----------------

  NO   OCC          E(Eh)            E(eV)
   0   2.0000     -92.088000     -2505.8419
   1   2.0000     -20.531881      -558.7009
   2   2.0000     -20.526320      -558.5496
   3   2.0000     -11.323286      -308.1223
   4   2.0000     -11.299194      -307.4667
   5   2.0000     -11.291835      -307.2665
   6   2.0000     -11.275876      -306.8322
   7   2.0000     -11.269886      -306.6692
   8   2.0000     -11.267887      -306.6148
   9   2.0000     -11.247201      -306.0519
  10   2.0000     -11.241968      -305.9095
  11   2.0000     -11.237930      -305.7996
  12   2.0000      -9.074429      -246.9278
  13   2.0000      -6.756345      -183.8495
  14   2.0000      -6.756302      -183.8483
  15   2.0000      -6.755110      -183.8159
  16   2.0000      -1.378570       -37.5128
  17   2.0000      -1.358251       -36.9599
  18   2.0000      -1.194074       -32.4924
  19   2.0000      -1.140694       -31.0399
  20   2.0000      -1.017282       -27.6816
  21   2.0000      -1.001050       -27.2400
  22   2.0000      -0.974850       -26.5270
  23   2.0000      -0.935011       -25.4429
  24   2.0000      -0.803127       -21.8542
  25   2.0000      -0.799908       -21.7666
  26   2.0000      -0.771975       -21.0065
  27   2.0000      -0.729839       -19.8599
  28   2.0000      -0.727480       -19.7957
  29   2.0000      -0.679301       -18.4847
  30   2.0000      -0.659956       -17.9583
  31   2.0000      -0.612113       -16.6564
  32   2.0000      -0.602359       -16.3910
  33   2.0000      -0.599667       -16.3178
  34   2.0000      -0.592393       -16.1198
  35   2.0000      -0.586037       -15.9469
  36   2.0000      -0.579581       -15.7712
  37   2.0000      -0.574933       -15.6447
  38   2.0000      -0.550539       -14.9809
  39   2.0000      -0.541485       -14.7346
  40   2.0000      -0.518236       -14.1019
  41   2.0000      -0.503831       -13.7099
  42   2.0000      -0.483292       -13.1510
  43   2.0000      -0.441757       -12.0208
  44   2.0000      -0.403148       -10.9702
  45   2.0000      -0.392169       -10.6715
  46   2.0000      -0.358395        -9.7524
  47   2.0000      -0.338070        -9.1993
  48   0.0000       0.015980         0.4348
  49   0.0000       0.024943         0.6787
  50   0.0000       0.028527         0.7763
  51   0.0000       0.031584         0.8594
  52   0.0000       0.040782         1.1097

MULLIKEN ATOMIC CHARGES
-----------------------
   0 C :   -0.420634
   1 C :   -0.342297
   2 C :   -0.424069
   3 C :   -0.253143
   4 H :    0.429612
   5 H :    0.317463
   6 H :    0.313967
   7 H :    0.401618
   8 S :    1.103484
   9 O :   -1.281906
  10 C :   -0.614099
  11 C :   -0.377789
  12 C :    0.030941
  13 H :    0.203499
  14 H :    0.328973
  15 H :    0.313420
  16 H :    0.315017
  17 C :   -0.702886
  18 H :    0.194021
  19 H :    0.284387
  20 C :    1.190543
  21 O :   -1.010123
Sum of atomic charges:    0.0000000

LOEWDIN ATOMIC CHARGES
----------------------
   0 C :    0.086319
   1 C :    0.242089
   2 C :    0.058045
   3 C :    0.233873
   4 H :   -0.323794
   5 H :   -0.282423
   6 H :   -0.285893
   7 H :   -0.316975
   8 S :    0.705083
   9 O :    0.135505
  10 C :    0.495319
  11 C :    0.208842
  12 C :    0.228262
  13 H :   -0.285863
  14 H :   -0.334046
  15 H :   -0.298558
  16 H :   -0.266327
  17 C :    0.518297
  18 H :   -0.276119
  19 H :   -0.260223
  20 C :   -0.694914
  21 O :    0.713500

  Mayer bond orders larger than 0.100000
B(  0-C ,  1-C ) :   1.3936 B(  0-C ,  3-C ) :  -0.1355 B(  0-C ,  7-H ) :   0.9282
B(  0-C ,  8-S ) :   0.9153 B(  0-C , 11-C ) :   0.2741 B(  1-C ,  2-C ) :  -0.1524
B(  1-C ,  3-C ) :   0.9107 B(  1-C ,  5-H ) :  -0.1082 B(  1-C ,  6-H ) :   1.0127
B(  2-C ,  3-C ) :   1.3719 B(  2-C ,  4-H ) :   0.8960 B(  2-C ,  8-S ) :   0.8638
B(  2-C , 12-C ) :   0.2988 B(  3-C ,  5-H ) :   1.0032 B(  8-S ,  9-O ) :   1.2660
B( 10-C , 12-C ) :  -0.1006 B( 10-C , 13-H ) :   0.9221 B( 10-C , 16-H ) :   0.8806
B( 10-C , 17-C ) :   1.0569 B( 10-C , 20-C ) :   1.0814 B( 10-C , 21-O ) :   0.2130
B( 11-C , 12-C ) :   1.4388 B( 11-C , 14-H ) :   0.8916 B( 11-C , 17-C ) :   0.1101
B( 11-C , 20-C ) :   0.9691 B( 11-C , 21-O ) :   0.3888 B( 12-C , 15-H ) :   0.9321
B( 12-C , 17-C ) :   0.5561 B( 12-C , 20-C ) :   0.1265 B( 14-H , 21-O ) :   0.1013
B( 17-C , 18-H ) :   1.1047 B( 17-C , 19-H ) :   0.9476 B( 20-C , 21-O ) :   0.4021

MP2 TOTAL ENERGY:     -896.261118268 Eh
FINAL SINGLE POINT ENERGY      -896.261118267966

DIPOLE MOMENT
-------------
                                X             Y             Z
Electronic contribution:      6.70946      -5.10157      -0.07238
Nuclear contribution   :     -6.70604       7.00043       1.00940
                        -----------------------------------------
Total Dipole Moment    :      0.00342       1.89886       0.93702
                        -----------------------------------------
Magnitude (a.u.)       :      2.11747
Magnitude (Debye)      :      5.38218

Rotational constants in cm-1:     0.047326     0.024398     0.023614
Rotational constants in MHz :  1418.792160   731.440060   707.928919

                             ****ORCA TERMINATED NORMALLY****
TOTAL RUN TIME: 0 days 1 hours 54 minutes 21 seconds 43 msec
