                         Program Version 4.2.1 -  RELEASE  -
|  1> %pal
|  2>  nprocs 32
|  3> end
|  4> !RI-MP2 aug-cc-pVQZ aug-cc-pVQZ/C TightSCF
|  5> %maxcore 4500
|  6> *xyzfile 0 1  10_6TS.xyz
|  7>
|  8>
|  9>                          ****END OF INPUT****

CARTESIAN COORDINATES (ANGSTROEM)
---------------------------------
  C     -0.059080   -0.786681   -0.461146
  H     -0.289087   -0.764742   -1.524358
  C      0.249214    0.408549    0.128797
  H      0.279746    0.428819    1.216911
  C     -0.740278   -1.866798    0.318685
  H     -0.525932   -2.860632   -0.082371
  H     -0.385591   -1.852930    1.354598
  C     -0.113748    1.703500   -0.522496
  H     -0.024765    1.604295   -1.608112
  H      0.539535    2.525106   -0.218061
  C     -1.572024    2.042356   -0.148941
  H     -1.609814    2.338371    0.905596
  H     -1.874984    2.925339   -0.720037
  C     -2.599969    0.920363   -0.382823
  H     -3.579292    1.400257   -0.457822
  H     -2.423754    0.468408   -1.363702
  C     -2.260680   -1.612938    0.294126
  H     -2.744175   -2.335887    0.958677
  H     -2.640697   -1.826729   -0.711140
  C     -2.700825   -0.193748    0.696721
  H     -3.746737   -0.261339    1.007341
  H     -2.153383    0.112156    1.594189
  N      2.469908    0.415314   -0.078722
  N      2.576340   -0.783240   -0.431476
  N      1.935720   -1.671806   -0.796354
  C      3.379435    0.914477    0.941428
  H      4.403602    0.984789    0.567755
  H      3.041962    1.918583    1.193130
  H      3.367326    0.299791    1.847158

 Total Charge           Charge          ....    0
 Multiplicity           Mult            ....    1
 Number of Electrons    NEL             ....   92
 Basis Dimension        Dim             .... 1742

ORBITAL ENERGIES
----------------

  NO   OCC          E(Eh)            E(eV)
   0   2.0000     -15.715832      -427.6495
   1   2.0000     -15.648149      -425.8078
   2   2.0000     -15.598527      -424.4575
   3   2.0000     -11.265803      -306.5581
   4   2.0000     -11.234434      -305.7045
   5   2.0000     -11.217928      -305.2553
   6   2.0000     -11.216625      -305.2199
   7   2.0000     -11.213028      -305.1220
   8   2.0000     -11.212815      -305.1162
   9   2.0000     -11.212239      -305.1005
  10   2.0000     -11.211641      -305.0843
  11   2.0000     -11.209280      -305.0200
  12   2.0000      -1.465500       -39.8783
  13   2.0000      -1.238894       -33.7120
  14   2.0000      -1.112185       -30.2641
  15   2.0000      -1.045996       -28.4630
  16   2.0000      -1.035747       -28.1841
  17   2.0000      -0.979115       -26.6431
  18   2.0000      -0.916319       -24.9343
  19   2.0000      -0.908215       -24.7138
  20   2.0000      -0.782470       -21.2921
  21   2.0000      -0.774587       -21.0776
  22   2.0000      -0.754664       -20.5355
  23   2.0000      -0.743466       -20.2307
  24   2.0000      -0.688438       -18.7334
  25   2.0000      -0.668681       -18.1957
  26   2.0000      -0.647849       -17.6289
  27   2.0000      -0.631600       -17.1867
  28   2.0000      -0.623144       -16.9566
  29   2.0000      -0.615740       -16.7551
  30   2.0000      -0.580821       -15.8050
  31   2.0000      -0.574603       -15.6357
  32   2.0000      -0.562717       -15.3123
  33   2.0000      -0.553684       -15.0665
  34   2.0000      -0.551772       -15.0145
  35   2.0000      -0.524647       -14.2764
  36   2.0000      -0.519647       -14.1403
  37   2.0000      -0.495814       -13.4918
  38   2.0000      -0.479761       -13.0550
  39   2.0000      -0.464472       -12.6389
  40   2.0000      -0.454325       -12.3628
  41   2.0000      -0.446857       -12.1596
  42   2.0000      -0.432431       -11.7670
  43   2.0000      -0.415476       -11.3057
  44   2.0000      -0.357925        -9.7396
  45   2.0000      -0.306614        -8.3434
  46   0.0000       0.023414         0.6371
  47   0.0000       0.028711         0.7813
  48   0.0000       0.028753         0.7824
  49   0.0000       0.031982         0.8703
  50   0.0000       0.040204         1.0940

MULLIKEN ATOMIC CHARGES
-----------------------
   0 C :   -0.028234
   1 H :    0.263351
   2 C :    0.532198
   3 H :    0.277814
   4 C :   -0.623397
   5 H :    0.224404
   6 H :    0.175518
   7 C :   -0.677647
   8 H :    0.219595
   9 H :    0.144585
  10 C :   -0.545400
  11 H :    0.239235
  12 H :    0.213878
  13 C :   -0.519831
  14 H :    0.254528
  15 H :    0.320861
  16 C :   -0.565194
  17 H :    0.218270
  18 H :    0.226021
  19 C :   -0.556238
  20 H :    0.270766
  21 H :    0.311857
  22 N :   -0.242144
  23 N :   -0.058838
  24 N :   -0.224572
  25 C :   -0.990521
  26 H :    0.419741
  27 H :    0.362395
  28 H :    0.356998
Sum of atomic charges:   -0.0000000

LOEWDIN ATOMIC CHARGES
----------------------
   0 C :    0.152869
   1 H :   -0.301181
   2 C :    0.189669
   3 H :   -0.285308
   4 C :    0.496726
   5 H :   -0.276192
   6 H :   -0.281815
   7 C :    0.518132
   8 H :   -0.276475
   9 H :   -0.273080
  10 C :    0.550416
  11 H :   -0.270442
  12 H :   -0.265939
  13 C :    0.557114
  14 H :   -0.274873
  15 H :   -0.289083
  16 C :    0.547028
  17 H :   -0.267124
  18 H :   -0.271362
  19 C :    0.555284
  20 H :   -0.274929
  21 H :   -0.288727
  22 N :    0.301207
  23 N :   -0.112949
  24 N :    0.416071
  25 C :    0.677093
  26 H :   -0.314036
  27 H :   -0.331677
  28 H :   -0.306418

  Mayer bond orders larger than 0.100000
B(  0-C ,  1-H ) :   1.0244 B(  0-C ,  2-C ) :   1.3759 B(  0-C ,  4-C ) :   0.6565
B(  0-C ,  5-H ) :  -0.1240 B(  0-C , 24-N ) :  -0.1195 B(  2-C ,  3-H ) :   1.0077
B(  2-C ,  7-C ) :   0.4211 B(  2-C ,  8-H ) :  -0.1247 B(  2-C ,  9-H ) :  -0.1862
B(  2-C , 23-N ) :   0.1242 B(  2-C , 24-N ) :   0.1159 B(  4-C ,  5-H ) :   1.0163
B(  4-C ,  6-H ) :   1.0353 B(  4-C , 16-C ) :   0.9008 B(  7-C ,  8-H ) :   0.9959
B(  7-C ,  9-H ) :   1.1299 B(  7-C , 10-C ) :   0.8519 B(  7-C , 22-N ) :   0.2024
B( 10-C , 11-H ) :   0.9612 B( 10-C , 12-H ) :   1.0008 B( 10-C , 13-C ) :   0.7652
B( 13-C , 14-H ) :   0.9881 B( 13-C , 15-H ) :   0.9519 B( 13-C , 19-C ) :   0.9342
B( 16-C , 17-H ) :   1.0006 B( 16-C , 18-H ) :   0.9839 B( 16-C , 19-C ) :   0.7732
B( 19-C , 20-H ) :   0.9808 B( 19-C , 21-H ) :   0.9583 B( 22-N , 23-N ) :   1.1034
B( 22-N , 24-N ) :   0.1718 B( 22-N , 25-C ) :   0.9123 B( 23-N , 24-N ) :   1.9864
B( 25-C , 26-H ) :   0.8577 B( 25-C , 27-H ) :   0.8908 B( 25-C , 28-H ) :   0.8605

MP2 TOTAL ENERGY:     -516.432580576 Eh
FINAL SINGLE POINT ENERGY      -516.432580575954

DIPOLE MOMENT
-------------
                                X             Y             Z
Electronic contribution:     10.71030      -4.70105      -3.49656
Nuclear contribution   :    -10.66623       5.25993       4.08267
                        -----------------------------------------
Total Dipole Moment    :      0.04407       0.55888       0.58611
                        -----------------------------------------
Magnitude (a.u.)       :      0.81105
Magnitude (Debye)      :      2.06154

Rotational constants in cm-1:     0.048219     0.021204     0.016457
Rotational constants in MHz :  1445.558972   635.686451   493.363081

                             ****ORCA TERMINATED NORMALLY****
TOTAL RUN TIME: 0 days 3 hours 12 minutes 18 seconds 625 msec
