                         Program Version 4.2.1 -  RELEASE  -
|  1> %pal
|  2>  nprocs 32
|  3> end
|  4> !RI-MP2 aug-cc-pVQZ aug-cc-pVQZ/C TightSCF
|  5> %maxcore 4500
|  6> *xyzfile 0 2  04_19TS.xyz
|  7>
|  8>
|  9>                          ****END OF INPUT****

CARTESIAN COORDINATES (ANGSTROEM)
---------------------------------
  H      0.631352    0.697623   -0.237874
  C      0.847165   -1.522590   -0.227314
  H      0.429012   -2.460027    0.153362
  C      2.907064   -0.032251   -0.159627
  H      3.817420    0.183034    0.400909
  H      1.065552   -1.683402   -1.287095
  H      3.198636   -0.317632   -1.172538
  C      2.147609   -1.178506    0.502861
  H      2.789752   -2.063841    0.507465
  H      1.937196   -0.929232    1.546342
  C     -0.196502   -0.431792   -0.111345
  C     -2.773189    0.304859   -0.453983
  C     -2.224237    0.895309    0.834084
  H     -3.296520    1.057789   -1.042974
  H     -3.450375   -0.522425   -0.244157
  H     -1.757173    1.865570    0.661143
  H     -3.003590    1.006587    1.587762
  S     -1.375925   -0.327808   -1.448589
  S     -0.975485   -0.255162    1.476378
  S      1.938365    1.517707   -0.226564

 Total Charge           Charge          ....    0
 Multiplicity           Mult            ....    2
 Number of Electrons    NEL             ....   95
 Basis Dimension        Dim             .... 1238

ORBITAL ENERGIES
----------------
                 SPIN UP ORBITALS
  NO   OCC          E(Eh)            E(eV)
   0   1.0000     -91.966591     -2502.5382
   1   1.0000     -91.965580     -2502.5107
   2   1.0000     -91.930764     -2501.5633
   3   1.0000     -11.314784      -307.8909
   4   1.0000     -11.278863      -306.9135
   5   1.0000     -11.276977      -306.8621
   6   1.0000     -11.252275      -306.1900
   7   1.0000     -11.246791      -306.0407
   8   1.0000     -11.236647      -305.7647
   9   1.0000      -8.968948      -244.0575
  10   1.0000      -8.967703      -244.0236
  11   1.0000      -8.933162      -243.0837
  12   1.0000      -6.650542      -180.9705
  13   1.0000      -6.649585      -180.9444
  14   1.0000      -6.649573      -180.9441
  15   1.0000      -6.648591      -180.9174
  16   1.0000      -6.648266      -180.9085
  17   1.0000      -6.647253      -180.8810
  18   1.0000      -6.622645      -180.2113
  19   1.0000      -6.612167      -179.9262
  20   1.0000      -6.611075      -179.8965
  21   1.0000      -1.166487       -31.7417
  22   1.0000      -1.101417       -29.9711
  23   1.0000      -1.031815       -28.0771
  24   1.0000      -0.995907       -27.1000
  25   1.0000      -0.973030       -26.4775
  26   1.0000      -0.889954       -24.2169
  27   1.0000      -0.819430       -22.2978
  28   1.0000      -0.798173       -21.7194
  29   1.0000      -0.761234       -20.7142
  30   1.0000      -0.664976       -18.0949
  31   1.0000      -0.661096       -17.9893
  32   1.0000      -0.639771       -17.4091
  33   1.0000      -0.605709       -16.4822
  34   1.0000      -0.590238       -16.0612
  35   1.0000      -0.569768       -15.5042
  36   1.0000      -0.555174       -15.1071
  37   1.0000      -0.524954       -14.2847
  38   1.0000      -0.519773       -14.1438
  39   1.0000      -0.513466       -13.9721
  40   1.0000      -0.488311       -13.2876
  41   1.0000      -0.479939       -13.0598
  42   1.0000      -0.446520       -12.1504
  43   1.0000      -0.440070       -11.9749
  44   1.0000      -0.402512       -10.9529
  45   1.0000      -0.367339        -9.9958
  46   1.0000      -0.338506        -9.2112
  47   1.0000      -0.297388        -8.0923
  48   0.0000       0.022819         0.6209
  49   0.0000       0.025669         0.6985
  50   0.0000       0.034181         0.9301
  51   0.0000       0.035107         0.9553
  52   0.0000       0.041789         1.1371

                 SPIN DOWN ORBITALS
  NO   OCC          E(Eh)            E(eV)
   0   1.0000     -91.966401     -2502.5330
   1   1.0000     -91.965122     -2502.4982
   2   1.0000     -91.925572     -2501.4220
   3   1.0000     -11.295968      -307.3789
   4   1.0000     -11.278762      -306.9107
   5   1.0000     -11.276999      -306.8627
   6   1.0000     -11.252872      -306.2062
   7   1.0000     -11.248126      -306.0771
   8   1.0000     -11.235918      -305.7449
   9   1.0000      -8.968744      -244.0519
  10   1.0000      -8.967167      -244.0090
  11   1.0000      -8.927420      -242.9274
  12   1.0000      -6.650658      -180.9736
  13   1.0000      -6.649576      -180.9442
  14   1.0000      -6.649142      -180.9323
  15   1.0000      -6.648047      -180.9026
  16   1.0000      -6.647350      -180.8836
  17   1.0000      -6.645467      -180.8324
  18   1.0000      -6.609559      -179.8552
  19   1.0000      -6.607952      -179.8115
  20   1.0000      -6.599533      -179.5824
  21   1.0000      -1.151577       -31.3360
  22   1.0000      -1.097355       -29.8606
  23   1.0000      -1.015956       -27.6456
  24   1.0000      -0.992800       -27.0155
  25   1.0000      -0.955936       -26.0124
  26   1.0000      -0.875340       -23.8192
  27   1.0000      -0.817061       -22.2334
  28   1.0000      -0.786849       -21.4113
  29   1.0000      -0.721962       -19.6456
  30   1.0000      -0.660259       -17.9666
  31   1.0000      -0.647781       -17.6270
  32   1.0000      -0.635609       -17.2958
  33   1.0000      -0.602806       -16.4032
  34   1.0000      -0.587506       -15.9868
  35   1.0000      -0.561129       -15.2691
  36   1.0000      -0.521937       -14.2026
  37   1.0000      -0.518468       -14.1082
  38   1.0000      -0.505229       -13.7480
  39   1.0000      -0.500037       -13.6067
  40   1.0000      -0.483932       -13.1685
  41   1.0000      -0.477228       -12.9860
  42   1.0000      -0.438708       -11.9379
  43   1.0000      -0.433735       -11.8025
  44   1.0000      -0.365156        -9.9364
  45   1.0000      -0.354903        -9.6574
  46   1.0000      -0.328130        -8.9289
  47   0.0000       0.022451         0.6109
  48   0.0000       0.025276         0.6878
  49   0.0000       0.033450         0.9102
  50   0.0000       0.035154         0.9566
  51   0.0000       0.040712         1.1078

MULLIKEN ATOMIC CHARGES AND SPIN POPULATIONS
--------------------------------------------
   0 H :   -0.149385   -0.333528
   1 C :   -0.464681   -0.041081
   2 H :    0.357140    0.060225
   3 C :   -0.520148   -0.074286
   4 H :    0.287058    0.008622
   5 H :    0.233115   -0.001454
   6 H :    0.204388   -0.001192
   7 C :   -0.484749    0.031380
   8 H :    0.273947   -0.004194
   9 H :    0.289875   -0.003706
  10 C :    0.303582    0.642014
  11 C :   -0.583289   -0.004923
  12 C :   -0.630034    0.002319
  13 H :    0.366616   -0.000108
  14 H :    0.265192   -0.000734
  15 H :    0.257113    0.000693
  16 H :    0.393649   -0.000722
  17 S :   -0.152021    0.069010
  18 S :   -0.109661    0.038457
  19 S :   -0.137707    0.613210
Sum of atomic charges         :    0.0000000

LOEWDIN ATOMIC CHARGES AND SPIN POPULATIONS
-------------------------------------------
   0 H :   -1.019853    0.097195
   1 C :    0.319946    0.052355
   2 H :   -0.288526    0.013820
   3 C :    0.114887    0.058020
   4 H :   -0.370988    0.012067
   5 H :   -0.310143    0.000769
   6 H :   -0.361927    0.001805
   7 C :    0.414224    0.005467
   8 H :   -0.267642    0.001246
   9 H :   -0.301982    0.000966
  10 C :   -0.867602    0.274979
  11 C :    0.102013    0.009987
  12 C :    0.092583    0.007519
  13 H :   -0.358016    0.000511
  14 H :   -0.366712    0.003275
  15 H :   -0.353140    0.000977
  16 H :   -0.353759    0.001438
  17 S :    1.343569    0.089414
  18 S :    1.338193    0.078161
  19 S :    1.494876    0.290028

  Mayer bond orders larger than 0.100000
B(  0-H , 10-C ) :   0.2703 B(  0-H , 19-S ) :   0.6543 B(  1-C ,  2-H ) :   0.8491
B(  1-C ,  5-H ) :   0.9736 B(  1-C ,  7-C ) :   0.9568 B(  1-C , 10-C ) :   0.7307
B(  3-C ,  4-H ) :   0.9241 B(  3-C ,  6-H ) :   0.9644 B(  3-C ,  7-C ) :   0.9870
B(  3-C , 19-S ) :   0.9411 B(  7-C ,  8-H ) :   0.8994 B(  7-C ,  9-H ) :   0.8806
B( 10-C , 12-C ) :  -0.1117 B( 10-C , 17-S ) :   0.7991 B( 10-C , 18-S ) :   0.8506
B( 11-C , 12-C ) :   1.0551 B( 11-C , 13-H ) :   0.8156 B( 11-C , 14-H ) :   0.9076
B( 11-C , 17-S ) :   0.9787 B( 12-C , 15-H ) :   0.8965 B( 12-C , 16-H ) :   0.7866
B( 12-C , 18-S ) :   1.0122

MP2 TOTAL ENERGY:    -1427.966074786 Eh
FINAL SINGLE POINT ENERGY     -1427.966074786430

DIPOLE MOMENT
-------------
                                X             Y             Z
Electronic contribution:     -3.08187       2.59447      -0.65875
Nuclear contribution   :      2.36187      -3.17846       0.87399
                        -----------------------------------------
Total Dipole Moment    :     -0.72001      -0.58399       0.21524
                        -----------------------------------------
Magnitude (a.u.)       :      0.95173
Magnitude (Debye)      :      2.41910

Rotational constants in cm-1:     0.052578     0.022176     0.021955
Rotational constants in MHz :  1576.250424   664.825369   658.200430

                             ****ORCA TERMINATED NORMALLY****
TOTAL RUN TIME: 0 days 1 hours 45 minutes 56 seconds 276 msec
