                         Program Version 4.2.1 -  RELEASE  -
|  1> %pal
|  2>  nprocs 32
|  3> end
|  4> !RI-MP2 aug-cc-pVQZ aug-cc-pVQZ/C TightSCF
|  5> %maxcore 4500
|  6> *xyzfile 0 1  10_62TS.xyz
|  7>
|  8>
|  9>                          ****END OF INPUT****

CARTESIAN COORDINATES (ANGSTROEM)
---------------------------------
  C      0.382644    1.516687    0.000008
  C     -0.951206    1.068845    0.000009
  C     -1.351848    0.382723   -1.211237
  C     -0.452675   -1.100698   -1.209523
  C      0.355786   -1.099664   -0.000008
  C      1.354140   -0.123185   -0.000005
  C      2.658572    0.046176   -0.000007
  C     -0.452668   -1.100713    1.209512
  H      0.122559   -1.098901   -2.132576
  H     -1.074008    0.893984   -2.130685
  C     -1.351842    0.382708    1.211249
  H      0.763693    1.972176    0.909506
  H     -1.202442   -1.889513   -1.224862
  H     -2.399566    0.090369   -1.240682
  H      3.106801    1.032926   -0.000002
  H      3.327265   -0.806361   -0.000014
  H      0.763688    1.972188   -0.909487
  H      0.122571   -1.098927    2.132562
  H     -1.202435   -1.889528    1.224845
  H     -1.073996    0.893958    2.130701
  H     -2.399559    0.090354    1.240697

 Total Charge           Charge          ....    0
 Multiplicity           Mult            ....    1
 Number of Electrons    NEL             ....   66
 Basis Dimension        Dim             .... 1272

ORBITAL ENERGIES
----------------

  NO   OCC          E(Eh)            E(eV)
   0   2.0000     -11.252355      -306.1921
   1   2.0000     -11.234477      -305.7056
   2   2.0000     -11.233414      -305.6767
   3   2.0000     -11.233401      -305.6764
   4   2.0000     -11.231679      -305.6295
   5   2.0000     -11.231637      -305.6284
   6   2.0000     -11.224204      -305.4261
   7   2.0000     -11.220434      -305.3235
   8   2.0000     -11.219323      -305.2933
   9   2.0000      -1.160962       -31.5914
  10   2.0000      -1.058446       -28.8018
  11   2.0000      -1.019007       -27.7286
  12   2.0000      -0.986879       -26.8543
  13   2.0000      -0.921964       -25.0879
  14   2.0000      -0.857147       -23.3242
  15   2.0000      -0.821960       -22.3667
  16   2.0000      -0.737452       -20.0671
  17   2.0000      -0.667833       -18.1727
  18   2.0000      -0.656360       -17.8605
  19   2.0000      -0.645226       -17.5575
  20   2.0000      -0.612794       -16.6750
  21   2.0000      -0.587806       -15.9950
  22   2.0000      -0.572601       -15.5813
  23   2.0000      -0.563042       -15.3211
  24   2.0000      -0.543897       -14.8002
  25   2.0000      -0.538680       -14.6582
  26   2.0000      -0.513969       -13.9858
  27   2.0000      -0.479927       -13.0595
  28   2.0000      -0.470482       -12.8025
  29   2.0000      -0.437554       -11.9064
  30   2.0000      -0.393580       -10.7098
  31   2.0000      -0.363454        -9.8901
  32   2.0000      -0.272839        -7.4243
  33   0.0000       0.025381         0.6907
  34   0.0000       0.028862         0.7854
  35   0.0000       0.032094         0.8733
  36   0.0000       0.034585         0.9411
  37   0.0000       0.044211         1.2030

MULLIKEN ATOMIC CHARGES
-----------------------
   0 C :   -0.588355
   1 C :    0.092998
   2 C :   -0.584435
   3 C :   -0.635639
   4 C :    0.126810
   5 C :    0.362719
   6 C :   -0.948355
   7 C :   -0.635479
   8 H :    0.314501
   9 H :    0.266329
  10 C :   -0.584414
  11 H :    0.267858
  12 H :    0.286455
  13 H :    0.294729
  14 H :    0.293998
  15 H :    0.240280
  16 H :    0.267896
  17 H :    0.314630
  18 H :    0.286422
  19 H :    0.266296
  20 H :    0.294756
Sum of atomic charges:   -0.0000000

LOEWDIN ATOMIC CHARGES
----------------------
   0 C :    0.594284
   1 C :   -0.048223
   2 C :    0.569350
   3 C :    0.558463
   4 C :   -0.069820
   5 C :    0.012690
   6 C :    0.789160
   7 C :    0.558463
   8 H :   -0.276472
   9 H :   -0.280695
  10 C :    0.569351
  11 H :   -0.289764
  12 H :   -0.282581
  13 H :   -0.279262
  14 H :   -0.361111
  15 H :   -0.355058
  16 H :   -0.289763
  17 H :   -0.276472
  18 H :   -0.282581
  19 H :   -0.280696
  20 H :   -0.279262

  Mayer bond orders larger than 0.100000
B(  0-C ,  1-C ) :   1.1684 B(  0-C ,  2-C ) :  -0.1646 B(  0-C ,  5-C ) :   0.4570
B(  0-C , 10-C ) :  -0.1646 B(  0-C , 11-H ) :   1.0285 B(  0-C , 16-H ) :   1.0284
B(  1-C ,  2-C ) :   0.9434 B(  1-C ,  4-C ) :   0.3637 B(  1-C , 10-C ) :   0.9434
B(  1-C , 13-H ) :  -0.1031 B(  1-C , 20-H ) :  -0.1032 B(  2-C ,  3-C ) :   0.7028
B(  2-C ,  9-H ) :   1.0139 B(  2-C , 10-C ) :  -0.1607 B(  2-C , 13-H ) :   0.9969
B(  3-C ,  4-C ) :   1.0989 B(  3-C ,  5-C ) :  -0.2030 B(  3-C ,  8-H ) :   0.9700
B(  3-C , 12-H ) :   0.9925 B(  4-C ,  5-C ) :   0.8483 B(  4-C ,  6-C ) :  -0.1829
B(  4-C ,  7-C ) :   1.0988 B(  5-C ,  6-C ) :   1.2629 B(  5-C ,  7-C ) :  -0.2031
B(  5-C , 14-H ) :  -0.1257 B(  5-C , 15-H ) :  -0.2289 B(  6-C , 14-H ) :   1.0270
B(  6-C , 15-H ) :   1.1788 B(  7-C , 10-C ) :   0.7028 B(  7-C , 17-H ) :   0.9698
B(  7-C , 18-H ) :   0.9925 B( 10-C , 19-H ) :   1.0139 B( 10-C , 20-H ) :   0.9969

MP2 TOTAL ENERGY:     -349.395158623 Eh
FINAL SINGLE POINT ENERGY      -349.395158622598

DIPOLE MOMENT
-------------
                                X             Y             Z
Electronic contribution:      0.98143      -0.14615      -0.00000
Nuclear contribution   :     -1.18124       0.16781       0.00000
                        -----------------------------------------
Total Dipole Moment    :     -0.19981       0.02166       0.00000
                        -----------------------------------------
Magnitude (a.u.)       :      0.20098
Magnitude (Debye)      :      0.51086

Rotational constants in cm-1:     0.081935     0.055160     0.052952
Rotational constants in MHz :  2456.352786  1653.640474  1587.462474

                             ****ORCA TERMINATED NORMALLY****
TOTAL RUN TIME: 0 days 1 hours 9 minutes 30 seconds 403 msec
