                         Program Version 4.2.1 -  RELEASE  -
|  1> %pal
|  2>  nprocs 32
|  3> end
|  4> !RI-MP2 aug-cc-pVQZ aug-cc-pVQZ/C TightSCF
|  5> %maxcore 4500
|  6> *xyzfile 1 1  10_26P.xyz
|  7>
|  8>
|  9>                          ****END OF INPUT****

CARTESIAN COORDINATES (ANGSTROEM)
---------------------------------
  C     -0.957880   -2.934999   -0.839709
  C     -0.234062   -1.871110   -0.007405
  C     -2.353839   -1.514663    0.522283
  C     -2.449676   -2.629421   -0.523803
  H     -0.718777   -2.839568   -1.896446
  H     -0.677954   -3.936303   -0.511920
  H     -3.022900   -2.320813   -1.400579
  H     -2.967686   -3.485038   -0.091802
  C     -1.069253   -1.841253    1.276643
  H     -0.764242   -1.086454    2.000297
  H     -1.130551   -2.809154    1.771325
  H      0.838180   -1.995212    0.087374
  H     -3.258672   -1.285827    1.079287
  N     -1.899843   -0.262393   -0.215002
  N     -0.539895   -0.571240   -0.657824
  C      0.273677    0.651225   -0.425422
  C      1.728895    0.345960   -0.171188
  C      2.223867    0.044792    1.096090
  C      2.604169    0.340645   -1.253050
  C      3.564898   -0.259563    1.274115
  H      1.571543    0.044278    1.960956
  C      3.946707    0.036486   -1.077787
  H      2.231854    0.578715   -2.243158
  C      4.429026   -0.264986    0.187060
  H      3.937996   -0.486809    2.264916
  H      4.615913    0.040957   -1.928904
  H      5.477042   -0.497351    0.328460
  C     -1.908249    1.010650    0.622180
  C     -0.449296    1.495490    0.642189
  C     -0.517757    2.978602    0.251063
  H     -0.685230    3.592814    1.138541
  H      0.410498    3.319868   -0.208789
  C     -2.747528    2.130759   -0.007421
  H     -3.261506    2.661379    0.795955
  C     -1.730338    3.059527   -0.680488
  H     -2.109700    4.073122   -0.801508
  H     -1.474561    2.694547   -1.679447
  H     -3.527598    1.758107   -0.677146
  H      0.227220    1.202815   -1.367119
  H      0.001126    1.348792    1.620920
  H     -2.276434    0.716821    1.601815
  H     -2.477552   -0.123091   -1.045351

 Total Charge           Charge          ....    1
 Multiplicity           Mult            ....    1
 Number of Electrons    NEL             ....  138
 Basis Dimension        Dim             .... 2578

ORBITAL ENERGIES
----------------

  NO   OCC          E(Eh)            E(eV)
   0   2.0000     -15.843763      -431.1307
   1   2.0000     -15.742439      -428.3735
   2   2.0000     -11.435721      -311.1818
   3   2.0000     -11.426763      -310.9380
   4   2.0000     -11.404856      -310.3419
   5   2.0000     -11.401244      -310.2436
   6   2.0000     -11.373087      -309.4774
   7   2.0000     -11.370427      -309.4050
   8   2.0000     -11.368949      -309.3648
   9   2.0000     -11.366734      -309.3046
  10   2.0000     -11.353822      -308.9532
  11   2.0000     -11.351851      -308.8996
  12   2.0000     -11.347416      -308.7789
  13   2.0000     -11.346037      -308.7414
  14   2.0000     -11.343755      -308.6793
  15   2.0000     -11.340699      -308.5961
  16   2.0000     -11.337162      -308.4999
  17   2.0000     -11.335281      -308.4487
  18   2.0000     -11.334033      -308.4147
  19   2.0000      -1.529738       -41.6263
  20   2.0000      -1.310273       -35.6544
  21   2.0000      -1.303874       -35.4802
  22   2.0000      -1.258583       -34.2478
  23   2.0000      -1.251756       -34.0620
  24   2.0000      -1.163359       -31.6566
  25   2.0000      -1.127370       -30.6773
  26   2.0000      -1.123024       -30.5590
  27   2.0000      -1.117908       -30.4198
  28   2.0000      -1.114829       -30.3360
  29   2.0000      -1.071346       -29.1528
  30   2.0000      -1.006923       -27.3998
  31   2.0000      -0.969858       -26.3912
  32   2.0000      -0.952720       -25.9248
  33   2.0000      -0.941623       -25.6229
  34   2.0000      -0.926623       -25.2147
  35   2.0000      -0.909508       -24.7490
  36   2.0000      -0.908953       -24.7339
  37   2.0000      -0.857228       -23.3263
  38   2.0000      -0.842391       -22.9226
  39   2.0000      -0.828747       -22.5514
  40   2.0000      -0.801984       -21.8231
  41   2.0000      -0.793092       -21.5811
  42   2.0000      -0.779453       -21.2100
  43   2.0000      -0.763157       -20.7666
  44   2.0000      -0.741013       -20.1640
  45   2.0000      -0.739177       -20.1140
  46   2.0000      -0.733781       -19.9672
  47   2.0000      -0.716710       -19.5027
  48   2.0000      -0.701468       -19.0879
  49   2.0000      -0.695280       -18.9195
  50   2.0000      -0.691527       -18.8174
  51   2.0000      -0.686631       -18.6842
  52   2.0000      -0.668065       -18.1790
  53   2.0000      -0.654076       -17.7983
  54   2.0000      -0.649754       -17.6807
  55   2.0000      -0.634988       -17.2789
  56   2.0000      -0.629342       -17.1253
  57   2.0000      -0.622430       -16.9372
  58   2.0000      -0.619269       -16.8512
  59   2.0000      -0.613061       -16.6822
  60   2.0000      -0.611079       -16.6283
  61   2.0000      -0.607234       -16.5237
  62   2.0000      -0.604144       -16.4396
  63   2.0000      -0.602357       -16.3910
  64   2.0000      -0.590554       -16.0698
  65   2.0000      -0.588253       -16.0072
  66   2.0000      -0.525156       -14.2902
  67   2.0000      -0.444845       -12.1048
  68   2.0000      -0.444088       -12.0842
  69   0.0000      -0.069120        -1.8808
  70   0.0000      -0.061820        -1.6822
  71   0.0000      -0.052680        -1.4335
  72   0.0000      -0.051974        -1.4143
  73   0.0000      -0.040731        -1.1083

MULLIKEN ATOMIC CHARGES
-----------------------
   0 C :   -0.891904
   1 C :    0.351416
   2 C :   -0.106983
   3 C :   -0.745257
   4 H :    0.283483
   5 H :    0.201613
   6 H :    0.248667
   7 H :    0.194879
   8 C :   -0.765404
   9 H :    0.249362
  10 H :    0.119270
  11 H :    0.535920
  12 H :    0.413543
  13 N :    1.069647
  14 N :   -0.348760
  15 C :    0.670018
  16 C :    1.069535
  17 C :   -0.264732
  18 C :   -0.926723
  19 C :   -0.507582
  20 H :    0.161591
  21 C :   -0.477806
  22 H :    0.169511
  23 C :   -0.475499
  24 H :    0.244175
  25 H :    0.225611
  26 H :    0.356796
  27 C :    0.089213
  28 C :    0.153260
  29 C :   -0.938163
  30 H :    0.140678
  31 H :    0.239589
  32 C :   -0.858908
  33 H :    0.106767
  34 C :   -0.644719
  35 H :    0.294316
  36 H :    0.161725
  37 H :    0.261183
  38 H :    0.322346
  39 H :    0.435160
  40 H :    0.427588
  41 H :   -0.244421
Sum of atomic charges:    1.0000000

LOEWDIN ATOMIC CHARGES
----------------------
   0 C :    0.597441
   1 C :    0.028284
   2 C :    0.130591
   3 C :    0.608733
   4 H :   -0.245036
   5 H :   -0.239749
   6 H :   -0.238456
   7 H :   -0.236341
   8 C :    0.591932
   9 H :   -0.248349
  10 H :   -0.219999
  11 H :   -0.268401
  12 H :   -0.205223
  13 N :    0.697652
  14 N :    0.579454
  15 C :    0.015276
  16 C :   -0.061293
  17 C :    0.352023
  18 C :    0.376730
  19 C :    0.380521
  20 H :   -0.321589
  21 C :    0.376642
  22 H :   -0.299569
  23 C :    0.366744
  24 H :   -0.306604
  25 H :   -0.307729
  26 H :   -0.308127
  27 C :    0.156303
  28 C :    0.193435
  29 C :    0.590885
  30 H :   -0.236068
  31 H :   -0.233099
  32 C :    0.614217
  33 H :   -0.241670
  34 C :    0.583578
  35 H :   -0.235982
  36 H :   -0.254406
  37 H :   -0.237715
  38 H :   -0.342865
  39 H :   -0.281987
  40 H :   -0.255862
  41 H :   -0.414322

  Mayer bond orders larger than 0.100000
B(  0-C ,  1-C ) :   0.2025 B(  0-C ,  2-C ) :  -0.2101 B(  0-C ,  3-C ) :   1.2124
B(  0-C ,  4-H ) :   1.0356 B(  0-C ,  5-H ) :   1.1085 B(  1-C ,  3-C ) :  -0.3166
B(  1-C ,  8-C ) :   0.8199 B(  1-C , 11-H ) :   0.7219 B(  1-C , 14-N ) :   0.6154
B(  1-C , 18-C ) :  -0.1717 B(  2-C ,  3-C ) :   0.5332 B(  2-C ,  8-C ) :   0.8918
B(  2-C , 12-H ) :   0.9426 B(  2-C , 13-N ) :   0.8487 B(  3-C ,  6-H ) :   1.0296
B(  3-C ,  7-H ) :   1.0944 B(  8-C ,  9-H ) :   1.0092 B(  8-C , 10-H ) :   1.1192
B(  8-C , 13-N ) :  -0.1251 B( 13-N , 14-N ) :   0.4312 B( 13-N , 15-C ) :   0.2213
B( 13-N , 27-C ) :   0.9459 B( 13-N , 41-H ) :   1.1142 B( 14-N , 15-C ) :   0.9874
B( 14-N , 17-C ) :  -0.1101 B( 14-N , 38-H ) :  -0.1682 B( 15-C , 18-C ) :  -0.4415
B( 15-C , 28-C ) :   0.8089 B( 15-C , 34-C ) :  -0.1037 B( 15-C , 38-H ) :   0.9780
B( 16-C , 17-C ) :   0.6474 B( 16-C , 18-C ) :   0.6961 B( 16-C , 19-C ) :  -0.3281
B( 16-C , 21-C ) :  -0.4987 B( 17-C , 19-C ) :   1.3375 B( 17-C , 20-H ) :   1.1557
B( 17-C , 21-C ) :   0.1578 B( 17-C , 24-H ) :  -0.1115 B( 17-C , 28-C ) :  -0.1054
B( 18-C , 19-C ) :   0.1840 B( 18-C , 21-C ) :   1.5305 B( 18-C , 22-H ) :   1.1814
B( 18-C , 23-C ) :   0.1416 B( 18-C , 25-H ) :  -0.1271 B( 19-C , 23-C ) :   1.1709
B( 19-C , 24-H ) :   1.1277 B( 19-C , 26-H ) :  -0.1164 B( 21-C , 23-C ) :   1.1756
B( 21-C , 25-H ) :   1.1665 B( 23-C , 24-H ) :  -0.1099 B( 23-C , 26-H ) :   1.0227
B( 27-C , 28-C ) :   1.3872 B( 27-C , 29-C ) :   0.2392 B( 27-C , 33-H ) :  -0.2302
B( 27-C , 34-C ) :  -0.1369 B( 27-C , 37-H ) :  -0.1436 B( 27-C , 40-H ) :   0.8277
B( 28-C , 30-H ) :  -0.2430 B( 28-C , 31-H ) :  -0.1445 B( 28-C , 32-C ) :   0.1116
B( 28-C , 34-C ) :  -0.2303 B( 28-C , 39-H ) :   0.8863 B( 29-C , 30-H ) :   1.2568
B( 29-C , 31-H ) :   1.1119 B( 29-C , 32-C ) :  -0.1066 B( 29-C , 34-C ) :   1.1097
B( 32-C , 33-H ) :   1.2827 B( 32-C , 34-C ) :   1.0204 B( 32-C , 37-H ) :   1.0550
B( 34-C , 35-H ) :   0.9294 B( 34-C , 36-H ) :   1.1003

MP2 TOTAL ENERGY:     -769.532686166 Eh
FINAL SINGLE POINT ENERGY      -769.532686166343

DIPOLE MOMENT
-------------
                                X             Y             Z
Electronic contribution:      7.09060      -1.56105      -0.48780
Nuclear contribution   :     -9.25728       1.18748       0.81014
                        -----------------------------------------
Total Dipole Moment    :     -2.16668      -0.37357       0.32234
                        -----------------------------------------
Magnitude (a.u.)       :      2.22215
Magnitude (Debye)      :      5.64826

Rotational constants in cm-1:     0.018379     0.011468     0.008261
Rotational constants in MHz :   550.974240   343.797883   247.662119

                             ****ORCA TERMINATED NORMALLY****
TOTAL RUN TIME: 0 days 8 hours 38 minutes 30 seconds 438 msec
