                         Program Version 4.2.1 -  RELEASE  -
|  1> %pal
|  2>  nprocs 32
|  3> end
|  4> !RI-MP2 aug-cc-pVQZ aug-cc-pVQZ/C TightSCF
|  5> %maxcore 4500
|  6> *xyzfile 0 2  04_66R2.xyz
|  7>
|  8>
|  9>                          ****END OF INPUT****

CARTESIAN COORDINATES (ANGSTROEM)
---------------------------------
  H      0.532463    2.355213    0.064210
  C     -0.009420    1.526139   -0.396054
  N      0.955459    0.468847   -0.723858
  H     -0.434791    1.888660   -1.332169
  C     -1.107797    0.960972    0.550500
  C      1.488298   -0.085156    0.536506
  C      0.307682   -0.589544   -1.410110
  H     -1.018849    1.370471    1.559351
  H     -2.108844    1.200392    0.185261
  N     -0.967547   -0.493069    0.634307
  H      2.296731   -0.781301    0.305234
  H      1.911118    0.735287    1.122497
  C      0.315044   -0.798273    1.280402
  H      0.971868   -1.313587   -1.873305
  C     -0.969806   -1.033034   -0.738412
  H      0.447207   -1.882429    1.270476
  H      0.256435   -0.483885    2.324613
  H     -1.881774   -0.680463   -1.233144
  H     -1.030956   -2.125428   -0.703171

 Total Charge           Charge          ....    0
 Multiplicity           Mult            ....    2
 Number of Electrons    NEL             ....   61
 Basis Dimension        Dim             .... 1146

ORBITAL ENERGIES
----------------
                 SPIN UP ORBITALS
  NO   OCC          E(Eh)            E(eV)
   0   1.0000     -15.546888      -423.0523
   1   1.0000     -15.546045      -423.0294
   2   1.0000     -11.250239      -306.1346
   3   1.0000     -11.249632      -306.1181
   4   1.0000     -11.246762      -306.0399
   5   1.0000     -11.245989      -306.0189
   6   1.0000     -11.245132      -305.9956
   7   1.0000     -11.244483      -305.9779
   8   1.0000      -1.287277       -35.0286
   9   1.0000      -1.184499       -32.2319
  10   1.0000      -1.027218       -27.9520
  11   1.0000      -1.021726       -27.8026
  12   1.0000      -0.869901       -23.6712
  13   1.0000      -0.865570       -23.5534
  14   1.0000      -0.854351       -23.2481
  15   1.0000      -0.710679       -19.3385
  16   1.0000      -0.683043       -18.5866
  17   1.0000      -0.681301       -18.5391
  18   1.0000      -0.668183       -18.1822
  19   1.0000      -0.575226       -15.6527
  20   1.0000      -0.573412       -15.6033
  21   1.0000      -0.560895       -15.2627
  22   1.0000      -0.551364       -15.0034
  23   1.0000      -0.541172       -14.7260
  24   1.0000      -0.527813       -14.3625
  25   1.0000      -0.518053       -14.0969
  26   1.0000      -0.466223       -12.6866
  27   1.0000      -0.462794       -12.5933
  28   1.0000      -0.425706       -11.5841
  29   1.0000      -0.370374       -10.0784
  30   1.0000      -0.304013        -8.2726
  31   0.0000       0.026611         0.7241
  32   0.0000       0.031556         0.8587
  33   0.0000       0.032659         0.8887
  34   0.0000       0.036019         0.9801
  35   0.0000       0.045162         1.2289

                 SPIN DOWN ORBITALS
  NO   OCC          E(Eh)            E(eV)
   0   1.0000     -15.547737      -423.0754
   1   1.0000     -15.544934      -422.9992
   2   1.0000     -11.249001      -306.1009
   3   1.0000     -11.248105      -306.0765
   4   1.0000     -11.246180      -306.0241
   5   1.0000     -11.244942      -305.9904
   6   1.0000     -11.244374      -305.9750
   7   1.0000     -11.224493      -305.4340
   8   1.0000      -1.278862       -34.7996
   9   1.0000      -1.179184       -32.0872
  10   1.0000      -1.019391       -27.7390
  11   1.0000      -1.003400       -27.3039
  12   1.0000      -0.867167       -23.5968
  13   1.0000      -0.862539       -23.4709
  14   1.0000      -0.822972       -22.3942
  15   1.0000      -0.698572       -19.0091
  16   1.0000      -0.678380       -18.4597
  17   1.0000      -0.677020       -18.4226
  18   1.0000      -0.648560       -17.6482
  19   1.0000      -0.570457       -15.5229
  20   1.0000      -0.567905       -15.4535
  21   1.0000      -0.554670       -15.0933
  22   1.0000      -0.547345       -14.8940
  23   1.0000      -0.533597       -14.5199
  24   1.0000      -0.526364       -14.3231
  25   1.0000      -0.500033       -13.6066
  26   1.0000      -0.462495       -12.5851
  27   1.0000      -0.459837       -12.5128
  28   1.0000      -0.417845       -11.3701
  29   1.0000      -0.324922        -8.8416
  30   0.0000       0.026707         0.7267
  31   0.0000       0.031633         0.8608
  32   0.0000       0.032356         0.8804
  33   0.0000       0.036037         0.9806
  34   0.0000       0.045153         1.2287

MULLIKEN ATOMIC CHARGES AND SPIN POPULATIONS
--------------------------------------------
   0 H :    0.321317    0.006146
   1 C :   -0.440662   -0.017103
   2 N :   -0.554485   -0.079719
   3 H :    0.352945   -0.006692
   4 C :   -0.409349    0.006007
   5 C :   -0.440387    0.048319
   6 C :   -0.417393    1.201504
   7 H :    0.284079   -0.000590
   8 H :    0.339277    0.001183
   9 N :   -0.600035    0.032763
  10 H :    0.364035   -0.008667
  11 H :    0.302066    0.008154
  12 C :   -0.411415   -0.010562
  13 H :    0.452305   -0.071377
  14 C :   -0.411207   -0.180911
  15 H :    0.301640    0.003586
  16 H :    0.314780   -0.000268
  17 H :    0.305224    0.041113
  18 H :    0.347263    0.027114
Sum of atomic charges         :    0.0000000

LOEWDIN ATOMIC CHARGES AND SPIN POPULATIONS
-------------------------------------------
   0 H :   -0.276674    0.001827
   1 C :    0.369133    0.019458
   2 N :    0.469829    0.123698
   3 H :   -0.277787    0.009224
   4 C :    0.369557    0.003711
   5 C :    0.380474    0.029546
   6 C :    0.274924    0.475066
   7 H :   -0.278932    0.000238
   8 H :   -0.275024    0.000598
   9 N :    0.515102    0.017601
  10 H :   -0.273620    0.008418
  11 H :   -0.276228    0.007237
  12 C :    0.373948    0.010753
  13 H :   -0.303222    0.138035
  14 C :    0.337122    0.120588
  15 H :   -0.278821    0.000851
  16 H :   -0.276506    0.000267
  17 H :   -0.288305    0.020717
  18 H :   -0.284969    0.012167

  Mayer bond orders larger than 0.100000
B(  0-H ,  1-C ) :   0.8856 B(  1-C ,  2-N ) :   0.9553 B(  1-C ,  3-H ) :   0.8707
B(  1-C ,  4-C ) :   1.0930 B(  2-N ,  5-C ) :   0.9302 B(  2-N ,  6-C ) :   0.8663
B(  4-C ,  7-H ) :   0.8929 B(  4-C ,  8-H ) :   0.8797 B(  4-C ,  9-N ) :   0.9466
B(  5-C ,  6-C ) :   0.1018 B(  5-C , 10-H ) :   0.8667 B(  5-C , 11-H ) :   0.8668
B(  5-C , 12-C ) :   1.0972 B(  6-C , 13-H ) :   0.7730 B(  6-C , 14-C ) :   1.0241
B(  9-N , 12-C ) :   0.9253 B(  9-N , 14-C ) :   0.8617 B( 12-C , 15-H ) :   0.8666
B( 12-C , 16-H ) :   0.9072 B( 14-C , 17-H ) :   0.8742 B( 14-C , 18-H ) :   0.8936

MP2 TOTAL ENERGY:     -344.059348462 Eh
FINAL SINGLE POINT ENERGY      -344.059348461625

DIPOLE MOMENT
-------------
                                X             Y             Z
Electronic contribution:      0.11598      -0.29559      -1.50550
Nuclear contribution   :     -0.06128       0.29142       1.74091
                        -----------------------------------------
Total Dipole Moment    :      0.05470      -0.00417       0.23542
                        -----------------------------------------
Magnitude (a.u.)       :      0.24172
Magnitude (Debye)      :      0.61441

Rotational constants in cm-1:     0.092266     0.087401     0.085288
Rotational constants in MHz :  2766.079819  2620.209268  2556.878531

                             ****ORCA TERMINATED NORMALLY****
TOTAL RUN TIME: 0 days 1 hours 8 minutes 55 seconds 691 msec
