                         Program Version 4.2.1 -  RELEASE  -
|  1> %pal
|  2>  nprocs 32
|  3> end
|  4> !RI-MP2 aug-cc-pVQZ aug-cc-pVQZ/C TightSCF
|  5> %maxcore 4500
|  6> *xyzfile 1 1  10_27R.xyz
|  7>
|  8>
|  9>                          ****END OF INPUT****

CARTESIAN COORDINATES (ANGSTROEM)
---------------------------------
  C      1.030703    3.281379   -0.850488
  C      0.108449    2.055749   -0.893491
  C      1.002583    1.892993    1.121254
  C      1.669007    3.162803    0.564673
  H      1.767714    3.250290   -1.650686
  H      0.452767    4.198991   -0.954528
  H      2.755370    3.080205    0.543995
  H      1.412475    4.007011    1.204369
  C     -0.408946    1.968398    0.546788
  H     -1.020669    1.091014    0.746791
  H     -0.928792    2.868361    0.870925
  H     -0.621999    2.028270   -1.695891
  H      1.142488    1.676954    2.176499
  N      1.548473    0.769527    0.292727
  N      0.994458    0.865395   -0.991133
  C     -0.572554   -2.013677   -0.646107
  C     -1.792733   -1.284559   -0.266360
  C     -2.481260   -0.566403   -1.245982
  C     -2.275663   -1.254363    1.044871
  C     -3.596829    0.192806   -0.922220
  H     -2.143353   -0.611055   -2.276353
  C     -3.392309   -0.500968    1.367927
  H     -1.792402   -1.843694    1.814415
  C     -4.051188    0.233695    0.388152
  H     -4.120306    0.740265   -1.696385
  H     -3.762129   -0.498086    2.385909
  H     -4.928244    0.815366    0.642680
  C      2.430739   -0.086559    0.639253
  C      0.387893   -2.437987    0.176762
  H      0.473710    0.002540   -1.160166
  C      3.089410   -1.072109   -0.249548
  H      4.155435   -0.819311   -0.204380
  H      2.766109   -0.938353   -1.281477
  C      1.611645   -3.175137   -0.263935
  H      1.578786   -4.197326    0.126768
  H      1.617310   -3.259861   -1.354153
  C      2.919872   -2.534046    0.208640
  H      2.996349   -2.591516    1.298940
  H      3.758105   -3.110268   -0.184587
  H      2.740254   -0.026028    1.678630
  H     -0.460362   -2.211821   -1.711301
  H      0.287955   -2.268490    1.247707

 Total Charge           Charge          ....    1
 Multiplicity           Mult            ....    1
 Number of Electrons    NEL             ....  138
 Basis Dimension        Dim             .... 2578

ORBITAL ENERGIES
----------------

  NO   OCC          E(Eh)            E(eV)
   0   2.0000     -15.834408      -430.8762
   1   2.0000     -15.744028      -428.4168
   2   2.0000     -11.483377      -312.4786
   3   2.0000     -11.429843      -311.0218
   4   2.0000     -11.401548      -310.2519
   5   2.0000     -11.386444      -309.8409
   6   2.0000     -11.364066      -309.2320
   7   2.0000     -11.363252      -309.2098
   8   2.0000     -11.359488      -309.1074
   9   2.0000     -11.354965      -308.9843
  10   2.0000     -11.353269      -308.9381
  11   2.0000     -11.352465      -308.9163
  12   2.0000     -11.350095      -308.8518
  13   2.0000     -11.348631      -308.8120
  14   2.0000     -11.340861      -308.6005
  15   2.0000     -11.339404      -308.5609
  16   2.0000     -11.337658      -308.5134
  17   2.0000     -11.337243      -308.5021
  18   2.0000     -11.334998      -308.4410
  19   2.0000      -1.542482       -41.9731
  20   2.0000      -1.331149       -36.2224
  21   2.0000      -1.271540       -34.6004
  22   2.0000      -1.261850       -34.3367
  23   2.0000      -1.233665       -33.5697
  24   2.0000      -1.192637       -32.4533
  25   2.0000      -1.143841       -31.1255
  26   2.0000      -1.124074       -30.5876
  27   2.0000      -1.116643       -30.3854
  28   2.0000      -1.097472       -29.8637
  29   2.0000      -1.067001       -29.0346
  30   2.0000      -0.996573       -27.1181
  31   2.0000      -0.969901       -26.3924
  32   2.0000      -0.966754       -26.3067
  33   2.0000      -0.939867       -25.5751
  34   2.0000      -0.920069       -25.0363
  35   2.0000      -0.904780       -24.6203
  36   2.0000      -0.884884       -24.0789
  37   2.0000      -0.870890       -23.6981
  38   2.0000      -0.829884       -22.5823
  39   2.0000      -0.812973       -22.1221
  40   2.0000      -0.802092       -21.8260
  41   2.0000      -0.786989       -21.4151
  42   2.0000      -0.769900       -20.9501
  43   2.0000      -0.757375       -20.6092
  44   2.0000      -0.755981       -20.5713
  45   2.0000      -0.742850       -20.2140
  46   2.0000      -0.737560       -20.0700
  47   2.0000      -0.718621       -19.5547
  48   2.0000      -0.710017       -19.3205
  49   2.0000      -0.696115       -18.9423
  50   2.0000      -0.692701       -18.8493
  51   2.0000      -0.681696       -18.5499
  52   2.0000      -0.672939       -18.3116
  53   2.0000      -0.659605       -17.9488
  54   2.0000      -0.651623       -17.7316
  55   2.0000      -0.643400       -17.5078
  56   2.0000      -0.636911       -17.3312
  57   2.0000      -0.628082       -17.0910
  58   2.0000      -0.621201       -16.9037
  59   2.0000      -0.617335       -16.7985
  60   2.0000      -0.610466       -16.6116
  61   2.0000      -0.605721       -16.4825
  62   2.0000      -0.597979       -16.2718
  63   2.0000      -0.595953       -16.2167
  64   2.0000      -0.592059       -16.1108
  65   2.0000      -0.527802       -14.3622
  66   2.0000      -0.517496       -14.0818
  67   2.0000      -0.446724       -12.1560
  68   2.0000      -0.416888       -11.3441
  69   0.0000      -0.069029        -1.8784
  70   0.0000      -0.058971        -1.6047
  71   0.0000      -0.055143        -1.5005
  72   0.0000      -0.053672        -1.4605
  73   0.0000      -0.047084        -1.2812

MULLIKEN ATOMIC CHARGES
-----------------------
   0 C :   -0.762977
   1 C :    0.413977
   2 C :    0.014066
   3 C :   -0.783334
   4 H :    0.263341
   5 H :    0.225925
   6 H :    0.272782
   7 H :    0.243850
   8 C :   -1.438199
   9 H :    1.045284
  10 H :    0.073937
  11 H :    0.416626
  12 H :    0.298779
  13 N :    0.303999
  14 N :   -1.020891
  15 C :    0.154289
  16 C :    0.811447
  17 C :   -0.575754
  18 C :   -0.379074
  19 C :   -0.364829
  20 H :    0.258522
  21 C :   -0.432112
  22 H :    0.286560
  23 C :   -0.268625
  24 H :    0.212041
  25 H :    0.217350
  26 H :    0.333993
  27 C :    0.244787
  28 C :   -0.265544
  29 H :    0.433937
  30 C :   -0.388868
  31 H :    0.318307
  32 H :    0.277491
  33 C :   -0.509937
  34 H :    0.320736
  35 H :    0.109332
  36 C :   -0.459035
  37 H :    0.266987
  38 H :    0.258975
  39 H :    0.300274
  40 H :    0.140236
  41 H :    0.131347
Sum of atomic charges:    1.0000000

LOEWDIN ATOMIC CHARGES
----------------------
   0 C :    0.587873
   1 C :    0.030359
   2 C :    0.079852
   3 C :    0.592479
   4 H :   -0.248278
   5 H :   -0.242864
   6 H :   -0.243886
   7 H :   -0.241757
   8 C :    0.565816
   9 H :   -0.303112
  10 H :   -0.221610
  11 H :   -0.228164
  12 H :   -0.224191
  13 N :    0.395712
  14 N :    0.867373
  15 C :    0.370302
  16 C :   -0.106036
  17 C :    0.326943
  18 C :    0.335410
  19 C :    0.361633
  20 H :   -0.306810
  21 C :    0.364340
  22 H :   -0.321416
  23 C :    0.359510
  24 H :   -0.306806
  25 H :   -0.305987
  26 H :   -0.308652
  27 C :    0.342528
  28 C :    0.394946
  29 H :   -0.575704
  30 C :    0.580766
  31 H :   -0.252025
  32 H :   -0.284343
  33 C :    0.530731
  34 H :   -0.256650
  35 H :   -0.286092
  36 C :    0.562946
  37 H :   -0.260887
  38 H :   -0.254422
  39 H :   -0.248062
  40 H :   -0.312586
  41 H :   -0.309177

  Mayer bond orders larger than 0.100000
B(  0-C ,  1-C ) :   0.4706 B(  0-C ,  2-C ) :  -0.2491 B(  0-C ,  3-C ) :   1.1747
B(  0-C ,  4-H ) :   1.0151 B(  0-C ,  5-H ) :   1.0477 B(  0-C , 14-N ) :   0.2210
B(  1-C ,  3-C ) :  -0.2790 B(  1-C ,  8-C ) :   0.8697 B(  1-C , 11-H ) :   0.8263
B(  1-C , 13-N ) :  -0.1181 B(  1-C , 14-N ) :   0.6970 B(  2-C ,  3-C ) :   0.7505
B(  2-C ,  8-C ) :   1.0089 B(  2-C ,  9-H ) :  -0.1585 B(  2-C , 10-H ) :   0.1141
B(  2-C , 12-H ) :   0.9932 B(  2-C , 13-N ) :   0.7773 B(  2-C , 27-C ) :  -0.1200
B(  3-C ,  6-H ) :   0.9854 B(  3-C ,  7-H ) :   1.0087 B(  8-C , 10-H ) :   1.3299
B(  9-H , 10-H ) :  -0.2457 B( 11-H , 14-N ) :  -0.1334 B( 13-N , 14-N ) :   0.2123
B( 13-N , 27-C ) :   1.7360 B( 14-N , 29-H ) :   0.6535 B( 15-C , 16-C ) :   0.2773
B( 15-C , 17-C ) :  -0.5176 B( 15-C , 18-C ) :  -0.4048 B( 15-C , 28-C ) :   1.1813
B( 15-C , 33-C ) :  -0.3706 B( 15-C , 40-H ) :   1.2243 B( 16-C , 17-C ) :   1.2380
B( 16-C , 18-C ) :   1.1236 B( 16-C , 19-C ) :  -0.3825 B( 16-C , 20-H ) :  -0.1021
B( 16-C , 21-C ) :  -0.3273 B( 16-C , 28-C ) :  -0.5835 B( 16-C , 40-H ) :  -0.2716
B( 17-C , 19-C ) :   1.3706 B( 17-C , 20-H ) :   1.0443 B( 17-C , 21-C ) :   0.1383
B( 17-C , 24-H ) :  -0.1352 B( 18-C , 19-C ) :   0.1866 B( 18-C , 21-C ) :   1.3633
B( 18-C , 22-H ) :   0.9898 B( 18-C , 25-H ) :  -0.1270 B( 19-C , 23-C ) :   1.1605
B( 19-C , 24-H ) :   1.1959 B( 21-C , 23-C ) :   1.1790 B( 21-C , 25-H ) :   1.2000
B( 23-C , 26-H ) :   1.0319 B( 27-C , 30-C ) :   0.5617 B( 27-C , 36-C ) :  -0.1455
B( 27-C , 39-H ) :   0.9490 B( 28-C , 33-C ) :   0.6504 B( 28-C , 34-H ) :  -0.1315
B( 28-C , 36-C ) :  -0.2515 B( 28-C , 41-H ) :   1.1269 B( 30-C , 31-H ) :   0.9048
B( 30-C , 32-H ) :   0.9032 B( 30-C , 36-C ) :   1.0230 B( 33-C , 34-H ) :   0.9310
B( 33-C , 35-H ) :   1.1243 B( 33-C , 36-C ) :   1.0501 B( 36-C , 37-H ) :   0.9161
B( 36-C , 38-H ) :   1.0081

MP2 TOTAL ENERGY:     -769.502414674 Eh
FINAL SINGLE POINT ENERGY      -769.502414674477

DIPOLE MOMENT
-------------
                                X             Y             Z
Electronic contribution:     -6.29563      -0.69183       0.13263
Nuclear contribution   :      8.32216       1.42397       0.57613
                        -----------------------------------------
Total Dipole Moment    :      2.02653       0.73214       0.70876
                        -----------------------------------------
Magnitude (a.u.)       :      2.26830
Magnitude (Debye)      :      5.76556

Rotational constants in cm-1:     0.015321     0.011851     0.007804
Rotational constants in MHz :   459.313861   355.278044   233.954836

                             ****ORCA TERMINATED NORMALLY****
TOTAL RUN TIME: 0 days 9 hours 15 minutes 9 seconds 671 msec
