                         Program Version 4.2.1 -  RELEASE  -
|  1> %pal
|  2>  nprocs 32
|  3> end
|  4> !RI-MP2 aug-cc-pVQZ aug-cc-pVQZ/C TightSCF
|  5> %maxcore 4500
|  6> *xyzfile 0 1  04_33P2.xyz
|  7>
|  8>
|  9>                          ****END OF INPUT****

CARTESIAN COORDINATES (ANGSTROEM)
---------------------------------
  C      1.815315    0.000000    0.005602
  C      1.150887    1.209639   -0.001488
  C     -0.236097    1.202484   -0.013530
  C     -0.936100   -0.000002   -0.007742
  C     -0.236096   -1.202485   -0.013497
  C      1.150890   -1.209638   -0.001474
  S     -2.727776   -0.000028   -0.071307
  H      1.714646    2.133159   -0.002616
  H     -0.781079    2.137321   -0.027009
  H     -0.781079   -2.137322   -0.026925
  H      1.714650   -2.133158   -0.002585
  F      3.162355    0.000003    0.014986
  H     -2.936707    0.000437    1.257938

 Total Charge           Charge          ....    0
 Multiplicity           Mult            ....    1
 Number of Electrons    NEL             ....   66
 Basis Dimension        Dim             ....  874

ORBITAL ENERGIES
----------------

  NO   OCC          E(Eh)            E(eV)
   0   2.0000     -91.963962     -2502.4666
   1   2.0000     -26.313735      -716.0331
   2   2.0000     -11.337965      -308.5217
   3   2.0000     -11.275347      -306.8178
   4   2.0000     -11.259909      -306.3977
   5   2.0000     -11.259845      -306.3959
   6   2.0000     -11.251136      -306.1590
   7   2.0000     -11.251115      -306.1584
   8   2.0000      -8.965994      -243.9771
   9   2.0000      -6.647576      -180.8898
  10   2.0000      -6.646716      -180.8663
  11   2.0000      -6.645838      -180.8424
  12   2.0000      -1.633351       -44.4458
  13   2.0000      -1.183660       -32.2090
  14   2.0000      -1.063563       -28.9410
  15   2.0000      -1.045879       -28.4598
  16   2.0000      -0.952403       -25.9162
  17   2.0000      -0.870248       -23.6806
  18   2.0000      -0.829943       -22.5839
  19   2.0000      -0.755100       -20.5473
  20   2.0000      -0.714512       -19.4429
  21   2.0000      -0.701474       -19.0881
  22   2.0000      -0.664855       -18.0916
  23   2.0000      -0.629532       -17.1304
  24   2.0000      -0.617869       -16.8131
  25   2.0000      -0.610257       -16.6059
  26   2.0000      -0.565537       -15.3890
  27   2.0000      -0.519725       -14.1424
  28   2.0000      -0.519174       -14.1275
  29   2.0000      -0.477553       -12.9949
  30   2.0000      -0.376332       -10.2405
  31   2.0000      -0.363318        -9.8864
  32   2.0000      -0.348971        -9.4960
  33   0.0000       0.025337         0.6894
  34   0.0000       0.028475         0.7748
  35   0.0000       0.032831         0.8934
  36   0.0000       0.042854         1.1661
  37   0.0000       0.044071         1.1992

MULLIKEN ATOMIC CHARGES
-----------------------
   0 C :    0.881602
   1 C :   -0.380334
   2 C :   -0.292089
   3 C :   -0.180783
   4 C :   -0.292007
   5 C :   -0.380352
   6 S :   -0.134277
   7 H :    0.389194
   8 H :    0.350452
   9 H :    0.350447
  10 H :    0.389145
  11 F :   -0.734978
  12 H :    0.033980
Sum of atomic charges:    0.0000000

LOEWDIN ATOMIC CHARGES
----------------------
   0 C :   -0.693554
   1 C :    0.297319
   2 C :    0.215374
   3 C :   -0.564893
   4 C :    0.215368
   5 C :    0.297318
   6 S :    1.572899
   7 H :   -0.328127
   8 H :   -0.347479
   9 H :   -0.347485
  10 H :   -0.328126
  11 F :    0.778014
  12 H :   -0.766628

  Mayer bond orders larger than 0.100000
B(  0-C ,  1-C ) :   1.2917 B(  0-C ,  5-C ) :   1.2918 B(  1-C ,  2-C ) :   1.2950
B(  1-C ,  3-C ) :  -0.1034 B(  1-C ,  7-H ) :   0.8761 B(  1-C , 11-F ) :   0.1275
B(  2-C ,  3-C ) :   1.0629 B(  2-C ,  6-S ) :  -0.1987 B(  2-C ,  8-H ) :   0.9664
B(  3-C ,  4-C ) :   1.0629 B(  3-C ,  5-C ) :  -0.1035 B(  3-C ,  6-S ) :   1.0641
B(  4-C ,  5-C ) :   1.2949 B(  4-C ,  6-S ) :  -0.1988 B(  4-C ,  9-H ) :   0.9664
B(  5-C , 10-H ) :   0.8762 B(  5-C , 11-F ) :   0.1275 B(  6-S , 12-H ) :   1.0566

MP2 TOTAL ENERGY:     -728.712760391 Eh
FINAL SINGLE POINT ENERGY      -728.712760391342

DIPOLE MOMENT
-------------
                                X             Y             Z
Electronic contribution:      3.86802      -0.00031      -0.83559
Nuclear contribution   :     -3.97351       0.00042       1.14723
                        -----------------------------------------
Total Dipole Moment    :     -0.10549       0.00011       0.31164
                        -----------------------------------------
Magnitude (a.u.)       :      0.32901
Magnitude (Debye)      :      0.83627

Rotational constants in cm-1:     0.187308     0.031850     0.027374
Rotational constants in MHz :  5615.348798   954.840196   820.664721

                             ****ORCA TERMINATED NORMALLY****
TOTAL RUN TIME: 0 days 0 hours 18 minutes 13 seconds 181 msec
