                         Program Version 4.2.1 -  RELEASE  -
|  1> %pal
|  2>  nprocs 32
|  3> end
|  4> !RI-MP2 aug-cc-pVQZ aug-cc-pVQZ/C TightSCF
|  5> %maxcore 4500
|  6> *xyzfile 0 1  10_11P.xyz
|  7>
|  8>
|  9>                          ****END OF INPUT****

CARTESIAN COORDINATES (ANGSTROEM)
---------------------------------
  C      0.351797   -1.030408   -0.099709
  C     -0.835754   -0.307131   -0.085500
  C      1.841970   -0.728326   -0.052180
  C     -1.207075    1.168981   -0.070653
  C      2.240170    0.642886   -0.594236
  H      3.319228    0.756566   -0.476687
  H      2.024826    0.712559   -1.663187
  C     -0.091358    2.069196   -0.627067
  H     -0.451820    3.097734   -0.577932
  N      0.034121   -2.352943   -0.014257
  N     -1.237831   -2.500450    0.057082
  N     -1.792379   -1.286322    0.020744
  C     -3.241516   -1.252725    0.108804
  H     -3.572286   -0.550072    0.870588
  H     -3.692176   -0.999324   -0.849169
  H     -3.544236   -2.257551    0.391763
  S      1.508220    2.087936    0.208947
  C     -2.414983    1.466094   -0.984170
  H     -3.358469    1.132717   -0.561495
  H     -2.500157    2.544889   -1.127860
  H     -2.291735    1.006724   -1.967341
  C     -1.528400    1.594087    1.370486
  H     -1.843531    2.640718    1.392963
  H     -2.332139    0.992850    1.797418
  H     -0.649889    1.486660    2.006289
  C      2.588239   -1.761180   -0.914133
  H      3.663680   -1.571884   -0.868779
  H      2.393103   -2.771809   -0.562736
  H      2.271788   -1.702035   -1.958168
  C      2.305380   -0.871441    1.406124
  H      2.059867   -1.866131    1.778977
  H      3.387857   -0.732077    1.475985
  H      1.823234   -0.131295    2.045943
  H      0.083135    1.841592   -1.681308

 Total Charge           Charge          ....    0
 Multiplicity           Mult            ....    1
 Number of Electrons    NEL             ....  122
 Basis Dimension        Dim             .... 2078

ORBITAL ENERGIES
----------------

  NO   OCC          E(Eh)            E(eV)
   0   2.0000     -91.941172     -2501.8465
   1   2.0000     -15.646894      -425.7736
   2   2.0000     -15.623785      -425.1448
   3   2.0000     -15.575548      -423.8322
   4   2.0000     -11.280308      -306.9528
   5   2.0000     -11.279596      -306.9334
   6   2.0000     -11.270490      -306.6856
   7   2.0000     -11.261551      -306.4424
   8   2.0000     -11.252054      -306.1840
   9   2.0000     -11.248256      -306.0806
  10   2.0000     -11.245624      -306.0090
  11   2.0000     -11.233087      -305.6678
  12   2.0000     -11.226545      -305.4898
  13   2.0000     -11.205270      -304.9109
  14   2.0000     -11.204608      -304.8929
  15   2.0000      -8.944039      -243.3797
  16   2.0000      -6.625647      -180.2930
  17   2.0000      -6.624661      -180.2662
  18   2.0000      -6.623911      -180.2458
  19   2.0000      -1.435799       -39.0701
  20   2.0000      -1.216844       -33.1120
  21   2.0000      -1.153432       -31.3865
  22   2.0000      -1.107668       -30.1412
  23   2.0000      -1.064858       -28.9763
  24   2.0000      -1.017299       -27.6821
  25   2.0000      -0.983148       -26.7528
  26   2.0000      -0.953951       -25.9583
  27   2.0000      -0.938055       -25.5258
  28   2.0000      -0.927933       -25.2503
  29   2.0000      -0.856392       -23.3036
  30   2.0000      -0.853365       -23.2212
  31   2.0000      -0.799433       -21.7537
  32   2.0000      -0.769526       -20.9399
  33   2.0000      -0.742837       -20.2136
  34   2.0000      -0.681617       -18.5477
  35   2.0000      -0.672867       -18.3096
  36   2.0000      -0.646361       -17.5884
  37   2.0000      -0.633421       -17.2363
  38   2.0000      -0.612349       -16.6629
  39   2.0000      -0.610268       -16.6062
  40   2.0000      -0.602493       -16.3947
  41   2.0000      -0.593562       -16.1517
  42   2.0000      -0.583580       -15.8800
  43   2.0000      -0.580324       -15.7914
  44   2.0000      -0.565591       -15.3905
  45   2.0000      -0.553143       -15.0518
  46   2.0000      -0.540689       -14.7129
  47   2.0000      -0.531515       -14.4632
  48   2.0000      -0.523373       -14.2417
  49   2.0000      -0.517128       -14.0718
  50   2.0000      -0.503399       -13.6982
  51   2.0000      -0.498912       -13.5761
  52   2.0000      -0.493812       -13.4373
  53   2.0000      -0.479387       -13.0448
  54   2.0000      -0.472870       -12.8674
  55   2.0000      -0.459509       -12.5039
  56   2.0000      -0.429401       -11.6846
  57   2.0000      -0.413080       -11.2405
  58   2.0000      -0.389956       -10.6112
  59   2.0000      -0.345282        -9.3956
  60   2.0000      -0.329805        -8.9744
  61   0.0000       0.019047         0.5183
  62   0.0000       0.026944         0.7332
  63   0.0000       0.028819         0.7842
  64   0.0000       0.030004         0.8165
  65   0.0000       0.038288         1.0419

MULLIKEN ATOMIC CHARGES
-----------------------
   0 C :    0.232477
   1 C :    0.755568
   2 C :    1.797686
   3 C :    2.047797
   4 C :   -0.923722
   5 H :    0.178323
   6 H :    0.194789
   7 C :   -0.871251
   8 H :    0.133615
   9 N :   -0.440190
  10 N :   -0.639678
  11 N :   -0.182367
  12 C :   -1.085976
  13 H :    0.278150
  14 H :    0.353769
  15 H :    0.319485
  16 S :   -0.100141
  17 C :   -1.398117
  18 H :    0.272480
  19 H :    0.170420
  20 H :    0.169517
  21 C :   -1.240993
  22 H :    0.215821
  23 H :    0.263239
  24 H :    0.251402
  25 C :   -1.267956
  26 H :    0.201293
  27 H :    0.275716
  28 H :    0.219103
  29 C :   -1.165703
  30 H :    0.223223
  31 H :    0.240074
  32 H :    0.276798
  33 H :    0.245350
Sum of atomic charges:    0.0000000

LOEWDIN ATOMIC CHARGES
----------------------
   0 C :   -0.358528
   1 C :   -0.211402
   2 C :   -0.379664
   3 C :   -0.310577
   4 C :    0.157254
   5 H :   -0.364306
   6 H :   -0.350009
   7 C :    0.153985
   8 H :   -0.376816
   9 N :    0.342667
  10 N :    0.269943
  11 N :    0.176379
  12 C :    0.801854
  13 H :   -0.297952
  14 H :   -0.281851
  15 H :   -0.311360
  16 S :    1.460167
  17 C :    0.906521
  18 H :   -0.327883
  19 H :   -0.273592
  20 H :   -0.243990
  21 C :    0.904297
  22 H :   -0.260241
  23 H :   -0.285771
  24 H :   -0.294746
  25 C :    0.884489
  26 H :   -0.270473
  27 H :   -0.303453
  28 H :   -0.259503
  29 C :    0.887485
  30 H :   -0.274595
  31 H :   -0.267704
  32 H :   -0.296235
  33 H :   -0.344391

  Mayer bond orders larger than 0.100000
B(  0-C ,  1-C ) :   0.9005 B(  0-C ,  2-C ) :   0.6243 B(  0-C , 11-N ) :   0.3127
B(  1-C ,  3-C ) :   0.4942 B(  1-C ,  9-N ) :   0.4819 B(  2-C ,  5-H ) :  -0.1310
B(  2-C ,  6-H ) :  -0.1824 B(  2-C ,  9-N ) :  -0.2008 B(  2-C , 16-S ) :  -0.1013
B(  2-C , 26-H ) :  -0.1430 B(  2-C , 27-H ) :  -0.1921 B(  2-C , 28-H ) :  -0.2181
B(  2-C , 29-C ) :   0.3205 B(  2-C , 32-H ) :  -0.1090 B(  3-C ,  8-H ) :  -0.1430
B(  3-C , 11-N ) :   0.1504 B(  3-C , 16-S ) :  -0.1554 B(  3-C , 17-C ) :  -0.2087
B(  3-C , 18-H ) :  -0.2476 B(  3-C , 19-H ) :  -0.1974 B(  3-C , 20-H ) :  -0.2637
B(  3-C , 21-C ) :   0.2081 B(  3-C , 22-H ) :  -0.1383 B(  3-C , 23-H ) :  -0.1093
B(  3-C , 24-H ) :  -0.1317 B(  3-C , 33-H ) :  -0.1666 B(  4-C ,  5-H ) :   1.1189
B(  4-C ,  6-H ) :   1.1067 B(  4-C , 16-S ) :   0.9773 B(  4-C , 25-C ) :   0.1978
B(  7-C ,  8-H ) :   1.1799 B(  7-C , 16-S ) :   0.8529 B(  7-C , 17-C ) :   0.1770
B(  7-C , 33-H ) :   1.0747 B(  9-N , 10-N ) :   0.9470 B( 10-N , 11-N ) :   1.1494
B( 11-N , 12-C ) :   0.6820 B( 12-C , 13-H ) :   0.9797 B( 12-C , 14-H ) :   0.9388
B( 12-C , 15-H ) :   0.9721 B( 17-C , 18-H ) :   1.1162 B( 17-C , 19-H ) :   1.1820
B( 17-C , 20-H ) :   1.2277 B( 17-C , 21-C ) :   0.1697 B( 21-C , 22-H ) :   1.0980
B( 21-C , 23-H ) :   1.0800 B( 21-C , 24-H ) :   1.0887 B( 25-C , 26-H ) :   1.1170
B( 25-C , 27-H ) :   1.0270 B( 25-C , 28-H ) :   1.1513 B( 25-C , 29-C ) :   0.1389
B( 29-C , 30-H ) :   1.0834 B( 29-C , 31-H ) :   1.0379 B( 29-C , 32-H ) :   1.0511

MP2 TOTAL ENERGY:     -991.559743299 Eh
FINAL SINGLE POINT ENERGY      -991.559743299008

DIPOLE MOMENT
-------------
                                X             Y             Z
Electronic contribution:      2.23565      -2.48351       0.21758
Nuclear contribution   :     -3.32863       3.58944      -0.54986
                        -----------------------------------------
Total Dipole Moment    :     -1.09297       1.10593      -0.33228
                        -----------------------------------------
Magnitude (a.u.)       :      1.59000
Magnitude (Debye)      :      4.04145

Rotational constants in cm-1:     0.023699     0.018996     0.012334
Rotational constants in MHz :   710.471832   569.480278   369.758124

                             ****ORCA TERMINATED NORMALLY****
TOTAL RUN TIME: 0 days 4 hours 26 minutes 55 seconds 551 msec
