                         Program Version 4.2.1 -  RELEASE  -
|  1> %pal
|  2>  nprocs 32
|  3> end
|  4> !RI-MP2 aug-cc-pVQZ aug-cc-pVQZ/C TightSCF
|  5> %maxcore 4500
|  6> *xyzfile 0 1  10_60R.xyz
|  7>
|  8>
|  9>                          ****END OF INPUT****

CARTESIAN COORDINATES (ANGSTROEM)
---------------------------------
  C      0.617010    1.558571    0.963941
  C     -0.639698    2.054220    0.225935
  C     -1.454502    0.926887   -0.372678
  C     -1.152686   -0.426735    0.199021
  C      0.335546   -0.797355   -0.009672
  C      1.240841    0.384531    0.247618
  C     -2.336978    1.065373   -1.348098
  F     -1.925919   -1.403571   -0.319750
  F      0.641206   -1.846903    0.800573
  C      2.473727    0.341662   -0.165339
  C      3.700828    0.297622   -0.579986
  F      0.469654   -1.247309   -1.285631
  F     -1.388635   -0.413681    1.550317
  H      3.969034    0.642037   -1.572503
  H      4.490174   -0.094474    0.051610
  H     -2.881869    0.216965   -1.739143
  H     -2.536262    2.037694   -1.782994
  H     -1.260789    2.625244    0.920521
  H     -0.350386    2.732575   -0.578729
  H      1.346844    2.361857    1.048916
  H      0.351960    1.252608    1.978278

 Total Charge           Charge          ....    0
 Multiplicity           Mult            ....    1
 Number of Electrons    NEL             ....   98
 Basis Dimension        Dim             .... 1408

ORBITAL ENERGIES
----------------

  NO   OCC          E(Eh)            E(eV)
   0   2.0000     -26.318389      -716.1598
   1   2.0000     -26.315601      -716.0839
   2   2.0000     -26.312703      -716.0051
   3   2.0000     -26.310173      -715.9362
   4   2.0000     -11.430535      -311.0407
   5   2.0000     -11.428280      -310.9793
   6   2.0000     -11.274867      -306.8047
   7   2.0000     -11.264694      -306.5279
   8   2.0000     -11.263100      -306.4845
   9   2.0000     -11.254399      -306.2478
  10   2.0000     -11.254344      -306.2463
  11   2.0000     -11.253034      -306.2106
  12   2.0000     -11.247355      -306.0561
  13   2.0000      -1.682126       -45.7730
  14   2.0000      -1.658466       -45.1291
  15   2.0000      -1.611720       -43.8571
  16   2.0000      -1.600327       -43.5471
  17   2.0000      -1.168199       -31.7883
  18   2.0000      -1.110296       -30.2127
  19   2.0000      -1.043491       -28.3948
  20   2.0000      -1.038124       -28.2488
  21   2.0000      -0.969968       -26.3942
  22   2.0000      -0.901001       -24.5175
  23   2.0000      -0.874649       -23.8004
  24   2.0000      -0.823526       -22.4093
  25   2.0000      -0.802754       -21.8441
  26   2.0000      -0.791976       -21.5508
  27   2.0000      -0.765484       -20.8299
  28   2.0000      -0.749801       -20.4031
  29   2.0000      -0.717240       -19.5171
  30   2.0000      -0.692998       -18.8574
  31   2.0000      -0.689467       -18.7613
  32   2.0000      -0.680793       -18.5253
  33   2.0000      -0.665914       -18.1204
  34   2.0000      -0.662196       -18.0193
  35   2.0000      -0.651444       -17.7267
  36   2.0000      -0.634954       -17.2780
  37   2.0000      -0.631533       -17.1849
  38   2.0000      -0.626015       -17.0347
  39   2.0000      -0.621819       -16.9206
  40   2.0000      -0.605020       -16.4634
  41   2.0000      -0.587957       -15.9991
  42   2.0000      -0.553363       -15.0578
  43   2.0000      -0.535127       -14.5616
  44   2.0000      -0.513585       -13.9753
  45   2.0000      -0.497188       -13.5292
  46   2.0000      -0.399441       -10.8694
  47   2.0000      -0.390207       -10.6181
  48   2.0000      -0.385836       -10.4991
  49   0.0000       0.020636         0.5615
  50   0.0000       0.026277         0.7150
  51   0.0000       0.029925         0.8143
  52   0.0000       0.035298         0.9605
  53   0.0000       0.042710         1.1622

MULLIKEN ATOMIC CHARGES
-----------------------
   0 C :   -0.393858
   1 C :   -0.273530
   2 C :   -0.315634
   3 C :    1.829821
   4 C :    1.719548
   5 C :   -0.208873
   6 C :   -0.869592
   7 F :   -0.761586
   8 F :   -0.739723
   9 C :   -0.092475
  10 C :   -0.645504
  11 F :   -0.757892
  12 F :   -0.784592
  13 H :    0.316033
  14 H :    0.288290
  15 H :    0.286862
  16 H :    0.318689
  17 H :    0.317057
  18 H :    0.200226
  19 H :    0.308296
  20 H :    0.258437
Sum of atomic charges:    0.0000000

LOEWDIN ATOMIC CHARGES
----------------------
   0 C :    0.478237
   1 C :    0.504141
   2 C :   -0.126760
   3 C :   -1.585483
   4 C :   -1.593816
   5 C :   -0.173181
   6 C :    0.813936
   7 F :    0.828214
   8 F :    0.794969
   9 C :    0.208100
  10 C :    0.770011
  11 F :    0.808086
  12 F :    0.816182
  13 H :   -0.372769
  14 H :   -0.373465
  15 H :   -0.359761
  16 H :   -0.323666
  17 H :   -0.261448
  18 H :   -0.278254
  19 H :   -0.280811
  20 H :   -0.292461

  Mayer bond orders larger than 0.100000
B(  0-C ,  1-C ) :   1.0569 B(  0-C ,  5-C ) :   0.6797 B(  0-C , 19-H ) :   0.9351
B(  0-C , 20-H ) :   0.9302 B(  1-C ,  2-C ) :   0.5313 B(  1-C ,  6-C ) :  -0.2026
B(  1-C , 17-H ) :   0.8665 B(  1-C , 18-H ) :   1.0132 B(  2-C ,  3-C ) :   0.7820
B(  2-C ,  6-C ) :   1.6311 B(  2-C ,  7-F ) :   0.1592 B(  2-C , 12-F ) :   0.1258
B(  3-C ,  4-C ) :   1.1656 B(  3-C ,  5-C ) :  -0.1275 B(  3-C , 12-F ) :   0.1320
B(  4-C ,  5-C ) :   0.7085 B(  4-C , 11-F ) :   0.1698 B(  4-C , 12-F ) :   0.1158
B(  5-C ,  8-F ) :   0.2177 B(  5-C ,  9-C ) :   1.8176 B(  5-C , 10-C ) :  -0.2666
B(  5-C , 11-F ) :   0.1002 B(  6-C , 15-H ) :   1.0176 B(  6-C , 16-H ) :   1.0083
B(  9-C , 10-C ) :   1.8094 B(  9-C , 13-H ) :  -0.1176 B(  9-C , 14-H ) :  -0.1283
B( 10-C , 13-H ) :   0.9882 B( 10-C , 14-H ) :   1.0484

MP2 TOTAL ENERGY:     -746.104847288 Eh
FINAL SINGLE POINT ENERGY      -746.104847288111

DIPOLE MOMENT
-------------
                                X             Y             Z
Electronic contribution:     -4.58597     -14.28689       2.01737
Nuclear contribution   :      5.08132      15.92388      -2.30865
                        -----------------------------------------
Total Dipole Moment    :      0.49535       1.63699      -0.29128
                        -----------------------------------------
Magnitude (a.u.)       :      1.73492
Magnitude (Debye)      :      4.40982

Rotational constants in cm-1:     0.039700     0.024252     0.020411
Rotational constants in MHz :  1190.172087   727.062471   611.894721

                             ****ORCA TERMINATED NORMALLY****
TOTAL RUN TIME: 0 days 1 hours 11 minutes 54 seconds 782 msec
