                         Program Version 4.2.1 -  RELEASE  -
|  1> %pal
|  2>  nprocs 32
|  3> end
|  4> !RI-MP2 aug-cc-pVQZ aug-cc-pVQZ/C TightSCF
|  5> %maxcore 4500
|  6> *xyzfile 0 2  01_9R1.xyz
|  7>
|  8>
|  9>                          ****END OF INPUT****

CARTESIAN COORDINATES (ANGSTROEM)
---------------------------------
  C      1.105385    0.000019   -0.008421
  S     -0.691711    0.000003   -0.001847
  H      1.423713   -0.000966    1.039091
  H      1.505636   -0.896517   -0.480279
  H      1.505721    0.897321   -0.478729

 Total Charge           Charge          ....    0
 Multiplicity           Mult            ....    2
 Number of Electrons    NEL             ....   25
 Basis Dimension        Dim             ....  302

ORBITAL ENERGIES
----------------
                 SPIN UP ORBITALS
  NO   OCC          E(Eh)            E(eV)
   0   1.0000     -91.970078     -2502.6330
   1   1.0000     -11.261225      -306.4335
   2   1.0000      -8.971692      -244.1322
   3   1.0000      -6.667633      -181.4355
   4   1.0000      -6.649159      -180.9328
   5   1.0000      -6.647685      -180.8927
   6   1.0000      -1.050002       -28.5720
   7   1.0000      -0.859967       -23.4009
   8   1.0000      -0.605938       -16.4884
   9   1.0000      -0.599837       -16.3224
  10   1.0000      -0.499733       -13.5984
  11   1.0000      -0.430671       -11.7191
  12   1.0000      -0.369510       -10.0549
  13   0.0000       0.026264         0.7147
  14   0.0000       0.041803         1.1375
  15   0.0000       0.042317         1.1515
  16   0.0000       0.050289         1.3684
  17   0.0000       0.085955         2.3390

                 SPIN DOWN ORBITALS
  NO   OCC          E(Eh)            E(eV)
   0   1.0000     -91.960971     -2502.3852
   1   1.0000     -11.262265      -306.4618
   2   1.0000      -8.961662      -243.8592
   3   1.0000      -6.644146      -180.7964
   4   1.0000      -6.642427      -180.7496
   5   1.0000      -6.626515      -180.3166
   6   1.0000      -1.016732       -27.6667
   7   1.0000      -0.794391       -21.6165
   8   1.0000      -0.597554       -16.2603
   9   1.0000      -0.580663       -15.8006
  10   1.0000      -0.485172       -13.2022
  11   1.0000      -0.350380        -9.5343
  12   0.0000       0.019787         0.5384
  13   0.0000       0.026514         0.7215
  14   0.0000       0.042351         1.1524
  15   0.0000       0.044009         1.1975
  16   0.0000       0.051231         1.3941

MULLIKEN ATOMIC CHARGES AND SPIN POPULATIONS
--------------------------------------------
   0 C :   -0.755849   -0.117333
   1 S :   -0.002542    1.058237
   2 H :    0.252230    0.038169
   3 H :    0.253080    0.010484
   4 H :    0.253081    0.010442
Sum of atomic charges         :   -0.0000000

LOEWDIN ATOMIC CHARGES AND SPIN POPULATIONS
-------------------------------------------
   0 C :    0.303553    0.190840
   1 S :    0.963839    0.757822
   2 H :   -0.429205    0.030553
   3 H :   -0.419097    0.010404
   4 H :   -0.419090    0.010380

  Mayer bond orders larger than 0.100000
B(  0-C ,  1-S ) :   1.0111 B(  0-C ,  2-H ) :   0.9105 B(  0-C ,  3-H ) :   0.9196
B(  0-C ,  4-H ) :   0.9196

MP2 TOTAL ENERGY:     -437.511934453 Eh
FINAL SINGLE POINT ENERGY      -437.511934452984

DIPOLE MOMENT
-------------
                                X             Y             Z
Electronic contribution:     -3.76938       0.00012      -0.06557
Nuclear contribution   :      4.44287      -0.00016       0.07990
                        -----------------------------------------
Total Dipole Moment    :      0.67348      -0.00004       0.01433
                        -----------------------------------------
Magnitude (a.u.)       :      0.67363
Magnitude (Debye)      :      1.71224

Rotational constants in cm-1:     5.310414     0.446379     0.445563
Rotational constants in MHz : 159202.216647 13382.115431 13357.656895

                             ****ORCA TERMINATED NORMALLY****
TOTAL RUN TIME: 0 days 0 hours 0 minutes 37 seconds 784 msec
