                         Program Version 4.2.1 -  RELEASE  -
|  1> %pal
|  2>  nprocs 32
|  3> end
|  4> !RI-MP2 aug-cc-pVQZ aug-cc-pVQZ/C TightSCF
|  5> %maxcore 4500
|  6> *xyzfile 0 1  10_54R.xyz
|  7>
|  8>
|  9>                          ****END OF INPUT****

CARTESIAN COORDINATES (ANGSTROEM)
---------------------------------
  C      0.213402    1.501505    1.081704
  N     -0.322657    0.162228    0.886304
  C      0.494768   -1.006040    1.173579
  C      1.006156   -1.745294   -0.096702
  C      2.446495   -2.193301   -0.099215
  C      2.857756    0.844085   -0.056421
  C      2.313123    2.210639   -0.300750
  C      0.774518    2.199535   -0.183139
  C      3.465850   -1.457345   -0.548499
  C      3.282125   -0.047632   -0.944245
  C     -1.588680    0.007367    0.347302
  C     -2.183187   -1.261242    0.227095
  C     -3.461990   -1.407068   -0.282873
  C     -4.199452   -0.308796   -0.701750
  C     -3.620301    0.947197   -0.600733
  C     -2.341273    1.110683   -0.093776
  H     -0.577948    2.118587    1.512986
  H      0.983450    1.439652    1.852096
  H      1.338368   -0.672301    1.771238
  H     -0.066173   -1.696215    1.811411
  H      0.850845   -1.068566   -0.937042
  H      0.377983   -2.618013   -0.285603
  H      2.723139    2.912729    0.433160
  H      2.596504    2.575887   -1.291039
  H      0.419014    3.234038   -0.212376
  H      0.356100    1.700677   -1.059655
  H     -1.648757   -2.146143    0.538393
  H     -3.885603   -2.402429   -0.353019
  H     -5.197071   -0.430067   -1.103561
  H     -4.167187    1.823818   -0.928708
  H     -1.927944    2.107576   -0.054807
  H      3.428176    0.230902   -1.986617
  H      2.797979    0.504929    0.971825
  H      4.453255   -1.903682   -0.630367
  H      2.648609   -3.212730    0.218105

 Total Charge           Charge          ....    0
 Multiplicity           Mult            ....    1
 Number of Electrons    NEL             ....  116
 Basis Dimension        Dim             .... 2154

ORBITAL ENERGIES
----------------

  NO   OCC          E(Eh)            E(eV)
   0   2.0000     -15.560344      -423.4185
   1   2.0000     -11.273630      -306.7711
   2   2.0000     -11.259930      -306.3983
   3   2.0000     -11.259115      -306.3761
   4   2.0000     -11.229471      -305.5694
   5   2.0000     -11.229200      -305.5621
   6   2.0000     -11.227540      -305.5169
   7   2.0000     -11.227066      -305.5040
   8   2.0000     -11.226896      -305.4994
   9   2.0000     -11.226851      -305.4981
  10   2.0000     -11.225424      -305.4593
  11   2.0000     -11.225117      -305.4510
  12   2.0000     -11.221049      -305.3403
  13   2.0000     -11.214028      -305.1492
  14   2.0000     -11.213816      -305.1434
  15   2.0000     -11.209130      -305.0159
  16   2.0000      -1.257312       -34.2132
  17   2.0000      -1.134579       -30.8735
  18   2.0000      -1.112100       -30.2618
  19   2.0000      -1.081272       -29.4229
  20   2.0000      -1.022688       -27.8288
  21   2.0000      -1.012310       -27.5463
  22   2.0000      -0.990890       -26.9635
  23   2.0000      -0.985373       -26.8133
  24   2.0000      -0.902505       -24.5584
  25   2.0000      -0.871236       -23.7075
  26   2.0000      -0.841856       -22.9081
  27   2.0000      -0.815337       -22.1865
  28   2.0000      -0.779195       -21.2030
  29   2.0000      -0.766652       -20.8617
  30   2.0000      -0.721703       -19.6385
  31   2.0000      -0.710721       -19.3397
  32   2.0000      -0.658486       -17.9183
  33   2.0000      -0.657085       -17.8802
  34   2.0000      -0.651804       -17.7365
  35   2.0000      -0.631476       -17.1833
  36   2.0000      -0.624758       -17.0005
  37   2.0000      -0.605397       -16.4737
  38   2.0000      -0.603991       -16.4354
  39   2.0000      -0.590729       -16.0746
  40   2.0000      -0.581285       -15.8176
  41   2.0000      -0.564556       -15.3623
  42   2.0000      -0.559192       -15.2164
  43   2.0000      -0.540887       -14.7183
  44   2.0000      -0.526022       -14.3138
  45   2.0000      -0.518628       -14.1126
  46   2.0000      -0.506867       -13.7925
  47   2.0000      -0.499010       -13.5788
  48   2.0000      -0.496860       -13.5203
  49   2.0000      -0.485944       -13.2232
  50   2.0000      -0.483430       -13.1548
  51   2.0000      -0.471392       -12.8272
  52   2.0000      -0.456934       -12.4338
  53   2.0000      -0.406946       -11.0736
  54   2.0000      -0.374101       -10.1798
  55   2.0000      -0.337351        -9.1798
  56   2.0000      -0.332429        -9.0459
  57   2.0000      -0.274829        -7.4785
  58   0.0000       0.022446         0.6108
  59   0.0000       0.025071         0.6822
  60   0.0000       0.027204         0.7402
  61   0.0000       0.028143         0.7658
  62   0.0000       0.035347         0.9618

MULLIKEN ATOMIC CHARGES
-----------------------
   0 C :   -0.390560
   1 N :    0.026583
   2 C :   -0.460950
   3 C :   -0.356301
   4 C :   -0.513699
   5 C :    0.048538
   6 C :   -0.551800
   7 C :   -0.408050
   8 C :   -0.442237
   9 C :   -0.556289
  10 C :    1.458390
  11 C :   -0.542900
  12 C :   -0.463753
  13 C :   -0.492802
  14 C :   -0.579779
  15 C :   -0.494378
  16 H :    0.229519
  17 H :    0.264458
  18 H :    0.247414
  19 H :    0.222015
  20 H :    0.329867
  21 H :    0.274180
  22 H :    0.201154
  23 H :    0.222479
  24 H :    0.291918
  25 H :    0.227410
  26 H :    0.162654
  27 H :    0.187591
  28 H :    0.317905
  29 H :    0.184923
  30 H :    0.174866
  31 H :    0.197441
  32 H :    0.272633
  33 H :    0.358566
  34 H :    0.352993
Sum of atomic charges:   -0.0000000

LOEWDIN ATOMIC CHARGES
----------------------
   0 C :    0.395546
   1 N :    0.521314
   2 C :    0.402278
   3 C :    0.525911
   4 C :    0.403395
   5 C :    0.356961
   6 C :    0.537623
   7 C :    0.565804
   8 C :    0.356248
   9 C :    0.361989
  10 C :   -0.204871
  11 C :    0.350685
  12 C :    0.342691
  13 C :    0.333403
  14 C :    0.342084
  15 C :    0.349704
  16 H :   -0.301299
  17 H :   -0.304302
  18 H :   -0.333997
  19 H :   -0.278935
  20 H :   -0.317860
  21 H :   -0.291437
  22 H :   -0.268939
  23 H :   -0.281573
  24 H :   -0.259086
  25 H :   -0.284529
  26 H :   -0.377302
  27 H :   -0.316717
  28 H :   -0.331773
  29 H :   -0.317107
  30 H :   -0.370319
  31 H :   -0.304811
  32 H :   -0.360060
  33 H :   -0.327178
  34 H :   -0.313542

  Mayer bond orders larger than 0.100000
B(  0-C ,  1-N ) :   0.9086 B(  0-C ,  7-C ) :   0.9047 B(  0-C , 10-C ) :  -0.1065
B(  0-C , 15-C ) :  -0.1094 B(  0-C , 16-H ) :   0.9664 B(  0-C , 17-H ) :   0.9921
B(  1-N ,  2-C ) :   0.9667 B(  1-N ,  3-C ) :  -0.1526 B(  1-N , 10-C ) :   0.8111
B(  1-N , 11-C ) :  -0.1108 B(  1-N , 15-C ) :  -0.1604 B(  2-C ,  3-C ) :   1.0956
B(  2-C , 18-H ) :   0.8992 B(  2-C , 19-H ) :   0.8832 B(  3-C ,  4-C ) :   0.8263
B(  3-C ,  8-C ) :  -0.1494 B(  3-C ,  9-C ) :   0.1161 B(  3-C , 20-H ) :   0.8944
B(  3-C , 21-H ) :   0.9539 B(  4-C ,  8-C ) :   1.7511 B(  4-C , 34-H ) :   0.9359
B(  5-C ,  6-C ) :   0.6384 B(  5-C ,  8-C ) :  -0.3096 B(  5-C ,  9-C ) :   1.6339
B(  5-C , 22-H ) :  -0.1523 B(  5-C , 32-H ) :   0.9112 B(  6-C ,  7-C ) :   0.7572
B(  6-C , 22-H ) :   1.0946 B(  6-C , 23-H ) :   1.0816 B(  7-C , 24-H ) :   0.8799
B(  7-C , 25-H ) :   0.9602 B(  8-C ,  9-C ) :   1.0139 B(  8-C , 33-H ) :   0.9782
B(  9-C , 31-H ) :   1.0668 B( 10-C , 11-C ) :   0.8416 B( 10-C , 12-C ) :  -0.4084
B( 10-C , 13-C ) :  -0.1587 B( 10-C , 14-C ) :  -0.4489 B( 10-C , 15-C ) :   0.9822
B( 11-C , 12-C ) :   1.2833 B( 11-C , 14-C ) :   0.1012 B( 11-C , 26-H ) :   1.0990
B( 11-C , 27-H ) :  -0.1749 B( 12-C , 13-C ) :   1.1960 B( 12-C , 27-H ) :   1.2201
B( 12-C , 28-H ) :  -0.1117 B( 13-C , 14-C ) :   1.2899 B( 13-C , 27-H ) :  -0.1297
B( 13-C , 28-H ) :   1.0541 B( 13-C , 29-H ) :  -0.1231 B( 14-C , 15-C ) :   1.1949
B( 14-C , 28-H ) :  -0.1061 B( 14-C , 29-H ) :   1.2157 B( 15-C , 29-H ) :  -0.1720
B( 15-C , 30-H ) :   1.0694

MP2 TOTAL ENERGY:     -636.556163319 Eh
FINAL SINGLE POINT ENERGY      -636.556163318553

DIPOLE MOMENT
-------------
                                X             Y             Z
Electronic contribution:     -5.14251      -2.34338      -0.11524
Nuclear contribution   :      5.61772       2.55271       0.27739
                        -----------------------------------------
Total Dipole Moment    :      0.47521       0.20933       0.16215
                        -----------------------------------------
Magnitude (a.u.)       :      0.54400
Magnitude (Debye)      :      1.38273

Rotational constants in cm-1:     0.031853     0.011824     0.009554
Rotational constants in MHz :   954.934568   354.481056   286.407052

                             ****ORCA TERMINATED NORMALLY****
TOTAL RUN TIME: 0 days 5 hours 34 minutes 10 seconds 829 msec
