                         Program Version 4.2.1 -  RELEASE  -
|  1> %pal
|  2>  nprocs 32
|  3> end
|  4> !RI-MP2 aug-cc-pVQZ aug-cc-pVQZ/C TightSCF
|  5> %maxcore 4500
|  6> *xyzfile -1 1  09_8TS.xyz
|  7>
|  8>
|  9>                          ****END OF INPUT****

CARTESIAN COORDINATES (ANGSTROEM)
---------------------------------
  C     -3.270114   -0.740313    0.974856
  C     -2.687281   -0.019900   -0.241352
  C     -1.495945   -0.530733   -0.783230
  O     -3.250506    1.037732   -0.594475
  C     -0.079280    0.650163    0.408550
  C      1.240151    0.348215    0.237267
  C      2.004874   -0.504483   -0.391051
  O      3.401352   -0.554795   -0.359058
  C      4.005996    0.431133    0.435634
  H     -3.232132   -0.067239    1.837416
  H     -4.323310   -0.963422    0.785780
  H     -2.742687   -1.664638    1.220322
  H     -1.169808   -0.148412   -1.743572
  H     -1.182308   -1.536234   -0.527360
  H     -0.491037    1.548472   -0.040704
  H     -0.538279    0.402254    1.361314
  H      1.648510   -1.305088   -1.039993
  H      5.084346    0.273817    0.363778
  H      3.747204    1.437589    0.087008
  H      3.682347    0.354924    1.480234

 Total Charge           Charge          ....   -1
 Multiplicity           Mult            ....    1
 Number of Electrons    NEL             ....   70
 Basis Dimension        Dim             .... 1226

ORBITAL ENERGIES
----------------

  NO   OCC          E(Eh)            E(eV)
   0   2.0000     -20.428169      -555.8787
   1   2.0000     -20.329596      -553.1964
   2   2.0000     -11.143331      -303.2254
   3   2.0000     -11.136872      -303.0497
   4   2.0000     -11.121820      -302.6401
   5   2.0000     -11.120831      -302.6132
   6   2.0000     -11.081088      -301.5317
   7   2.0000     -11.035703      -300.2967
   8   2.0000     -11.027303      -300.0682
   9   2.0000      -1.246843       -33.9283
  10   2.0000      -1.166382       -31.7389
  11   2.0000      -0.901958       -24.5435
  12   2.0000      -0.862788       -23.4777
  13   2.0000      -0.822342       -22.3771
  14   2.0000      -0.777622       -21.1602
  15   2.0000      -0.741784       -20.1850
  16   2.0000      -0.583257       -15.8712
  17   2.0000      -0.554228       -15.0813
  18   2.0000      -0.530911       -14.4468
  19   2.0000      -0.506235       -13.7754
  20   2.0000      -0.483462       -13.1557
  21   2.0000      -0.469285       -12.7699
  22   2.0000      -0.458428       -12.4745
  23   2.0000      -0.442270       -12.0348
  24   2.0000      -0.436343       -11.8735
  25   2.0000      -0.417804       -11.3690
  26   2.0000      -0.389552       -10.6003
  27   2.0000      -0.365455        -9.9445
  28   2.0000      -0.352257        -9.5854
  29   2.0000      -0.346530        -9.4296
  30   2.0000      -0.325753        -8.8642
  31   2.0000      -0.244949        -6.6654
  32   2.0000      -0.228834        -6.2269
  33   2.0000      -0.176420        -4.8006
  34   2.0000      -0.095740        -2.6052
  35   0.0000       0.097739         2.6596
  36   0.0000       0.106232         2.8907
  37   0.0000       0.114977         3.1287
  38   0.0000       0.116959         3.1826
  39   0.0000       0.121279         3.3002

MULLIKEN ATOMIC CHARGES
-----------------------
   0 C :   -1.004358
   1 C :    1.118217
   2 C :   -0.968473
   3 O :   -1.046995
   4 C :   -0.223076
   5 C :   -0.735482
   6 C :    0.083207
   7 O :   -0.933297
   8 C :   -0.761405
   9 H :    0.220056
  10 H :    0.334447
  11 H :    0.197624
  12 H :    0.229276
  13 H :    0.208207
  14 H :    0.319988
  15 H :    0.307404
  16 H :    0.602304
  17 H :    0.548758
  18 H :    0.247541
  19 H :    0.256057
Sum of atomic charges:   -1.0000000

LOEWDIN ATOMIC CHARGES
----------------------
   0 C :    0.814834
   1 C :   -0.841113
   2 C :    0.533663
   3 O :    0.604428
   4 C :    0.542769
   5 C :    0.131265
   6 C :   -0.143877
   7 O :    0.778484
   8 C :    0.455901
   9 H :   -0.314289
  10 H :   -0.318386
  11 H :   -0.328359
  12 H :   -0.369821
  13 H :   -0.376616
  14 H :   -0.366512
  15 H :   -0.362303
  16 H :   -0.415610
  17 H :   -0.344944
  18 H :   -0.339635
  19 H :   -0.339879

  Mayer bond orders larger than 0.100000
B(  0-C ,  1-C ) :   0.8535 B(  0-C ,  3-O ) :   0.1732 B(  0-C ,  9-H ) :   0.9404
B(  0-C , 10-H ) :   0.9179 B(  0-C , 11-H ) :   1.0333 B(  1-C ,  2-C ) :   1.2909
B(  1-C ,  3-O ) :   0.7440 B(  2-C ,  3-O ) :   0.2155 B(  2-C ,  4-C ) :   0.3631
B(  2-C , 12-H ) :   0.9510 B(  2-C , 13-H ) :   1.0277 B(  4-C ,  5-C ) :   1.1174
B(  4-C ,  6-C ) :  -0.1860 B(  4-C , 14-H ) :   0.9254 B(  4-C , 15-H ) :   0.9237
B(  5-C ,  6-C ) :   2.0165 B(  5-C ,  7-O ) :   0.2610 B(  6-C ,  7-O ) :   0.4105
B(  6-C , 16-H ) :   0.5750 B(  7-O ,  8-C ) :   0.9522 B(  8-C , 17-H ) :   0.6903
B(  8-C , 18-H ) :   0.9280 B(  8-C , 19-H ) :   0.9259

MP2 TOTAL ENERGY:     -423.042895792 Eh
FINAL SINGLE POINT ENERGY      -423.042895792440

DIPOLE MOMENT
-------------
                                X             Y             Z
Electronic contribution:      0.82617       0.97980      -2.93880
Nuclear contribution   :      0.49447      -1.69202       3.84104
                        -----------------------------------------
Total Dipole Moment    :      1.32064      -0.71222       0.90224
                        -----------------------------------------
Magnitude (a.u.)       :      1.75082
Magnitude (Debye)      :      4.45023

Rotational constants in cm-1:     0.161458     0.016841     0.016701
Rotational constants in MHz :  4840.375236   504.891708   500.683105

                             ****ORCA TERMINATED NORMALLY****
TOTAL RUN TIME: 0 days 0 hours 36 minutes 40 seconds 683 msec
