                         Program Version 4.2.1 -  RELEASE  -
|  1> %pal
|  2>  nprocs 32
|  3> end
|  4> !RI-MP2 aug-cc-pVQZ aug-cc-pVQZ/C TightSCF
|  5> %maxcore 4500
|  6> *xyzfile 0 1  08_11P1.xyz
|  7>
|  8>
|  9>                          ****END OF INPUT****

CARTESIAN COORDINATES (ANGSTROEM)
---------------------------------
  C     -1.566486   -1.444212   -0.607080
  S     -1.943168    0.272109   -0.145893
  C     -0.659397    0.625377    1.091073
  C      0.749056    0.841585    0.526248
  H     -0.634584   -0.172542    1.832368
  H     -0.996883    1.538753    1.582726
  N      0.825210    1.731136   -0.628669
  C      1.419614   -0.502382    0.194681
  H      1.363403    1.258290    1.330030
  O      1.372925   -1.448237    0.930578
  O      2.069543   -0.507130   -0.964308
  H      1.930472    0.392117   -1.338924
  H     -0.057561    1.732030   -1.134173
  H      1.059635    2.681375   -0.375817
  H     -2.424030   -1.798989   -1.177153
  H     -1.447494   -2.060030    0.282586
  H     -0.675197   -1.521973   -1.226365

 Total Charge           Charge          ....    0
 Multiplicity           Mult            ....    1
 Number of Electrons    NEL             ....   72
 Basis Dimension        Dim             .... 1058

ORBITAL ENERGIES
----------------

  NO   OCC          E(Eh)            E(eV)
   0   2.0000     -91.956494     -2502.2634
   1   2.0000     -20.597344      -560.4822
   2   2.0000     -20.535693      -558.8046
   3   2.0000     -15.578738      -423.9190
   4   2.0000     -11.375593      -309.5456
   5   2.0000     -11.297815      -307.4292
   6   2.0000     -11.273222      -306.7600
   7   2.0000     -11.253993      -306.2367
   8   2.0000      -8.958459      -243.7721
   9   2.0000      -6.640081      -180.6858
  10   2.0000      -6.639088      -180.6588
  11   2.0000      -6.638344      -180.6385
  12   2.0000      -1.459203       -39.7069
  13   2.0000      -1.361940       -37.0603
  14   2.0000      -1.227219       -33.3943
  15   2.0000      -1.079907       -29.3858
  16   2.0000      -1.005302       -27.3557
  17   2.0000      -0.923806       -25.1380
  18   2.0000      -0.826596       -22.4928
  19   2.0000      -0.799940       -21.7675
  20   2.0000      -0.738712       -20.1014
  21   2.0000      -0.704248       -19.1636
  22   2.0000      -0.672439       -18.2980
  23   2.0000      -0.638037       -17.3619
  24   2.0000      -0.629455       -17.1283
  25   2.0000      -0.606961       -16.5163
  26   2.0000      -0.590774       -16.0758
  27   2.0000      -0.577483       -15.7141
  28   2.0000      -0.567803       -15.4507
  29   2.0000      -0.554360       -15.0849
  30   2.0000      -0.498245       -13.5579
  31   2.0000      -0.473751       -12.8914
  32   2.0000      -0.471409       -12.8277
  33   2.0000      -0.438680       -11.9371
  34   2.0000      -0.421580       -11.4718
  35   2.0000      -0.355243        -9.6666
  36   0.0000       0.016910         0.4601
  37   0.0000       0.028886         0.7860
  38   0.0000       0.032327         0.8797
  39   0.0000       0.035669         0.9706
  40   0.0000       0.046877         1.2756

MULLIKEN ATOMIC CHARGES
-----------------------
   0 C :   -1.029111
   1 S :   -0.055374
   2 C :   -0.660216
   3 C :    0.044301
   4 H :    0.318334
   5 H :    0.278974
   6 N :   -0.701188
   7 C :    1.320681
   8 H :    0.460548
   9 O :   -0.875525
  10 O :   -0.933709
  11 H :    0.394841
  12 H :    0.286477
  13 H :    0.173228
  14 H :    0.406954
  15 H :    0.285957
  16 H :    0.284828
Sum of atomic charges:   -0.0000000

LOEWDIN ATOMIC CHARGES
----------------------
   0 C :    0.573318
   1 S :    1.359573
   2 C :    0.162852
   3 C :   -0.128612
   4 H :   -0.376723
   5 H :   -0.367815
   6 N :    1.273342
   7 C :   -1.074636
   8 H :   -0.294026
   9 O :    0.698028
  10 O :    1.266322
  11 H :   -0.950732
  12 H :   -0.559413
  13 H :   -0.451685
  14 H :   -0.385075
  15 H :   -0.365425
  16 H :   -0.379292

  Mayer bond orders larger than 0.100000
B(  0-C ,  1-S ) :   1.0427 B(  0-C , 14-H ) :   0.8476 B(  0-C , 15-H ) :   0.9045
B(  0-C , 16-H ) :   0.9011 B(  1-S ,  2-C ) :   0.9129 B(  2-C ,  3-C ) :   0.8807
B(  2-C ,  4-H ) :   0.8755 B(  2-C ,  5-H ) :   0.9222 B(  3-C ,  6-N ) :   0.6754
B(  3-C ,  7-C ) :   1.0519 B(  3-C ,  8-H ) :   0.6935 B(  3-C ,  9-O ) :   0.1308
B(  3-C , 10-O ) :   0.1346 B(  6-N , 11-H ) :   0.1065 B(  6-N , 12-H ) :   0.8909
B(  6-N , 13-H ) :   1.0604 B(  7-C ,  9-O ) :   1.3451 B(  7-C , 10-O ) :   0.5977
B(  9-O , 10-O ) :   0.1405 B( 10-O , 11-H ) :   0.7394

MP2 TOTAL ENERGY:     -760.277804086 Eh
FINAL SINGLE POINT ENERGY      -760.277804085763

DIPOLE MOMENT
-------------
                                X             Y             Z
Electronic contribution:      1.38603      -0.47705       0.13218
Nuclear contribution   :     -1.76369       2.02057      -0.22451
                        -----------------------------------------
Total Dipole Moment    :     -0.37767       1.54353      -0.09233
                        -----------------------------------------
Magnitude (a.u.)       :      1.59174
Magnitude (Debye)      :      4.04588

Rotational constants in cm-1:     0.077293     0.043939     0.036701
Rotational constants in MHz :  2317.195879  1317.272996  1100.258447

                             ****ORCA TERMINATED NORMALLY****
TOTAL RUN TIME: 0 days 0 hours 27 minutes 12 seconds 254 msec
