                         Program Version 4.2.1 -  RELEASE  -
|  1> %pal
|  2>  nprocs 32
|  3> end
|  4> !RI-MP2 aug-cc-pVQZ aug-cc-pVQZ/C TightSCF
|  5> %maxcore 4500
|  6> *xyzfile 0 1  06_21P2.xyz
|  7>
|  8>
|  9>                          ****END OF INPUT****

CARTESIAN COORDINATES (ANGSTROEM)
---------------------------------
  S      1.428718   -0.292410   -0.011148
  C      0.068299    0.895561   -0.294572
  C     -1.244511    0.449304    0.327062
  O     -1.690971   -0.786883   -0.181089
  H      0.360290    1.880633    0.069950
  H     -0.034242    0.949442   -1.378962
  H     -1.144087    0.411910    1.420087
  H     -2.022377    1.178202    0.090211
  H     -0.971524   -1.421670   -0.083820
  H      1.537489   -0.094084    1.314671

 Total Charge           Charge          ....    0
 Multiplicity           Mult            ....    1
 Number of Electrons    NEL             ....   42
 Basis Dimension        Dim             ....  600

ORBITAL ENERGIES
----------------

  NO   OCC          E(Eh)            E(eV)
   0   2.0000     -91.961909     -2502.4108
   1   2.0000     -20.556151      -559.3613
   2   2.0000     -11.285843      -307.1034
   3   2.0000     -11.269171      -306.6497
   4   2.0000      -8.964356      -243.9325
   5   2.0000      -6.645942      -180.8453
   6   2.0000      -6.644980      -180.8191
   7   2.0000      -6.644136      -180.7961
   8   2.0000      -1.366044       -37.1719
   9   2.0000      -1.069061       -29.0906
  10   2.0000      -0.943074       -25.6623
  11   2.0000      -0.830264       -22.5926
  12   2.0000      -0.699474       -19.0337
  13   2.0000      -0.648614       -17.6497
  14   2.0000      -0.613613       -16.6973
  15   2.0000      -0.586145       -15.9498
  16   2.0000      -0.535612       -14.5747
  17   2.0000      -0.508395       -13.8341
  18   2.0000      -0.456874       -12.4322
  19   2.0000      -0.453741       -12.3469
  20   2.0000      -0.372471       -10.1354
  21   0.0000       0.024943         0.6787
  22   0.0000       0.033184         0.9030
  23   0.0000       0.038162         1.0384
  24   0.0000       0.040218         1.0944
  25   0.0000       0.054806         1.4913

MULLIKEN ATOMIC CHARGES
-----------------------
   0 S :   -0.189289
   1 C :   -0.600108
   2 C :    0.028461
   3 O :   -0.824046
   4 H :    0.321681
   5 H :    0.296581
   6 H :    0.225684
   7 H :    0.303852
   8 H :    0.374292
   9 H :    0.062891
Sum of atomic charges:    0.0000000

LOEWDIN ATOMIC CHARGES
----------------------
   0 S :    1.591215
   1 C :    0.103284
   2 C :    0.072563
   3 O :    1.255675
   4 H :   -0.359439
   5 H :   -0.383580
   6 H :   -0.316466
   7 H :   -0.320952
   8 H :   -0.876952
   9 H :   -0.765348

  Mayer bond orders larger than 0.100000
B(  0-S ,  1-C ) :   0.9102 B(  0-S ,  9-H ) :   1.0263 B(  1-C ,  2-C ) :   1.0118
B(  1-C ,  4-H ) :   0.8680 B(  1-C ,  5-H ) :   0.8514 B(  2-C ,  3-O ) :   0.6721
B(  2-C ,  6-H ) :   0.9272 B(  2-C ,  7-H ) :   0.8517 B(  3-O ,  8-H ) :   0.8452

MP2 TOTAL ENERGY:     -552.542053933 Eh
FINAL SINGLE POINT ENERGY      -552.542053932904

DIPOLE MOMENT
-------------
                                X             Y             Z
Electronic contribution:      2.60635      -2.30754      -1.00800
Nuclear contribution   :     -2.36771       2.92890       1.44335
                        -----------------------------------------
Total Dipole Moment    :      0.23864       0.62137       0.43535
                        -----------------------------------------
Magnitude (a.u.)       :      0.79534
Magnitude (Debye)      :      2.02161

Rotational constants in cm-1:     0.408963     0.114498     0.098361
Rotational constants in MHz : 12260.390260  3432.572679  2948.798499

                             ****ORCA TERMINATED NORMALLY****
TOTAL RUN TIME: 0 days 0 hours 4 minutes 2 seconds 676 msec
