                         Program Version 4.2.1 -  RELEASE  -
|  1> %pal
|  2>  nprocs 32
|  3> end
|  4> !RI-MP2 aug-cc-pVQZ aug-cc-pVQZ/C TightSCF
|  5> %maxcore 4500
|  6> *xyzfile 0 1  10_56R.xyz
|  7>
|  8>
|  9>                          ****END OF INPUT****

CARTESIAN COORDINATES (ANGSTROEM)
---------------------------------
  S     -1.470938   -0.065274    0.045488
  C     -0.352048   -1.000131   -1.046312
  C      0.517045   -2.003734   -0.301876
  C      1.709145   -1.547968    0.495292
  C      1.568002    1.674601   -0.460294
  C      0.514745    1.842789    0.594243
  C     -0.903065    1.644915    0.062962
  C      2.502392   -0.487883    0.375161
  C      2.412060    0.653395   -0.558757
  O     -1.333764   -0.588640    1.403103
  O     -2.780993   -0.048541   -0.601086
  H     -1.047330   -1.520428   -1.705381
  H      0.211309   -0.282261   -1.636798
  H      0.881171   -2.721047   -1.047367
  H     -0.128224   -2.577998    0.365042
  H      0.575256    2.859828    0.990976
  H      0.683323    1.164075    1.432315
  H     -1.040254    2.025173   -0.950383
  H     -1.647317    2.116713    0.706959
  H      1.995438   -2.268442    1.256218
  H      3.369857   -0.457391    1.031925
  H      1.631202    2.468735   -1.200371
  H      3.158968    0.678964   -1.349587

 Total Charge           Charge          ....    0
 Multiplicity           Mult            ....    1
 Number of Electrons    NEL             ....   92
 Basis Dimension        Dim             .... 1436

ORBITAL ENERGIES
----------------

  NO   OCC          E(Eh)            E(eV)
   0   2.0000     -92.160860     -2507.8245
   1   2.0000     -20.533617      -558.7481
   2   2.0000     -20.531867      -558.7005
   3   2.0000     -11.275529      -306.8227
   4   2.0000     -11.272529      -306.7411
   5   2.0000     -11.251758      -306.1759
   6   2.0000     -11.251516      -306.1693
   7   2.0000     -11.248800      -306.0954
   8   2.0000     -11.246955      -306.0452
   9   2.0000     -11.246747      -306.0395
  10   2.0000     -11.240485      -305.8691
  11   2.0000      -9.131767      -248.4880
  12   2.0000      -6.816873      -185.4965
  13   2.0000      -6.816335      -185.4819
  14   2.0000      -6.815933      -185.4710
  15   2.0000      -1.432459       -38.9792
  16   2.0000      -1.322193       -35.9787
  17   2.0000      -1.136242       -30.9187
  18   2.0000      -1.097488       -29.8642
  19   2.0000      -1.072116       -29.1738
  20   2.0000      -1.004870       -27.3439
  21   2.0000      -0.955798       -26.0086
  22   2.0000      -0.885605       -24.0985
  23   2.0000      -0.824586       -22.4381
  24   2.0000      -0.779194       -21.2029
  25   2.0000      -0.713575       -19.4174
  26   2.0000      -0.698155       -18.9978
  27   2.0000      -0.679596       -18.4928
  28   2.0000      -0.661886       -18.0108
  29   2.0000      -0.650715       -17.7068
  30   2.0000      -0.645837       -17.5741
  31   2.0000      -0.618678       -16.8351
  32   2.0000      -0.607382       -16.5277
  33   2.0000      -0.584896       -15.9158
  34   2.0000      -0.576450       -15.6860
  35   2.0000      -0.571549       -15.5526
  36   2.0000      -0.535370       -14.5682
  37   2.0000      -0.527007       -14.3406
  38   2.0000      -0.516700       -14.0601
  39   2.0000      -0.488170       -13.2838
  40   2.0000      -0.481768       -13.1096
  41   2.0000      -0.479815       -13.0564
  42   2.0000      -0.459202       -12.4955
  43   2.0000      -0.426821       -11.6144
  44   2.0000      -0.389255       -10.5922
  45   2.0000      -0.357929        -9.7397
  46   0.0000       0.018247         0.4965
  47   0.0000       0.023911         0.6507
  48   0.0000       0.027383         0.7451
  49   0.0000       0.030725         0.8361
  50   0.0000       0.039620         1.0781

MULLIKEN ATOMIC CHARGES
-----------------------
   0 S :    2.747790
   1 C :   -0.640844
   2 C :   -0.346777
   3 C :   -0.399439
   4 C :   -0.370928
   5 C :   -0.317026
   6 C :   -0.790498
   7 C :   -0.372766
   8 C :   -0.277845
   9 O :   -1.341712
  10 O :   -1.533472
  11 H :    0.277695
  12 H :    0.410794
  13 H :    0.349099
  14 H :    0.191964
  15 H :    0.321792
  16 H :    0.292502
  17 H :    0.338347
  18 H :    0.308200
  19 H :    0.273908
  20 H :    0.357358
  21 H :    0.265926
  22 H :    0.255931
Sum of atomic charges:    0.0000000

LOEWDIN ATOMIC CHARGES
----------------------
   0 S :   -0.122991
   1 C :    0.446716
   2 C :    0.467720
   3 C :    0.399442
   4 C :    0.366727
   5 C :    0.468379
   6 C :    0.425315
   7 C :    0.352639
   8 C :    0.349489
   9 O :    0.342752
  10 O :    0.317050
  11 H :   -0.334696
  12 H :   -0.352148
  13 H :   -0.275238
  14 H :   -0.328581
  15 H :   -0.272678
  16 H :   -0.326395
  17 H :   -0.315586
  18 H :   -0.323330
  19 H :   -0.321378
  20 H :   -0.332906
  21 H :   -0.308569
  22 H :   -0.321734

  Mayer bond orders larger than 0.100000
B(  0-S ,  1-C ) :   0.8957 B(  0-S ,  6-C ) :   1.0390 B(  0-S ,  9-O ) :   0.8752
B(  0-S , 10-O ) :   0.4480 B(  1-C ,  2-C ) :   0.8843 B(  1-C ,  9-O ) :  -0.1024
B(  1-C , 11-H ) :   0.9690 B(  1-C , 12-H ) :   0.7545 B(  2-C ,  3-C ) :   0.6625
B(  2-C , 13-H ) :   0.8647 B(  2-C , 14-H ) :   0.9846 B(  3-C ,  7-C ) :   1.8225
B(  3-C , 19-H ) :   1.0374 B(  4-C ,  5-C ) :   0.8207 B(  4-C ,  8-C ) :   1.7867
B(  4-C , 21-H ) :   1.0258 B(  5-C ,  6-C ) :   0.8653 B(  5-C , 15-H ) :   0.8858
B(  5-C , 16-H ) :   0.8933 B(  6-C , 10-O ) :   0.1103 B(  6-C , 17-H ) :   0.8260
B(  6-C , 18-H ) :   0.9028 B(  7-C ,  8-C ) :   0.8551 B(  7-C , 20-H ) :   0.9300
B(  8-C , 22-H ) :   1.0436 B(  9-O , 10-O ) :   0.1118

MP2 TOTAL ENERGY:     -859.460693654 Eh
FINAL SINGLE POINT ENERGY      -859.460693653985

DIPOLE MOMENT
-------------
                                X             Y             Z
Electronic contribution:     -6.89069      -0.92683       1.28384
Nuclear contribution   :      8.65100       1.48253      -2.10179
                        -----------------------------------------
Total Dipole Moment    :      1.76031       0.55571      -0.81795
                        -----------------------------------------
Magnitude (a.u.)       :      2.01905
Magnitude (Debye)      :      5.13201

Rotational constants in cm-1:     0.049503     0.029709     0.022785
Rotational constants in MHz :  1484.053143   890.661290   683.085362

                             ****ORCA TERMINATED NORMALLY****
TOTAL RUN TIME: 0 days 1 hours 20 minutes 16 seconds 471 msec
