                         Program Version 4.2.1 -  RELEASE  -
|  1> %pal
|  2>  nprocs 32
|  3> end
|  4> !RI-MP2 aug-cc-pVQZ aug-cc-pVQZ/C TightSCF
|  5> %maxcore 4500
|  6> *xyzfile 0 2  01_29P.xyz
|  7>
|  8>
|  9>                          ****END OF INPUT****

CARTESIAN COORDINATES (ANGSTROEM)
---------------------------------
  C      0.663401   -0.200624   -0.344004
  C      1.559413   -1.448249   -0.367306
  C      3.012657   -0.918021   -0.415352
  H      1.318949   -2.097580   -1.210343
  H      1.388065   -2.019677    0.545969
  C      2.909333    0.609075   -0.257255
  H      3.513672   -1.186818   -1.346364
  H      3.600097   -1.352710    0.395029
  C      1.536876    0.857005    0.388251
  H      2.930280    1.098879   -1.235872
  H      3.720844    1.036088    0.333477
  C      1.039960    2.247754    0.280855
  C     -0.645813   -0.424418    0.361625
  O     -1.693768   -0.038720   -0.379239
  C     -2.990745   -0.179875    0.227869
  O     -0.756625   -0.879050    1.471725
  C     -4.012318    0.316499   -0.765268
  H     -3.975081   -0.267354   -1.686240
  H     -3.835425    1.364106   -1.013440
  H     -5.014663    0.227293   -0.341657
  H     -3.005173    0.394906    1.155469
  H     -3.142751   -1.229272    0.486131
  H      0.553996    2.745274    1.109182
  H      1.080148    2.764066   -0.671727
  H      0.459179    0.154733   -1.355941
  H      1.574425    0.555352    1.439945

 Total Charge           Charge          ....    0
 Multiplicity           Mult            ....    2
 Number of Electrons    NEL             ....   85
 Basis Dimension        Dim             .... 1570

ORBITAL ENERGIES
----------------
                 SPIN UP ORBITALS
  NO   OCC          E(Eh)            E(eV)
   0   1.0000     -20.593865      -560.3876
   1   1.0000     -20.531787      -558.6983
   2   1.0000     -11.366585      -309.3005
   3   1.0000     -11.283919      -307.0511
   4   1.0000     -11.237118      -305.7775
   5   1.0000     -11.232361      -305.6481
   6   1.0000     -11.230558      -305.5990
   7   1.0000     -11.221914      -305.3638
   8   1.0000     -11.221528      -305.3533
   9   1.0000     -11.220716      -305.3312
  10   1.0000     -11.218995      -305.2844
  11   1.0000      -1.456459       -39.6323
  12   1.0000      -1.352794       -36.8114
  13   1.0000      -1.144289       -31.1377
  14   1.0000      -1.045875       -28.4597
  15   1.0000      -1.019703       -27.7475
  16   1.0000      -0.990413       -26.9505
  17   1.0000      -0.905739       -24.6464
  18   1.0000      -0.870822       -23.6963
  19   1.0000      -0.804728       -21.8978
  20   1.0000      -0.778259       -21.1775
  21   1.0000      -0.757344       -20.6084
  22   1.0000      -0.709717       -19.3124
  23   1.0000      -0.678835       -18.4720
  24   1.0000      -0.669471       -18.2172
  25   1.0000      -0.639844       -17.4110
  26   1.0000      -0.613799       -16.7023
  27   1.0000      -0.602801       -16.4031
  28   1.0000      -0.588584       -16.0162
  29   1.0000      -0.576940       -15.6993
  30   1.0000      -0.553226       -15.0540
  31   1.0000      -0.551094       -14.9960
  32   1.0000      -0.521172       -14.1818
  33   1.0000      -0.514730       -14.0065
  34   1.0000      -0.503786       -13.7087
  35   1.0000      -0.493499       -13.4288
  36   1.0000      -0.488682       -13.2977
  37   1.0000      -0.476365       -12.9626
  38   1.0000      -0.466819       -12.7028
  39   1.0000      -0.461668       -12.5626
  40   1.0000      -0.450376       -12.2554
  41   1.0000      -0.437206       -11.8970
  42   1.0000      -0.348188        -9.4747
  43   0.0000       0.024544         0.6679
  44   0.0000       0.028069         0.7638
  45   0.0000       0.030237         0.8228
  46   0.0000       0.032995         0.8978
  47   0.0000       0.040262         1.0956

                 SPIN DOWN ORBITALS
  NO   OCC          E(Eh)            E(eV)
   0   1.0000     -20.593853      -560.3872
   1   1.0000     -20.531794      -558.6985
   2   1.0000     -11.366718      -309.3041
   3   1.0000     -11.283915      -307.0509
   4   1.0000     -11.235717      -305.7394
   5   1.0000     -11.234487      -305.7059
   6   1.0000     -11.221914      -305.3638
   7   1.0000     -11.221536      -305.3535
   8   1.0000     -11.219461      -305.2971
   9   1.0000     -11.218820      -305.2796
  10   1.0000     -11.207223      -304.9640
  11   1.0000      -1.456410       -39.6309
  12   1.0000      -1.352794       -36.8114
  13   1.0000      -1.138245       -30.9732
  14   1.0000      -1.045421       -28.4474
  15   1.0000      -0.994777       -27.0693
  16   1.0000      -0.986805       -26.8523
  17   1.0000      -0.885621       -24.0990
  18   1.0000      -0.847034       -23.0490
  19   1.0000      -0.800110       -21.7721
  20   1.0000      -0.770131       -20.9563
  21   1.0000      -0.752779       -20.4842
  22   1.0000      -0.708112       -19.2687
  23   1.0000      -0.678638       -18.4667
  24   1.0000      -0.668720       -18.1968
  25   1.0000      -0.635477       -17.2922
  26   1.0000      -0.607771       -16.5383
  27   1.0000      -0.600787       -16.3483
  28   1.0000      -0.586029       -15.9467
  29   1.0000      -0.576050       -15.6751
  30   1.0000      -0.552607       -15.0372
  31   1.0000      -0.544179       -14.8079
  32   1.0000      -0.514978       -14.0133
  33   1.0000      -0.514190       -13.9918
  34   1.0000      -0.501422       -13.6444
  35   1.0000      -0.484752       -13.1908
  36   1.0000      -0.478426       -13.0186
  37   1.0000      -0.467746       -12.7280
  38   1.0000      -0.463310       -12.6073
  39   1.0000      -0.460919       -12.5423
  40   1.0000      -0.448999       -12.2179
  41   1.0000      -0.435431       -11.8487
  42   0.0000       0.024699         0.6721
  43   0.0000       0.027940         0.7603
  44   0.0000       0.030287         0.8242
  45   0.0000       0.032986         0.8976
  46   0.0000       0.040360         1.0982

MULLIKEN ATOMIC CHARGES AND SPIN POPULATIONS
--------------------------------------------
   0 C :    0.162545    0.072390
   1 C :   -0.695735   -0.001908
   2 C :   -0.482135   -0.000504
   3 H :    0.299833    0.003466
   4 H :    0.252192    0.000359
   5 C :   -0.616646    0.050583
   6 H :    0.262718    0.001494
   7 H :    0.165883   -0.000762
   8 C :    0.095791   -0.264697
   9 H :    0.158377    0.005202
  10 H :    0.314711   -0.010007
  11 C :   -0.897092    1.310675
  12 C :    1.485098    0.007880
  13 O :   -0.829279   -0.006420
  14 C :   -0.212180   -0.003468
  15 O :   -1.017953   -0.005044
  16 C :   -0.848801   -0.000136
  17 H :    0.223451    0.000091
  18 H :    0.219512   -0.000270
  19 H :    0.283238   -0.000014
  20 H :    0.304877   -0.000267
  21 H :    0.311323   -0.000033
  22 H :    0.347286   -0.077456
  23 H :    0.254294   -0.088821
  24 H :    0.186501    0.002439
  25 H :    0.272189    0.005229
Sum of atomic charges         :   -0.0000000

LOEWDIN ATOMIC CHARGES AND SPIN POPULATIONS
-------------------------------------------
   0 C :    0.041735    0.034120
   1 C :    0.547739    0.005781
   2 C :    0.571861    0.003590
   3 H :   -0.247260    0.001542
   4 H :   -0.287852    0.000623
   5 C :    0.529695    0.022100
   6 H :   -0.261101    0.000914
   7 H :   -0.262344    0.000424
   8 C :    0.057359    0.132270
   9 H :   -0.270023    0.004050
  10 H :   -0.247953    0.006201
  11 C :    0.883245    0.456260
  12 C :   -1.057667    0.011424
  13 O :    0.886370    0.001487
  14 C :    0.154019    0.000768
  15 O :    0.759086    0.000465
  16 C :    0.910118    0.000207
  17 H :   -0.289874    0.000021
  18 H :   -0.290159    0.000065
  19 H :   -0.289205    0.000017
  20 H :   -0.304498    0.000202
  21 H :   -0.303761    0.000027
  22 H :   -0.317441    0.152475
  23 H :   -0.319611    0.148311
  24 H :   -0.299517    0.009735
  25 H :   -0.292962    0.006921

  Mayer bond orders larger than 0.100000
B(  0-C ,  1-C ) :   0.7314 B(  0-C ,  2-C ) :  -0.1081 B(  0-C ,  8-C ) :   0.7268
B(  0-C , 12-C ) :   1.0124 B(  0-C , 15-O ) :   0.1035 B(  0-C , 24-H ) :   0.9585
B(  1-C ,  2-C ) :   1.0501 B(  1-C ,  3-H ) :   0.8883 B(  1-C ,  4-H ) :   0.9841
B(  2-C ,  5-C ) :   1.0169 B(  2-C ,  6-H ) :   0.9326 B(  2-C ,  7-H ) :   1.0240
B(  5-C ,  8-C ) :   0.7082 B(  5-C ,  9-H ) :   1.0535 B(  5-C , 10-H ) :   0.8733
B(  5-C , 11-C ) :   0.1221 B(  8-C , 11-C ) :   0.6186 B(  8-C , 22-H ) :  -0.1247
B(  8-C , 25-H ) :   0.9332 B( 11-C , 22-H ) :   0.9670 B( 11-C , 23-H ) :   0.9912
B( 12-C , 13-O ) :   0.7886 B( 12-C , 14-C ) :  -0.1456 B( 12-C , 15-O ) :   0.8499
B( 13-O , 14-C ) :   0.9441 B( 13-O , 15-O ) :   0.1883 B( 14-C , 15-O ) :   0.1586
B( 14-C , 16-C ) :   0.9451 B( 14-C , 20-H ) :   0.8666 B( 14-C , 21-H ) :   0.8553
B( 16-C , 17-H ) :   0.9528 B( 16-C , 18-H ) :   0.9565 B( 16-C , 19-H ) :   0.9980

MP2 TOTAL ENERGY:     -501.561598209 Eh
FINAL SINGLE POINT ENERGY      -501.561598208598

DIPOLE MOMENT
-------------
                                X             Y             Z
Electronic contribution:     -1.23856      -1.96569       2.79638
Nuclear contribution   :      1.16005       2.23468      -3.47537
                        -----------------------------------------
Total Dipole Moment    :     -0.07851       0.26899      -0.67898
                        -----------------------------------------
Magnitude (a.u.)       :      0.73453
Magnitude (Debye)      :      1.86703

Rotational constants in cm-1:     0.073077     0.019833     0.017974
Rotational constants in MHz :  2190.780943   594.578134   538.836590

                             ****ORCA TERMINATED NORMALLY****
TOTAL RUN TIME: 0 days 2 hours 8 minutes 43 seconds 115 msec
