                         Program Version 4.2.1 -  RELEASE  -
|  1> %pal
|  2>  nprocs 32
|  3> end
|  4> !RI-MP2 aug-cc-pVQZ aug-cc-pVQZ/C TightSCF
|  5> %maxcore 4500
|  6> *xyzfile 0 1  10_44R.xyz
|  7>
|  8>
|  9>                          ****END OF INPUT****

CARTESIAN COORDINATES (ANGSTROEM)
---------------------------------
  C      0.431736   -2.604557    0.450379
  H      0.612882   -3.664990    0.269476
  H      0.211628   -2.483275    1.529527
  C     -0.768611   -2.149803   -0.340692
  C      0.306397    0.056249   -0.599609
  H      0.612701   -0.123263   -1.635216
  H      0.177542    1.125272   -0.482417
  C      1.446120   -0.430946    0.304499
  H      1.137551   -0.256740    1.355426
  N      1.627884   -1.861149    0.086747
  C     -2.163861   -0.088172   -0.064933
  C     -1.524407   -3.010043   -1.013731
  C     -3.345318   -0.925010    0.244314
  C     -4.580723   -0.748396   -0.214793
  C     -0.980739   -0.682029   -0.325095
  C     -5.742012   -1.630397    0.118455
  H     -6.162978   -2.088067   -0.782079
  H     -5.449041   -2.430568    0.800718
  H     -6.549592   -1.060948    0.588870
  C      2.732410    0.345580    0.078323
  C      2.814305   -2.372231    0.746387
  H      2.809733   -3.461462    0.672697
  H      2.819499   -2.116685    1.822000
  C      4.043619   -1.805191    0.063845
  H      4.118836   -2.236630   -0.938852
  C      3.961618   -0.304935   -0.036094
  H      4.946913   -2.090269    0.609493
  C      5.119482    0.446304   -0.227889
  H      6.069905   -0.069588   -0.316121
  C      2.703266    1.739612    0.028370
  H      1.763971    2.265543    0.144133
  C      5.077325    1.827474   -0.296802
  H      5.988525    2.394258   -0.445209
  C      3.858634    2.478572   -0.159695
  H      3.807810    3.560025   -0.196615
  Si    -2.315873    1.805070    0.093332
  C     -1.245249    2.384894    1.532221
  H     -0.197532    2.094347    1.454332
  H     -1.285332    3.474117    1.621978
  H     -1.628730    1.964114    2.465518
  C     -1.844955    2.685815   -1.502042
  H     -0.806707    2.535026   -1.799975
  H     -2.474843    2.336351   -2.324248
  H     -2.008403    3.762050   -1.396203
  C     -4.063883    2.346409    0.519841
  H     -4.474748    1.782398    1.358675
  H     -4.037843    3.402396    0.804716
  H     -4.756436    2.251893   -0.317914
  H     -2.384794   -2.683169   -1.582276
  H     -1.295349   -4.069970   -1.019206
  H     -4.784176    0.071943   -0.897011
  H     -3.164876   -1.782234    0.890359

 Total Charge           Charge          ....    0
 Multiplicity           Mult            ....    1
 Number of Electrons    NEL             ....  176
 Basis Dimension        Dim             .... 3178

ORBITAL ENERGIES
----------------

  NO   OCC          E(Eh)            E(eV)
   0   2.0000     -68.747858     -1870.7243
   1   2.0000     -15.547791      -423.0769
   2   2.0000     -11.263596      -306.4980
   3   2.0000     -11.253973      -306.2362
   4   2.0000     -11.249845      -306.1239
   5   2.0000     -11.239563      -305.8441
   6   2.0000     -11.235623      -305.7368
   7   2.0000     -11.234289      -305.7006
   8   2.0000     -11.234259      -305.6997
   9   2.0000     -11.228834      -305.5521
  10   2.0000     -11.228263      -305.5366
  11   2.0000     -11.226888      -305.4992
  12   2.0000     -11.226037      -305.4760
  13   2.0000     -11.224002      -305.4206
  14   2.0000     -11.222983      -305.3929
  15   2.0000     -11.218589      -305.2733
  16   2.0000     -11.216883      -305.2269
  17   2.0000     -11.216789      -305.2243
  18   2.0000     -11.215874      -305.1995
  19   2.0000     -11.211340      -305.0761
  20   2.0000     -11.191989      -304.5495
  21   2.0000     -11.191967      -304.5489
  22   2.0000     -11.189019      -304.4687
  23   2.0000      -6.096132      -165.8842
  24   2.0000      -4.202760      -114.3629
  25   2.0000      -4.202512      -114.3562
  26   2.0000      -4.202467      -114.3550
  27   2.0000      -1.255531       -34.1647
  28   2.0000      -1.157067       -31.4854
  29   2.0000      -1.123408       -30.5695
  30   2.0000      -1.073741       -29.2180
  31   2.0000      -1.064292       -28.9608
  32   2.0000      -1.052678       -28.6448
  33   2.0000      -1.014207       -27.5980
  34   2.0000      -0.996325       -27.1114
  35   2.0000      -0.966029       -26.2870
  36   2.0000      -0.958066       -26.0703
  37   2.0000      -0.929399       -25.2902
  38   2.0000      -0.920831       -25.0571
  39   2.0000      -0.916504       -24.9393
  40   2.0000      -0.897910       -24.4334
  41   2.0000      -0.858768       -23.3683
  42   2.0000      -0.835793       -22.7431
  43   2.0000      -0.812541       -22.1104
  44   2.0000      -0.800665       -21.7872
  45   2.0000      -0.756708       -20.5911
  46   2.0000      -0.746286       -20.3075
  47   2.0000      -0.699295       -19.0288
  48   2.0000      -0.691426       -18.8147
  49   2.0000      -0.663326       -18.0500
  50   2.0000      -0.652930       -17.7671
  51   2.0000      -0.644217       -17.5300
  52   2.0000      -0.639288       -17.3959
  53   2.0000      -0.620152       -16.8752
  54   2.0000      -0.617795       -16.8111
  55   2.0000      -0.600949       -16.3527
  56   2.0000      -0.597105       -16.2480
  57   2.0000      -0.590719       -16.0743
  58   2.0000      -0.582690       -15.8558
  59   2.0000      -0.576691       -15.6926
  60   2.0000      -0.567837       -15.4516
  61   2.0000      -0.562549       -15.3077
  62   2.0000      -0.560417       -15.2497
  63   2.0000      -0.558648       -15.2016
  64   2.0000      -0.549314       -14.9476
  65   2.0000      -0.546185       -14.8624
  66   2.0000      -0.538928       -14.6650
  67   2.0000      -0.534271       -14.5383
  68   2.0000      -0.531065       -14.4510
  69   2.0000      -0.528696       -14.3866
  70   2.0000      -0.526523       -14.3274
  71   2.0000      -0.521493       -14.1905
  72   2.0000      -0.510478       -13.8908
  73   2.0000      -0.506804       -13.7908
  74   2.0000      -0.500852       -13.6289
  75   2.0000      -0.487834       -13.2746
  76   2.0000      -0.478657       -13.0249
  77   2.0000      -0.458652       -12.4806
  78   2.0000      -0.456535       -12.4229
  79   2.0000      -0.435084       -11.8392
  80   2.0000      -0.424413       -11.5489
  81   2.0000      -0.418640       -11.3918
  82   2.0000      -0.384526       -10.4635
  83   2.0000      -0.367469        -9.9993
  84   2.0000      -0.361809        -9.8453
  85   2.0000      -0.329321        -8.9613
  86   2.0000      -0.322269        -8.7694
  87   2.0000      -0.298533        -8.1235
  88   0.0000       0.020144         0.5481
  89   0.0000       0.023855         0.6491
  90   0.0000       0.024279         0.6607
  91   0.0000       0.028926         0.7871
  92   0.0000       0.031324         0.8524

MULLIKEN ATOMIC CHARGES
-----------------------
   0 C :   -0.333936
   1 H :    0.222612
   2 H :    0.240720
   3 C :   -0.471525
   4 C :   -0.628449
   5 H :    0.239835
   6 H :    0.386307
   7 C :    2.175779
   8 H :    0.356147
   9 N :   -0.346643
  10 C :   -1.436143
  11 C :   -1.139127
  12 C :   -0.488106
  13 C :   -0.476577
  14 C :    1.584446
  15 C :   -0.939844
  16 H :    0.274623
  17 H :    0.223545
  18 H :    0.290003
  19 C :    0.460226
  20 C :   -0.883402
  21 H :    0.180457
  22 H :    0.262531
  23 C :   -0.688144
  24 H :    0.195031
  25 C :    0.403545
  26 H :    0.200588
  27 C :   -0.726570
  28 H :    0.239197
  29 C :   -0.767523
  30 H :    0.172445
  31 C :   -0.360034
  32 H :    0.262875
  33 C :   -0.814991
  34 H :    0.198578
  35 Si:    2.078826
  36 C :   -1.372617
  37 H :    0.298017
  38 H :    0.228348
  39 H :    0.248825
  40 C :   -1.372953
  41 H :    0.280747
  42 H :    0.250018
  43 H :    0.270356
  44 C :   -0.791353
  45 H :    0.291296
  46 H :    0.235478
  47 H :    0.241292
  48 H :    0.233724
  49 H :    0.165530
  50 H :    0.350661
  51 H :    0.295327
Sum of atomic charges:    0.0000000

LOEWDIN ATOMIC CHARGES
----------------------
   0 C :    0.337785
   1 H :   -0.309537
   2 H :   -0.240867
   3 C :   -0.050464
   4 C :    0.487951
   5 H :   -0.227343
   6 H :   -0.432145
   7 C :   -0.037056
   8 H :   -0.253643
   9 N :    0.540950
  10 C :    0.066154
  11 C :    0.825969
  12 C :    0.266429
  13 C :    0.360145
  14 C :   -0.071347
  15 C :    0.904203
  16 H :   -0.291046
  17 H :   -0.311654
  18 H :   -0.290123
  19 C :   -0.008455
  20 C :    0.355997
  21 H :   -0.277904
  22 H :   -0.237691
  23 C :    0.525175
  24 H :   -0.256231
  25 C :   -0.035666
  26 H :   -0.272841
  27 C :    0.357833
  28 H :   -0.312233
  29 C :    0.366059
  30 H :   -0.339544
  31 C :    0.351636
  32 H :   -0.319734
  33 C :    0.363464
  34 H :   -0.317647
  35 Si:    0.146756
  36 C :    1.013661
  37 H :   -0.366035
  38 H :   -0.323509
  39 H :   -0.322051
  40 C :    1.012192
  41 H :   -0.347858
  42 H :   -0.326782
  43 H :   -0.329738
  44 C :    0.982967
  45 H :   -0.332130
  46 H :   -0.330149
  47 H :   -0.345964
  48 H :   -0.337633
  49 H :   -0.324161
  50 H :   -0.342351
  51 H :   -0.343793

  Mayer bond orders larger than 0.100000
B(  0-C ,  1-H ) :   1.0796 B(  0-C ,  2-H ) :   0.9626 B(  0-C ,  3-C ) :   0.8065
B(  0-C ,  7-C ) :  -0.1165 B(  0-C ,  9-N ) :   0.9481 B(  0-C , 14-C ) :  -0.4269
B(  0-C , 20-C ) :   0.1176 B(  1-H ,  3-C ) :  -0.1110 B(  2-H ,  3-C ) :   0.1136
B(  2-H ,  9-N ) :  -0.1104 B(  3-C ,  5-H ) :  -0.1458 B(  3-C , 10-C ) :  -0.4957
B(  3-C , 11-C ) :   1.9755 B(  3-C , 14-C ) :   0.2590 B(  3-C , 48-H ) :  -0.1812
B(  3-C , 49-H ) :  -0.1046 B(  4-C ,  5-H ) :   0.9271 B(  4-C ,  6-H ) :   0.6428
B(  4-C ,  7-C ) :   1.2289 B(  4-C , 10-C ) :  -0.5361 B(  4-C , 14-C ) :   0.5332
B(  4-C , 19-C ) :   0.2600 B(  4-C , 25-C ) :  -0.1435 B(  4-C , 29-C ) :   0.2555
B(  5-H ,  6-H ) :  -0.1988 B(  5-H ,  7-C ) :   0.1592 B(  5-H ,  8-H ) :   0.1858
B(  5-H ,  9-N ) :  -0.1678 B(  5-H , 19-C ) :  -0.1028 B(  6-H ,  7-C ) :   0.1253
B(  6-H , 10-C ) :   0.1429 B(  6-H , 14-C ) :   0.1711 B(  6-H , 19-C ) :  -0.1154
B(  6-H , 29-C ) :  -0.3293 B(  6-H , 30-H ) :  -0.1594 B(  6-H , 35-Si) :   0.2913
B(  6-H , 37-H ) :  -0.1344 B(  6-H , 41-H ) :  -0.1154 B(  7-C ,  8-H ) :   0.8921
B(  7-C ,  9-N ) :   0.1189 B(  7-C , 14-C ) :  -0.2129 B(  7-C , 19-C ) :  -0.4409
B(  7-C , 20-C ) :  -0.4076 B(  7-C , 25-C ) :  -0.3333 B(  7-C , 29-C ) :  -0.9193
B(  7-C , 30-H ) :   0.1341 B(  7-C , 35-Si) :  -0.1575 B(  8-H , 14-C ) :  -0.1781
B(  8-H , 19-C ) :  -0.1510 B(  9-N , 14-C ) :   0.2126 B(  9-N , 20-C ) :   0.7567
B(  9-N , 22-H ) :  -0.1130 B( 10-C , 11-C ) :   0.2753 B( 10-C , 12-C ) :   1.4401
B( 10-C , 13-C ) :  -0.6403 B( 10-C , 14-C ) :   1.6015 B( 10-C , 35-Si) :   0.5295
B( 10-C , 40-C ) :   0.2757 B( 10-C , 44-C ) :   0.1071 B( 11-C , 14-C ) :  -1.0045
B( 11-C , 48-H ) :   1.1157 B( 11-C , 49-H ) :   1.2005 B( 12-C , 13-C ) :   1.8765
B( 12-C , 14-C ) :  -0.4976 B( 12-C , 44-C ) :  -0.1649 B( 12-C , 51-H ) :   0.7332
B( 13-C , 14-C ) :   0.1704 B( 13-C , 15-C ) :   0.6651 B( 13-C , 16-H ) :  -0.1337
B( 13-C , 17-H ) :  -0.1131 B( 13-C , 18-H ) :  -0.1105 B( 13-C , 50-H ) :   0.8184
B( 14-C , 35-Si) :   0.2101 B( 15-C , 16-H ) :   1.0121 B( 15-C , 17-H ) :   1.0252
B( 15-C , 18-H ) :   0.9949 B( 19-C , 20-C ) :   0.1912 B( 19-C , 23-C ) :  -0.2060
B( 19-C , 25-C ) :   0.8801 B( 19-C , 27-C ) :  -0.4451 B( 19-C , 29-C ) :   1.0144
B( 19-C , 30-H ) :  -0.1046 B( 19-C , 31-C ) :   0.1265 B( 19-C , 33-C ) :  -0.3266
B( 20-C , 21-H ) :   1.0657 B( 20-C , 22-H ) :   0.9995 B( 20-C , 23-C ) :   1.1542
B( 23-C , 24-H ) :   1.0710 B( 23-C , 25-C ) :   0.3872 B( 23-C , 26-H ) :   1.1428
B( 25-C , 26-H ) :  -0.1778 B( 25-C , 27-C ) :   0.9257 B( 25-C , 28-H ) :  -0.1267
B( 25-C , 31-C ) :  -0.3446 B( 27-C , 28-H ) :   1.0584 B( 27-C , 31-C ) :   1.2769
B( 27-C , 32-H ) :  -0.2205 B( 27-C , 33-C ) :   0.3434 B( 29-C , 30-H ) :   1.1426
B( 29-C , 31-C ) :  -0.2250 B( 29-C , 33-C ) :   0.9137 B( 29-C , 34-H ) :  -0.1607
B( 31-C , 32-H ) :   1.1719 B( 31-C , 33-C ) :   1.3474 B( 32-H , 33-C ) :  -0.1762
B( 33-C , 34-H ) :   1.1664 B( 35-Si, 36-C ) :   0.1332 B( 35-Si, 37-H ) :   0.1022
B( 35-Si, 39-H ) :  -0.1136 B( 35-Si, 40-C ) :   0.2327 B( 35-Si, 44-C ) :   1.1737
B( 35-Si, 45-H ) :  -0.1359 B( 35-Si, 46-H ) :  -0.1750 B( 35-Si, 47-H ) :  -0.1435
B( 36-C , 37-H ) :   0.9753 B( 36-C , 38-H ) :   1.0583 B( 36-C , 39-H ) :   1.0065
B( 40-C , 41-H ) :   0.9969 B( 40-C , 42-H ) :   1.0482 B( 40-C , 43-H ) :   1.0253
B( 44-C , 45-H ) :   0.9715 B( 44-C , 46-H ) :   1.0536 B( 44-C , 47-H ) :   1.0420

MP2 TOTAL ENERGY:    -1159.889504301 Eh
FINAL SINGLE POINT ENERGY     -1159.889504301274

DIPOLE MOMENT
-------------
                                X             Y             Z
Electronic contribution:     16.65802      -2.58339      -2.05280
Nuclear contribution   :    -16.58419       2.33062       2.29798
                        -----------------------------------------
Total Dipole Moment    :      0.07384      -0.25277       0.24518
                        -----------------------------------------
Magnitude (a.u.)       :      0.35980
Magnitude (Debye)      :      0.91454

Rotational constants in cm-1:     0.013621     0.005058     0.003921
Rotational constants in MHz :   408.358459   151.641685   117.559390

                             ****ORCA TERMINATED NORMALLY****
TOTAL RUN TIME: 0 days 17 hours 13 minutes 56 seconds 77 msec
