                         Program Version 4.2.1 -  RELEASE  -
|  1> %pal
|  2>  nprocs 32
|  3> end
|  4> !RI-MP2 aug-cc-pVQZ aug-cc-pVQZ/C TightSCF
|  5> %maxcore 4500
|  6> *xyzfile 1 1  08_8P1.xyz
|  7>
|  8>
|  9>                          ****END OF INPUT****

CARTESIAN COORDINATES (ANGSTROEM)
---------------------------------
  N     -1.321615   -0.083746    0.550953
  C     -0.089539   -0.888712    0.294850
  C      1.029110    0.106093    0.030408
  H     -0.245281   -1.558427   -0.549223
  H      0.153746   -1.483509    1.175865
  O      0.867045    1.281773    0.215928
  O      2.122933   -0.488998   -0.383873
  C     -2.178127    0.146798   -0.657339
  H      2.835874    0.157828   -0.516415
  H     -2.541749   -0.812325   -1.018661
  H     -1.572566    0.639504   -1.414754
  H     -3.011348    0.786668   -0.375313
  H     -0.977234    0.834028    0.882015
  H     -1.878617   -0.504822    1.295863

 Total Charge           Charge          ....    1
 Multiplicity           Mult            ....    1
 Number of Electrons    NEL             ....   48
 Basis Dimension        Dim             ....  848

ORBITAL ENERGIES
----------------

  NO   OCC          E(Eh)            E(eV)
   0   2.0000     -20.787541      -565.6577
   1   2.0000     -20.733493      -564.1870
   2   2.0000     -15.883609      -432.2150
   3   2.0000     -11.575098      -314.9744
   4   2.0000     -11.495705      -312.8140
   5   2.0000     -11.470588      -312.1306
   6   2.0000      -1.655741       -45.0550
   7   2.0000      -1.559158       -42.4269
   8   2.0000      -1.510973       -41.1157
   9   2.0000      -1.223265       -33.2867
  10   2.0000      -1.143706       -31.1218
  11   2.0000      -1.024242       -27.8710
  12   2.0000      -0.989661       -26.9301
  13   2.0000      -0.912974       -24.8433
  14   2.0000      -0.891404       -24.2563
  15   2.0000      -0.858132       -23.3510
  16   2.0000      -0.842854       -22.9352
  17   2.0000      -0.822907       -22.3924
  18   2.0000      -0.768856       -20.9216
  19   2.0000      -0.761427       -20.7195
  20   2.0000      -0.749256       -20.3883
  21   2.0000      -0.747382       -20.3373
  22   2.0000      -0.665795       -18.1172
  23   2.0000      -0.648859       -17.6563
  24   0.0000      -0.103502        -2.8164
  25   0.0000      -0.077893        -2.1196
  26   0.0000      -0.072767        -1.9801
  27   0.0000      -0.070607        -1.9213
  28   0.0000      -0.049727        -1.3531

MULLIKEN ATOMIC CHARGES
-----------------------
   0 N :   -0.014150
   1 C :   -0.479956
   2 C :    1.038710
   3 H :    0.310870
   4 H :    0.394549
   5 O :   -0.764255
   6 O :   -0.688348
   7 C :   -0.795716
   8 H :    0.383042
   9 H :    0.308368
  10 H :    0.296330
  11 H :    0.386993
  12 H :    0.389542
  13 H :    0.234020
Sum of atomic charges:    1.0000000

LOEWDIN ATOMIC CHARGES
----------------------
   0 N :    1.127645
   1 C :    0.490251
   2 C :   -0.951273
   3 H :   -0.256377
   4 H :   -0.232640
   5 O :    0.813287
   6 O :    1.304036
   7 C :    0.981729
   8 H :   -0.738606
   9 H :   -0.238865
  10 H :   -0.241520
  11 H :   -0.227838
  12 H :   -0.510447
  13 H :   -0.319384

  Mayer bond orders larger than 0.100000
B(  0-N ,  1-C ) :   0.8927 B(  0-N ,  7-C ) :   0.8153 B(  0-N , 12-H ) :   0.8276
B(  0-N , 13-H ) :   0.9775 B(  1-C ,  2-C ) :   1.1576 B(  1-C ,  3-H ) :   0.8703
B(  1-C ,  4-H ) :   0.7919 B(  1-C ,  5-O ) :   0.1437 B(  2-C ,  5-O ) :   1.4570
B(  2-C ,  6-O ) :   0.8947 B(  6-O ,  8-H ) :   0.8962 B(  7-C ,  9-H ) :   0.9143
B(  7-C , 10-H ) :   0.9304 B(  7-C , 11-H ) :   0.8687

MP2 TOTAL ENERGY:     -323.647703827 Eh
FINAL SINGLE POINT ENERGY      -323.647703826895

DIPOLE MOMENT
-------------
                                X             Y             Z
Electronic contribution:      5.50090       1.08787       0.92395
Nuclear contribution   :     -7.35146      -1.97023      -0.53114
                        -----------------------------------------
Total Dipole Moment    :     -1.85056      -0.88236       0.39281
                        -----------------------------------------
Magnitude (a.u.)       :      2.08745
Magnitude (Debye)      :      5.30588

Rotational constants in cm-1:     0.245620     0.073334     0.065810
Rotational constants in MHz :  7363.496773  2198.489858  1972.926479

                             ****ORCA TERMINATED NORMALLY****
TOTAL RUN TIME: 0 days 0 hours 12 minutes 30 seconds 300 msec
