                         Program Version 4.2.1 -  RELEASE  -
|  1> %pal
|  2>  nprocs 32
|  3> end
|  4> !RI-MP2 aug-cc-pVQZ aug-cc-pVQZ/C TightSCF
|  5> %maxcore 4500
|  6> *xyzfile 0 1  10_33R2.xyz
|  7>
|  8>
|  9>                          ****END OF INPUT****

CARTESIAN COORDINATES (ANGSTROEM)
---------------------------------
  C      1.380543   -0.501493   -0.089382
  C     -0.060773   -0.209275   -0.050620
  C     -0.576025    1.089890   -0.066291
  C     -0.964182   -1.271896    0.000297
  C     -1.941390    1.313599   -0.016015
  H      0.096344    1.936340   -0.130453
  C     -2.332899   -1.050662    0.050561
  H     -0.583760   -2.287443    0.005287
  C     -2.828146    0.244630    0.044897
  H     -2.318830    2.329243   -0.031244
  H     -3.013058   -1.893012    0.092918
  H     -3.895969    0.422580    0.081520
  C      2.377501    0.362373    0.080598
  C      3.827476    0.003009    0.030868
  H      4.343814    0.561895   -0.755395
  H      4.326301    0.249999    0.972714
  H      3.968311   -1.062059   -0.160857
  H      2.152918    1.407425    0.277865
  H      1.631294   -1.546025   -0.261834

 Total Charge           Charge          ....    0
 Multiplicity           Mult            ....    1
 Number of Electrons    NEL             ....   64
 Basis Dimension        Dim             .... 1180

ORBITAL ENERGIES
----------------

  NO   OCC          E(Eh)            E(eV)
   0   2.0000     -11.240331      -305.8650
   1   2.0000     -11.232309      -305.6467
   2   2.0000     -11.231591      -305.6271
   3   2.0000     -11.231177      -305.6159
   4   2.0000     -11.228794      -305.5510
   5   2.0000     -11.228632      -305.5466
   6   2.0000     -11.228351      -305.5390
   7   2.0000     -11.227265      -305.5094
   8   2.0000     -11.222802      -305.3880
   9   2.0000      -1.158400       -31.5217
  10   2.0000      -1.083967       -29.4962
  11   2.0000      -1.018781       -27.7224
  12   2.0000      -1.013854       -27.5884
  13   2.0000      -0.929336       -25.2885
  14   2.0000      -0.835515       -22.7355
  15   2.0000      -0.817528       -22.2461
  16   2.0000      -0.752199       -20.4684
  17   2.0000      -0.702031       -19.1032
  18   2.0000      -0.645641       -17.5688
  19   2.0000      -0.633445       -17.2369
  20   2.0000      -0.607095       -16.5199
  21   2.0000      -0.585290       -15.9265
  22   2.0000      -0.571371       -15.5478
  23   2.0000      -0.568872       -15.4798
  24   2.0000      -0.540620       -14.7110
  25   2.0000      -0.510764       -13.8986
  26   2.0000      -0.509057       -13.8521
  27   2.0000      -0.489039       -13.3074
  28   2.0000      -0.481972       -13.1151
  29   2.0000      -0.400623       -10.9015
  30   2.0000      -0.337141        -9.1741
  31   2.0000      -0.298406        -8.1200
  32   0.0000       0.025213         0.6861
  33   0.0000       0.027008         0.7349
  34   0.0000       0.028587         0.7779
  35   0.0000       0.039131         1.0648
  36   0.0000       0.039538         1.0759

MULLIKEN ATOMIC CHARGES
-----------------------
   0 C :   -0.376669
   1 C :    0.443830
   2 C :   -0.243480
   3 C :   -0.399827
   4 C :   -0.299700
   5 H :    0.242921
   6 C :   -0.298023
   7 H :    0.237829
   8 C :   -0.401414
   9 H :    0.244631
  10 H :    0.260736
  11 H :    0.308588
  12 C :   -0.355262
  13 C :   -0.729306
  14 H :    0.242382
  15 H :    0.236100
  16 H :    0.231161
  17 H :    0.404606
  18 H :    0.250898
Sum of atomic charges:   -0.0000000

LOEWDIN ATOMIC CHARGES
----------------------
   0 C :    0.361992
   1 C :   -0.100429
   2 C :    0.329679
   3 C :    0.327495
   4 C :    0.343958
   5 H :   -0.339901
   6 C :    0.340175
   7 H :   -0.323536
   8 C :    0.333854
   9 H :   -0.320422
  10 H :   -0.321189
  11 H :   -0.323925
  12 C :    0.384334
  13 C :    0.896235
  14 H :   -0.292744
  15 H :   -0.292787
  16 H :   -0.314901
  17 H :   -0.337739
  18 H :   -0.350150

  Mayer bond orders larger than 0.100000
B(  0-C ,  1-C ) :   0.8074 B(  0-C ,  2-C ) :  -0.3283 B(  0-C ,  3-C ) :  -0.4074
B(  0-C , 12-C ) :   1.5206 B(  0-C , 13-C ) :  -0.1626 B(  0-C , 18-H ) :   0.9836
B(  1-C ,  2-C ) :   1.2045 B(  1-C ,  3-C ) :   1.0097 B(  1-C ,  4-C ) :  -0.2857
B(  1-C ,  6-C ) :  -0.3185 B(  1-C ,  7-H ) :  -0.1027 B(  1-C , 12-C ) :  -0.2863
B(  1-C , 18-H ) :  -0.1401 B(  2-C ,  4-C ) :   1.1946 B(  2-C ,  5-H ) :   1.0023
B(  2-C ,  6-C ) :   0.1228 B(  2-C ,  9-H ) :  -0.1227 B(  2-C , 12-C ) :  -0.1226
B(  3-C ,  4-C ) :   0.1071 B(  3-C ,  6-C ) :   1.2052 B(  3-C ,  7-H ) :   1.0383
B(  3-C , 10-H ) :  -0.1503 B(  4-C ,  8-C ) :   1.1727 B(  4-C ,  9-H ) :   1.1177
B(  6-C ,  8-C ) :   1.1880 B(  6-C , 10-H ) :   1.1282 B(  8-C , 10-H ) :  -0.1082
B(  8-C , 11-H ) :   1.0132 B( 12-C , 13-C ) :   0.8129 B( 12-C , 17-H ) :   0.8169
B( 13-C , 14-H ) :   0.9846 B( 13-C , 15-H ) :   1.0134 B( 13-C , 16-H ) :   0.9875

MP2 TOTAL ENERGY:     -348.303815937 Eh
FINAL SINGLE POINT ENERGY      -348.303815937436

DIPOLE MOMENT
-------------
                                X             Y             Z
Electronic contribution:     -6.62219      -0.07227      -0.07945
Nuclear contribution   :      6.82188       0.12097       0.09207
                        -----------------------------------------
Total Dipole Moment    :      0.19969       0.04870       0.01262
                        -----------------------------------------
Magnitude (a.u.)       :      0.20593
Magnitude (Debye)      :      0.52343

Rotational constants in cm-1:     0.168870     0.028982     0.024887
Rotational constants in MHz :  5062.596694   868.847244   746.090826

                             ****ORCA TERMINATED NORMALLY****
TOTAL RUN TIME: 0 days 0 hours 36 minutes 51 seconds 968 msec
