                         Program Version 4.2.1 -  RELEASE  -
|  1> %pal
|  2>  nprocs 32
|  3> end
|  4> !RI-MP2 aug-cc-pVQZ aug-cc-pVQZ/C TightSCF
|  5> %maxcore 4500
|  6> *xyzfile 0 1  10_37P.xyz
|  7>
|  8>
|  9>                          ****END OF INPUT****

CARTESIAN COORDINATES (ANGSTROEM)
---------------------------------
  C     -0.102494   -2.590145    1.067154
  N      1.119239   -2.169892    0.414155
  C     -1.320783   -1.870288    0.575100
  C      0.097070   -0.278243   -0.665035
  H      0.345638   -0.644576   -1.665733
  H      0.075197    0.805568   -0.725510
  C     -2.499782   -0.145241   -0.648672
  C     -2.654481   -2.365031    1.067303
  C     -3.678031   -0.761293   -0.514771
  C     -3.757652   -2.164718    0.026852
  C     -1.242037   -0.803207   -0.226688
  C     -3.673768   -3.185044   -1.115259
  H     -2.713804   -3.108463   -1.629908
  H     -3.779714   -4.203402   -0.732330
  H     -4.463978   -3.015103   -1.849204
  H     -0.042804   -2.453544    2.167807
  C      1.186235   -0.717345    0.308694
  H     -0.229479   -3.665735    0.902603
  S     -2.464727    1.449318   -1.443430
  C      2.296096   -2.765497    1.013060
  C      2.554696   -0.219502   -0.106675
  H      0.957803   -0.261626    1.292180
  C      3.645771   -1.079377   -0.219689
  C      3.489740   -2.541994    0.103602
  H      4.401676   -2.915736    0.576310
  H      3.341667   -3.113842   -0.817540
  H      2.112292   -3.834692    1.142427
  H      2.497452   -2.345264    2.015932
  C      2.734370    1.142810   -0.349326
  C      4.882856   -0.565935   -0.605559
  C      5.048337    0.782414   -0.868930
  C      3.966582    1.643770   -0.731019
  H      4.084859    2.704599   -0.916434
  H      1.899581    1.823956   -0.229618
  H      5.728640   -1.240379   -0.689766
  H      6.017599    1.163896   -1.166856
  C     -1.656356    2.451251   -0.211115
  C     -0.899062    3.537417   -0.643697
  C     -1.756035    2.179773    1.149796
  C     -1.085598    2.978246    2.065240
  C     -0.331503    4.061985    1.636435
  C     -0.248688    4.343060    0.279037
  H     -2.349189    1.340691    1.489751
  H     -1.158824    2.752804    3.122539
  H     -0.807060    3.738704   -1.704488
  H      0.189543    4.682609    2.354782
  H      0.338284    5.185363   -0.067230
  H     -2.915542   -1.821566    1.985550
  H     -2.590482   -3.421894    1.342418
  H     -4.723736   -2.289514    0.523494
  H     -4.587563   -0.269903   -0.840407

 Total Charge           Charge          ....    0
 Multiplicity           Mult            ....    1
 Number of Electrons    NEL             ....  192
 Basis Dimension        Dim             .... 3234

ORBITAL ENERGIES
----------------

  NO   OCC          E(Eh)            E(eV)
   0   2.0000     -91.954631     -2502.2127
   1   2.0000     -15.542722      -422.9390
   2   2.0000     -11.266846      -306.5865
   3   2.0000     -11.259478      -306.3860
   4   2.0000     -11.254654      -306.2547
   5   2.0000     -11.254474      -306.2498
   6   2.0000     -11.247368      -306.0565
   7   2.0000     -11.239369      -305.8388
   8   2.0000     -11.239091      -305.8312
   9   2.0000     -11.237297      -305.7824
  10   2.0000     -11.236983      -305.7738
  11   2.0000     -11.235758      -305.7405
  12   2.0000     -11.234684      -305.7113
  13   2.0000     -11.234339      -305.7019
  14   2.0000     -11.230182      -305.5888
  15   2.0000     -11.230100      -305.5866
  16   2.0000     -11.228887      -305.5536
  17   2.0000     -11.228449      -305.5416
  18   2.0000     -11.227761      -305.5229
  19   2.0000     -11.224113      -305.4236
  20   2.0000     -11.222793      -305.3877
  21   2.0000     -11.221954      -305.3649
  22   2.0000     -11.221378      -305.3492
  23   2.0000     -11.221154      -305.3431
  24   2.0000     -11.215411      -305.1869
  25   2.0000     -11.213050      -305.1226
  26   2.0000      -8.956504      -243.7189
  27   2.0000      -6.638115      -180.6323
  28   2.0000      -6.637164      -180.6064
  29   2.0000      -6.636392      -180.5854
  30   2.0000      -1.252537       -34.0833
  31   2.0000      -1.170063       -31.8390
  32   2.0000      -1.157103       -31.4864
  33   2.0000      -1.148993       -31.2657
  34   2.0000      -1.080039       -29.3894
  35   2.0000      -1.074964       -29.2513
  36   2.0000      -1.050913       -28.5968
  37   2.0000      -1.040745       -28.3201
  38   2.0000      -1.024677       -27.8829
  39   2.0000      -1.021094       -27.7854
  40   2.0000      -0.991843       -26.9894
  41   2.0000      -0.973803       -26.4985
  42   2.0000      -0.934060       -25.4171
  43   2.0000      -0.929088       -25.2818
  44   2.0000      -0.885647       -24.0997
  45   2.0000      -0.860307       -23.4102
  46   2.0000      -0.841806       -22.9067
  47   2.0000      -0.836082       -22.7509
  48   2.0000      -0.822088       -22.3702
  49   2.0000      -0.807687       -21.9783
  50   2.0000      -0.789202       -21.4753
  51   2.0000      -0.764767       -20.8104
  52   2.0000      -0.741979       -20.1903
  53   2.0000      -0.703868       -19.1532
  54   2.0000      -0.691545       -18.8179
  55   2.0000      -0.672522       -18.3002
  56   2.0000      -0.661903       -18.0113
  57   2.0000      -0.652424       -17.7534
  58   2.0000      -0.644854       -17.5474
  59   2.0000      -0.635640       -17.2966
  60   2.0000      -0.632231       -17.2039
  61   2.0000      -0.619116       -16.8470
  62   2.0000      -0.615886       -16.7591
  63   2.0000      -0.612866       -16.6769
  64   2.0000      -0.599307       -16.3080
  65   2.0000      -0.593583       -16.1522
  66   2.0000      -0.592325       -16.1180
  67   2.0000      -0.583226       -15.8704
  68   2.0000      -0.573767       -15.6130
  69   2.0000      -0.571148       -15.5417
  70   2.0000      -0.560803       -15.2602
  71   2.0000      -0.553656       -15.0657
  72   2.0000      -0.543124       -14.7792
  73   2.0000      -0.534364       -14.5408
  74   2.0000      -0.525430       -14.2977
  75   2.0000      -0.520495       -14.1634
  76   2.0000      -0.519617       -14.1395
  77   2.0000      -0.512048       -13.9335
  78   2.0000      -0.507781       -13.8174
  79   2.0000      -0.501407       -13.6440
  80   2.0000      -0.498907       -13.5759
  81   2.0000      -0.491773       -13.3818
  82   2.0000      -0.479542       -13.0490
  83   2.0000      -0.474012       -12.8985
  84   2.0000      -0.472184       -12.8488
  85   2.0000      -0.457872       -12.4593
  86   2.0000      -0.446536       -12.1509
  87   2.0000      -0.430891       -11.7251
  88   2.0000      -0.419885       -11.4257
  89   2.0000      -0.382791       -10.4163
  90   2.0000      -0.358386        -9.7522
  91   2.0000      -0.345152        -9.3921
  92   2.0000      -0.323851        -8.8124
  93   2.0000      -0.317200        -8.6314
  94   2.0000      -0.314713        -8.5638
  95   2.0000      -0.292177        -7.9505
  96   0.0000       0.019340         0.5263
  97   0.0000       0.023273         0.6333
  98   0.0000       0.024809         0.6751
  99   0.0000       0.027187         0.7398
 100   0.0000       0.031526         0.8579

MULLIKEN ATOMIC CHARGES
-----------------------
   0 C :   -0.319132
   1 N :   -0.188111
   2 C :    0.507139
   3 C :   -0.913072
   4 H :    0.097777
   5 H :    0.429942
   6 C :   -0.375481
   7 C :   -0.805183
   8 C :   -0.184757
   9 C :   -0.110923
  10 C :    0.991595
  11 C :   -1.099942
  12 H :    0.170180
  13 H :    0.237256
  14 H :    0.278023
  15 H :    0.198903
  16 C :    1.678265
  17 H :    0.141447
  18 S :   -0.426867
  19 C :   -0.851576
  20 C :    0.317825
  21 H :    0.266570
  22 C :    0.370747
  23 C :   -0.710302
  24 H :    0.170889
  25 H :    0.220196
  26 H :    0.207256
  27 H :    0.247276
  28 C :   -0.990277
  29 C :   -0.653718
  30 C :   -0.342915
  31 C :   -0.584873
  32 H :    0.184981
  33 H :    0.428469
  34 H :    0.220730
  35 H :    0.247555
  36 C :    0.219953
  37 C :   -0.476167
  38 C :   -0.226077
  39 C :   -0.474358
  40 C :   -0.103919
  41 C :   -0.459685
  42 H :    0.468730
  43 H :    0.160678
  44 H :    0.300221
  45 H :    0.332356
  46 H :    0.252708
  47 H :    0.234386
  48 H :    0.188185
  49 H :    0.202571
  50 H :    0.324525
Sum of atomic charges:    0.0000000

LOEWDIN ATOMIC CHARGES
----------------------
   0 C :    0.354379
   1 N :    0.538727
   2 C :    0.001707
   3 C :    0.480202
   4 H :   -0.230321
   5 H :   -0.400506
   6 C :   -0.440186
   7 C :    0.509108
   8 C :    0.283800
   9 C :    0.097444
  10 C :   -0.078021
  11 C :    0.938956
  12 H :   -0.276408
  13 H :   -0.268102
  14 H :   -0.267196
  15 H :   -0.241904
  16 C :   -0.052325
  17 H :   -0.277841
  18 S :    1.389639
  19 C :    0.354491
  20 C :   -0.018374
  21 H :   -0.252890
  22 C :   -0.036585
  23 C :    0.524813
  24 H :   -0.274661
  25 H :   -0.255972
  26 H :   -0.274350
  27 H :   -0.239023
  28 C :    0.364443
  29 C :    0.357196
  30 C :    0.349245
  31 C :    0.360622
  32 H :   -0.319160
  33 H :   -0.327193
  34 H :   -0.313421
  35 H :   -0.321286
  36 C :   -0.493754
  37 C :    0.232885
  38 C :    0.257920
  39 C :    0.347248
  40 C :    0.336745
  41 C :    0.330514
  42 H :   -0.344716
  43 H :   -0.314727
  44 H :   -0.336736
  45 H :   -0.320815
  46 H :   -0.317214
  47 H :   -0.245745
  48 H :   -0.273633
  49 H :   -0.275005
  50 H :   -0.322018

  Mayer bond orders larger than 0.100000
B(  0-C ,  1-N ) :   0.9592 B(  0-C ,  2-C ) :   0.1430 B(  0-C ,  3-C ) :   0.1498
B(  0-C , 10-C ) :  -0.4101 B(  0-C , 15-H ) :   1.1184 B(  0-C , 17-H ) :   1.2132
B(  0-C , 20-C ) :  -0.1442 B(  1-N ,  2-C ) :   0.1156 B(  1-N ,  6-C ) :   0.1067
B(  1-N , 15-H ) :  -0.1429 B(  1-N , 16-C ) :   0.6850 B(  1-N , 19-C ) :   0.6599
B(  1-N , 20-C ) :  -0.1213 B(  1-N , 27-H ) :  -0.1374 B(  2-C ,  3-C ) :  -0.3629
B(  2-C ,  5-H ) :  -0.1448 B(  2-C ,  6-C ) :  -0.1036 B(  2-C ,  9-C ) :  -0.2179
B(  2-C , 10-C ) :   1.9320 B(  2-C , 15-H ) :  -0.1705 B(  2-C , 17-H ) :  -0.2900
B(  2-C , 21-H ) :  -0.1165 B(  2-C , 48-H ) :  -0.2622 B(  3-C ,  4-H ) :   1.2687
B(  3-C ,  5-H ) :   0.8392 B(  3-C , 10-C ) :  -0.2405 B(  3-C , 16-C ) :   0.9400
B(  3-C , 28-C ) :   0.1515 B(  3-C , 33-H ) :   0.1131 B(  4-H ,  5-H ) :  -0.2002
B(  4-H , 21-H ) :   0.1583 B(  5-H , 10-C ) :   0.2564 B(  5-H , 16-C ) :   0.1520
B(  5-H , 28-C ) :  -0.1118 B(  5-H , 36-C ) :   0.1291 B(  6-C ,  8-C ) :   1.3031
B(  6-C , 10-C ) :   0.7401 B(  6-C , 18-S ) :   0.8698 B(  6-C , 36-C ) :  -0.1871
B(  7-C ,  9-C ) :   1.1107 B(  7-C , 10-C ) :  -0.2132 B(  7-C , 11-C ) :  -0.1054
B(  7-C , 47-H ) :   0.9730 B(  7-C , 48-H ) :   1.1784 B(  8-C ,  9-C ) :   0.8446
B(  8-C , 10-C ) :  -0.2076 B(  8-C , 18-S ) :  -0.1882 B(  8-C , 49-H ) :  -0.1429
B(  8-C , 50-H ) :   0.9577 B(  9-C , 11-C ) :   0.6647 B(  9-C , 49-H ) :   1.0595
B( 10-C , 16-C ) :  -0.2169 B( 10-C , 18-S ) :  -0.4838 B( 10-C , 20-C ) :   0.1234
B( 11-C , 12-H ) :   1.0262 B( 11-C , 13-H ) :   1.0372 B( 11-C , 14-H ) :   1.0218
B( 16-C , 19-C ) :  -0.2451 B( 16-C , 20-C ) :  -0.3396 B( 16-C , 21-H ) :   1.0373
B( 16-C , 22-C ) :  -0.4051 B( 16-C , 28-C ) :  -0.7734 B( 16-C , 33-H ) :   0.1520
B( 16-C , 38-C ) :  -0.1307 B( 18-S , 36-C ) :   0.8144 B( 18-S , 38-C ) :  -0.4053
B( 19-C , 20-C ) :   0.1404 B( 19-C , 23-C ) :   1.1455 B( 19-C , 24-H ) :  -0.1130
B( 19-C , 26-H ) :   1.0559 B( 19-C , 27-H ) :   1.0085 B( 20-C , 22-C ) :   1.0095
B( 20-C , 23-C ) :  -0.1889 B( 20-C , 28-C ) :   0.8934 B( 20-C , 29-C ) :  -0.5267
B( 20-C , 31-C ) :  -0.3443 B( 22-C , 23-C ) :   0.3744 B( 22-C , 24-H ) :  -0.1905
B( 22-C , 29-C ) :   0.9666 B( 22-C , 30-C ) :  -0.3405 B( 22-C , 33-H ) :  -0.1052
B( 22-C , 34-H ) :  -0.1203 B( 23-C , 24-H ) :   1.1844 B( 23-C , 25-H ) :   1.0570
B( 28-C , 30-C ) :  -0.1025 B( 28-C , 31-C ) :   1.1218 B( 28-C , 32-H ) :  -0.1933
B( 28-C , 33-H ) :   0.8576 B( 29-C , 30-C ) :   1.2898 B( 29-C , 31-C ) :   0.2387
B( 29-C , 34-H ) :   1.0649 B( 29-C , 35-H ) :  -0.2207 B( 30-C , 31-C ) :   1.2873
B( 30-C , 35-H ) :   1.1865 B( 31-C , 32-H ) :   1.1924 B( 31-C , 33-H ) :  -0.1174
B( 31-C , 35-H ) :  -0.1811 B( 36-C , 37-C ) :   1.1350 B( 36-C , 38-C ) :   0.6658
B( 36-C , 41-C ) :  -0.1285 B( 36-C , 42-H ) :  -0.2048 B( 37-C , 39-C ) :   0.1597
B( 37-C , 41-C ) :   1.3541 B( 37-C , 44-H ) :   1.0086 B( 38-C , 39-C ) :   1.1944
B( 38-C , 40-C ) :  -0.1934 B( 38-C , 42-H ) :   0.8904 B( 39-C , 40-C ) :   1.2194
B( 39-C , 42-H ) :  -0.1429 B( 39-C , 43-H ) :   1.1730 B( 39-C , 45-H ) :  -0.1111
B( 40-C , 41-C ) :   1.1721 B( 40-C , 45-H ) :   1.0350 B( 41-C , 46-H ) :   1.1161

MP2 TOTAL ENERGY:    -1380.302733244 Eh
FINAL SINGLE POINT ENERGY     -1380.302733243773

DIPOLE MOMENT
-------------
                                X             Y             Z
Electronic contribution:     -1.72821      13.99937      -5.08868
Nuclear contribution   :      1.71572     -14.50711       5.94520
                        -----------------------------------------
Total Dipole Moment    :     -0.01249      -0.50774       0.85652
                        -----------------------------------------
Magnitude (a.u.)       :      0.99578
Magnitude (Debye)      :      2.53108

Rotational constants in cm-1:     0.008015     0.005803     0.003867
Rotational constants in MHz :   240.296985   173.955296   115.940250

                             ****ORCA TERMINATED NORMALLY****
TOTAL RUN TIME: 0 days 18 hours 35 minutes 46 seconds 599 msec
