                         Program Version 4.2.1 -  RELEASE  -
|  1> %pal
|  2>  nprocs 32
|  3> end
|  4> !RI-MP2 aug-cc-pVQZ aug-cc-pVQZ/C TightSCF
|  5> %maxcore 4500
|  6> *xyzfile -1 1  10_34TS.xyz
|  7>
|  8>
|  9>                          ****END OF INPUT****

CARTESIAN COORDINATES (ANGSTROEM)
---------------------------------
  C      4.279344   -0.802370   -1.306051
  C      3.189759    0.264833   -1.454669
  C      2.293261    0.251688   -0.254669
  C      2.455273   -0.472185    0.860192
  C      3.739623   -1.222430    1.118484
  C      4.833037   -0.829406    0.119822
  H      3.647395    1.258764   -1.567124
  H      2.627653    0.092934   -2.384234
  H      3.851905   -1.786838   -1.532833
  H      5.084258   -0.630376   -2.029350
  H      4.063128   -1.028440    2.147979
  H      3.545738   -2.303148    1.064799
  H      5.205562    0.170515    0.370844
  H      5.685138   -1.515369    0.186948
  C     -0.579073   -0.900461   -0.042829
  C     -0.259843    0.551428   -0.517870
  C      1.081795    1.137461   -0.107022
  C      1.293230   -0.435627    1.739358
  C      0.062886   -1.220365    1.345805
  H     -0.187640    0.515623   -1.615728
  H     -0.688568   -1.033899    2.118686
  H      0.212408   -2.322683    1.351079
  H      1.502550   -0.517894    2.810349
  O      1.221693    2.355048    0.025373
  C     -1.547873    1.353706   -0.277968
  C     -2.159632   -0.924063    0.048591
  H     -2.409021   -0.777371    1.104173
  C     -2.614760    0.349506   -0.665202
  H     -2.603717    0.232766   -1.753905
  H     -3.599928    0.703498   -0.359677
  C     -0.043871   -1.873448   -1.102896
  H      1.033447   -1.735791   -1.203688
  H     -0.217574   -2.916321   -0.829529
  H     -0.501212   -1.695521   -2.082111
  C     -2.884490   -2.201998   -0.395435
  H     -2.517394   -2.488290   -1.386977
  C     -4.394822   -1.981888   -0.512166
  H     -4.644681   -1.249810   -1.281918
  H     -4.903593   -2.918241   -0.761208
  H     -4.806436   -1.621409    0.436362
  C     -2.623161   -3.358520    0.570614
  H     -1.559114   -3.537692    0.720223
  H     -3.052382   -3.130970    1.551763
  H     -3.083116   -4.284043    0.209807
  O     -1.771483    1.728106    1.066680
  O     -1.652900    2.549858   -1.025257
  C     -1.354784    3.652899   -0.176700
  H     -0.389313    4.079133   -0.447635
  H     -2.153385    4.391098   -0.298956
  C     -1.306743    3.057224    1.238477
  H     -0.288884    3.054745    1.626015
  H     -1.986642    3.555018    1.934280

 Total Charge           Charge          ....   -1
 Multiplicity           Mult            ....    1
 Number of Electrons    NEL             ....  174
 Basis Dimension        Dim             .... 3174

ORBITAL ENERGIES
----------------

  NO   OCC          E(Eh)            E(eV)
   0   2.0000     -20.433417      -556.0216
   1   2.0000     -20.430076      -555.9306
   2   2.0000     -20.361275      -554.0585
   3   2.0000     -11.204357      -304.8861
   4   2.0000     -11.173713      -304.0522
   5   2.0000     -11.151456      -303.4465
   6   2.0000     -11.146607      -303.3146
   7   2.0000     -11.119853      -302.5866
   8   2.0000     -11.117193      -302.5142
   9   2.0000     -11.108827      -302.2865
  10   2.0000     -11.104212      -302.1610
  11   2.0000     -11.100558      -302.0615
  12   2.0000     -11.100554      -302.0614
  13   2.0000     -11.099992      -302.0461
  14   2.0000     -11.096842      -301.9604
  15   2.0000     -11.096332      -301.9466
  16   2.0000     -11.089012      -301.7474
  17   2.0000     -11.088021      -301.7204
  18   2.0000     -11.085915      -301.6631
  19   2.0000     -11.068359      -301.1854
  20   2.0000     -11.061164      -300.9896
  21   2.0000     -11.044421      -300.5340
  22   2.0000     -10.980992      -298.8080
  23   2.0000      -1.311300       -35.6823
  24   2.0000      -1.205019       -32.7902
  25   2.0000      -1.203205       -32.7409
  26   2.0000      -1.026878       -27.9428
  27   2.0000      -0.994474       -27.0610
  28   2.0000      -0.964091       -26.2342
  29   2.0000      -0.924560       -25.1586
  30   2.0000      -0.893661       -24.3177
  31   2.0000      -0.877408       -23.8755
  32   2.0000      -0.860334       -23.4109
  33   2.0000      -0.838354       -22.8128
  34   2.0000      -0.828477       -22.5440
  35   2.0000      -0.808558       -22.0020
  36   2.0000      -0.764536       -20.8041
  37   2.0000      -0.735193       -20.0056
  38   2.0000      -0.726764       -19.7763
  39   2.0000      -0.708507       -19.2794
  40   2.0000      -0.680591       -18.5198
  41   2.0000      -0.668902       -18.2017
  42   2.0000      -0.632072       -17.1995
  43   2.0000      -0.624952       -17.0058
  44   2.0000      -0.589972       -16.0540
  45   2.0000      -0.564185       -15.3523
  46   2.0000      -0.554810       -15.0972
  47   2.0000      -0.536594       -14.6015
  48   2.0000      -0.531491       -14.4626
  49   2.0000      -0.520986       -14.1767
  50   2.0000      -0.507102       -13.7990
  51   2.0000      -0.493515       -13.4292
  52   2.0000      -0.491068       -13.3626
  53   2.0000      -0.488399       -13.2900
  54   2.0000      -0.470485       -12.8026
  55   2.0000      -0.465891       -12.6775
  56   2.0000      -0.459252       -12.4969
  57   2.0000      -0.456017       -12.4089
  58   2.0000      -0.450574       -12.2607
  59   2.0000      -0.442805       -12.0493
  60   2.0000      -0.439265       -11.9530
  61   2.0000      -0.434183       -11.8147
  62   2.0000      -0.423285       -11.5182
  63   2.0000      -0.420296       -11.4368
  64   2.0000      -0.416269       -11.3273
  65   2.0000      -0.403453       -10.9785
  66   2.0000      -0.399421       -10.8688
  67   2.0000      -0.387075       -10.5328
  68   2.0000      -0.385272       -10.4838
  69   2.0000      -0.383236       -10.4284
  70   2.0000      -0.374106       -10.1799
  71   2.0000      -0.368206       -10.0194
  72   2.0000      -0.359891        -9.7931
  73   2.0000      -0.357273        -9.7219
  74   2.0000      -0.350242        -9.5306
  75   2.0000      -0.346910        -9.4399
  76   2.0000      -0.340242        -9.2585
  77   2.0000      -0.335809        -9.1378
  78   2.0000      -0.326805        -8.8928
  79   2.0000      -0.317283        -8.6337
  80   2.0000      -0.296374        -8.0648
  81   2.0000      -0.290695        -7.9102
  82   2.0000      -0.283500        -7.7144
  83   2.0000      -0.269470        -7.3327
  84   2.0000      -0.233591        -6.3563
  85   2.0000      -0.185790        -5.0556
  86   2.0000      -0.058946        -1.6040
  87   0.0000       0.082177         2.2361
  88   0.0000       0.088633         2.4118
  89   0.0000       0.091388         2.4868
  90   0.0000       0.094761         2.5786
  91   0.0000       0.096778         2.6335

MULLIKEN ATOMIC CHARGES
-----------------------
   0 C :   -0.558379
   1 C :   -0.649732
   2 C :    0.583528
   3 C :    0.652990
   4 C :   -0.572784
   5 C :   -0.674734
   6 H :    0.118591
   7 H :    0.234432
   8 H :    0.138647
   9 H :    0.166661
  10 H :    0.201155
  11 H :    0.121234
  12 H :    0.135357
  13 H :    0.206705
  14 C :    1.739957
  15 C :   -1.370826
  16 C :    2.369789
  17 C :   -1.226730
  18 C :   -0.365929
  19 H :    0.006881
  20 H :    0.339311
  21 H :   -0.034496
  22 H :   -0.059947
  23 O :   -1.502057
  24 C :    2.896667
  25 C :    1.441776
  26 H :    0.053623
  27 C :   -1.018740
  28 H :    0.231556
  29 H :    0.141157
  30 C :   -1.671370
  31 H :    0.266115
  32 H :    0.126607
  33 H :    0.087935
  34 C :    0.160349
  35 H :   -0.016624
  36 C :   -1.084709
  37 H :    0.142707
  38 H :    0.226712
  39 H :    0.108198
  40 C :   -1.129962
  41 H :    0.295553
  42 H :    0.069624
  43 H :    0.170160
  44 O :   -1.189443
  45 O :   -1.437368
  46 C :   -0.549473
  47 H :    0.358113
  48 H :    0.394938
  49 C :   -0.718587
  50 H :    0.320269
  51 H :    0.324591
Sum of atomic charges:   -1.0000000

LOEWDIN ATOMIC CHARGES
----------------------
   0 C :    0.502566
   1 C :    0.501735
   2 C :   -0.112880
   3 C :   -0.117127
   4 C :    0.517897
   5 C :    0.507654
   6 H :   -0.269528
   7 H :   -0.270673
   8 H :   -0.270751
   9 H :   -0.265054
  10 H :   -0.276577
  11 H :   -0.268321
  12 H :   -0.268266
  13 H :   -0.267184
  14 C :   -0.168499
  15 C :    0.090488
  16 C :   -0.670229
  17 C :    0.348530
  18 C :    0.463490
  19 H :   -0.317326
  20 H :   -0.321511
  21 H :   -0.291803
  22 H :   -0.363952
  23 O :    0.773660
  24 C :   -0.973475
  25 C :    0.155224
  26 H :   -0.319359
  27 C :    0.489216
  28 H :   -0.248057
  29 H :   -0.259184
  30 C :    0.926115
  31 H :   -0.298306
  32 H :   -0.290652
  33 H :   -0.255991
  34 C :    0.130306
  35 H :   -0.299755
  36 C :    0.920198
  37 H :   -0.291003
  38 H :   -0.276379
  39 H :   -0.265822
  40 C :    0.933317
  41 H :   -0.317167
  42 H :   -0.263466
  43 H :   -0.265359
  44 O :    0.936340
  45 O :    0.919886
  46 C :    0.170604
  47 H :   -0.351123
  48 H :   -0.306286
  49 C :    0.177643
  50 H :   -0.362356
  51 H :   -0.301446

  Mayer bond orders larger than 0.100000
B(  0-C ,  1-C ) :   0.7964 B(  0-C ,  2-C ) :  -0.2788 B(  0-C ,  5-C ) :   0.8495
B(  0-C ,  8-H ) :   1.1092 B(  0-C ,  9-H ) :   1.0852 B(  1-C ,  6-H ) :   1.2757
B(  1-C ,  7-H ) :   1.0811 B(  2-C ,  3-C ) :   1.6420 B(  2-C ,  6-H ) :  -0.3229
B(  2-C ,  7-H ) :  -0.1220 B(  2-C , 11-H ) :   0.1002 B(  2-C , 14-C ) :   0.1653
B(  2-C , 15-C ) :  -0.3474 B(  2-C , 16-C ) :   0.8245 B(  2-C , 19-H ) :  -0.1293
B(  2-C , 23-O ) :   0.1322 B(  3-C , 10-H ) :  -0.2976 B(  3-C , 11-H ) :  -0.1939
B(  3-C , 16-C ) :  -0.2351 B(  3-C , 17-C ) :   0.1722 B(  3-C , 22-H ) :  -0.2381
B(  4-C ,  5-C ) :   0.9083 B(  4-C , 10-H ) :   1.1622 B(  4-C , 11-H ) :   1.1405
B(  5-C , 12-H ) :   1.1300 B(  5-C , 13-H ) :   1.0349 B( 14-C , 15-C ) :   0.9086
B( 14-C , 16-C ) :  -0.1439 B( 14-C , 17-C ) :   0.3608 B( 14-C , 18-C ) :  -0.3707
B( 14-C , 20-H ) :  -0.1960 B( 14-C , 21-H ) :  -0.3011 B( 14-C , 25-C ) :   0.8375
B( 14-C , 26-H ) :   0.1164 B( 14-C , 27-C ) :   0.2958 B( 14-C , 30-C ) :  -0.6209
B( 14-C , 32-H ) :  -0.3546 B( 14-C , 33-H ) :  -0.4213 B( 14-C , 34-C ) :   0.1353
B( 14-C , 40-C ) :   0.2404 B( 15-C , 16-C ) :   1.2923 B( 15-C , 17-C ) :  -0.1756
B( 15-C , 18-C ) :   0.1063 B( 15-C , 19-H ) :   1.2618 B( 15-C , 21-H ) :  -0.1312
B( 15-C , 23-O ) :   1.5416 B( 15-C , 24-C ) :   0.8056 B( 15-C , 25-C ) :   0.1817
B( 15-C , 27-C ) :  -0.4110 B( 15-C , 30-C ) :  -0.1479 B( 15-C , 31-H ) :  -0.1011
B( 15-C , 44-O ) :   0.3165 B( 15-C , 45-O ) :   0.5257 B( 15-C , 46-C ) :   0.1216
B( 15-C , 49-C ) :   0.2480 B( 15-C , 50-H ) :   0.1410 B( 16-C , 17-C ) :   0.2487
B( 16-C , 23-O ) :  -1.5027 B( 16-C , 24-C ) :   0.1920 B( 16-C , 45-O ) :   0.1135
B( 16-C , 49-C ) :  -0.1850 B( 17-C , 21-H ) :   0.1936 B( 17-C , 22-H ) :   1.4560
B( 17-C , 25-C ) :   0.1482 B( 18-C , 20-H ) :   1.0940 B( 18-C , 21-H ) :   1.3690
B( 18-C , 22-H ) :  -0.2686 B( 19-H , 44-O ) :   0.1167 B( 19-H , 45-O ) :  -0.1069
B( 23-O , 24-C ) :   0.2394 B( 24-C , 25-C ) :  -0.2053 B( 24-C , 27-C ) :   1.3725
B( 24-C , 44-O ) :  -0.1068 B( 24-C , 45-O ) :  -0.9941 B( 24-C , 46-C ) :  -0.6828
B( 24-C , 47-H ) :  -0.1748 B( 24-C , 49-C ) :  -0.5898 B( 24-C , 50-H ) :  -0.1468
B( 25-C , 26-H ) :   1.0508 B( 25-C , 27-C ) :   0.2044 B( 25-C , 28-H ) :  -0.1243
B( 25-C , 29-H ) :  -0.1775 B( 25-C , 31-H ) :  -0.1158 B( 25-C , 34-C ) :  -0.2235
B( 25-C , 36-C ) :  -0.3221 B( 25-C , 39-H ) :  -0.1029 B( 25-C , 40-C ) :  -0.5458
B( 26-H , 34-C ) :  -0.1225 B( 26-H , 44-O ) :  -0.1980 B( 27-C , 28-H ) :   1.1730
B( 27-C , 29-H ) :   1.1548 B( 28-H , 45-O ) :  -0.1149 B( 29-H , 45-O ) :   0.1115
B( 30-C , 31-H ) :   1.0867 B( 30-C , 32-H ) :   1.3954 B( 30-C , 33-H ) :   1.4303
B( 32-H , 33-H ) :   0.1261 B( 34-C , 35-H ) :   1.2446 B( 34-C , 36-C ) :   0.3592
B( 34-C , 37-H ) :  -0.1893 B( 34-C , 38-H ) :  -0.1854 B( 34-C , 39-H ) :  -0.1627
B( 34-C , 40-C ) :   0.4922 B( 34-C , 42-H ) :  -0.2782 B( 34-C , 43-H ) :  -0.1643
B( 36-C , 37-H ) :   1.2057 B( 36-C , 38-H ) :   1.1076 B( 36-C , 39-H ) :   1.2028
B( 36-C , 40-C ) :   0.1234 B( 40-C , 41-H ) :   0.9517 B( 40-C , 42-H ) :   1.2695
B( 40-C , 43-H ) :   1.1671 B( 44-O , 45-O ) :   0.2208 B( 44-O , 46-C ) :   0.1491
B( 44-O , 49-C ) :   1.1229 B( 45-O , 46-C ) :   1.0759 B( 45-O , 49-C ) :   0.1839
B( 46-C , 47-H ) :   0.8848 B( 46-C , 48-H ) :   0.8369 B( 46-C , 49-C ) :   1.3446
B( 47-H , 49-C ) :   0.1038 B( 49-C , 50-H ) :   0.8855 B( 49-C , 51-H ) :   0.8981

MP2 TOTAL ENERGY:    -1003.521025963 Eh
FINAL SINGLE POINT ENERGY     -1003.521025963154

DIPOLE MOMENT
-------------
                                X             Y             Z
Electronic contribution:      1.89431      18.97533       0.75962
Nuclear contribution   :     -3.24257     -19.78968      -1.94516
                        -----------------------------------------
Total Dipole Moment    :     -1.34825      -0.81435      -1.18554
                        -----------------------------------------
Magnitude (a.u.)       :      1.97141
Magnitude (Debye)      :      5.01093

Rotational constants in cm-1:     0.012492     0.007418     0.005500
Rotational constants in MHz :   374.510586   222.387969   164.898828

                             ****ORCA TERMINATED NORMALLY****
TOTAL RUN TIME: 0 days 21 hours 18 minutes 45 seconds 521 msec
