                         Program Version 4.2.1 -  RELEASE  -
|  1> %pal
|  2>  nprocs 32
|  3> end
|  4> !RI-MP2 aug-cc-pVQZ aug-cc-pVQZ/C TightSCF
|  5> %maxcore 4500
|  6> *xyzfile 0 1  03_5P2.xyz
|  7>
|  8>
|  9>                          ****END OF INPUT****

CARTESIAN COORDINATES (ANGSTROEM)
---------------------------------
  C     -0.002065    0.338508    0.017708
  C      0.042280    1.237885   -1.206828
  C      0.087301    1.127566    1.312503
  H      0.005614    0.653224   -2.125464
  H      0.964010    1.819980   -1.202156
  H     -0.806872    1.924197   -1.189474
  H      1.012210    1.706388    1.333325
  H      0.076128    0.467646    2.179713
  H     -0.762078    1.808948    1.381623
  S     -1.538480   -0.639883   -0.084503
  H     -1.376838   -1.293767    1.078219
  Cl     1.455200   -0.768956   -0.049650

 Total Charge           Charge          ....    0
 Multiplicity           Mult            ....    1
 Number of Electrons    NEL             ....   58
 Basis Dimension        Dim             ....  730

ORBITAL ENERGIES
----------------

  NO   OCC          E(Eh)            E(eV)
   0   2.0000    -104.821569     -2852.3399
   1   2.0000     -91.964387     -2502.4782
   2   2.0000     -11.342855      -308.6548
   3   2.0000     -11.240439      -305.8679
   4   2.0000     -11.239574      -305.8444
   5   2.0000     -10.547483      -287.0116
   6   2.0000      -8.967254      -244.0114
   7   2.0000      -8.014383      -218.0824
   8   2.0000      -8.012799      -218.0393
   9   2.0000      -8.012782      -218.0389
  10   2.0000      -6.648717      -180.9208
  11   2.0000      -6.647781      -180.8953
  12   2.0000      -6.646851      -180.8700
  13   2.0000      -1.166617       -31.7453
  14   2.0000      -1.037033       -28.2191
  15   2.0000      -0.966145       -26.2902
  16   2.0000      -0.964007       -26.2320
  17   2.0000      -0.763471       -20.7751
  18   2.0000      -0.643388       -17.5075
  19   2.0000      -0.628352       -17.0983
  20   2.0000      -0.612906       -16.6780
  21   2.0000      -0.571158       -15.5420
  22   2.0000      -0.530660       -14.4400
  23   2.0000      -0.520634       -14.1672
  24   2.0000      -0.516792       -14.0626
  25   2.0000      -0.477979       -13.0065
  26   2.0000      -0.438034       -11.9195
  27   2.0000      -0.430408       -11.7120
  28   2.0000      -0.370214       -10.0740
  29   0.0000       0.025428         0.6919
  30   0.0000       0.033055         0.8995
  31   0.0000       0.037651         1.0245
  32   0.0000       0.041914         1.1405
  33   0.0000       0.052937         1.4405

MULLIKEN ATOMIC CHARGES
-----------------------
   0 C :    0.631767
   1 C :   -0.909204
   2 C :   -0.935162
   3 H :    0.336062
   4 H :    0.313364
   5 H :    0.270632
   6 H :    0.253563
   7 H :    0.326275
   8 H :    0.302075
   9 S :   -0.136003
  10 H :    0.017025
  11 Cl:   -0.470394
Sum of atomic charges:    0.0000000

LOEWDIN ATOMIC CHARGES
----------------------
   0 C :   -1.369191
   1 C :    0.671879
   2 C :    0.691027
   3 H :   -0.324426
   4 H :   -0.310313
   5 H :   -0.302962
   6 H :   -0.309590
   7 H :   -0.327272
   8 H :   -0.303059
   9 S :    1.536611
  10 H :   -0.770872
  11 Cl:    1.118168

  Mayer bond orders larger than 0.100000
B(  0-C ,  1-C ) :   0.7677 B(  0-C ,  2-C ) :   0.7996 B(  0-C ,  9-S ) :   0.7350
B(  0-C , 11-Cl) :   0.4889 B(  1-C ,  3-H ) :   0.9413 B(  1-C ,  4-H ) :   0.9204
B(  1-C ,  5-H ) :   0.9154 B(  2-C ,  6-H ) :   0.9329 B(  2-C ,  7-H ) :   0.9429
B(  2-C ,  8-H ) :   0.8990 B(  9-S , 10-H ) :   1.0588

MP2 TOTAL ENERGY:     -975.780978373 Eh
FINAL SINGLE POINT ENERGY      -975.780978373040

DIPOLE MOMENT
-------------
                                X             Y             Z
Electronic contribution:      2.65779      -7.36567      -1.20260
Nuclear contribution   :     -2.87802       8.08228       1.50628
                        -----------------------------------------
Total Dipole Moment    :     -0.22023       0.71661       0.30368
                        -----------------------------------------
Magnitude (a.u.)       :      0.80886
Magnitude (Debye)      :      2.05596

Rotational constants in cm-1:     0.120775     0.079579     0.070125
Rotational constants in MHz :  3620.755935  2385.708406  2102.300165

                             ****ORCA TERMINATED NORMALLY****
TOTAL RUN TIME: 0 days 0 hours 8 minutes 46 seconds 944 msec
