                         Program Version 4.2.1 -  RELEASE  -
|  1> %pal
|  2>  nprocs 32
|  3> end
|  4> !RI-MP2 aug-cc-pVQZ aug-cc-pVQZ/C TightSCF
|  5> %maxcore 4500
|  6> *xyzfile 1 1  04_5R1.xyz
|  7>
|  8>
|  9>                          ****END OF INPUT****

CARTESIAN COORDINATES (ANGSTROEM)
---------------------------------
  C      0.250197   -1.217854    0.000001
  C      0.973598   -0.014357    0.000024
  C      0.279863    1.205645    0.000016
  C     -1.086143    1.189079   -0.000019
  H     -1.731530   -2.057368   -0.000052
  H      0.775255   -2.162822    0.000010
  H     -1.683654    2.090416   -0.000028
  H     -2.765193    0.030366   -0.000074
  N     -1.751751    0.018510   -0.000042
  C     -1.111486   -1.171545   -0.000033
  O      2.286519   -0.109366    0.000047
  H      2.736253    0.745715    0.000097
  H      0.802796    2.153249    0.000034

 Total Charge           Charge          ....    1
 Multiplicity           Mult            ....    1
 Number of Electrons    NEL             ....   50
 Basis Dimension        Dim             ....  836

ORBITAL ENERGIES
----------------

  NO   OCC          E(Eh)            E(eV)
   0   2.0000     -20.786972      -565.6423
   1   2.0000     -15.842170      -431.0874
   2   2.0000     -11.534406      -313.8672
   3   2.0000     -11.504901      -313.0643
   4   2.0000     -11.499579      -312.9194
   5   2.0000     -11.433121      -311.1110
   6   2.0000     -11.426324      -310.9261
   7   2.0000      -1.620310       -44.0909
   8   2.0000      -1.521224       -41.3946
   9   2.0000      -1.293297       -35.1924
  10   2.0000      -1.261202       -34.3190
  11   2.0000      -1.095301       -29.8047
  12   2.0000      -1.081102       -29.4183
  13   2.0000      -0.979043       -26.6411
  14   2.0000      -0.955763       -26.0076
  15   2.0000      -0.901942       -24.5431
  16   2.0000      -0.843403       -22.9502
  17   2.0000      -0.823826       -22.4174
  18   2.0000      -0.808004       -21.9869
  19   2.0000      -0.787731       -21.4353
  20   2.0000      -0.764626       -20.8065
  21   2.0000      -0.763477       -20.7753
  22   2.0000      -0.712492       -19.3879
  23   2.0000      -0.568248       -15.4628
  24   2.0000      -0.563007       -15.3202
  25   0.0000      -0.100548        -2.7360
  26   0.0000      -0.092572        -2.5190
  27   0.0000      -0.076235        -2.0745
  28   0.0000      -0.075967        -2.0672
  29   0.0000      -0.067715        -1.8426

MULLIKEN ATOMIC CHARGES
-----------------------
   0 C :   -0.407950
   1 C :    1.061037
   2 C :   -0.504873
   3 C :   -0.089783
   4 H :    0.466322
   5 H :    0.389035
   6 H :    0.469749
   7 H :    0.154825
   8 N :   -0.393264
   9 C :   -0.136351
  10 O :   -0.706647
  11 H :    0.386629
  12 H :    0.311272
Sum of atomic charges:    1.0000000

LOEWDIN ATOMIC CHARGES
----------------------
   0 C :    0.399241
   1 C :   -0.392905
   2 C :    0.414520
   3 C :    0.306113
   4 H :   -0.260703
   5 H :   -0.301348
   6 H :   -0.259223
   7 H :   -0.414128
   8 N :    0.884696
   9 C :    0.307647
  10 O :    1.341797
  11 H :   -0.724158
  12 H :   -0.301549

  Mayer bond orders larger than 0.100000
B(  0-C ,  1-C ) :   1.1690 B(  0-C ,  4-H ) :  -0.1037 B(  0-C ,  5-H ) :   0.8804
B(  0-C ,  9-C ) :   1.3239 B(  0-C , 10-O ) :   0.2108 B(  1-C ,  2-C ) :   1.2372
B(  1-C ,  3-C ) :  -0.1695 B(  1-C ,  9-C ) :  -0.2041 B(  1-C , 10-O ) :   0.3955
B(  2-C ,  3-C ) :   1.2768 B(  2-C ,  6-H ) :  -0.1098 B(  2-C , 10-O ) :   0.2119
B(  2-C , 12-H ) :   0.9618 B(  3-C ,  6-H ) :   0.8774 B(  3-C ,  8-N ) :   1.0390
B(  3-C , 12-H ) :  -0.1045 B(  4-H ,  9-C ) :   0.9089 B(  5-H ,  9-C ) :  -0.1140
B(  7-H ,  8-N ) :   1.1330 B(  8-N ,  9-C ) :   0.9653 B( 10-O , 11-H ) :   0.8591

MP2 TOTAL ENERGY:     -323.369443849 Eh
FINAL SINGLE POINT ENERGY      -323.369443848693

DIPOLE MOMENT
-------------
                                X             Y             Z
Electronic contribution:      0.56326      -0.18777       0.00001
Nuclear contribution   :     -1.83404       0.79522      -0.00001
                        -----------------------------------------
Total Dipole Moment    :     -1.27078       0.60745      -0.00001
                        -----------------------------------------
Magnitude (a.u.)       :      1.40850
Magnitude (Debye)      :      3.58012

Rotational constants in cm-1:     0.192625     0.088210     0.060503
Rotational constants in MHz :  5774.745617  2644.478224  1813.847609

                             ****ORCA TERMINATED NORMALLY****
TOTAL RUN TIME: 0 days 0 hours 15 minutes 52 seconds 460 msec
