                         Program Version 4.2.1 -  RELEASE  -
|  1> %pal
|  2>  nprocs 32
|  3> end
|  4> !RI-MP2 aug-cc-pVQZ aug-cc-pVQZ/C TightSCF
|  5> %maxcore 4500
|  6> *xyzfile 0 1  02_32TS.xyz
|  7>
|  8>
|  9>                          ****END OF INPUT****

CARTESIAN COORDINATES (ANGSTROEM)
---------------------------------
  C      1.566800   -0.228769   -0.139568
  N      1.221477   -0.697890    1.092994
  N      0.020614   -1.127784    1.226387
  C     -0.772662   -1.101652    0.124606
  N     -0.207094   -1.224856   -1.110602
  N      0.988388   -0.791635   -1.247304
  C      0.351828    1.556272   -0.149162
  C     -0.939501    1.233490   -0.059564
  C     -0.321788    1.825159    1.163921
  H      1.001694    2.073957   -0.834188
  H     -0.577166    2.848570    1.439342
  H     -0.079693    1.181777    2.005378
  C     -2.179783   -1.571790    0.295555
  H     -2.745963   -1.426013   -0.621763
  H     -2.175967   -2.638279    0.530050
  H     -2.661264   -1.049487    1.121686
  C      2.952628    0.311914   -0.291788
  H      3.170332    1.021204    0.505488
  H      3.672625   -0.506325   -0.229227
  H      3.065733    0.793555   -1.262019
  C     -2.201041    1.363792   -0.827908
  H     -2.105877    0.918631   -1.818687
  H     -3.049977    0.917342   -0.312235
  H     -2.417059    2.429713   -0.950697

 Total Charge           Charge          ....    0
 Multiplicity           Mult            ....    1
 Number of Electrons    NEL             ....   88
 Basis Dimension        Dim             .... 1512

ORBITAL ENERGIES
----------------

  NO   OCC          E(Eh)            E(eV)
   0   2.0000     -15.622937      -425.1217
   1   2.0000     -15.622539      -425.1109
   2   2.0000     -15.621292      -425.0770
   3   2.0000     -15.620500      -425.0554
   4   2.0000     -11.323515      -308.1285
   5   2.0000     -11.317914      -307.9761
   6   2.0000     -11.271616      -306.7163
   7   2.0000     -11.255146      -306.2681
   8   2.0000     -11.248245      -306.0803
   9   2.0000     -11.244938      -305.9903
  10   2.0000     -11.234014      -305.6931
  11   2.0000     -11.233812      -305.6876
  12   2.0000      -1.423825       -38.7443
  13   2.0000      -1.320062       -35.9207
  14   2.0000      -1.184559       -32.2335
  15   2.0000      -1.171620       -31.8814
  16   2.0000      -1.037471       -28.2310
  17   2.0000      -0.998817       -27.1792
  18   2.0000      -0.973895       -26.5010
  19   2.0000      -0.952378       -25.9155
  20   2.0000      -0.876392       -23.8478
  21   2.0000      -0.834287       -22.7021
  22   2.0000      -0.767470       -20.8839
  23   2.0000      -0.752137       -20.4667
  24   2.0000      -0.686673       -18.6853
  25   2.0000      -0.675569       -18.3832
  26   2.0000      -0.652411       -17.7530
  27   2.0000      -0.612976       -16.6799
  28   2.0000      -0.604040       -16.4368
  29   2.0000      -0.593949       -16.1622
  30   2.0000      -0.584157       -15.8957
  31   2.0000      -0.576592       -15.6899
  32   2.0000      -0.572365       -15.5748
  33   2.0000      -0.565433       -15.3862
  34   2.0000      -0.547932       -14.9100
  35   2.0000      -0.531767       -14.4701
  36   2.0000      -0.503100       -13.6900
  37   2.0000      -0.491958       -13.3869
  38   2.0000      -0.486181       -13.2296
  39   2.0000      -0.468552       -12.7500
  40   2.0000      -0.439817       -11.9680
  41   2.0000      -0.376174       -10.2362
  42   2.0000      -0.373324       -10.1586
  43   2.0000      -0.346249        -9.4219
  44   0.0000       0.020546         0.5591
  45   0.0000       0.025299         0.6884
  46   0.0000       0.030626         0.8334
  47   0.0000       0.031860         0.8670
  48   0.0000       0.038485         1.0472

MULLIKEN ATOMIC CHARGES
-----------------------
   0 C :    1.166565
   1 N :   -0.548213
   2 N :   -0.496099
   3 C :    1.247195
   4 N :   -0.404659
   5 N :   -0.491745
   6 C :   -0.545078
   7 C :    0.264059
   8 C :   -0.670140
   9 H :    0.238532
  10 H :    0.406816
  11 H :    0.289210
  12 C :   -0.972053
  13 H :    0.272322
  14 H :    0.339749
  15 H :    0.238723
  16 C :   -1.029043
  17 H :    0.241919
  18 H :    0.336454
  19 H :    0.277107
  20 C :   -0.847375
  21 H :    0.165527
  22 H :    0.219302
  23 H :    0.300923
Sum of atomic charges:   -0.0000000

LOEWDIN ATOMIC CHARGES
----------------------
   0 C :   -0.748203
   1 N :    0.363585
   2 N :    0.361297
   3 C :   -0.705395
   4 N :    0.359431
   5 N :    0.365096
   6 C :    0.316835
   7 C :   -0.067944
   8 C :    0.593791
   9 H :   -0.273531
  10 H :   -0.269642
  11 H :   -0.351038
  12 C :    0.860968
  13 H :   -0.312786
  14 H :   -0.275370
  15 H :   -0.288202
  16 C :    0.865369
  17 H :   -0.288741
  18 H :   -0.277722
  19 H :   -0.298525
  20 C :    0.942821
  21 H :   -0.280563
  22 H :   -0.316272
  23 H :   -0.275259

  Mayer bond orders larger than 0.100000
B(  0-C ,  1-N ) :   0.7114 B(  0-C ,  3-C ) :   0.2091 B(  0-C ,  5-N ) :   0.7338
B(  0-C ,  6-C ) :   0.3294 B(  0-C , 16-C ) :   0.3300 B(  0-C , 17-H ) :  -0.1184
B(  0-C , 18-H ) :  -0.1869 B(  1-N ,  2-N ) :   0.8098 B(  2-N ,  3-C ) :   0.5794
B(  2-N ,  4-N ) :   0.1110 B(  2-N ,  7-C ) :   0.1143 B(  3-C ,  4-N ) :   0.6649
B(  3-C ,  7-C ) :   0.2104 B(  3-C , 12-C ) :   0.3817 B(  3-C , 14-H ) :  -0.1433
B(  3-C , 15-H ) :  -0.1264 B(  4-N ,  5-N ) :   0.7213 B(  5-N ,  6-C ) :   0.1342
B(  6-C ,  7-C ) :   0.8177 B(  6-C ,  8-C ) :   0.9566 B(  6-C ,  9-H ) :   1.0833
B(  7-C ,  8-C ) :   0.7592 B(  7-C , 20-C ) :   0.3417 B(  7-C , 21-H ) :  -0.1818
B(  7-C , 22-H ) :  -0.1231 B(  7-C , 23-H ) :  -0.1021 B(  8-C , 10-H ) :   0.8194
B(  8-C , 11-H ) :   0.9935 B( 12-C , 13-H ) :   1.0289 B( 12-C , 14-H ) :   0.9557
B( 12-C , 15-H ) :   1.0727 B( 16-C , 17-H ) :   1.0760 B( 16-C , 18-H ) :   0.9799
B( 16-C , 19-H ) :   1.0240 B( 20-C , 21-H ) :   1.1464 B( 20-C , 22-H ) :   1.0772
B( 20-C , 23-H ) :   0.9608

MP2 TOTAL ENERGY:     -530.028007531 Eh
FINAL SINGLE POINT ENERGY      -530.028007531303

DIPOLE MOMENT
-------------
                                X             Y             Z
Electronic contribution:      4.37906      -5.46563       0.24697
Nuclear contribution   :     -4.92223       6.58426      -0.42985
                        -----------------------------------------
Total Dipole Moment    :     -0.54317       1.11863      -0.18289
                        -----------------------------------------
Magnitude (a.u.)       :      1.25691
Magnitude (Debye)      :      3.19481

Rotational constants in cm-1:     0.046491     0.033834     0.027082
Rotational constants in MHz :  1393.759555  1014.313069   811.912019

                             ****ORCA TERMINATED NORMALLY****
TOTAL RUN TIME: 0 days 1 hours 50 minutes 23 seconds 220 msec
