                         Program Version 4.2.1 -  RELEASE  -
|  1> %pal
|  2>  nprocs 32
|  3> end
|  4> !RI-MP2 aug-cc-pVQZ aug-cc-pVQZ/C TightSCF
|  5> %maxcore 4500
|  6> *xyzfile 0 2  04_64P.xyz
|  7>
|  8>
|  9>                          ****END OF INPUT****

CARTESIAN COORDINATES (ANGSTROEM)
---------------------------------
  N      1.706148    0.175150   -0.772175
  S      1.330046   -1.281217   -0.092272
  O     -0.087595   -0.984267    0.595569
  C     -1.207603   -0.686263   -0.265836
  C     -2.382233   -0.370759    0.634265
  H     -1.403175   -1.554732   -0.897032
  H     -0.946425    0.165640   -0.897222
  C     -3.626138   -0.110448   -0.139371
  H     -2.134717    0.490835    1.263658
  H     -2.520562   -1.215969    1.325914
  C     -4.778896    0.598428    0.477013
  H     -3.780460   -0.643481   -1.073452
  C      2.392210    1.280762   -0.051159
  C      3.851645    0.930868    0.247706
  C      1.635551    1.604726    1.234637
  C      2.321837    2.470264   -1.007393
  H      2.831458    2.248791   -1.949247
  H      2.812971    3.336383   -0.561096
  H      1.285443    2.730647   -1.227533
  H      3.918567    0.074722    0.917153
  H      4.351853    1.781531    0.715599
  H      4.386001    0.691443   -0.675254
  H      1.662850    0.773248    1.938251
  H      0.593228    1.846795    1.021111
  H      2.099209    2.468886    1.713227
  O      2.186041   -1.611079    1.016959
  O      1.139974   -2.185654   -1.203190
  C     -5.899817    0.916429   -0.507413
  H     -4.425955    1.521900    0.954378
  H     -5.184048   -0.006943    1.304485
  H     -5.540718    1.560233   -1.313408
  H     -6.729051    1.426024   -0.013419
  H     -6.292193    0.002775   -0.960418
  H      2.045252    0.018658   -1.713508

 Total Charge           Charge          ....    0
 Multiplicity           Mult            ....    2
 Number of Electrons    NEL             ....  121
 Basis Dimension        Dim             .... 2044

ORBITAL ENERGIES
----------------
                 SPIN UP ORBITALS
  NO   OCC          E(Eh)            E(eV)
   0   1.0000     -92.223922     -2509.5405
   1   1.0000     -20.610273      -560.8340
   2   1.0000     -20.551941      -559.2468
   3   1.0000     -20.549346      -559.1761
   4   1.0000     -15.597270      -424.4233
   5   1.0000     -11.298293      -307.4422
   6   1.0000     -11.293192      -307.3034
   7   1.0000     -11.237740      -305.7945
   8   1.0000     -11.235335      -305.7290
   9   1.0000     -11.231756      -305.6316
  10   1.0000     -11.229057      -305.5582
  11   1.0000     -11.222188      -305.3713
  12   1.0000     -11.219043      -305.2857
  13   1.0000     -11.217592      -305.2462
  14   1.0000      -9.183652      -249.8999
  15   1.0000      -6.870216      -186.9481
  16   1.0000      -6.869576      -186.9307
  17   1.0000      -6.868680      -186.9063
  18   1.0000      -1.503480       -40.9118
  19   1.0000      -1.384587       -37.6765
  20   1.0000      -1.351660       -36.7806
  21   1.0000      -1.246290       -33.9133
  22   1.0000      -1.107433       -30.1348
  23   1.0000      -1.080794       -29.4099
  24   1.0000      -1.037866       -28.2418
  25   1.0000      -0.956645       -26.0316
  26   1.0000      -0.949232       -25.8299
  27   1.0000      -0.944475       -25.7005
  28   1.0000      -0.867323       -23.6010
  29   1.0000      -0.842489       -22.9253
  30   1.0000      -0.798800       -21.7365
  31   1.0000      -0.784833       -21.3564
  32   1.0000      -0.737385       -20.0653
  33   1.0000      -0.717378       -19.5208
  34   1.0000      -0.679457       -18.4890
  35   1.0000      -0.676715       -18.4144
  36   1.0000      -0.656754       -17.8712
  37   1.0000      -0.632585       -17.2135
  38   1.0000      -0.625631       -17.0243
  39   1.0000      -0.615095       -16.7376
  40   1.0000      -0.603151       -16.4126
  41   1.0000      -0.602644       -16.3988
  42   1.0000      -0.577691       -15.7198
  43   1.0000      -0.573075       -15.5942
  44   1.0000      -0.565871       -15.3981
  45   1.0000      -0.559070       -15.2131
  46   1.0000      -0.546897       -14.8818
  47   1.0000      -0.533649       -14.5213
  48   1.0000      -0.526206       -14.3188
  49   1.0000      -0.521994       -14.2042
  50   1.0000      -0.515743       -14.0341
  51   1.0000      -0.507605       -13.8126
  52   1.0000      -0.501422       -13.6444
  53   1.0000      -0.494417       -13.4538
  54   1.0000      -0.493864       -13.4387
  55   1.0000      -0.490500       -13.3472
  56   1.0000      -0.479796       -13.0559
  57   1.0000      -0.477610       -12.9964
  58   1.0000      -0.474931       -12.9235
  59   1.0000      -0.422777       -11.5043
  60   1.0000      -0.341152        -9.2832
  61   0.0000       0.018260         0.4969
  62   0.0000       0.023763         0.6466
  63   0.0000       0.026796         0.7291
  64   0.0000       0.031401         0.8545
  65   0.0000       0.035317         0.9610

                 SPIN DOWN ORBITALS
  NO   OCC          E(Eh)            E(eV)
   0   1.0000     -92.223925     -2509.5406
   1   1.0000     -20.610300      -560.8348
   2   1.0000     -20.551943      -559.2468
   3   1.0000     -20.549348      -559.1762
   4   1.0000     -15.597274      -424.4234
   5   1.0000     -11.297666      -307.4251
   6   1.0000     -11.293191      -307.3034
   7   1.0000     -11.238467      -305.8142
   8   1.0000     -11.232228      -305.6444
   9   1.0000     -11.231756      -305.6316
  10   1.0000     -11.222188      -305.3713
  11   1.0000     -11.218692      -305.2761
  12   1.0000     -11.217592      -305.2462
  13   1.0000     -11.213671      -305.1395
  14   1.0000      -9.183656      -249.9000
  15   1.0000      -6.870226      -186.9484
  16   1.0000      -6.869578      -186.9307
  17   1.0000      -6.868681      -186.9063
  18   1.0000      -1.503471       -40.9115
  19   1.0000      -1.384557       -37.6757
  20   1.0000      -1.351667       -36.7807
  21   1.0000      -1.246296       -33.9134
  22   1.0000      -1.085339       -29.5336
  23   1.0000      -1.077199       -29.3121
  24   1.0000      -1.036810       -28.2130
  25   1.0000      -0.956052       -26.0155
  26   1.0000      -0.948695       -25.8153
  27   1.0000      -0.926129       -25.2013
  28   1.0000      -0.864617       -23.5274
  29   1.0000      -0.841593       -22.9009
  30   1.0000      -0.789427       -21.4814
  31   1.0000      -0.761566       -20.7233
  32   1.0000      -0.733556       -19.9611
  33   1.0000      -0.716285       -19.4911
  34   1.0000      -0.677542       -18.4369
  35   1.0000      -0.672093       -18.2886
  36   1.0000      -0.656369       -17.8607
  37   1.0000      -0.627658       -17.0794
  38   1.0000      -0.613757       -16.7012
  39   1.0000      -0.611273       -16.6336
  40   1.0000      -0.602139       -16.3850
  41   1.0000      -0.595878       -16.2147
  42   1.0000      -0.575303       -15.6548
  43   1.0000      -0.569445       -15.4954
  44   1.0000      -0.562245       -15.2995
  45   1.0000      -0.552402       -15.0316
  46   1.0000      -0.546592       -14.8735
  47   1.0000      -0.532608       -14.4930
  48   1.0000      -0.524898       -14.2832
  49   1.0000      -0.517686       -14.0869
  50   1.0000      -0.515521       -14.0280
  51   1.0000      -0.503492       -13.7007
  52   1.0000      -0.496298       -13.5050
  53   1.0000      -0.492708       -13.4073
  54   1.0000      -0.489567       -13.3218
  55   1.0000      -0.487786       -13.2733
  56   1.0000      -0.478226       -13.0132
  57   1.0000      -0.476894       -12.9769
  58   1.0000      -0.473034       -12.8719
  59   1.0000      -0.422688       -11.5019
  60   0.0000       0.018233         0.4961
  61   0.0000       0.023777         0.6470
  62   0.0000       0.026835         0.7302
  63   0.0000       0.031471         0.8564
  64   0.0000       0.035405         0.9634

MULLIKEN ATOMIC CHARGES AND SPIN POPULATIONS
--------------------------------------------
   0 N :   -0.564369   -0.000281
   1 S :    3.325600   -0.000258
   2 O :   -1.122159   -0.005825
   3 C :    0.173223    0.064259
   4 C :   -0.446244   -0.221556
   5 H :    0.392824    0.004832
   6 H :    0.234884   -0.012712
   7 C :   -0.631592    1.233142
   8 H :    0.290443    0.021707
   9 H :    0.321271    0.090428
  10 C :   -0.303651   -0.194343
  11 H :    0.384048   -0.107960
  12 C :    1.447082   -0.000026
  13 C :   -1.076241   -0.000017
  14 C :   -1.116146    0.000395
  15 C :   -1.111825   -0.000156
  16 H :    0.236275   -0.000019
  17 H :    0.276305   -0.000011
  18 H :    0.250324    0.000088
  19 H :    0.266490    0.000005
  20 H :    0.279736   -0.000007
  21 H :    0.213295   -0.000012
  22 H :    0.252301   -0.000272
  23 H :    0.310947   -0.000032
  24 H :    0.217239   -0.000033
  25 O :   -1.429224   -0.000073
  26 O :   -1.496612   -0.000057
  27 C :   -0.913101    0.020454
  28 H :    0.213270    0.037243
  29 H :    0.281599    0.079870
  30 H :    0.206073   -0.004126
  31 H :    0.284013   -0.002808
  32 H :    0.223339   -0.001892
  33 H :    0.130584    0.000052
Sum of atomic charges         :    0.0000000

LOEWDIN ATOMIC CHARGES AND SPIN POPULATIONS
-------------------------------------------
   0 N :    0.707844   -0.000068
   1 S :   -0.647142    0.000014
   2 O :    0.654450    0.001634
   3 C :    0.104605    0.017050
   4 C :    0.467496    0.132760
   5 H :   -0.311683    0.000239
   6 H :   -0.310530    0.006558
   7 C :    0.451564    0.455514
   8 H :   -0.292743    0.013450
   9 H :   -0.272173    0.029352
  10 C :    0.471783    0.133819
  11 H :   -0.297823    0.144174
  12 C :   -0.484512    0.000005
  13 C :    0.905874   -0.000001
  14 C :    0.889498    0.000041
  15 C :    0.898270    0.000007
  16 H :   -0.269098    0.000000
  17 H :   -0.268623   -0.000000
  18 H :   -0.269056    0.000009
  19 H :   -0.330381   -0.000001
  20 H :   -0.269846   -0.000000
  21 H :   -0.269573   -0.000001
  22 H :   -0.306314    0.000002
  23 H :   -0.277224    0.000088
  24 H :   -0.267118    0.000003
  25 O :    0.350637   -0.000037
  26 O :    0.343066   -0.000005
  27 C :    0.907710    0.012299
  28 H :   -0.290739    0.019261
  29 H :   -0.276182    0.028576
  30 H :   -0.285392    0.004071
  31 H :   -0.284062    0.000659
  32 H :   -0.288515    0.000535
  33 H :   -0.584066   -0.000006

  Mayer bond orders larger than 0.100000
B(  0-N ,  1-S ) :   0.9405 B(  0-N , 12-C ) :   0.2716 B(  0-N , 25-O ) :   0.1066
B(  0-N , 33-H ) :   1.1936 B(  1-S ,  2-O ) :   0.4802 B(  1-S , 25-O ) :   0.5483
B(  1-S , 26-O ) :   0.8788 B(  2-O ,  3-C ) :   0.7279 B(  2-O ,  4-C ) :   0.1193
B(  3-C ,  4-C ) :   1.1845 B(  3-C ,  5-H ) :   0.8411 B(  3-C ,  6-H ) :   0.8452
B(  3-C ,  7-C ) :  -0.2968 B(  3-C , 26-O ) :  -0.1219 B(  4-C ,  7-C ) :   0.8709
B(  4-C ,  8-H ) :   0.8273 B(  4-C ,  9-H ) :   0.7193 B(  7-C ,  9-H ) :   0.1084
B(  7-C , 10-C ) :   0.7843 B(  7-C , 11-H ) :   0.8745 B(  7-C , 27-C ) :  -0.1309
B( 10-C , 27-C ) :   1.0450 B( 10-C , 28-H ) :   0.8884 B( 10-C , 29-H ) :   0.8314
B( 12-C , 13-C ) :   0.3055 B( 12-C , 14-C ) :   0.3845 B( 12-C , 15-C ) :   0.2573
B( 12-C , 16-H ) :  -0.1395 B( 12-C , 17-H ) :  -0.1084 B( 12-C , 18-H ) :  -0.1733
B( 12-C , 19-H ) :  -0.1144 B( 12-C , 20-H ) :  -0.1159 B( 12-C , 21-H ) :  -0.1377
B( 12-C , 22-H ) :  -0.1266 B( 12-C , 23-H ) :  -0.1205 B( 13-C , 14-C ) :   0.1074
B( 13-C , 15-C ) :   0.1294 B( 13-C , 19-H ) :   1.0251 B( 13-C , 20-H ) :   0.9909
B( 13-C , 21-H ) :   1.0834 B( 14-C , 15-C ) :   0.1098 B( 14-C , 22-H ) :   1.0233
B( 14-C , 23-H ) :   0.9792 B( 14-C , 24-H ) :   1.0527 B( 15-C , 16-H ) :   1.0489
B( 15-C , 17-H ) :   1.0089 B( 15-C , 18-H ) :   1.0663 B( 25-O , 26-O ) :   0.1095
B( 27-C , 30-H ) :   0.9749 B( 27-C , 31-H ) :   1.0029 B( 27-C , 32-H ) :   0.9430

MP2 TOTAL ENERGY:    -1032.114280390 Eh
FINAL SINGLE POINT ENERGY     -1032.114280389510

DIPOLE MOMENT
-------------
                                X             Y             Z
Electronic contribution:     12.55378     -16.24452      -0.30259
Nuclear contribution   :    -13.23726      18.07420      -0.12577
                        -----------------------------------------
Total Dipole Moment    :     -0.68349       1.82968      -0.42837
                        -----------------------------------------
Magnitude (a.u.)       :      1.99960
Magnitude (Debye)      :      5.08257

Rotational constants in cm-1:     0.032611     0.008986     0.007879
Rotational constants in MHz :   977.641455   269.394834   236.216877

                             ****ORCA TERMINATED NORMALLY****
TOTAL RUN TIME: 0 days 4 hours 14 minutes 48 seconds 4 msec
