                         Program Version 4.2.1 -  RELEASE  -
|  1> %pal
|  2>  nprocs 32
|  3> end
|  4> !RI-MP2 aug-cc-pVQZ aug-cc-pVQZ/C TightSCF
|  5> %maxcore 4500
|  6> *xyzfile 0 1  04_59P2.xyz
|  7>
|  8>
|  9>                          ****END OF INPUT****

CARTESIAN COORDINATES (ANGSTROEM)
---------------------------------
  C     -0.691964    1.188907   -0.000000
  C      0.691964    1.188907    0.000001
  C      1.413079   -0.005357    0.000001
  C      0.695332   -1.193912    0.000001
  C     -0.695332   -1.193912   -0.000000
  C     -1.413079   -0.005357   -0.000001
  H     -1.225787    2.133677   -0.000000
  H     -1.227802   -2.138860   -0.000001
  H      1.227802   -2.138860    0.000002
  H      1.225787    2.133677    0.000001
  C      2.917851    0.005520   -0.000001
  H      3.309163    0.521154   -0.880514
  H      3.320400   -1.008127    0.000029
  C     -2.917851    0.005520   -0.000000
  H     -3.320400   -1.008127   -0.000017
  H     -3.309163    0.521166    0.880506
  H     -3.309164    0.521196   -0.880488
  H      3.309165    0.521208    0.880480

 Total Charge           Charge          ....    0
 Multiplicity           Mult            ....    1
 Number of Electrons    NEL             ....   58
 Basis Dimension        Dim             .... 1100

ORBITAL ENERGIES
----------------

  NO   OCC          E(Eh)            E(eV)
   0   2.0000     -11.231958      -305.6371
   1   2.0000     -11.231950      -305.6369
   2   2.0000     -11.224546      -305.4354
   3   2.0000     -11.223819      -305.4156
   4   2.0000     -11.223260      -305.4004
   5   2.0000     -11.222588      -305.3821
   6   2.0000     -11.219332      -305.2935
   7   2.0000     -11.219332      -305.2935
   8   2.0000      -1.155109       -31.4321
   9   2.0000      -1.061027       -28.8720
  10   2.0000      -1.008530       -27.4435
  11   2.0000      -0.971930       -26.4476
  12   2.0000      -0.893737       -24.3198
  13   2.0000      -0.825415       -22.4607
  14   2.0000      -0.780895       -21.2492
  15   2.0000      -0.667463       -18.1626
  16   2.0000      -0.644359       -17.5339
  17   2.0000      -0.623632       -16.9699
  18   2.0000      -0.578090       -15.7306
  19   2.0000      -0.577556       -15.7161
  20   2.0000      -0.568182       -15.4610
  21   2.0000      -0.553134       -15.0516
  22   2.0000      -0.547433       -14.8964
  23   2.0000      -0.522211       -14.2101
  24   2.0000      -0.480807       -13.0834
  25   2.0000      -0.477728       -12.9996
  26   2.0000      -0.476274       -12.9601
  27   2.0000      -0.332847        -9.0572
  28   2.0000      -0.312991        -8.5169
  29   0.0000       0.026492         0.7209
  30   0.0000       0.027033         0.7356
  31   0.0000       0.030050         0.8177
  32   0.0000       0.040109         1.0914
  33   0.0000       0.040565         1.1038

MULLIKEN ATOMIC CHARGES
-----------------------
   0 C :   -0.343286
   1 C :   -0.343290
   2 C :    0.475173
   3 C :   -0.407426
   4 C :   -0.407421
   5 C :    0.475258
   6 H :    0.267992
   7 H :    0.143893
   8 H :    0.143860
   9 H :    0.267973
  10 C :   -0.811989
  11 H :    0.228020
  12 H :    0.219635
  13 C :   -0.812076
  14 H :    0.219629
  15 H :    0.228027
  16 H :    0.228020
  17 H :    0.228009
Sum of atomic charges:    0.0000000

LOEWDIN ATOMIC CHARGES
----------------------
   0 C :    0.344099
   1 C :    0.344099
   2 C :   -0.082082
   3 C :    0.348629
   4 C :    0.348629
   5 C :   -0.082081
   6 H :   -0.313151
   7 H :   -0.320548
   8 H :   -0.320548
   9 H :   -0.313151
  10 C :    0.901303
  11 H :   -0.284193
  12 H :   -0.309864
  13 C :    0.901303
  14 H :   -0.309864
  15 H :   -0.284193
  16 H :   -0.284194
  17 H :   -0.284194

  Mayer bond orders larger than 0.100000
B(  0-C ,  1-C ) :   1.3175 B(  0-C ,  2-C ) :  -0.1440 B(  0-C ,  3-C ) :   0.1631
B(  0-C ,  5-C ) :   0.9662 B(  0-C ,  6-H ) :   1.0202 B(  0-C ,  9-H ) :  -0.1309
B(  1-C ,  2-C ) :   0.9661 B(  1-C ,  4-C ) :   0.1632 B(  1-C ,  5-C ) :  -0.1439
B(  1-C ,  6-H ) :  -0.1309 B(  1-C ,  9-H ) :   1.0203 B(  2-C ,  3-C ) :   0.9899
B(  2-C ,  4-C ) :  -0.2184 B(  2-C ,  8-H ) :  -0.1239 B(  2-C ,  9-H ) :  -0.1014
B(  2-C , 10-C ) :   0.6210 B(  2-C , 11-H ) :  -0.1171 B(  2-C , 12-H ) :  -0.1209
B(  2-C , 17-H ) :  -0.1171 B(  3-C ,  4-C ) :   1.3187 B(  3-C ,  5-C ) :  -0.2184
B(  3-C ,  7-H ) :  -0.1706 B(  3-C ,  8-H ) :   1.1742 B(  4-C ,  5-C ) :   0.9898
B(  4-C ,  7-H ) :   1.1742 B(  4-C ,  8-H ) :  -0.1706 B(  5-C ,  6-H ) :  -0.1014
B(  5-C ,  7-H ) :  -0.1239 B(  5-C , 13-C ) :   0.6210 B(  5-C , 14-H ) :  -0.1209
B(  5-C , 15-H ) :  -0.1171 B(  5-C , 16-H ) :  -0.1171 B( 10-C , 11-H ) :   1.0346
B( 10-C , 12-H ) :   1.0453 B( 10-C , 17-H ) :   1.0346 B( 13-C , 14-H ) :   1.0453
B( 13-C , 15-H ) :   1.0346 B( 13-C , 16-H ) :   1.0346

MP2 TOTAL ENERGY:     -310.290985780 Eh
FINAL SINGLE POINT ENERGY      -310.290985779607

DIPOLE MOMENT
-------------
                                X             Y             Z
Electronic contribution:     -0.00000      -0.02968       0.00000
Nuclear contribution   :      0.00000       0.05961      -0.00000
                        -----------------------------------------
Total Dipole Moment    :     -0.00000       0.02993      -0.00000
                        -----------------------------------------
Magnitude (a.u.)       :      0.02993
Magnitude (Debye)      :      0.07609

Rotational constants in cm-1:     0.181521     0.048003     0.038506
Rotational constants in MHz :  5441.869757  1439.103896  1154.378910

                             ****ORCA TERMINATED NORMALLY****
TOTAL RUN TIME: 0 days 0 hours 33 minutes 59 seconds 162 msec
