                         Program Version 4.2.1 -  RELEASE  -
|  1> %pal
|  2>  nprocs 32
|  3> end
|  4> !RI-MP2 aug-cc-pVQZ aug-cc-pVQZ/C TightSCF
|  5> %maxcore 4500
|  6> *xyzfile -1 1  07_7P.xyz
|  7>
|  8>
|  9>                          ****END OF INPUT****

CARTESIAN COORDINATES (ANGSTROEM)
---------------------------------
  C     -0.881603    0.978902    0.349601
  C     -2.374385    0.632262    0.244353
  C     -2.537792   -0.837857    0.693427
  H     -2.915880    1.264992    0.948458
  C     -1.575963   -1.761349   -0.036028
  C     -0.151345   -1.274406    0.005518
  O     -0.160450    0.068952   -0.458884
  C     -0.552525    2.390480   -0.199765
  C      0.886514   -1.988943   -0.827001
  O      2.203756   -1.672644   -0.401881
  H      0.755808   -1.713513   -1.877518
  H      0.771976   -3.068017   -0.723682
  P      2.669772   -0.181494    0.131059
  O      2.048953    0.086506    1.469720
  O      2.527134    0.831679   -0.974713
  O      4.245189   -0.508906    0.341664
  H      4.714928   -0.347656   -0.481686
  O     -1.960950   -2.786598   -0.553548
  O     -3.859993   -1.295836    0.547980
  H     -2.241773   -0.890661    1.748649
  H     -3.802821   -2.128036    0.056870
  O     -1.347407    3.286993   -0.045202
  O      0.608085    2.571441   -0.781028
  H      1.250770    1.789263   -0.845793
  O     -0.482293    0.895543    1.680204
  H      0.501655    0.751594    1.703515
  C     -2.921375    0.840223   -1.163532
  H     -3.947356    0.477266   -1.217215
  H     -2.907929    1.897915   -1.421059
  H     -2.324746    0.298232   -1.902003
  H      0.173435   -1.301876    1.051649

 Total Charge           Charge          ....   -1
 Multiplicity           Mult            ....    1
 Number of Electrons    NEL             ....  156
 Basis Dimension        Dim             .... 2076

ORBITAL ENERGIES
----------------

  NO   OCC          E(Eh)            E(eV)
   0   2.0000     -79.939357     -2175.2605
   1   2.0000     -20.478880      -557.2587
   2   2.0000     -20.472329      -557.0804
   3   2.0000     -20.468015      -556.9630
   4   2.0000     -20.457427      -556.6749
   5   2.0000     -20.452873      -556.5510
   6   2.0000     -20.450931      -556.4981
   7   2.0000     -20.441090      -556.2303
   8   2.0000     -20.409225      -555.3632
   9   2.0000     -20.369699      -554.2877
  10   2.0000     -20.369327      -554.2776
  11   2.0000     -11.252066      -306.1843
  12   2.0000     -11.250693      -306.1469
  13   2.0000     -11.246093      -306.0218
  14   2.0000     -11.198865      -304.7366
  15   2.0000     -11.197875      -304.7097
  16   2.0000     -11.190836      -304.5181
  17   2.0000     -11.139859      -303.1310
  18   2.0000     -11.113419      -302.4115
  19   2.0000      -7.455291      -202.8688
  20   2.0000      -5.354712      -145.7091
  21   2.0000      -5.353837      -145.6853
  22   2.0000      -5.352519      -145.6494
  23   2.0000      -1.347854       -36.6770
  24   2.0000      -1.328404       -36.1477
  25   2.0000      -1.309549       -35.6346
  26   2.0000      -1.293499       -35.1979
  27   2.0000      -1.273837       -34.6629
  28   2.0000      -1.245585       -33.8941
  29   2.0000      -1.235611       -33.6227
  30   2.0000      -1.222735       -33.2723
  31   2.0000      -1.173978       -31.9456
  32   2.0000      -1.137738       -30.9594
  33   2.0000      -0.990093       -26.9418
  34   2.0000      -0.962379       -26.1877
  35   2.0000      -0.871347       -23.7106
  36   2.0000      -0.828832       -22.5537
  37   2.0000      -0.779123       -21.2010
  38   2.0000      -0.743379       -20.2284
  39   2.0000      -0.703829       -19.1521
  40   2.0000      -0.665671       -18.1138
  41   2.0000      -0.662289       -18.0218
  42   2.0000      -0.639500       -17.4017
  43   2.0000      -0.636416       -17.3178
  44   2.0000      -0.611823       -16.6485
  45   2.0000      -0.591343       -16.0913
  46   2.0000      -0.581657       -15.8277
  47   2.0000      -0.572130       -15.5685
  48   2.0000      -0.548115       -14.9150
  49   2.0000      -0.538226       -14.6459
  50   2.0000      -0.527446       -14.3525
  51   2.0000      -0.522481       -14.2174
  52   2.0000      -0.520444       -14.1620
  53   2.0000      -0.497230       -13.5303
  54   2.0000      -0.489184       -13.3114
  55   2.0000      -0.479397       -13.0451
  56   2.0000      -0.474685       -12.9168
  57   2.0000      -0.460460       -12.5297
  58   2.0000      -0.455587       -12.3972
  59   2.0000      -0.443035       -12.0556
  60   2.0000      -0.441401       -12.0111
  61   2.0000      -0.428763       -11.6672
  62   2.0000      -0.425054       -11.5663
  63   2.0000      -0.421603       -11.4724
  64   2.0000      -0.411584       -11.1998
  65   2.0000      -0.410004       -11.1568
  66   2.0000      -0.395134       -10.7521
  67   2.0000      -0.384123       -10.4525
  68   2.0000      -0.378419       -10.2973
  69   2.0000      -0.370308       -10.0766
  70   2.0000      -0.354772        -9.6538
  71   2.0000      -0.346099        -9.4178
  72   2.0000      -0.338065        -9.1992
  73   2.0000      -0.335158        -9.1201
  74   2.0000      -0.322985        -8.7889
  75   2.0000      -0.313846        -8.5402
  76   2.0000      -0.305458        -8.3119
  77   2.0000      -0.296225        -8.0607
  78   0.0000       0.096381         2.6227
  79   0.0000       0.099928         2.7192
  80   0.0000       0.103233         2.8091
  81   0.0000       0.107242         2.9182
  82   0.0000       0.112439         3.0596

MULLIKEN ATOMIC CHARGES
-----------------------
   0 C :    2.172650
   1 C :   -0.249384
   2 C :    0.689853
   3 H :    0.278568
   4 C :    1.039720
   5 C :    0.260676
   6 O :   -0.888012
   7 C :    1.238110
   8 C :   -0.035635
   9 O :   -1.029720
  10 H :    0.121771
  11 H :    0.315047
  12 P :    2.824286
  13 O :   -1.317545
  14 O :   -1.277939
  15 O :   -1.182470
  16 H :    0.373382
  17 O :   -1.115978
  18 O :   -1.165480
  19 H :    0.384026
  20 H :    0.328658
  21 O :   -1.000322
  22 O :   -1.081442
  23 H :    0.471453
  24 O :   -1.337729
  25 H :    0.384486
  26 C :   -1.165388
  27 H :    0.229851
  28 H :    0.269167
  29 H :    0.187257
  30 H :    0.278081
Sum of atomic charges:   -1.0000000

LOEWDIN ATOMIC CHARGES
----------------------
   0 C :   -1.022729
   1 C :    0.055849
   2 C :   -0.244896
   3 H :   -0.275577
   4 C :   -0.602174
   5 C :   -0.298730
   6 O :    0.896532
   7 C :   -1.087252
   8 C :    0.095789
   9 O :    0.698564
  10 H :   -0.301324
  11 H :   -0.320997
  12 P :   -1.081946
  13 O :    0.503626
  14 O :    0.527936
  15 O :    1.052734
  16 H :   -0.919831
  17 O :    0.810928
  18 O :    1.296436
  19 H :   -0.310426
  20 H :   -0.929007
  21 O :    0.676399
  22 O :    1.219897
  23 H :   -1.251438
  24 O :    1.299075
  25 H :   -1.137986
  26 C :    0.916404
  27 H :   -0.290238
  28 H :   -0.310784
  29 H :   -0.273897
  30 H :   -0.390935

  Mayer bond orders larger than 0.100000
B(  0-C ,  1-C ) :   0.6319 B(  0-C ,  6-O ) :   0.4233 B(  0-C ,  7-C ) :   1.0970
B(  0-C , 13-O ) :  -0.2666 B(  0-C , 21-O ) :   0.2768 B(  0-C , 24-O ) :  -0.4320
B(  0-C , 25-H ) :  -0.1191 B(  0-C , 26-C ) :  -0.1094 B(  1-C ,  2-C ) :   0.8825
B(  1-C ,  3-H ) :   0.9721 B(  1-C ,  6-O ) :  -0.1324 B(  1-C , 18-O ) :   0.2255
B(  1-C , 24-O ) :   0.1578 B(  1-C , 26-C ) :   0.5444 B(  1-C , 27-H ) :  -0.1388
B(  1-C , 29-H ) :  -0.1036 B(  2-C ,  4-C ) :   1.2907 B(  2-C ,  5-C ) :  -0.1688
B(  2-C , 17-O ) :   0.3090 B(  2-C , 18-O ) :  -0.2136 B(  2-C , 19-H ) :   0.9291
B(  4-C ,  5-C ) :   0.7523 B(  4-C , 17-O ) :  -0.2118 B(  4-C , 18-O ) :   0.3093
B(  5-C ,  6-O ) :   0.5930 B(  5-C ,  8-C ) :   0.4772 B(  5-C ,  9-O ) :  -0.1666
B(  5-C , 10-H ) :  -0.2049 B(  5-C , 13-O ) :  -0.1415 B(  5-C , 17-O ) :   0.6231
B(  5-C , 30-H ) :   0.9610 B(  7-C , 21-O ) :   0.8805 B(  7-C , 22-O ) :   0.6175
B(  7-C , 24-O ) :   0.3464 B(  8-C ,  9-O ) :   0.7432 B(  8-C , 10-H ) :   1.1173
B(  8-C , 11-H ) :   0.9828 B(  8-C , 14-O ) :  -0.1324 B(  9-O , 12-P ) :   0.6334
B(  9-O , 15-O ) :  -0.1420 B( 12-P , 13-O ) :   1.2043 B( 12-P , 14-O ) :   1.0969
B( 13-O , 15-O ) :  -0.1401 B( 13-O , 25-H ) :   0.2386 B( 14-O , 23-H ) :   0.1238
B( 15-O , 16-H ) :   0.9207 B( 17-O , 18-O ) :   0.1051 B( 18-O , 20-H ) :   0.9064
B( 21-O , 22-O ) :   0.2793 B( 22-O , 23-H ) :   0.6861 B( 24-O , 25-H ) :   0.7696
B( 26-C , 27-H ) :   1.0922 B( 26-C , 28-H ) :   1.0536 B( 26-C , 29-H ) :   1.0551

MP2 TOTAL ENERGY:    -1404.184764545 Eh
FINAL SINGLE POINT ENERGY     -1404.184764545051

DIPOLE MOMENT
-------------
                                X             Y             Z
Electronic contribution:     11.30664       0.62314       2.32253
Nuclear contribution   :    -12.11930      -2.69974      -2.98901
                        -----------------------------------------
Total Dipole Moment    :     -0.81265      -2.07660      -0.66649
                        -----------------------------------------
Magnitude (a.u.)       :      2.32742
Magnitude (Debye)      :      5.91582

Rotational constants in cm-1:     0.018428     0.010192     0.007604
Rotational constants in MHz :   552.459247   305.544302   227.958947

                             ****ORCA TERMINATED NORMALLY****
TOTAL RUN TIME: 0 days 5 hours 10 minutes 10 seconds 952 msec
