                         Program Version 4.2.1 -  RELEASE  -
|  1> %pal
|  2>  nprocs 32
|  3> end
|  4> !RI-MP2 aug-cc-pVQZ aug-cc-pVQZ/C TightSCF
|  5> %maxcore 4500
|  6> *xyzfile 0 1  04_44P2.xyz
|  7>
|  8>
|  9>                          ****END OF INPUT****

CARTESIAN COORDINATES (ANGSTROEM)
---------------------------------
  C     -1.835649    0.000000    0.013038
  C     -1.121767   -1.200378    0.005299
  C      0.261928   -1.196702   -0.010276
  C      0.971284    0.000000   -0.007298
  C      0.261928    1.196702   -0.010276
  C     -1.121767    1.200378    0.005298
  S      2.759815    0.000000   -0.077669
  H     -1.657916   -2.142940    0.011042
  H      0.801714   -2.135223   -0.025071
  H      0.801714    2.135223   -0.025070
  H     -1.657916    2.142940    0.011041
  N     -3.222700    0.000000    0.073403
  H     -3.684799    0.840892   -0.233378
  H     -3.684799   -0.840890   -0.233385
  H      2.988126   -0.000005    1.248995

 Total Charge           Charge          ....    0
 Multiplicity           Mult            ....    1
 Number of Electrons    NEL             ....   66
 Basis Dimension        Dim             ....  966

ORBITAL ENERGIES
----------------

  NO   OCC          E(Eh)            E(eV)
   0   2.0000     -91.949787     -2502.0809
   1   2.0000     -15.572177      -423.7405
   2   2.0000     -11.287941      -307.1605
   3   2.0000     -11.251538      -306.1699
   4   2.0000     -11.243336      -305.9467
   5   2.0000     -11.243229      -305.9438
   6   2.0000     -11.228983      -305.5562
   7   2.0000     -11.228964      -305.5556
   8   2.0000      -8.951691      -243.5879
   9   2.0000      -6.633316      -180.5017
  10   2.0000      -6.632431      -180.4776
  11   2.0000      -6.631617      -180.4555
  12   2.0000      -1.235861       -33.6295
  13   2.0000      -1.146043       -31.1854
  14   2.0000      -1.029363       -28.0104
  15   2.0000      -1.023861       -27.8607
  16   2.0000      -0.928280       -25.2598
  17   2.0000      -0.845334       -23.0027
  18   2.0000      -0.804270       -21.8853
  19   2.0000      -0.711262       -19.3544
  20   2.0000      -0.701082       -19.0774
  21   2.0000      -0.641779       -17.4637
  22   2.0000      -0.609913       -16.5966
  23   2.0000      -0.602244       -16.3879
  24   2.0000      -0.591453       -16.0942
  25   2.0000      -0.550453       -14.9786
  26   2.0000      -0.536788       -14.6067
  27   2.0000      -0.499904       -13.6031
  28   2.0000      -0.473860       -12.8944
  29   2.0000      -0.443849       -12.0777
  30   2.0000      -0.362170        -9.8551
  31   2.0000      -0.347509        -9.4562
  32   2.0000      -0.301937        -8.2161
  33   0.0000       0.020126         0.5477
  34   0.0000       0.028040         0.7630
  35   0.0000       0.032549         0.8857
  36   0.0000       0.043389         1.1807
  37   0.0000       0.043498         1.1836

MULLIKEN ATOMIC CHARGES
-----------------------
   0 C :    0.590335
   1 C :   -0.194989
   2 C :   -0.309085
   3 C :   -0.342341
   4 C :   -0.309068
   5 C :   -0.195037
   6 S :   -0.177977
   7 H :    0.262678
   8 H :    0.325596
   9 H :    0.325604
  10 H :    0.262663
  11 N :   -0.821766
  12 H :    0.282473
  13 H :    0.282468
  14 H :    0.018446
Sum of atomic charges:   -0.0000000

LOEWDIN ATOMIC CHARGES
----------------------
   0 C :   -0.248898
   1 C :    0.334603
   2 C :    0.219348
   3 C :   -0.570059
   4 C :    0.219348
   5 C :    0.334603
   6 S :    1.557729
   7 H :   -0.322596
   8 H :   -0.347764
   9 H :   -0.347764
  10 H :   -0.322596
  11 N :    1.271656
  12 H :   -0.503272
  13 H :   -0.503271
  14 H :   -0.771067

  Mayer bond orders larger than 0.100000
B(  0-C ,  1-C ) :   1.0923 B(  0-C ,  2-C ) :  -0.1482 B(  0-C ,  4-C ) :  -0.1481
B(  0-C ,  5-C ) :   1.0923 B(  0-C ,  7-H ) :  -0.1330 B(  0-C , 10-H ) :  -0.1330
B(  0-C , 11-N ) :   0.7160 B(  1-C ,  2-C ) :   1.3353 B(  1-C ,  3-C ) :  -0.1233
B(  1-C ,  5-C ) :  -0.1036 B(  1-C ,  7-H ) :   0.9895 B(  1-C ,  8-H ) :  -0.1048
B(  2-C ,  3-C ) :   1.1155 B(  2-C ,  6-S ) :  -0.2425 B(  2-C ,  7-H ) :  -0.1184
B(  2-C ,  8-H ) :   0.9978 B(  3-C ,  4-C ) :   1.1154 B(  3-C ,  5-C ) :  -0.1234
B(  3-C ,  6-S ) :   1.1449 B(  4-C ,  5-C ) :   1.3353 B(  4-C ,  6-S ) :  -0.2425
B(  4-C ,  9-H ) :   0.9978 B(  4-C , 10-H ) :  -0.1184 B(  5-C ,  9-H ) :  -0.1048
B(  5-C , 10-H ) :   0.9895 B(  6-S , 14-H ) :   1.0729 B( 11-N , 12-H ) :   0.9353
B( 11-N , 13-H ) :   0.9353

MP2 TOTAL ENERGY:     -684.836005675 Eh
FINAL SINGLE POINT ENERGY      -684.836005675462

DIPOLE MOMENT
-------------
                                X             Y             Z
Electronic contribution:      4.97134       0.00000      -0.78181
Nuclear contribution   :     -6.13675      -0.00000       0.74953
                        -----------------------------------------
Total Dipole Moment    :     -1.16541       0.00000      -0.03229
                        -----------------------------------------
Magnitude (a.u.)       :      1.16586
Magnitude (Debye)      :      2.96338

Rotational constants in cm-1:     0.185679     0.032531     0.027855
Rotational constants in MHz :  5566.518407   975.255114   835.071475

                             ****ORCA TERMINATED NORMALLY****
TOTAL RUN TIME: 0 days 0 hours 23 minutes 58 seconds 576 msec
