                         Program Version 4.2.1 -  RELEASE  -
|  1> %pal
|  2>  nprocs 32
|  3> end
|  4> !RI-MP2 aug-cc-pVQZ aug-cc-pVQZ/C TightSCF
|  5> %maxcore 4500
|  6> *xyzfile 0 2  01_18P.xyz
|  7>
|  8>
|  9>                          ****END OF INPUT****

CARTESIAN COORDINATES (ANGSTROEM)
---------------------------------
  C      0.317958   -0.371629    0.473654
  C     -0.839777   -1.375732    0.557430
  C     -1.916713   -0.846091   -0.392110
  H     -1.228733   -1.399827    1.578690
  H     -0.484441   -2.376672    0.313540
  C     -1.780168    0.666976   -0.245471
  H     -2.916033   -1.213407   -0.152211
  H     -1.693132   -1.142080   -1.421133
  C     -0.247821    0.891556   -0.246529
  H     -2.199742    0.992250    0.712300
  H     -2.275558    1.238862   -1.031733
  C      0.182988    2.188370    0.325598
  H      0.447519    3.028569   -0.302866
  H      0.134186    2.353903    1.396132
  O      1.380922   -0.968725   -0.246786
  C      2.569336   -0.215257   -0.237383
  H      2.909329   -0.027767    0.789546
  H      2.448412    0.750557   -0.741761
  H      3.324167   -0.798358   -0.763482
  H      0.686524   -0.104277    1.473242
  H      0.085310    0.818888   -1.287111

 Total Charge           Charge          ....    0
 Multiplicity           Mult            ....    2
 Number of Electrons    NEL             ....   63
 Basis Dimension        Dim             .... 1238

ORBITAL ENERGIES
----------------
                 SPIN UP ORBITALS
  NO   OCC          E(Eh)            E(eV)
   0   1.0000     -20.546331      -559.0941
   1   1.0000     -11.271461      -306.7121
   2   1.0000     -11.263035      -306.4828
   3   1.0000     -11.227974      -305.5287
   4   1.0000     -11.221955      -305.3649
   5   1.0000     -11.217666      -305.2482
   6   1.0000     -11.212957      -305.1201
   7   1.0000     -11.210285      -305.0474
   8   1.0000      -1.370759       -37.3003
   9   1.0000      -1.125396       -30.6236
  10   1.0000      -1.018472       -27.7140
  11   1.0000      -0.972427       -26.4611
  12   1.0000      -0.908733       -24.7279
  13   1.0000      -0.874070       -23.7847
  14   1.0000      -0.786537       -21.4028
  15   1.0000      -0.762935       -20.7605
  16   1.0000      -0.675013       -18.3680
  17   1.0000      -0.655975       -17.8500
  18   1.0000      -0.636639       -17.3238
  19   1.0000      -0.604841       -16.4586
  20   1.0000      -0.597560       -16.2604
  21   1.0000      -0.593212       -16.1421
  22   1.0000      -0.546926       -14.8826
  23   1.0000      -0.527145       -14.3443
  24   1.0000      -0.500205       -13.6113
  25   1.0000      -0.486927       -13.2500
  26   1.0000      -0.486384       -13.2352
  27   1.0000      -0.471252       -12.8234
  28   1.0000      -0.463259       -12.6059
  29   1.0000      -0.455348       -12.3907
  30   1.0000      -0.414946       -11.2913
  31   1.0000      -0.339913        -9.2495
  32   0.0000       0.025629         0.6974
  33   0.0000       0.030064         0.8181
  34   0.0000       0.031624         0.8605
  35   0.0000       0.034139         0.9290
  36   0.0000       0.045317         1.2331

                 SPIN DOWN ORBITALS
  NO   OCC          E(Eh)            E(eV)
   0   1.0000     -20.546210      -559.0908
   1   1.0000     -11.270107      -306.6752
   2   1.0000     -11.262944      -306.4803
   3   1.0000     -11.225262      -305.4549
   4   1.0000     -11.215121      -305.1790
   5   1.0000     -11.212818      -305.1163
   6   1.0000     -11.210299      -305.0477
   7   1.0000     -11.204422      -304.8878
   8   1.0000      -1.370287       -37.2874
   9   1.0000      -1.119411       -30.4607
  10   1.0000      -0.992141       -26.9975
  11   1.0000      -0.969329       -26.3768
  12   1.0000      -0.900539       -24.5049
  13   1.0000      -0.833266       -22.6743
  14   1.0000      -0.781150       -21.2562
  15   1.0000      -0.755688       -20.5633
  16   1.0000      -0.672702       -18.3051
  17   1.0000      -0.652694       -17.7607
  18   1.0000      -0.634968       -17.2784
  19   1.0000      -0.599207       -16.3052
  20   1.0000      -0.596382       -16.2284
  21   1.0000      -0.588447       -16.0125
  22   1.0000      -0.540564       -14.7095
  23   1.0000      -0.521052       -14.1785
  24   1.0000      -0.487807       -13.2739
  25   1.0000      -0.483766       -13.1640
  26   1.0000      -0.472456       -12.8562
  27   1.0000      -0.470074       -12.7914
  28   1.0000      -0.461189       -12.5496
  29   1.0000      -0.451120       -12.2756
  30   1.0000      -0.405565       -11.0360
  31   0.0000       0.025942         0.7059
  32   0.0000       0.029918         0.8141
  33   0.0000       0.031596         0.8598
  34   0.0000       0.033927         0.9232
  35   0.0000       0.045328         1.2334

MULLIKEN ATOMIC CHARGES AND SPIN POPULATIONS
--------------------------------------------
   0 C :    0.929829    0.040469
   1 C :   -0.801254   -0.003105
   2 C :   -0.522495    0.002475
   3 H :    0.115502    0.000033
   4 H :    0.347739    0.001635
   5 C :   -0.573013    0.089659
   6 H :    0.326197    0.003435
   7 H :    0.171262   -0.000878
   8 C :    0.183568   -0.265876
   9 H :    0.180545    0.003128
  10 H :    0.311103   -0.008726
  11 C :   -0.898236    1.314430
  12 H :    0.292210   -0.087384
  13 H :    0.220218   -0.082989
  14 O :   -0.974535   -0.002878
  15 C :   -0.687539    0.002936
  16 H :    0.242100   -0.002514
  17 H :    0.238258   -0.011833
  18 H :    0.427204    0.001894
  19 H :    0.262337    0.002228
  20 H :    0.209001    0.003859
Sum of atomic charges         :   -0.0000000

LOEWDIN ATOMIC CHARGES AND SPIN POPULATIONS
-------------------------------------------
   0 C :   -0.236406    0.020053
   1 C :    0.530304    0.002389
   2 C :    0.536655    0.006869
   3 H :   -0.262927    0.000054
   4 H :   -0.273037    0.000495
   5 C :    0.522167    0.032793
   6 H :   -0.253518    0.001862
   7 H :   -0.258341    0.000555
   8 C :    0.059223    0.129459
   9 H :   -0.264378    0.011490
  10 H :   -0.247514    0.007103
  11 C :    0.862861    0.453783
  12 H :   -0.319014    0.150129
  13 H :   -0.320579    0.147432
  14 O :    0.908298    0.003856
  15 C :    0.570536    0.007180
  16 H :   -0.300583    0.001395
  17 H :   -0.319221    0.009150
  18 H :   -0.317057    0.000760
  19 H :   -0.303911    0.007146
  20 H :   -0.313559    0.006046

  Mayer bond orders larger than 0.100000
B(  0-C ,  1-C ) :   0.6873 B(  0-C ,  8-C ) :   0.8035 B(  0-C , 14-O ) :   0.1449
B(  0-C , 15-C ) :  -0.2070 B(  0-C , 19-H ) :   0.9559 B(  1-C ,  2-C ) :   1.0205
B(  1-C ,  3-H ) :   1.0971 B(  1-C ,  4-H ) :   0.8764 B(  1-C , 14-O ) :   0.2122
B(  2-C ,  5-C ) :   0.9848 B(  2-C ,  6-H ) :   0.8469 B(  2-C ,  7-H ) :   1.0070
B(  5-C ,  8-C ) :   0.6737 B(  5-C ,  9-H ) :   1.0229 B(  5-C , 10-H ) :   0.9074
B(  8-C , 11-C ) :   0.5490 B(  8-C , 12-H ) :  -0.1177 B(  8-C , 14-O ) :   0.1388
B(  8-C , 20-H ) :   0.9522 B( 11-C , 12-H ) :   1.0492 B( 11-C , 13-H ) :   1.0604
B( 14-O , 15-C ) :   1.0078 B( 15-C , 16-H ) :   0.9432 B( 15-C , 17-H ) :   0.9248
B( 15-C , 18-H ) :   0.8510

MP2 TOTAL ENERGY:     -349.102687940 Eh
FINAL SINGLE POINT ENERGY      -349.102687939854

DIPOLE MOMENT
-------------
                                X             Y             Z
Electronic contribution:      0.71433      -1.80319      -0.41283
Nuclear contribution   :     -0.77404       2.20096       0.58465
                        -----------------------------------------
Total Dipole Moment    :     -0.05971       0.39777       0.17182
                        -----------------------------------------
Magnitude (a.u.)       :      0.43739
Magnitude (Debye)      :      1.11176

Rotational constants in cm-1:     0.095190     0.060359     0.041808
Rotational constants in MHz :  2853.710254  1809.523290  1253.386534

                             ****ORCA TERMINATED NORMALLY****
TOTAL RUN TIME: 0 days 1 hours 7 minutes 9 seconds 749 msec
