                         Program Version 4.2.1 -  RELEASE  -
|  1> %pal
|  2>  nprocs 32
|  3> end
|  4> !RI-MP2 aug-cc-pVQZ aug-cc-pVQZ/C TightSCF
|  5> %maxcore 4500
|  6> *xyzfile -1 1  07_8TS.xyz
|  7>
|  8>
|  9>                          ****END OF INPUT****

CARTESIAN COORDINATES (ANGSTROEM)
---------------------------------
  N     -2.230484   -1.197508   -0.247632
  C     -3.491514   -0.618467    0.211440
  C     -4.639024   -1.552385   -0.167861
  O     -5.748609   -1.468027    0.286894
  O     -4.303395   -2.449578   -1.097801
  C     -3.740926    0.751248   -0.460447
  H     -3.856811    0.590741   -1.537242
  H     -4.694606    1.128616   -0.086655
  C     -2.619436    1.719521   -0.207724
  C     -2.494072    2.386167    1.012355
  H     -3.273754    2.272848    1.761297
  C     -1.395327    3.174176    1.298259
  H     -1.304055    3.675794    2.254817
  C     -0.338166    3.325919    0.375377
  C     -0.491876    2.688326   -0.873701
  H      0.291871    2.806691   -1.611804
  C     -1.602448    1.906715   -1.143418
  H     -1.681210    1.421948   -2.113607
  O      0.729985    4.011508    0.691759
  H      1.719530    3.663367    0.056134
  H     -3.525644   -0.481000    1.295688
  H     -3.336449   -2.297262   -1.234702
  H     -1.791477   -1.784826    0.453847
  H     -1.567161   -0.459454   -0.465479
  N      1.945345   -2.659811   -1.465526
  C      2.499767   -3.083164   -0.177224
  C      1.372813   -3.112056    0.866729
  O      1.556572   -3.323800    2.033719
  O      0.159092   -2.929945    0.345841
  C      3.699705   -2.244484    0.308512
  H      3.883591   -2.506714    1.352186
  H      4.579132   -2.549193   -0.265771
  C      3.478733   -0.764796    0.138971
  C      4.032809   -0.071888   -0.937660
  H      4.696489   -0.597476   -1.620440
  C      3.764824    1.268939   -1.159787
  H      4.201542    1.792714   -2.002123
  C      2.910471    1.992015   -0.306113
  C      2.373720    1.293897    0.799421
  H      1.731665    1.831163    1.485344
  C      2.651649   -0.043631    1.004711
  H      2.215871   -0.544556    1.863834
  O      2.640494    3.249317   -0.553361
  H      2.811684   -4.128837   -0.261096
  H      0.322941   -2.782273   -0.617197
  H      2.322915   -3.188959   -2.239535
  H      2.146598   -1.674208   -1.622829

 Total Charge           Charge          ....   -1
 Multiplicity           Mult            ....    1
 Number of Electrons    NEL             ....  192
 Basis Dimension        Dim             .... 3046

ORBITAL ENERGIES
----------------

  NO   OCC          E(Eh)            E(eV)
   0   2.0000     -20.517236      -558.3024
   1   2.0000     -20.503819      -557.9373
   2   2.0000     -20.455885      -556.6329
   3   2.0000     -20.443855      -556.3056
   4   2.0000     -20.388519      -554.7998
   5   2.0000     -20.375678      -554.4504
   6   2.0000     -15.494567      -421.6286
   7   2.0000     -15.469658      -420.9508
   8   2.0000     -11.294751      -307.3458
   9   2.0000     -11.280222      -306.9504
  10   2.0000     -11.208800      -305.0069
  11   2.0000     -11.187443      -304.4258
  12   2.0000     -11.174686      -304.0787
  13   2.0000     -11.166030      -303.8431
  14   2.0000     -11.153941      -303.5142
  15   2.0000     -11.145550      -303.2858
  16   2.0000     -11.135179      -303.0036
  17   2.0000     -11.128405      -302.8193
  18   2.0000     -11.125454      -302.7390
  19   2.0000     -11.125162      -302.7311
  20   2.0000     -11.123165      -302.6767
  21   2.0000     -11.115391      -302.4652
  22   2.0000     -11.108659      -302.2820
  23   2.0000     -11.104136      -302.1589
  24   2.0000     -11.101595      -302.0897
  25   2.0000     -11.098029      -301.9927
  26   2.0000      -1.378312       -37.5058
  27   2.0000      -1.363689       -37.1079
  28   2.0000      -1.280938       -34.8561
  29   2.0000      -1.266423       -34.4611
  30   2.0000      -1.233107       -33.5546
  31   2.0000      -1.196813       -32.5669
  32   2.0000      -1.141219       -31.0541
  33   2.0000      -1.120324       -30.4856
  34   2.0000      -1.040888       -28.3240
  35   2.0000      -1.032555       -28.0972
  36   2.0000      -0.955569       -26.0023
  37   2.0000      -0.943852       -25.6835
  38   2.0000      -0.907237       -24.6872
  39   2.0000      -0.900737       -24.5103
  40   2.0000      -0.882147       -24.0044
  41   2.0000      -0.869568       -23.6622
  42   2.0000      -0.802373       -21.8337
  43   2.0000      -0.784863       -21.3572
  44   2.0000      -0.729030       -19.8379
  45   2.0000      -0.728330       -19.8189
  46   2.0000      -0.720180       -19.5971
  47   2.0000      -0.710990       -19.3470
  48   2.0000      -0.688767       -18.7423
  49   2.0000      -0.675052       -18.3691
  50   2.0000      -0.655545       -17.8383
  51   2.0000      -0.633962       -17.2510
  52   2.0000      -0.615771       -16.7560
  53   2.0000      -0.607542       -16.5321
  54   2.0000      -0.603092       -16.4110
  55   2.0000      -0.587285       -15.9808
  56   2.0000      -0.579563       -15.7707
  57   2.0000      -0.564436       -15.3591
  58   2.0000      -0.558018       -15.1845
  59   2.0000      -0.551542       -15.0082
  60   2.0000      -0.543160       -14.7801
  61   2.0000      -0.538184       -14.6447
  62   2.0000      -0.528178       -14.3724
  63   2.0000      -0.523641       -14.2490
  64   2.0000      -0.520133       -14.1535
  65   2.0000      -0.515798       -14.0356
  66   2.0000      -0.494632       -13.4596
  67   2.0000      -0.491048       -13.3621
  68   2.0000      -0.482242       -13.1225
  69   2.0000      -0.475477       -12.9384
  70   2.0000      -0.473627       -12.8880
  71   2.0000      -0.468795       -12.7565
  72   2.0000      -0.453189       -12.3319
  73   2.0000      -0.449341       -12.2272
  74   2.0000      -0.446028       -12.1370
  75   2.0000      -0.441033       -12.0011
  76   2.0000      -0.431379       -11.7384
  77   2.0000      -0.421888       -11.4802
  78   2.0000      -0.409855       -11.1527
  79   2.0000      -0.398652       -10.8479
  80   2.0000      -0.397275       -10.8104
  81   2.0000      -0.390542       -10.6272
  82   2.0000      -0.384990       -10.4761
  83   2.0000      -0.381582       -10.3834
  84   2.0000      -0.378678       -10.3043
  85   2.0000      -0.361772        -9.8443
  86   2.0000      -0.358099        -9.7444
  87   2.0000      -0.347470        -9.4551
  88   2.0000      -0.336601        -9.1594
  89   2.0000      -0.327757        -8.9187
  90   2.0000      -0.326026        -8.8716
  91   2.0000      -0.281151        -7.6505
  92   2.0000      -0.237736        -6.4691
  93   2.0000      -0.229642        -6.2489
  94   2.0000      -0.177518        -4.8305
  95   2.0000      -0.166290        -4.5250
  96   0.0000       0.072530         1.9736
  97   0.0000       0.086398         2.3510
  98   0.0000       0.087790         2.3889
  99   0.0000       0.095688         2.6038
 100   0.0000       0.098992         2.6937

MULLIKEN ATOMIC CHARGES
-----------------------
   0 N :   -0.837024
   1 C :    0.191585
   2 C :    1.411363
   3 O :   -0.917138
   4 O :   -1.066418
   5 C :   -0.623883
   6 H :    0.246260
   7 H :    0.258560
   8 C :    0.355889
   9 C :   -0.558004
  10 H :    0.225777
  11 C :   -0.539615
  12 H :    0.204394
  13 C :    1.289793
  14 C :   -0.426819
  15 H :    0.087063
  16 C :   -0.255701
  17 H :    0.166213
  18 O :   -1.169259
  19 H :    0.566837
  20 H :    0.237534
  21 H :    0.386708
  22 H :    0.257078
  23 H :    0.311974
  24 N :   -0.776123
  25 C :    0.041247
  26 C :    1.383758
  27 O :   -1.029688
  28 O :   -1.175542
  29 C :   -0.587300
  30 H :    0.263401
  31 H :    0.142659
  32 C :    0.746205
  33 C :   -0.563174
  34 H :    0.115011
  35 C :   -0.656226
  36 H :    0.211892
  37 C :    1.174653
  38 C :   -0.521007
  39 H :    0.159224
  40 C :   -0.330248
  41 H :    0.285301
  42 O :   -1.156146
  43 H :    0.446218
  44 H :    0.619854
  45 H :    0.146853
  46 H :    0.256012
Sum of atomic charges:   -1.0000000

LOEWDIN ATOMIC CHARGES
----------------------
   0 N :    1.304301
   1 C :   -0.052219
   2 C :   -1.046833
   3 O :    0.665387
   4 O :    1.250535
   5 C :    0.476222
   6 H :   -0.285152
   7 H :   -0.282681
   8 C :   -0.102476
   9 C :    0.322128
  10 H :   -0.314044
  11 C :    0.316063
  12 H :   -0.341552
  13 C :   -0.559382
  14 C :    0.327256
  15 H :   -0.349699
  16 C :    0.320856
  17 H :   -0.309482
  18 O :    1.030458
  19 H :   -1.373045
  20 H :   -0.284759
  21 H :   -0.968555
  22 H :   -0.519996
  23 H :   -0.534238
  24 N :    1.309927
  25 C :   -0.037718
  26 C :   -1.025282
  27 O :    0.694564
  28 O :    1.275884
  29 C :    0.488174
  30 H :   -0.302878
  31 H :   -0.290988
  32 C :   -0.112145
  33 C :    0.307116
  34 H :   -0.317719
  35 C :    0.316443
  36 H :   -0.342535
  37 C :   -0.524825
  38 C :    0.340272
  39 H :   -0.360681
  40 C :    0.339398
  41 H :   -0.323195
  42 O :    1.077458
  43 H :   -0.287792
  44 H :   -0.950549
  45 H :   -0.443755
  46 H :   -0.518268

  Mayer bond orders larger than 0.100000
B(  0-N ,  1-C ) :   0.5456 B(  0-N , 21-H ) :   0.2505 B(  0-N , 22-H ) :   0.9684
B(  0-N , 23-H ) :   0.8473 B(  1-C ,  2-C ) :   1.1486 B(  1-C ,  3-O ) :   0.1862
B(  1-C ,  5-C ) :   0.7755 B(  1-C , 20-H ) :   0.9100 B(  1-C , 21-H ) :  -0.1112
B(  2-C ,  3-O ) :   1.0415 B(  2-C ,  4-O ) :   0.6292 B(  3-O ,  4-O ) :   0.1795
B(  3-O ,  5-C ) :   0.1375 B(  4-O ,  5-C ) :   0.1350 B(  4-O , 21-H ) :   0.6616
B(  5-C ,  6-H ) :   1.1119 B(  5-C ,  7-H ) :   0.9558 B(  5-C ,  8-C ) :   0.8098
B(  5-C ,  9-C ) :  -0.2305 B(  5-C , 16-C ) :  -0.2327 B(  8-C ,  9-C ) :   1.0873
B(  8-C , 10-H ) :  -0.1010 B(  8-C , 11-C ) :  -0.1952 B(  8-C , 13-C ) :   0.1014
B(  8-C , 14-C ) :  -0.3549 B(  8-C , 16-C ) :   1.0600 B(  9-C , 10-H ) :   1.0430
B(  9-C , 11-C ) :   1.3302 B(  9-C , 12-H ) :  -0.1559 B( 10-H , 11-C ) :  -0.1395
B( 11-C , 12-H ) :   1.0556 B( 11-C , 13-C ) :   1.2580 B( 11-C , 16-C ) :   0.2121
B( 11-C , 18-O ) :   0.1624 B( 13-C , 14-C ) :   1.2270 B( 13-C , 15-H ) :  -0.1046
B( 13-C , 16-C ) :  -0.1642 B( 13-C , 18-O ) :  -0.1473 B( 14-C , 15-H ) :   1.1699
B( 14-C , 16-C ) :   0.9395 B( 14-C , 17-H ) :  -0.2424 B( 14-C , 18-O ) :   0.4923
B( 15-H , 16-C ) :  -0.1826 B( 16-C , 17-H ) :   1.1129 B( 18-O , 19-H ) :   0.3058
B( 18-O , 37-C ) :   0.1295 B( 18-O , 42-O ) :  -0.1013 B( 19-H , 42-O ) :   0.3704
B( 24-N , 25-C ) :   0.7613 B( 24-N , 45-H ) :   1.1092 B( 24-N , 46-H ) :   0.8545
B( 25-C , 26-C ) :   1.0946 B( 25-C , 27-O ) :   0.1935 B( 25-C , 29-C ) :   0.9316
B( 25-C , 32-C ) :  -0.1260 B( 25-C , 43-H ) :   0.7576 B( 26-C , 27-O ) :   0.8692
B( 26-C , 28-O ) :   0.7402 B( 27-O , 28-O ) :   0.1177 B( 28-O , 44-H ) :   0.4536
B( 29-C , 30-H ) :   0.9770 B( 29-C , 31-H ) :   1.1097 B( 29-C , 32-C ) :   0.7523
B( 29-C , 33-C ) :  -0.1415 B( 29-C , 40-C ) :  -0.1939 B( 30-H , 32-C ) :  -0.1361
B( 32-C , 33-C ) :   0.9666 B( 32-C , 34-H ) :  -0.1225 B( 32-C , 37-C ) :   0.1256
B( 32-C , 38-C ) :  -0.4025 B( 32-C , 40-C ) :   0.8229 B( 32-C , 41-H ) :  -0.1111
B( 33-C , 34-H ) :   1.1873 B( 33-C , 35-C ) :   1.3734 B( 33-C , 36-H ) :  -0.1434
B( 33-C , 37-C ) :  -0.1068 B( 34-H , 35-C ) :  -0.1881 B( 35-C , 36-H ) :   1.0412
B( 35-C , 37-C ) :   1.2674 B( 35-C , 42-O ) :   0.2093 B( 37-C , 38-C ) :   1.3920
B( 37-C , 40-C ) :  -0.3184 B( 37-C , 42-O ) :  -0.2127 B( 38-C , 39-H ) :   1.0630
B( 38-C , 40-C ) :   0.8358 B( 38-C , 41-H ) :  -0.1563 B( 38-C , 42-O ) :   0.4258
B( 39-H , 40-C ) :  -0.2144 B( 40-C , 41-H ) :   1.0597

MP2 TOTAL ENERGY:    -1257.679812507 Eh
FINAL SINGLE POINT ENERGY     -1257.679812506749

DIPOLE MOMENT
-------------
                                X             Y             Z
Electronic contribution:     -4.42345       0.86514       3.51232
Nuclear contribution   :      5.76989      -3.85082      -5.10063
                        -----------------------------------------
Total Dipole Moment    :      1.34644      -2.98568      -1.58831
                        -----------------------------------------
Magnitude (a.u.)       :      3.64005
Magnitude (Debye)      :      9.25226

Rotational constants in cm-1:     0.007294     0.004945     0.003289
Rotational constants in MHz :   218.677933   148.259039    98.606067

                             ****ORCA TERMINATED NORMALLY****
TOTAL RUN TIME: 0 days 12 hours 20 minutes 1 seconds 890 msec
