                         Program Version 4.2.1 -  RELEASE  -
|  1> %pal
|  2>  nprocs 32
|  3> end
|  4> !RI-MP2 aug-cc-pVQZ aug-cc-pVQZ/C TightSCF
|  5> %maxcore 4500
|  6> *xyzfile 0 2  04_28P.xyz
|  7>
|  8>
|  9>                          ****END OF INPUT****

CARTESIAN COORDINATES (ANGSTROEM)
---------------------------------
  C      0.262198   -1.907548    0.576790
  H      0.271418   -2.610818   -0.261651
  H     -0.108039   -2.479850    1.438634
  C      1.701787   -1.456627    0.871813
  H      1.691184   -0.654355    1.614594
  C      2.032275    0.209945   -1.097733
  H      2.671658    0.379787   -1.965432
  H      2.223966   -2.293418    1.344053
  H      1.015354    0.092513   -1.465960
  C      2.512615   -1.031244   -0.352149
  H      3.549107   -0.870058   -0.043778
  H      2.524879   -1.861810   -1.068751
  C     -0.691771   -0.802544    0.262793
  C     -1.923692    1.476548    0.214450
  C     -2.746329    0.579656   -0.696324
  H     -2.550668    2.197777    0.738040
  H     -1.148979    2.005454   -0.341843
  H     -3.646739    0.232452   -0.190349
  H     -3.025905    1.094421   -1.615323
  S     -1.130254    0.402646    1.452016
  S     -1.733789   -0.872491   -1.144849
  S      2.141686    1.774465   -0.158766
  H      1.207974    1.484867    0.765513

 Total Charge           Charge          ....    0
 Multiplicity           Mult            ....    2
 Number of Electrons    NEL             ....  103
 Basis Dimension        Dim             .... 1410

ORBITAL ENERGIES
----------------
                 SPIN UP ORBITALS
  NO   OCC          E(Eh)            E(eV)
   0   1.0000     -91.965222     -2502.5009
   1   1.0000     -91.964787     -2502.4891
   2   1.0000     -91.937330     -2501.7419
   3   1.0000     -11.281338      -306.9808
   4   1.0000     -11.275815      -306.8305
   5   1.0000     -11.275075      -306.8104
   6   1.0000     -11.251136      -306.1590
   7   1.0000     -11.239831      -305.8513
   8   1.0000     -11.226676      -305.4934
   9   1.0000     -11.226060      -305.4766
  10   1.0000      -8.967248      -244.0112
  11   1.0000      -8.966557      -243.9924
  12   1.0000      -8.940021      -243.2703
  13   1.0000      -6.648881      -180.9253
  14   1.0000      -6.648528      -180.9157
  15   1.0000      -6.647959      -180.9002
  16   1.0000      -6.647356      -180.8837
  17   1.0000      -6.646979      -180.8735
  18   1.0000      -6.646104      -180.8497
  19   1.0000      -6.621641      -180.1840
  20   1.0000      -6.620746      -180.1597
  21   1.0000      -6.619911      -180.1369
  22   1.0000      -1.160362       -31.5751
  23   1.0000      -1.097527       -29.8652
  24   1.0000      -1.050324       -28.5808
  25   1.0000      -0.995421       -27.0868
  26   1.0000      -0.994440       -27.0601
  27   1.0000      -0.927797       -25.2466
  28   1.0000      -0.865115       -23.5410
  29   1.0000      -0.817094       -22.2343
  30   1.0000      -0.781980       -21.2788
  31   1.0000      -0.733243       -19.9526
  32   1.0000      -0.663033       -18.0420
  33   1.0000      -0.653744       -17.7893
  34   1.0000      -0.640362       -17.4251
  35   1.0000      -0.612214       -16.6592
  36   1.0000      -0.591798       -16.1037
  37   1.0000      -0.577688       -15.7197
  38   1.0000      -0.561092       -15.2681
  39   1.0000      -0.542838       -14.7714
  40   1.0000      -0.534596       -14.5471
  41   1.0000      -0.522584       -14.2202
  42   1.0000      -0.496860       -13.5202
  43   1.0000      -0.485525       -13.2118
  44   1.0000      -0.480417       -13.0728
  45   1.0000      -0.464505       -12.6398
  46   1.0000      -0.450631       -12.2623
  47   1.0000      -0.439025       -11.9465
  48   1.0000      -0.433773       -11.8036
  49   1.0000      -0.367021        -9.9871
  50   1.0000      -0.348053        -9.4710
  51   1.0000      -0.275400        -7.4940
  52   0.0000       0.023880         0.6498
  53   0.0000       0.026272         0.7149
  54   0.0000       0.030701         0.8354
  55   0.0000       0.035040         0.9535
  56   0.0000       0.041082         1.1179

                 SPIN DOWN ORBITALS
  NO   OCC          E(Eh)            E(eV)
   0   1.0000     -91.965210     -2502.5006
   1   1.0000     -91.964394     -2502.4784
   2   1.0000     -91.937347     -2501.7424
   3   1.0000     -11.275594      -306.8245
   4   1.0000     -11.274959      -306.8072
   5   1.0000     -11.255900      -306.2886
   6   1.0000     -11.251063      -306.1570
   7   1.0000     -11.242804      -305.9323
   8   1.0000     -11.226509      -305.4888
   9   1.0000     -11.225010      -305.4480
  10   1.0000      -8.967221      -244.0105
  11   1.0000      -8.966090      -243.9797
  12   1.0000      -8.940039      -243.2708
  13   1.0000      -6.649703      -180.9476
  14   1.0000      -6.648639      -180.9187
  15   1.0000      -6.648338      -180.9105
  16   1.0000      -6.647228      -180.8803
  17   1.0000      -6.645529      -180.8340
  18   1.0000      -6.643914      -180.7901
  19   1.0000      -6.621679      -180.1850
  20   1.0000      -6.620787      -180.1608
  21   1.0000      -6.619923      -180.1373
  22   1.0000      -1.142222       -31.0814
  23   1.0000      -1.095506       -29.8102
  24   1.0000      -1.039888       -28.2968
  25   1.0000      -0.991613       -26.9832
  26   1.0000      -0.981390       -26.7050
  27   1.0000      -0.926258       -25.2048
  28   1.0000      -0.863048       -23.4847
  29   1.0000      -0.815233       -22.1836
  30   1.0000      -0.777871       -21.1670
  31   1.0000      -0.698243       -19.0002
  32   1.0000      -0.658345       -17.9145
  33   1.0000      -0.646164       -17.5830
  34   1.0000      -0.635261       -17.2863
  35   1.0000      -0.609524       -16.5860
  36   1.0000      -0.587138       -15.9768
  37   1.0000      -0.569001       -15.4833
  38   1.0000      -0.557465       -15.1694
  39   1.0000      -0.537397       -14.6233
  40   1.0000      -0.528889       -14.3918
  41   1.0000      -0.494516       -13.4565
  42   1.0000      -0.488820       -13.3015
  43   1.0000      -0.480284       -13.0692
  44   1.0000      -0.475538       -12.9400
  45   1.0000      -0.462621       -12.5886
  46   1.0000      -0.438655       -11.9364
  47   1.0000      -0.432639       -11.7727
  48   1.0000      -0.397007       -10.8031
  49   1.0000      -0.349568        -9.5122
  50   1.0000      -0.343245        -9.3402
  51   0.0000       0.023727         0.6457
  52   0.0000       0.026142         0.7114
  53   0.0000       0.030494         0.8298
  54   0.0000       0.035053         0.9538
  55   0.0000       0.041108         1.1186

MULLIKEN ATOMIC CHARGES AND SPIN POPULATIONS
--------------------------------------------
   0 C :   -0.334958   -0.163478
   1 H :    0.244836    0.003072
   2 H :    0.321974    0.085469
   3 C :   -0.286625    0.036769
   4 H :    0.307141   -0.005764
   5 C :   -0.446027    0.003039
   6 H :    0.255600    0.004968
   7 H :    0.211498   -0.000328
   8 H :    0.300526    0.003267
   9 C :   -0.516936   -0.006139
  10 H :    0.277678   -0.000357
  11 H :    0.213447   -0.000103
  12 C :   -0.046631    0.963076
  13 C :   -0.681542    0.015987
  14 C :   -0.659043   -0.013123
  15 H :    0.398652   -0.001980
  16 H :    0.337153   -0.000553
  17 H :    0.295203    0.000120
  18 H :    0.353209    0.001678
  19 S :   -0.161793    0.006659
  20 S :   -0.138375    0.065062
  21 S :   -0.288066   -0.001850
  22 H :    0.043079    0.004508
Sum of atomic charges         :   -0.0000000

LOEWDIN ATOMIC CHARGES AND SPIN POPULATIONS
-------------------------------------------
   0 C :    0.322441    0.107439
   1 H :   -0.327648    0.003662
   2 H :   -0.292443    0.022227
   3 C :    0.475595    0.017506
   4 H :   -0.323273    0.002736
   5 C :    0.122332    0.005381
   6 H :   -0.373746    0.001093
   7 H :   -0.268825    0.003733
   8 H :   -0.423335    0.011477
   9 C :    0.447580    0.004190
  10 H :   -0.290693    0.000271
  11 H :   -0.275304    0.000094
  12 C :   -0.891882    0.464164
  13 C :    0.088301    0.015762
  14 C :    0.094465    0.013789
  15 H :   -0.349809    0.003045
  16 H :   -0.376135    0.003700
  17 H :   -0.365531    0.004143
  18 H :   -0.356377    0.001850
  19 S :    1.295017    0.145432
  20 S :    1.305484    0.164141
  21 S :    1.629361    0.000133
  22 H :   -0.865574    0.004032

  Mayer bond orders larger than 0.100000
B(  0-C ,  1-H ) :   1.0074 B(  0-C ,  2-H ) :   0.9092 B(  0-C ,  3-C ) :   0.9301
B(  0-C , 12-C ) :   0.4518 B(  0-C , 19-S ) :  -0.1117 B(  0-C , 20-S ) :  -0.1077
B(  3-C ,  4-H ) :   0.8442 B(  3-C ,  7-H ) :   0.9911 B(  3-C ,  9-C ) :   0.8341
B(  3-C , 12-C ) :  -0.1371 B(  5-C ,  6-H ) :   0.9356 B(  5-C ,  8-H ) :   0.8712
B(  5-C ,  9-C ) :   0.9649 B(  5-C , 21-S ) :   0.7891 B(  9-C , 10-H ) :   0.9297
B(  9-C , 11-H ) :   0.9361 B( 12-C , 14-C ) :  -0.1186 B( 12-C , 19-S ) :   0.9120
B( 12-C , 20-S ) :   0.8635 B( 13-C , 14-C ) :   1.0912 B( 13-C , 15-H ) :   0.7883
B( 13-C , 16-H ) :   0.8446 B( 13-C , 19-S ) :   0.9961 B( 14-C , 17-H ) :   0.9028
B( 14-C , 18-H ) :   0.8156 B( 14-C , 20-S ) :   1.0197 B( 21-S , 22-H ) :   1.0301

MP2 TOTAL ENERGY:    -1467.216083566 Eh
FINAL SINGLE POINT ENERGY     -1467.216083566236

DIPOLE MOMENT
-------------
                                X             Y             Z
Electronic contribution:     -5.29077       3.10434       0.86907
Nuclear contribution   :      4.69946      -3.32468      -1.05727
                        -----------------------------------------
Total Dipole Moment    :     -0.59131      -0.22034      -0.18820
                        -----------------------------------------
Magnitude (a.u.)       :      0.65850
Magnitude (Debye)      :      1.67377

Rotational constants in cm-1:     0.037504     0.020580     0.017929
Rotational constants in MHz :  1124.329198   616.979929   537.501284

                             ****ORCA TERMINATED NORMALLY****
TOTAL RUN TIME: 0 days 2 hours 11 minutes 47 seconds 507 msec
