                         Program Version 4.2.1 -  RELEASE  -
|  1> %pal
|  2>  nprocs 32
|  3> end
|  4> !RI-MP2 aug-cc-pVQZ aug-cc-pVQZ/C TightSCF
|  5> %maxcore 4500
|  6> *xyzfile 0 1  05_34R1.xyz
|  7>
|  8>
|  9>                          ****END OF INPUT****

CARTESIAN COORDINATES (ANGSTROEM)
---------------------------------
  C      0.649350    0.927362   -0.000007
  C     -0.649351    0.927364    0.000029
  C      0.000002    2.279387    0.000014
  C     -1.930629    0.272175    0.000016
  C     -3.098308    1.038242   -0.000036
  C     -2.037374   -1.122594    0.000054
  C     -4.342013    0.426308   -0.000057
  H     -3.015538    2.118269   -0.000062
  C     -3.280352   -1.730874    0.000035
  H     -1.138068   -1.725201    0.000101
  C     -4.436935   -0.958749   -0.000022
  H     -5.240436    1.031617   -0.000100
  H     -3.350913   -2.811942    0.000065
  H     -5.408754   -1.437211   -0.000037
  C      1.930628    0.272173   -0.000007
  C      3.098306    1.038242    0.000020
  C      2.037374   -1.122596   -0.000034
  C      4.342012    0.426309    0.000026
  H      3.015535    2.118269    0.000038
  C      3.280353   -1.730875   -0.000029
  H      1.138069   -1.725204   -0.000060
  C      4.436935   -0.958748    0.000001
  H      5.240434    1.031619    0.000048
  H      3.350915   -2.811942   -0.000050
  H      5.408755   -1.437208    0.000005
  H      0.000026    2.875086    0.914394
  H     -0.000021    2.875090   -0.914363

 Total Charge           Charge          ....    0
 Multiplicity           Mult            ....    1
 Number of Electrons    NEL             ....  102
 Basis Dimension        Dim             .... 1752

ORBITAL ENERGIES
----------------

  NO   OCC          E(Eh)            E(eV)
   0   2.0000     -11.251453      -306.1676
   1   2.0000     -11.251451      -306.1675
   2   2.0000     -11.243163      -305.9420
   3   2.0000     -11.241050      -305.8845
   4   2.0000     -11.239992      -305.8557
   5   2.0000     -11.239991      -305.8557
   6   2.0000     -11.238895      -305.8259
   7   2.0000     -11.238895      -305.8259
   8   2.0000     -11.238036      -305.8025
   9   2.0000     -11.238036      -305.8025
  10   2.0000     -11.237207      -305.7799
  11   2.0000     -11.237207      -305.7799
  12   2.0000     -11.236332      -305.7561
  13   2.0000     -11.236332      -305.7561
  14   2.0000     -11.230705      -305.6030
  15   2.0000      -1.186962       -32.2989
  16   2.0000      -1.162914       -31.6445
  17   2.0000      -1.144725       -31.1496
  18   2.0000      -1.039367       -28.2826
  19   2.0000      -1.025014       -27.8920
  20   2.0000      -1.022466       -27.8227
  21   2.0000      -1.022116       -27.8132
  22   2.0000      -0.865247       -23.5446
  23   2.0000      -0.862257       -23.4632
  24   2.0000      -0.836669       -22.7669
  25   2.0000      -0.831211       -22.6184
  26   2.0000      -0.792235       -21.5578
  27   2.0000      -0.746338       -20.3089
  28   2.0000      -0.723091       -19.6763
  29   2.0000      -0.674886       -18.3646
  30   2.0000      -0.663813       -18.0633
  31   2.0000      -0.637949       -17.3595
  32   2.0000      -0.634017       -17.2525
  33   2.0000      -0.614036       -16.7088
  34   2.0000      -0.609733       -16.5917
  35   2.0000      -0.604225       -16.4418
  36   2.0000      -0.595214       -16.1966
  37   2.0000      -0.590681       -16.0732
  38   2.0000      -0.524015       -14.2592
  39   2.0000      -0.522172       -14.2090
  40   2.0000      -0.516053       -14.0425
  41   2.0000      -0.514635       -14.0039
  42   2.0000      -0.508164       -13.8278
  43   2.0000      -0.497637       -13.5414
  44   2.0000      -0.469089       -12.7646
  45   2.0000      -0.415941       -11.3183
  46   2.0000      -0.408780       -11.1235
  47   2.0000      -0.358440        -9.7537
  48   2.0000      -0.344684        -9.3793
  49   2.0000      -0.343627        -9.3506
  50   2.0000      -0.278547        -7.5796
  51   0.0000       0.022248         0.6054
  52   0.0000       0.023956         0.6519
  53   0.0000       0.026717         0.7270
  54   0.0000       0.033089         0.9004
  55   0.0000       0.033482         0.9111

MULLIKEN ATOMIC CHARGES
-----------------------
   0 C :    0.182553
   1 C :    0.184089
   2 C :   -0.806954
   3 C :    0.505718
   4 C :   -0.453050
   5 C :   -0.563846
   6 C :   -0.332041
   7 H :    0.299127
   8 C :   -0.406117
   9 H :    0.535016
  10 C :   -0.455466
  11 H :    0.221386
  12 H :    0.226508
  13 H :    0.333293
  14 C :    0.505158
  15 C :   -0.453068
  16 C :   -0.564258
  17 C :   -0.331936
  18 H :    0.298956
  19 C :   -0.406362
  20 H :    0.534366
  21 C :   -0.455510
  22 H :    0.221284
  23 H :    0.226844
  24 H :    0.333282
  25 H :    0.310510
  26 H :    0.310517
Sum of atomic charges:   -0.0000000

LOEWDIN ATOMIC CHARGES
----------------------
   0 C :   -0.015375
   1 C :   -0.015375
   2 C :    0.564594
   3 C :   -0.077677
   4 C :    0.335084
   5 C :    0.341168
   6 C :    0.347793
   7 H :   -0.314639
   8 C :    0.349132
   9 H :   -0.331060
  10 C :    0.338985
  11 H :   -0.320070
  12 H :   -0.319561
  13 H :   -0.321042
  14 C :   -0.077677
  15 C :    0.335084
  16 C :    0.341168
  17 C :    0.347793
  18 H :   -0.314639
  19 C :    0.349133
  20 H :   -0.331061
  21 C :    0.338985
  22 H :   -0.320070
  23 H :   -0.319562
  24 H :   -0.321042
  25 H :   -0.295034
  26 H :   -0.295034

  Mayer bond orders larger than 0.100000
B(  0-C ,  1-C ) :   1.1611 B(  0-C ,  2-C ) :   0.7999 B(  0-C ,  3-C ) :  -0.1992
B(  0-C , 14-C ) :   0.4857 B(  0-C , 15-C ) :  -0.5437 B(  0-C , 16-C ) :  -0.4387
B(  0-C , 19-C ) :   0.1344 B(  0-C , 20-H ) :   0.1010 B(  0-C , 21-C ) :  -0.1398
B(  1-C ,  2-C ) :   0.8002 B(  1-C ,  3-C ) :   0.4845 B(  1-C ,  4-C ) :  -0.5437
B(  1-C ,  5-C ) :  -0.4394 B(  1-C ,  8-C ) :   0.1342 B(  1-C ,  9-H ) :   0.1007
B(  1-C , 10-C ) :  -0.1396 B(  1-C , 14-C ) :  -0.1992 B(  2-C ,  3-C ) :  -0.1621
B(  2-C , 14-C ) :  -0.1619 B(  2-C , 25-H ) :   1.0068 B(  2-C , 26-H ) :   1.0068
B(  3-C ,  4-C ) :   1.1049 B(  3-C ,  5-C ) :   1.1273 B(  3-C ,  6-C ) :  -0.4782
B(  3-C ,  8-C ) :  -0.5609 B(  3-C ,  9-H ) :  -0.1814 B(  3-C , 14-C ) :   0.1417
B(  4-C ,  5-C ) :   0.1895 B(  4-C ,  6-C ) :   1.2686 B(  4-C ,  7-H ) :   0.9617
B(  4-C ,  8-C ) :   0.1097 B(  4-C , 11-H ) :  -0.1761 B(  5-C ,  6-C ) :   0.1166
B(  5-C ,  8-C ) :   1.2098 B(  5-C ,  9-H ) :   0.6735 B(  5-C , 12-H ) :  -0.1201
B(  6-C , 10-C ) :   1.1889 B(  6-C , 11-H ) :   1.1923 B(  8-C , 10-C ) :   1.2885
B(  8-C , 12-H ) :   1.1238 B(  8-C , 13-H ) :  -0.1040 B( 10-C , 11-H ) :  -0.1034
B( 10-C , 13-H ) :   1.0028 B( 14-C , 15-C ) :   1.1051 B( 14-C , 16-C ) :   1.1285
B( 14-C , 17-C ) :  -0.4788 B( 14-C , 19-C ) :  -0.5615 B( 14-C , 20-H ) :  -0.1809
B( 15-C , 16-C ) :   0.1899 B( 15-C , 17-C ) :   1.2686 B( 15-C , 18-H ) :   0.9618
B( 15-C , 19-C ) :   0.1096 B( 15-C , 22-H ) :  -0.1758 B( 16-C , 17-C ) :   0.1165
B( 16-C , 19-C ) :   1.2094 B( 16-C , 20-H ) :   0.6745 B( 16-C , 23-H ) :  -0.1200
B( 17-C , 21-C ) :   1.1897 B( 17-C , 22-H ) :   1.1922 B( 19-C , 21-C ) :   1.2894
B( 19-C , 23-H ) :   1.1233 B( 19-C , 24-H ) :  -0.1040 B( 21-C , 22-H ) :  -0.1031
B( 21-C , 24-H ) :   1.0027

MP2 TOTAL ENERGY:     -577.680719675 Eh
FINAL SINGLE POINT ENERGY      -577.680719675472

DIPOLE MOMENT
-------------
                                X             Y             Z
Electronic contribution:     -0.00000      -0.39155       0.00002
Nuclear contribution   :      0.00000       0.10087      -0.00002
                        -----------------------------------------
Total Dipole Moment    :      0.00000      -0.29068      -0.00001
                        -----------------------------------------
Magnitude (a.u.)       :      0.29068
Magnitude (Debye)      :      0.73884

Rotational constants in cm-1:     0.057131     0.009503     0.008161
Rotational constants in MHz :  1712.734818   284.901431   244.667653

                             ****ORCA TERMINATED NORMALLY****
TOTAL RUN TIME: 0 days 2 hours 28 minutes 29 seconds 685 msec
