                         Program Version 4.2.1 -  RELEASE  -
|  1> %pal
|  2>  nprocs 32
|  3> end
|  4> !RI-MP2 aug-cc-pVQZ aug-cc-pVQZ/C TightSCF
|  5> %maxcore 4500
|  6> *xyzfile -1 1  10_47R.xyz
|  7>
|  8>
|  9>                          ****END OF INPUT****

CARTESIAN COORDINATES (ANGSTROEM)
---------------------------------
  C     -0.413066   -0.563227   -0.545527
  C      1.033072   -0.630152   -0.983314
  C     -0.358747    0.653742   -0.014129
  C      1.942262   -1.547024   -0.173167
  H      2.941646   -1.561107   -0.624588
  C      1.143427    0.896579   -0.332539
  C      2.016432   -0.879413    1.213378
  H      1.117748   -1.132172    1.786115
  C      2.046677    0.621903    0.915399
  H      1.752126    1.237969    1.772078
  H      3.051132    0.934049    0.610840
  H      1.600727   -2.589216   -0.112841
  H      2.877715   -1.225198    1.796301
  O      1.471146    1.938834   -1.058887
  C     -1.617073   -1.450619   -0.569257
  H     -1.372956   -2.471842   -0.249863
  H     -2.012869   -1.540835   -1.591327
  C     -1.507714    1.405216    0.565567
  H     -1.411323    1.480489    1.658062
  H     -1.513194    2.431992    0.185186
  C     -2.808947    0.674545    0.193757
  H     -3.648948    1.046119    0.792041
  H     -3.043963    0.893405   -0.854263
  C     -2.685526   -0.848068    0.359538
  H     -2.406811   -1.063121    1.398130
  H     -3.657693   -1.323997    0.187101
  H      1.212718   -0.628088   -2.060102

 Total Charge           Charge          ....   -1
 Multiplicity           Mult            ....    1
 Number of Electrons    NEL             ....   90
 Basis Dimension        Dim             .... 1650

ORBITAL ENERGIES
----------------

  NO   OCC          E(Eh)            E(eV)
   0   2.0000     -20.231128      -550.5170
   1   2.0000     -11.103924      -302.1531
   2   2.0000     -11.100256      -302.0533
   3   2.0000     -11.095663      -301.9283
   4   2.0000     -11.085071      -301.6401
   5   2.0000     -11.084340      -301.6202
   6   2.0000     -11.069017      -301.2033
   7   2.0000     -11.068325      -301.1844
   8   2.0000     -11.050215      -300.6916
   9   2.0000     -11.043136      -300.4990
  10   2.0000     -11.042853      -300.4913
  11   2.0000     -11.040085      -300.4160
  12   2.0000      -1.063848       -28.9488
  13   2.0000      -0.993365       -27.0308
  14   2.0000      -0.944006       -25.6877
  15   2.0000      -0.880008       -23.9462
  16   2.0000      -0.871297       -23.7092
  17   2.0000      -0.791555       -21.5393
  18   2.0000      -0.758417       -20.6376
  19   2.0000      -0.688079       -18.7236
  20   2.0000      -0.680425       -18.5153
  21   2.0000      -0.610602       -16.6153
  22   2.0000      -0.578390       -15.7388
  23   2.0000      -0.522327       -14.2132
  24   2.0000      -0.498064       -13.5530
  25   2.0000      -0.479504       -13.0480
  26   2.0000      -0.467604       -12.7241
  27   2.0000      -0.459432       -12.5018
  28   2.0000      -0.444575       -12.0975
  29   2.0000      -0.421042       -11.4571
  30   2.0000      -0.406746       -11.0681
  31   2.0000      -0.398756       -10.8507
  32   2.0000      -0.384116       -10.4523
  33   2.0000      -0.365882        -9.9562
  34   2.0000      -0.345382        -9.3983
  35   2.0000      -0.340634        -9.2691
  36   2.0000      -0.329564        -8.9679
  37   2.0000      -0.318275        -8.6607
  38   2.0000      -0.315450        -8.5838
  39   2.0000      -0.295412        -8.0386
  40   2.0000      -0.277134        -7.5412
  41   2.0000      -0.269897        -7.3443
  42   2.0000      -0.172550        -4.6953
  43   2.0000      -0.137365        -3.7379
  44   2.0000      -0.119844        -3.2611
  45   0.0000       0.091007         2.4764
  46   0.0000       0.099790         2.7154
  47   0.0000       0.103382         2.8132
  48   0.0000       0.110208         2.9989
  49   0.0000       0.112714         3.0671

MULLIKEN ATOMIC CHARGES
-----------------------
   0 C :    0.314603
   1 C :   -0.198526
   2 C :   -0.251996
   3 C :   -0.705415
   4 H :    0.161526
   5 C :    1.659970
   6 C :   -0.607231
   7 H :    0.124495
   8 C :   -0.858655
   9 H :    0.345861
  10 H :    0.220716
  11 H :    0.284415
  12 H :    0.286358
  13 O :   -1.500003
  14 C :   -0.388614
  15 H :    0.145213
  16 H :    0.162520
  17 C :   -0.322599
  18 H :    0.085254
  19 H :    0.255212
  20 C :   -0.639715
  21 H :    0.240385
  22 H :    0.144906
  23 C :   -0.557341
  24 H :    0.143362
  25 H :    0.229011
  26 H :    0.226287
Sum of atomic charges:   -1.0000000

LOEWDIN ATOMIC CHARGES
----------------------
   0 C :   -0.040620
   1 C :    0.126918
   2 C :   -0.051321
   3 C :    0.502747
   4 H :   -0.277068
   5 C :   -0.967117
   6 C :    0.488583
   7 H :   -0.281377
   8 C :    0.458720
   9 H :   -0.271496
  10 H :   -0.308849
  11 H :   -0.267943
  12 H :   -0.267405
  13 O :    0.530048
  14 C :    0.531590
  15 H :   -0.277910
  16 H :   -0.273714
  17 C :    0.537902
  18 H :   -0.271124
  19 H :   -0.272133
  20 C :    0.504598
  21 H :   -0.269539
  22 H :   -0.270231
  23 C :    0.499633
  24 H :   -0.271253
  25 H :   -0.269702
  26 H :   -0.271936

  Mayer bond orders larger than 0.100000
B(  0-C ,  1-C ) :   0.6687 B(  0-C ,  2-C ) :   1.7066 B(  0-C ,  3-C ) :  -0.1104
B(  0-C , 14-C ) :   0.2597 B(  0-C , 16-H ) :  -0.1474 B(  0-C , 17-C ) :  -0.1169
B(  0-C , 23-C ) :  -0.1416 B(  1-C ,  2-C ) :  -0.3800 B(  1-C ,  3-C ) :   0.7319
B(  1-C ,  5-C ) :   1.0983 B(  1-C , 13-O ) :   0.2407 B(  1-C , 26-H ) :   0.9929
B(  2-C ,  5-C ) :   0.7980 B(  2-C ,  8-C ) :  -0.1438 B(  2-C , 13-O ) :   0.7217
B(  2-C , 14-C ) :  -0.1151 B(  2-C , 17-C ) :   0.1399 B(  2-C , 18-H ) :  -0.1129
B(  2-C , 19-H ) :  -0.1342 B(  2-C , 20-C ) :  -0.1611 B(  3-C ,  4-H ) :   1.1032
B(  3-C ,  6-C ) :   0.9580 B(  3-C , 11-H ) :   0.8915 B(  5-C ,  8-C ) :   0.9026
B(  5-C , 13-O ) :  -0.6847 B(  5-C , 26-H ) :   0.1293 B(  6-C ,  7-H ) :   0.9690
B(  6-C ,  8-C ) :   0.9759 B(  6-C , 12-H ) :   0.9036 B(  8-C ,  9-H ) :   0.8506
B(  8-C , 10-H ) :   1.0243 B(  8-C , 13-O ) :   0.3280 B( 14-C , 15-H ) :   1.0731
B( 14-C , 16-H ) :   1.0959 B( 14-C , 23-C ) :   0.9785 B( 17-C , 18-H ) :   1.1467
B( 17-C , 19-H ) :   1.0199 B( 17-C , 20-C ) :   0.9844 B( 20-C , 21-H ) :   0.9851
B( 20-C , 22-H ) :   1.0561 B( 20-C , 23-C ) :   0.9025 B( 23-C , 24-H ) :   1.0530
B( 23-C , 25-H ) :   0.9947

MP2 TOTAL ENERGY:     -502.511880377 Eh
FINAL SINGLE POINT ENERGY      -502.511880376531

DIPOLE MOMENT
-------------
                                X             Y             Z
Electronic contribution:      2.49229       3.40626      -3.43281
Nuclear contribution   :     -4.59828      -5.61222       4.78814
                        -----------------------------------------
Total Dipole Moment    :     -2.10599      -2.20597       1.35533
                        -----------------------------------------
Magnitude (a.u.)       :      3.33742
Magnitude (Debye)      :      8.48306

Rotational constants in cm-1:     0.052528     0.026586     0.022060
Rotational constants in MHz :  1574.752821   797.026481   661.349073

                             ****ORCA TERMINATED NORMALLY****
TOTAL RUN TIME: 0 days 2 hours 40 minutes 33 seconds 867 msec
