                         Program Version 4.2.1 -  RELEASE  -
|  1> %pal
|  2>  nprocs 32
|  3> end
|  4> !RI-MP2 aug-cc-pVQZ aug-cc-pVQZ/C TightSCF
|  5> %maxcore 4500
|  6> *xyzfile 0 1  06_13TS.xyz
|  7>
|  8>
|  9>                          ****END OF INPUT****

CARTESIAN COORDINATES (ANGSTROEM)
---------------------------------
  C     -0.660181    0.075909    1.200444
  H      0.063964    0.401587    1.954411
  B     -0.123083    0.241195   -0.274226
  C     -1.944047    0.903890    1.383682
  H     -1.664588    1.962581    1.368792
  H     -2.370367    0.721053    2.376597
  C     -0.855888   -1.449134    1.395598
  H      0.137972   -1.909181    1.421986
  C      0.279684    2.284530   -0.812443
  H      0.546136    1.817213   -1.750663
  H     -0.593877    2.921056   -0.824003
  C      1.198542    2.420273    0.184960
  C      2.351497    1.602187    0.362716
  H      1.005259    3.159984    0.960243
  H     -1.303599   -1.643322    2.376700
  H      3.186252    1.919642    0.968514
  C      2.301485    0.305263   -0.050734
  O      1.229945   -0.254274   -0.559970
  O      3.359522   -0.488075    0.086219
  C      3.174352   -1.892836   -0.101846
  H      2.470061   -2.291311    0.629230
  H      2.812126   -2.104529   -1.106996
  H      4.156987   -2.332117    0.047798
  C     -1.689067   -2.150568    0.310480
  H     -1.540791   -3.231509    0.396368
  H     -2.749833   -1.989456    0.500098
  C     -1.213128   -0.186125   -1.329697
  H     -0.879016   -0.032360   -2.361269
  C     -1.351896   -1.717768   -1.124345
  H     -0.404928   -2.180345   -1.421019
  H     -2.113034   -2.110941   -1.807554
  C     -2.527111    0.588245   -1.125605
  H     -3.315075    0.154806   -1.752088
  H     -2.379170    1.605820   -1.498986
  C     -3.033232    0.662888    0.326037
  H     -3.775344    1.463944    0.397021
  H     -3.575507   -0.250329    0.570476

 Total Charge           Charge          ....    0
 Multiplicity           Mult            ....    1
 Number of Electrons    NEL             ....  120
 Basis Dimension        Dim             .... 2246

ORBITAL ENERGIES
----------------

  NO   OCC          E(Eh)            E(eV)
   0   2.0000     -20.603061      -560.6378
   1   2.0000     -20.575314      -559.8828
   2   2.0000     -11.380438      -309.6775
   3   2.0000     -11.290079      -307.2187
   4   2.0000     -11.274605      -306.7976
   5   2.0000     -11.211184      -305.0718
   6   2.0000     -11.209200      -305.0178
   7   2.0000     -11.207675      -304.9763
   8   2.0000     -11.205180      -304.9085
   9   2.0000     -11.205170      -304.9082
  10   2.0000     -11.205019      -304.9041
  11   2.0000     -11.203498      -304.8627
  12   2.0000     -11.202850      -304.8450
  13   2.0000     -11.184010      -304.3324
  14   2.0000     -11.181770      -304.2714
  15   2.0000      -7.605487      -206.9558
  16   2.0000      -1.471602       -40.0443
  17   2.0000      -1.379598       -37.5408
  18   2.0000      -1.105672       -30.0869
  19   2.0000      -1.100585       -29.9484
  20   2.0000      -1.031495       -28.0684
  21   2.0000      -1.018873       -27.7249
  22   2.0000      -1.015027       -27.6203
  23   2.0000      -0.942033       -25.6340
  24   2.0000      -0.922321       -25.0976
  25   2.0000      -0.904778       -24.6203
  26   2.0000      -0.837732       -22.7959
  27   2.0000      -0.806852       -21.9556
  28   2.0000      -0.782416       -21.2906
  29   2.0000      -0.775291       -21.0968
  30   2.0000      -0.738518       -20.0961
  31   2.0000      -0.723549       -19.6888
  32   2.0000      -0.686482       -18.6801
  33   2.0000      -0.675045       -18.3689
  34   2.0000      -0.656060       -17.8523
  35   2.0000      -0.651510       -17.7285
  36   2.0000      -0.633095       -17.2274
  37   2.0000      -0.611318       -16.6348
  38   2.0000      -0.589751       -16.0479
  39   2.0000      -0.588136       -16.0040
  40   2.0000      -0.579773       -15.7764
  41   2.0000      -0.568782       -15.4774
  42   2.0000      -0.567373       -15.4390
  43   2.0000      -0.552293       -15.0286
  44   2.0000      -0.542241       -14.7551
  45   2.0000      -0.533987       -14.5305
  46   2.0000      -0.528004       -14.3677
  47   2.0000      -0.520511       -14.1638
  48   2.0000      -0.498455       -13.5637
  49   2.0000      -0.494056       -13.4439
  50   2.0000      -0.492060       -13.3896
  51   2.0000      -0.470390       -12.8000
  52   2.0000      -0.463514       -12.6129
  53   2.0000      -0.458532       -12.4773
  54   2.0000      -0.448292       -12.1986
  55   2.0000      -0.435027       -11.8377
  56   2.0000      -0.411501       -11.1975
  57   2.0000      -0.397705       -10.8221
  58   2.0000      -0.372515       -10.1366
  59   2.0000      -0.296083        -8.0568
  60   0.0000       0.020297         0.5523
  61   0.0000       0.026163         0.7119
  62   0.0000       0.028262         0.7690
  63   0.0000       0.029114         0.7922
  64   0.0000       0.036287         0.9874

MULLIKEN ATOMIC CHARGES
-----------------------
   0 C :    0.293377
   1 H :    0.250850
   2 B :    2.986965
   3 C :   -0.625495
   4 H :    0.022544
   5 H :    0.083113
   6 C :   -0.788502
   7 H :    0.388415
   8 C :   -0.978960
   9 H :    0.274047
  10 H :    0.144752
  11 C :   -0.075899
  12 C :   -0.528914
  13 H :    0.205078
  14 H :    0.112768
  15 H :    0.177506
  16 C :    1.415561
  17 O :   -1.640697
  18 O :   -1.128358
  19 C :   -0.695116
  20 H :    0.294622
  21 H :    0.266321
  22 H :    0.457365
  23 C :   -0.503970
  24 H :    0.121035
  25 H :    0.186263
  26 C :    0.024598
  27 H :    0.244091
  28 C :   -0.667649
  29 H :    0.189309
  30 H :    0.138403
  31 C :   -0.619892
  32 H :    0.143053
  33 H :    0.063598
  34 C :   -0.498828
  35 H :    0.158264
  36 H :    0.110385
Sum of atomic charges:   -0.0000000

LOEWDIN ATOMIC CHARGES
----------------------
   0 C :    0.295039
   1 H :   -0.274585
   2 B :   -1.285015
   3 C :    0.563882
   4 H :   -0.271195
   5 H :   -0.247937
   6 C :    0.574196
   7 H :   -0.271983
   8 C :    0.761775
   9 H :   -0.326211
  10 H :   -0.293361
  11 C :    0.355117
  12 C :    0.348817
  13 H :   -0.273671
  14 H :   -0.244450
  15 H :   -0.347549
  16 C :   -0.838389
  17 O :    1.033689
  18 O :    0.885594
  19 C :    0.612547
  20 H :   -0.307656
  21 H :   -0.308315
  22 H :   -0.316132
  23 C :    0.581971
  24 H :   -0.251215
  25 H :   -0.305199
  26 C :    0.293479
  27 H :   -0.263877
  28 C :    0.571664
  29 H :   -0.263135
  30 H :   -0.246174
  31 C :    0.567305
  32 H :   -0.249079
  33 H :   -0.281839
  34 C :    0.579948
  35 H :   -0.252309
  36 H :   -0.305746

  Mayer bond orders larger than 0.100000
B(  0-C ,  1-H ) :   0.8454 B(  0-C ,  2-B ) :   0.8595 B(  0-C ,  3-C ) :   0.3746
B(  0-C ,  4-H ) :  -0.1617 B(  0-C ,  5-H ) :  -0.1827 B(  0-C ,  6-C ) :   0.6875
B(  0-C ,  8-C ) :   0.1154 B(  0-C , 12-C ) :  -0.1032 B(  0-C , 17-O ) :  -0.1882
B(  0-C , 23-C ) :  -0.1024 B(  0-C , 26-C ) :   0.1455 B(  0-C , 34-C ) :  -0.1764
B(  1-H , 12-C ) :   0.1651 B(  2-B ,  3-C ) :  -0.1869 B(  2-B ,  4-H ) :  -0.1253
B(  2-B ,  6-C ) :  -0.1679 B(  2-B ,  8-C ) :  -0.5925 B(  2-B ,  9-H ) :  -0.2906
B(  2-B , 12-C ) :  -0.3463 B(  2-B , 16-C ) :  -0.3234 B(  2-B , 17-O ) :  -0.4844
B(  2-B , 19-C ) :   0.1740 B(  2-B , 23-C ) :  -0.1244 B(  2-B , 26-C ) :   0.6799
B(  2-B , 28-C ) :  -0.2042 B(  2-B , 31-C ) :  -0.2507 B(  3-C ,  4-H ) :   1.3492
B(  3-C ,  5-H ) :   1.2355 B(  3-C , 34-C ) :   0.7573 B(  3-C , 36-H ) :  -0.1123
B(  6-C ,  7-H ) :   0.9167 B(  6-C , 14-H ) :   1.1531 B(  6-C , 23-C ) :   0.8798
B(  8-C ,  9-H ) :   1.1395 B(  8-C , 10-H ) :   1.2176 B(  8-C , 11-C ) :   1.5298
B(  9-H , 10-H ) :   0.1003 B( 10-H , 11-C ) :  -0.1117 B( 11-C , 12-C ) :   0.8884
B( 11-C , 13-H ) :   1.1191 B( 11-C , 16-C ) :  -0.2426 B( 12-C , 13-H ) :  -0.1113
B( 12-C , 15-H ) :   1.1136 B( 12-C , 16-C ) :   1.5668 B( 16-C , 17-O ) :   1.3256
B( 16-C , 19-C ) :  -0.1255 B( 17-O , 19-C ) :  -0.1753 B( 17-O , 20-H ) :  -0.1580
B( 17-O , 28-C ) :   0.1411 B( 18-O , 19-C ) :   0.8955 B( 18-O , 20-H ) :   0.1172
B( 19-C , 20-H ) :   0.9035 B( 19-C , 21-H ) :   0.9025 B( 19-C , 22-H ) :   0.8262
B( 20-H , 21-H ) :   0.1037 B( 23-C , 24-H ) :   1.1040 B( 23-C , 25-H ) :   1.1395
B( 23-C , 26-C ) :  -0.1568 B( 23-C , 28-C ) :   0.7568 B( 26-C , 27-H ) :   0.9977
B( 26-C , 28-C ) :   0.5332 B( 26-C , 29-H ) :  -0.1078 B( 26-C , 31-C ) :   0.5603
B( 26-C , 32-H ) :  -0.1170 B( 26-C , 33-H ) :  -0.1489 B( 26-C , 34-C ) :  -0.1381
B( 28-C , 29-H ) :   1.1733 B( 28-C , 30-H ) :   1.1338 B( 31-C , 32-H ) :   1.1406
B( 31-C , 33-H ) :   1.2720 B( 31-C , 34-C ) :   0.7987 B( 34-C , 35-H ) :   1.0930
B( 34-C , 36-H ) :   1.2325

MP2 TOTAL ENERGY:     -682.137349491 Eh
FINAL SINGLE POINT ENERGY      -682.137349490866

DIPOLE MOMENT
-------------
                                X             Y             Z
Electronic contribution:     12.62942       4.04270      -1.53471
Nuclear contribution   :    -12.40378      -4.25284       1.69873
                        -----------------------------------------
Total Dipole Moment    :      0.22564      -0.21014       0.16402
                        -----------------------------------------
Magnitude (a.u.)       :      0.34925
Magnitude (Debye)      :      0.88773

Rotational constants in cm-1:     0.027762     0.015540     0.012607
Rotational constants in MHz :   832.298476   465.873807   377.952227

                             ****ORCA TERMINATED NORMALLY****
TOTAL RUN TIME: 0 days 7 hours 19 minutes 35 seconds 909 msec
