                         Program Version 4.2.1 -  RELEASE  -
|  1> %pal
|  2>  nprocs 32
|  3> end
|  4> !RI-MP2 aug-cc-pVQZ aug-cc-pVQZ/C TightSCF
|  5> %maxcore 4500
|  6> *xyzfile 0 1  02_28TS.xyz
|  7>
|  8>
|  9>                          ****END OF INPUT****

CARTESIAN COORDINATES (ANGSTROEM)
---------------------------------
  C      1.143740   -2.422301   -0.437060
  C     -0.950742   -0.819946   -0.156052
  C      0.111268   -2.531948   -1.404627
  C      0.813153   -2.017355    0.880477
  C     -0.278365   -1.231236    1.042818
  C     -0.982777   -1.748453   -1.252169
  N     -2.027914    0.122841   -0.033782
  C     -3.282599   -0.352738    0.449234
  C     -1.716536    1.420139   -0.408820
  O     -2.488172    2.361084   -0.364472
  C     -0.320661    1.513814   -0.888321
  C      0.378294    0.390925   -0.861031
  C      1.626788   -0.136952   -1.100624
  H      2.077555   -2.946560   -0.601967
  H      0.245961   -3.158673   -2.277036
  H      1.473663   -2.250887    1.704568
  H     -0.570573   -0.802820    1.991836
  H     -1.787414   -1.694597   -1.972592
  H      1.840487   -0.511232   -2.093744
  C      2.777591    0.162459   -0.250369
  C      4.059586   -0.231168   -0.650967
  C      2.641380    0.826348    0.972487
  C      5.163658    0.026077    0.142622
  H      4.182637   -0.747073   -1.597111
  C      3.747947    1.076629    1.769273
  H      1.660624    1.152066    1.295202
  C      5.013614    0.678749    1.361170
  H      6.147537   -0.284453   -0.188575
  H      3.620984    1.592047    2.713977
  H      5.877085    0.879238    1.983345
  O     -3.412046   -1.526017    0.730926
  N     -4.249849    0.572479    0.555385
  H     -4.027478    1.524608    0.288369
  C     -5.563468    0.192669    1.032114
  H     -5.509378   -0.228922    2.037359
  H     -6.191382    1.081717    1.051725
  H     -6.019611   -0.552521    0.377809
  C      0.165917    2.843594   -1.374764
  H     -0.414224    3.172105   -2.239993
  H      0.034591    3.602170   -0.600459
  H      1.218289    2.790179   -1.647922

 Total Charge           Charge          ....    0
 Multiplicity           Mult            ....    1
 Number of Electrons    NEL             ....  162
 Basis Dimension        Dim             .... 2668

ORBITAL ENERGIES
----------------

  NO   OCC          E(Eh)            E(eV)
   0   2.0000     -20.544187      -559.0357
   1   2.0000     -20.515017      -558.2420
   2   2.0000     -15.613720      -424.8709
   3   2.0000     -15.573212      -423.7686
   4   2.0000     -11.382350      -309.7295
   5   2.0000     -11.372508      -309.4617
   6   2.0000     -11.312038      -307.8162
   7   2.0000     -11.277713      -306.8822
   8   2.0000     -11.268193      -306.6231
   9   2.0000     -11.255625      -306.2811
  10   2.0000     -11.255069      -306.2660
  11   2.0000     -11.252748      -306.2028
  12   2.0000     -11.251504      -306.1690
  13   2.0000     -11.244898      -305.9892
  14   2.0000     -11.243719      -305.9572
  15   2.0000     -11.239455      -305.8411
  16   2.0000     -11.237738      -305.7944
  17   2.0000     -11.237431      -305.7861
  18   2.0000     -11.236939      -305.7727
  19   2.0000     -11.234476      -305.7056
  20   2.0000     -11.232303      -305.6465
  21   2.0000     -11.231976      -305.6376
  22   2.0000     -11.226352      -305.4846
  23   2.0000      -1.422197       -38.6999
  24   2.0000      -1.393697       -37.9244
  25   2.0000      -1.279702       -34.8225
  26   2.0000      -1.231469       -33.5100
  27   2.0000      -1.173233       -31.9253
  28   2.0000      -1.160060       -31.5668
  29   2.0000      -1.118144       -30.4263
  30   2.0000      -1.056117       -28.7384
  31   2.0000      -1.040402       -28.3108
  32   2.0000      -1.020887       -27.7797
  33   2.0000      -1.019131       -27.7320
  34   2.0000      -0.977723       -26.6052
  35   2.0000      -0.964057       -26.2333
  36   2.0000      -0.926242       -25.2043
  37   2.0000      -0.863618       -23.5002
  38   2.0000      -0.846780       -23.0421
  39   2.0000      -0.837310       -22.7844
  40   2.0000      -0.831215       -22.6185
  41   2.0000      -0.813879       -22.1468
  42   2.0000      -0.787728       -21.4352
  43   2.0000      -0.754584       -20.5333
  44   2.0000      -0.739374       -20.1194
  45   2.0000      -0.708264       -19.2729
  46   2.0000      -0.695740       -18.9320
  47   2.0000      -0.675972       -18.3941
  48   2.0000      -0.668689       -18.1959
  49   2.0000      -0.648686       -17.6516
  50   2.0000      -0.648174       -17.6377
  51   2.0000      -0.637956       -17.3597
  52   2.0000      -0.631281       -17.1780
  53   2.0000      -0.625845       -17.0301
  54   2.0000      -0.614624       -16.7248
  55   2.0000      -0.610081       -16.6011
  56   2.0000      -0.601525       -16.3683
  57   2.0000      -0.592629       -16.1263
  58   2.0000      -0.590969       -16.0811
  59   2.0000      -0.589822       -16.0499
  60   2.0000      -0.583346       -15.8737
  61   2.0000      -0.564930       -15.3725
  62   2.0000      -0.555997       -15.1294
  63   2.0000      -0.552177       -15.0255
  64   2.0000      -0.544878       -14.8269
  65   2.0000      -0.536324       -14.5941
  66   2.0000      -0.531127       -14.4527
  67   2.0000      -0.512419       -13.9436
  68   2.0000      -0.512308       -13.9406
  69   2.0000      -0.503497       -13.7009
  70   2.0000      -0.494660       -13.4604
  71   2.0000      -0.463062       -12.6006
  72   2.0000      -0.441849       -12.0233
  73   2.0000      -0.419749       -11.4219
  74   2.0000      -0.394676       -10.7397
  75   2.0000      -0.392095       -10.6695
  76   2.0000      -0.382008       -10.3950
  77   2.0000      -0.375464       -10.2169
  78   2.0000      -0.353334        -9.6147
  79   2.0000      -0.339725        -9.2444
  80   2.0000      -0.268750        -7.3131
  81   0.0000       0.018015         0.4902
  82   0.0000       0.023371         0.6360
  83   0.0000       0.025322         0.6890
  84   0.0000       0.028977         0.7885
  85   0.0000       0.031686         0.8622

MULLIKEN ATOMIC CHARGES
-----------------------
   0 C :    0.137318
   1 C :    1.485679
   2 C :   -0.514389
   3 C :   -0.348612
   4 C :   -0.634176
   5 C :   -0.707339
   6 N :   -0.573613
   7 C :    1.315953
   8 C :    1.736841
   9 O :   -1.095933
  10 C :    0.014167
  11 C :   -0.019756
  12 C :    0.289893
  13 H :    0.337038
  14 H :    0.192979
  15 H :    0.220570
  16 H :    0.064946
  17 H :    0.095880
  18 H :    0.302079
  19 C :    0.664315
  20 C :   -0.712288
  21 C :   -0.575898
  22 C :   -0.404500
  23 H :    0.206082
  24 C :   -0.349340
  25 H :    0.327979
  26 C :   -0.398885
  27 H :    0.202762
  28 H :    0.197610
  29 H :    0.351068
  30 O :   -0.922483
  31 N :   -0.842938
  32 H :    0.457818
  33 C :   -1.180536
  34 H :    0.343179
  35 H :    0.353943
  36 H :    0.347257
  37 C :   -1.187832
  38 H :    0.294486
  39 H :    0.232699
  40 H :    0.295980
Sum of atomic charges:    0.0000000

LOEWDIN ATOMIC CHARGES
----------------------
   0 C :    0.301356
   1 C :   -0.483420
   2 C :    0.361895
   3 C :    0.354063
   4 C :    0.358145
   5 C :    0.363632
   6 N :    0.388964
   7 C :   -1.000545
   8 C :   -0.795311
   9 O :    0.828440
  10 C :   -0.071118
  11 C :    0.034553
  12 C :    0.281427
  13 H :   -0.279612
  14 H :   -0.293318
  15 H :   -0.286544
  16 H :   -0.268802
  17 H :   -0.272375
  18 H :   -0.313684
  19 C :   -0.115067
  20 C :    0.341034
  21 C :    0.333640
  22 C :    0.345251
  23 H :   -0.313613
  24 C :    0.355582
  25 H :   -0.326556
  26 C :    0.339397
  27 H :   -0.319296
  28 H :   -0.316034
  29 H :   -0.323821
  30 O :    0.740568
  31 N :    0.812515
  32 H :   -0.726113
  33 C :    0.786149
  34 H :   -0.291014
  35 H :   -0.292730
  36 H :   -0.289904
  37 C :    0.908250
  38 H :   -0.277790
  39 H :   -0.283065
  40 H :   -0.295129

  Mayer bond orders larger than 0.100000
B(  0-C ,  1-C ) :   0.3833 B(  0-C ,  2-C ) :   1.0911 B(  0-C ,  3-C ) :   1.2331
B(  0-C ,  6-N ) :  -0.1657 B(  0-C , 12-C ) :   0.2523 B(  0-C , 13-H ) :   0.9477
B(  1-C ,  2-C ) :  -0.2743 B(  1-C ,  3-C ) :  -0.5013 B(  1-C ,  4-C ) :   1.3113
B(  1-C ,  5-C ) :   1.0685 B(  1-C ,  6-N ) :   0.1197 B(  1-C ,  7-C ) :  -0.1278
B(  1-C ,  9-O ) :   0.1004 B(  1-C , 11-C ) :   0.5677 B(  1-C , 12-C ) :  -0.1050
B(  1-C , 17-H ) :  -0.1786 B(  1-C , 30-O ) :   0.2405 B(  2-C ,  3-C ) :   0.1622
B(  2-C ,  5-C ) :   1.3760 B(  2-C , 11-C ) :  -0.1392 B(  2-C , 13-H ) :  -0.1091
B(  2-C , 14-H ) :   1.2041 B(  2-C , 17-H ) :  -0.1124 B(  3-C ,  4-C ) :   1.0800
B(  3-C ,  6-N ) :   0.1805 B(  3-C , 15-H ) :   1.1290 B(  3-C , 16-H ) :  -0.1807
B(  4-C ,  6-N ) :  -0.1582 B(  4-C , 11-C ) :  -0.1930 B(  4-C , 12-C ) :   0.1949
B(  4-C , 15-H ) :  -0.1770 B(  4-C , 16-H ) :   1.2837 B(  5-C ,  6-N ) :  -0.2336
B(  5-C ,  7-C ) :  -0.1422 B(  5-C , 12-C ) :   0.1292 B(  5-C , 14-H ) :  -0.1321
B(  5-C , 17-H ) :   1.3174 B(  6-N ,  7-C ) :   1.5484 B(  6-N ,  8-C ) :   1.4207
B(  6-N ,  9-O ) :   0.5169 B(  6-N , 10-C ) :  -0.1371 B(  6-N , 30-O ) :   0.1416
B(  7-C , 30-O ) :   0.7967 B(  7-C , 31-N ) :   1.1656 B(  7-C , 33-C ) :  -0.1275
B(  8-C ,  9-O ) :  -0.2890 B(  8-C , 10-C ) :   1.2530 B(  8-C , 11-C ) :  -0.1716
B(  9-O , 10-C ) :   0.6805 B(  9-O , 11-C ) :   0.1532 B( 10-C , 11-C ) :   0.8723
B( 10-C , 12-C ) :  -0.9882 B( 10-C , 37-C ) :   0.1071 B( 10-C , 38-H ) :  -0.2711
B( 10-C , 39-H ) :  -0.3089 B( 11-C , 12-C ) :   1.2314 B( 11-C , 18-H ) :  -0.1693
B( 11-C , 19-C ) :   0.1741 B( 12-C , 18-H ) :   1.0674 B( 12-C , 19-C ) :   0.1930
B( 12-C , 20-C ) :  -0.3821 B( 18-H , 19-C ) :  -0.1010 B( 19-C , 20-C ) :   1.0765
B( 19-C , 21-C ) :   0.9799 B( 19-C , 22-C ) :  -0.4916 B( 19-C , 24-C ) :  -0.5128
B( 19-C , 29-H ) :   0.1196 B( 20-C , 22-C ) :   1.4372 B( 20-C , 23-H ) :   1.0619
B( 20-C , 24-C ) :   0.1362 B( 20-C , 27-H ) :  -0.1760 B( 20-C , 29-H ) :  -0.1466
B( 21-C , 22-C ) :   0.1413 B( 21-C , 24-C ) :   1.4088 B( 21-C , 25-H ) :   0.7668
B( 22-C , 26-C ) :   1.1208 B( 22-C , 27-H ) :   1.2161 B( 24-C , 26-C ) :   1.2272
B( 24-C , 28-H ) :   1.1353 B( 26-C , 27-H ) :  -0.1043 B( 26-C , 29-H ) :   1.0012
B( 30-O , 31-N ) :   0.2978 B( 31-N , 32-H ) :   0.7323 B( 31-N , 33-C ) :   0.9518
B( 33-C , 34-H ) :   0.9585 B( 33-C , 35-H ) :   0.9254 B( 33-C , 36-H ) :   0.9506
B( 37-C , 38-H ) :   1.0683 B( 37-C , 39-H ) :   1.1502 B( 37-C , 40-H ) :   1.0087

MP2 TOTAL ENERGY:     -993.128569427 Eh
FINAL SINGLE POINT ENERGY      -993.128569427117

DIPOLE MOMENT
-------------
                                X             Y             Z
Electronic contribution:     -2.69609      -2.57856      -0.61250
Nuclear contribution   :      3.70372       2.61544       0.23202
                        -----------------------------------------
Total Dipole Moment    :      1.00763       0.03688      -0.38049
                        -----------------------------------------
Magnitude (a.u.)       :      1.07771
Magnitude (Debye)      :      2.73932

Rotational constants in cm-1:     0.018265     0.005799     0.005165
Rotational constants in MHz :   547.585347   173.864441   154.833849

                             ****ORCA TERMINATED NORMALLY****
TOTAL RUN TIME: 0 days 11 hours 12 minutes 57 seconds 698 msec
