                         Program Version 4.2.1 -  RELEASE  -
|  1> %pal
|  2>  nprocs 32
|  3> end
|  4> !RI-MP2 aug-cc-pVQZ aug-cc-pVQZ/C TightSCF
|  5> %maxcore 4500
|  6> *xyzfile 0 1  04_79R1.xyz
|  7>
|  8>
|  9>                          ****END OF INPUT****

CARTESIAN COORDINATES (ANGSTROEM)
---------------------------------
  O     -1.800383    0.549153   -1.301862
  C     -2.970726   -0.147026   -0.838164
  C     -2.781651   -0.296580    0.669868
  C     -2.030630    1.002486    1.027412
  C     -1.276882    1.370493   -0.290711
  C     -3.116730   -1.426471   -1.622249
  H     -3.842668    0.499368   -1.008652
  O     -2.059481   -1.425997    1.081709
  H     -3.744776   -0.347226    1.178346
  H     -1.184577   -1.462764    0.623345
  O     -1.210532    0.877516    2.148165
  H     -2.752701    1.800034    1.220134
  H     -1.115206   -0.072023    2.316457
  N      0.159992    1.213920   -0.246526
  H     -1.441867    2.423712   -0.537397
  C      1.078522    2.224625   -0.431946
  N      2.314494    1.826525   -0.400028
  C      2.221792    0.467491   -0.185868
  C      0.898052    0.067680   -0.086277
  N      0.486833   -1.188070    0.123814
  C      1.494152   -2.048293    0.227124
  N      2.797441   -1.796489    0.142305
  C      3.194686   -0.535391   -0.062987
  N      4.509467   -0.269372   -0.145660
  H      4.825475    0.674373   -0.289923
  H      5.168796   -1.021423   -0.041158
  H      1.221836   -3.083373    0.403834
  H      0.753634    3.242665   -0.588854
  H     -3.213949   -1.204235   -2.685403
  H     -4.005255   -1.969035   -1.294263
  H     -2.246695   -2.065118   -1.475109

 Total Charge           Charge          ....    0
 Multiplicity           Mult            ....    1
 Number of Electrons    NEL             ....  132
 Basis Dimension        Dim             .... 2038

ORBITAL ENERGIES
----------------

  NO   OCC          E(Eh)            E(eV)
   0   2.0000     -20.572076      -559.7947
   1   2.0000     -20.560616      -559.4828
   2   2.0000     -20.545088      -559.0603
   3   2.0000     -15.628090      -425.2620
   4   2.0000     -15.589003      -424.1983
   5   2.0000     -15.567403      -423.6106
   6   2.0000     -15.565079      -423.5473
   7   2.0000     -15.554863      -423.2693
   8   2.0000     -11.343229      -308.6650
   9   2.0000     -11.343202      -308.6642
  10   2.0000     -11.320333      -308.0419
  11   2.0000     -11.320276      -308.0404
  12   2.0000     -11.320210      -308.0386
  13   2.0000     -11.294957      -307.3514
  14   2.0000     -11.290887      -307.2406
  15   2.0000     -11.286271      -307.1150
  16   2.0000     -11.253169      -306.2143
  17   2.0000     -11.217962      -305.2563
  18   2.0000      -1.423571       -38.7373
  19   2.0000      -1.381794       -37.6005
  20   2.0000      -1.370905       -37.3042
  21   2.0000      -1.349644       -36.7257
  22   2.0000      -1.312562       -35.7166
  23   2.0000      -1.259042       -34.2603
  24   2.0000      -1.202593       -32.7242
  25   2.0000      -1.167234       -31.7621
  26   2.0000      -1.057599       -28.7787
  27   2.0000      -1.046352       -28.4727
  28   2.0000      -1.029379       -28.0108
  29   2.0000      -0.946024       -25.7426
  30   2.0000      -0.901981       -24.5442
  31   2.0000      -0.886761       -24.1300
  32   2.0000      -0.849528       -23.1168
  33   2.0000      -0.820313       -22.3219
  34   2.0000      -0.808242       -21.9934
  35   2.0000      -0.771407       -20.9910
  36   2.0000      -0.746064       -20.3014
  37   2.0000      -0.731409       -19.9027
  38   2.0000      -0.713329       -19.4107
  39   2.0000      -0.694746       -18.9050
  40   2.0000      -0.689836       -18.7714
  41   2.0000      -0.684036       -18.6136
  42   2.0000      -0.650626       -17.7044
  43   2.0000      -0.642513       -17.4837
  44   2.0000      -0.633640       -17.2422
  45   2.0000      -0.630163       -17.1476
  46   2.0000      -0.613899       -16.7050
  47   2.0000      -0.598149       -16.2765
  48   2.0000      -0.587870       -15.9967
  49   2.0000      -0.576661       -15.6917
  50   2.0000      -0.564253       -15.3541
  51   2.0000      -0.559653       -15.2289
  52   2.0000      -0.545121       -14.8335
  53   2.0000      -0.526553       -14.3282
  54   2.0000      -0.514012       -13.9870
  55   2.0000      -0.511546       -13.9199
  56   2.0000      -0.507242       -13.8028
  57   2.0000      -0.478388       -13.0176
  58   2.0000      -0.463578       -12.6146
  59   2.0000      -0.457901       -12.4601
  60   2.0000      -0.450344       -12.2545
  61   2.0000      -0.430624       -11.7179
  62   2.0000      -0.418231       -11.3806
  63   2.0000      -0.409732       -11.1494
  64   2.0000      -0.379304       -10.3214
  65   2.0000      -0.316754        -8.6193
  66   0.0000       0.019657         0.5349
  67   0.0000       0.024593         0.6692
  68   0.0000       0.027425         0.7463
  69   0.0000       0.032825         0.8932
  70   0.0000       0.035709         0.9717

MULLIKEN ATOMIC CHARGES
-----------------------
   0 O :   -1.018145
   1 C :    0.282058
   2 C :    0.320342
   3 C :    0.442299
   4 C :    0.378788
   5 C :   -1.015980
   6 H :    0.261448
   7 O :   -1.190227
   8 H :    0.470535
   9 H :    0.434050
  10 O :   -1.174712
  11 H :    0.387483
  12 H :    0.412720
  13 N :   -0.273215
  14 H :    0.368579
  15 C :    0.308339
  16 N :   -0.981214
  17 C :   -0.243827
  18 C :    0.771938
  19 N :   -0.509107
  20 C :    0.042299
  21 N :   -0.968882
  22 C :    1.021505
  23 N :   -0.850584
  24 H :    0.305415
  25 H :    0.269134
  26 H :    0.542491
  27 H :    0.440362
  28 H :    0.276203
  29 H :    0.211395
  30 H :    0.278510
Sum of atomic charges:    0.0000000

LOEWDIN ATOMIC CHARGES
----------------------
   0 O :    0.935319
   1 C :   -0.219628
   2 C :   -0.205510
   3 C :   -0.198375
   4 C :   -0.334664
   5 C :    0.923317
   6 H :   -0.277779
   7 O :    1.323428
   8 H :   -0.289358
   9 H :   -1.022792
  10 O :    1.321417
  11 H :   -0.294460
  12 H :   -0.884122
  13 N :    0.432156
  14 H :   -0.320662
  15 C :   -0.022942
  16 N :    0.626537
  17 C :   -0.419024
  18 C :   -0.542117
  19 N :    0.671738
  20 C :   -0.114323
  21 N :    0.606086
  22 C :   -0.489923
  23 N :    1.268230
  24 H :   -0.481096
  25 H :   -0.482638
  26 H :   -0.361821
  27 H :   -0.301255
  28 H :   -0.276609
  29 H :   -0.270797
  30 H :   -0.298332

  Mayer bond orders larger than 0.100000
B(  0-O ,  1-C ) :   0.6759 B(  0-O ,  3-C ) :   0.1857 B(  0-O ,  4-C ) :   0.3100
B(  1-C ,  2-C ) :   0.7627 B(  1-C ,  5-C ) :   0.4876 B(  1-C ,  6-H ) :   1.0353
B(  1-C , 28-H ) :  -0.1425 B(  1-C , 29-H ) :  -0.1552 B(  2-C ,  3-C ) :   0.9569
B(  2-C ,  7-O ) :   0.4918 B(  2-C ,  8-H ) :   0.7470 B(  2-C ,  9-H ) :   0.1060
B(  2-C , 10-O ) :   0.2435 B(  3-C ,  4-C ) :   1.2433 B(  3-C , 11-H ) :   0.8896
B(  3-C , 13-N ) :  -0.1115 B(  4-C , 10-O ) :   0.1874 B(  4-C , 13-N ) :   0.8486
B(  4-C , 14-H ) :   0.8201 B(  5-C , 28-H ) :   1.0426 B(  5-C , 29-H ) :   1.1178
B(  5-C , 30-H ) :   0.9249 B(  7-O ,  9-H ) :   0.6316 B(  7-O , 19-N ) :  -0.1051
B(  9-H , 19-N ) :   0.1463 B( 10-O , 12-H ) :   0.7616 B( 13-N , 15-C ) :   1.3793
B( 13-N , 17-C ) :  -0.3407 B( 13-N , 18-C ) :   0.8384 B( 15-C , 16-N ) :   1.3238
B( 15-C , 17-C ) :   0.2131 B( 15-C , 18-C ) :   0.1856 B( 15-C , 27-H ) :   0.6923
B( 16-N , 17-C ) :   0.2282 B( 16-N , 18-C ) :   0.3477 B( 17-C , 18-C ) :   1.3332
B( 17-C , 19-N ) :  -0.1233 B( 17-C , 20-C ) :   0.1963 B( 17-C , 21-N ) :   0.1356
B( 17-C , 22-C ) :   1.4534 B( 18-C , 19-N ) :   1.2627 B( 18-C , 22-C ) :  -0.4167
B( 19-N , 20-C ) :   1.7180 B( 20-C , 21-N ) :   1.1979 B( 20-C , 26-H ) :   0.7208
B( 21-N , 22-C ) :   0.7838 B( 21-N , 23-N ) :   0.1148 B( 22-C , 23-N ) :   0.8526
B( 23-N , 24-H ) :   0.9175 B( 23-N , 25-H ) :   0.9897

MP2 TOTAL ENERGY:     -887.048632528 Eh
FINAL SINGLE POINT ENERGY      -887.048632528448

DIPOLE MOMENT
-------------
                                X             Y             Z
Electronic contribution:     11.16632       3.15874       1.66597
Nuclear contribution   :    -11.44342      -2.55190      -2.12274
                        -----------------------------------------
Total Dipole Moment    :     -0.27709       0.60684      -0.45676
                        -----------------------------------------
Magnitude (a.u.)       :      0.80850
Magnitude (Debye)      :      2.05504

Rotational constants in cm-1:     0.027627     0.010763     0.009572
Rotational constants in MHz :   828.243697   322.675226   286.975750

                             ****ORCA TERMINATED NORMALLY****
TOTAL RUN TIME: 0 days 4 hours 37 minutes 47 seconds 750 msec
