                         Program Version 4.2.1 -  RELEASE  -
|  1> %pal
|  2>  nprocs 32
|  3> end
|  4> !RI-MP2 aug-cc-pVQZ aug-cc-pVQZ/C TightSCF
|  5> %maxcore 4500
|  6> *xyzfile 0 2  01_2R.xyz
|  7>
|  8>
|  9>                          ****END OF INPUT****

CARTESIAN COORDINATES (ANGSTROEM)
---------------------------------
  C      0.000000    1.232385    0.367757
  C      0.000000    0.663793   -1.030348
  C      0.000000    0.000000    1.215574
  H     -0.874642    1.874312    0.548599
  H      0.874642    1.874312    0.548599
  C      0.000000   -0.663793   -1.030348
  C      0.000000   -1.232385    0.367757
  H      0.000000    0.000000    2.296466
  H     -0.874642   -1.874312    0.548599
  H      0.874642   -1.874312    0.548599
  H      0.000000   -1.286042   -1.916607
  H      0.000000    1.286042   -1.916607

 Total Charge           Charge          ....    0
 Multiplicity           Mult            ....    2
 Number of Electrons    NEL             ....   37
 Basis Dimension        Dim             ....  722

ORBITAL ENERGIES
----------------
                 SPIN UP ORBITALS
  NO   OCC          E(Eh)            E(eV)
   0   1.0000     -11.224019      -305.4211
   1   1.0000     -11.222776      -305.3873
   2   1.0000     -11.222603      -305.3825
   3   1.0000     -11.221190      -305.3441
   4   1.0000     -11.219441      -305.2965
   5   1.0000      -1.140491       -31.0343
   6   1.0000      -0.966853       -26.3094
   7   1.0000      -0.961372       -26.1603
   8   1.0000      -0.776827       -21.1386
   9   1.0000      -0.727812       -19.8048
  10   1.0000      -0.682360       -18.5679
  11   1.0000      -0.620280       -16.8787
  12   1.0000      -0.552841       -15.0436
  13   1.0000      -0.545741       -14.8504
  14   1.0000      -0.506814       -13.7911
  15   1.0000      -0.505149       -13.7458
  16   1.0000      -0.488080       -13.2813
  17   1.0000      -0.360448        -9.8083
  18   1.0000      -0.319617        -8.6972
  19   0.0000       0.027198         0.7401
  20   0.0000       0.032888         0.8949
  21   0.0000       0.033876         0.9218
  22   0.0000       0.039064         1.0630
  23   0.0000       0.047983         1.3057

                 SPIN DOWN ORBITALS
  NO   OCC          E(Eh)            E(eV)
   0   1.0000     -11.226058      -305.4766
   1   1.0000     -11.226053      -305.4764
   2   1.0000     -11.221094      -305.3415
   3   1.0000     -11.219311      -305.2930
   4   1.0000     -11.199356      -304.7500
   5   1.0000      -1.125470       -30.6256
   6   1.0000      -0.961478       -26.1632
   7   1.0000      -0.935115       -25.4458
   8   1.0000      -0.737413       -20.0660
   9   1.0000      -0.726673       -19.7738
  10   1.0000      -0.675849       -18.3908
  11   1.0000      -0.585108       -15.9216
  12   1.0000      -0.540515       -14.7082
  13   1.0000      -0.539111       -14.6700
  14   1.0000      -0.502909       -13.6849
  15   1.0000      -0.495939       -13.4952
  16   1.0000      -0.485122       -13.2008
  17   1.0000      -0.346042        -9.4163
  18   0.0000       0.027387         0.7452
  19   0.0000       0.033039         0.8990
  20   0.0000       0.033915         0.9229
  21   0.0000       0.039206         1.0669
  22   0.0000       0.047994         1.3060

MULLIKEN ATOMIC CHARGES AND SPIN POPULATIONS
--------------------------------------------
   0 C :   -0.476405   -0.169908
   1 C :   -0.404611    0.017215
   2 C :   -0.368052    1.165788
   3 H :    0.225504    0.055515
   4 H :    0.225507    0.055515
   5 C :   -0.404604    0.017220
   6 C :   -0.476399   -0.169910
   7 H :    0.437956   -0.077833
   8 H :    0.225511    0.055515
   9 H :    0.225510    0.055515
  10 H :    0.395039   -0.002317
  11 H :    0.395044   -0.002315
Sum of atomic charges         :   -0.0000000

LOEWDIN ATOMIC CHARGES AND SPIN POPULATIONS
-------------------------------------------
   0 C :    0.446374    0.135124
   1 C :    0.369105    0.011209
   2 C :    0.420866    0.462942
   3 H :   -0.286123    0.025152
   4 H :   -0.286123    0.025152
   5 C :    0.369105    0.011209
   6 C :    0.446374    0.135124
   7 H :   -0.295134    0.144328
   8 H :   -0.286123    0.025152
   9 H :   -0.286123    0.025152
  10 H :   -0.306098   -0.000271
  11 H :   -0.306098   -0.000271

  Mayer bond orders larger than 0.100000
B(  0-C ,  1-C ) :   0.8876 B(  0-C ,  2-C ) :   0.8970 B(  0-C ,  3-H ) :   0.9480
B(  0-C ,  4-H ) :   0.9480 B(  1-C ,  5-C ) :   1.6177 B(  1-C , 11-H ) :   0.8780
B(  2-C ,  6-C ) :   0.8970 B(  2-C ,  7-H ) :   0.7665 B(  5-C ,  6-C ) :   0.8876
B(  5-C , 10-H ) :   0.8780 B(  6-C ,  8-H ) :   0.9480 B(  6-C ,  9-H ) :   0.9480

MP2 TOTAL ENERGY:     -194.279363684 Eh
FINAL SINGLE POINT ENERGY      -194.279363684301

DIPOLE MOMENT
-------------
                                X             Y             Z
Electronic contribution:      0.00000       0.00000      -0.64004
Nuclear contribution   :      0.00000       0.00000       0.68095
                        -----------------------------------------
Total Dipole Moment    :      0.00000       0.00000       0.04091
                        -----------------------------------------
Magnitude (a.u.)       :      0.04091
Magnitude (Debye)      :      0.10398

Rotational constants in cm-1:     0.265425     0.249182     0.134867
Rotational constants in MHz :  7957.254789  7470.291877  4043.205828

                             ****ORCA TERMINATED NORMALLY****
TOTAL RUN TIME: 0 days 0 hours 11 minutes 10 seconds 182 msec
