                         Program Version 4.2.1 -  RELEASE  -
|  1> %pal
|  2>  nprocs 32
|  3> end
|  4> !RI-MP2 aug-cc-pVQZ aug-cc-pVQZ/C TightSCF
|  5> %maxcore 4500
|  6> *xyzfile 0 1  04_32P2.xyz
|  7>
|  8>
|  9>                          ****END OF INPUT****

CARTESIAN COORDINATES (ANGSTROEM)
---------------------------------
  C      1.392626    0.000993   -0.000254
  C      0.706547    1.203472   -0.002816
  C     -0.679594    1.199832   -0.007145
  C     -1.381727   -0.001272    0.005564
  C     -0.676549   -1.201534    0.010568
  C      0.708770   -1.203402    0.004210
  S     -3.156021   -0.078807   -0.018036
  H      1.251133    2.138280   -0.007590
  H     -1.209127    2.144470   -0.020720
  H     -1.209832   -2.144260    0.025794
  H      1.255226   -2.137056    0.008471
  Cl     3.138984    0.002952   -0.000913
  H     -3.374229    1.220754    0.237376

 Total Charge           Charge          ....    0
 Multiplicity           Mult            ....    1
 Number of Electrons    NEL             ....   74
 Basis Dimension        Dim             ....  878

ORBITAL ENERGIES
----------------

  NO   OCC          E(Eh)            E(eV)
   0   2.0000    -104.841911     -2852.8934
   1   2.0000     -91.974269     -2502.7471
   2   2.0000     -11.304737      -307.6175
   3   2.0000     -11.287618      -307.1517
   4   2.0000     -11.257875      -306.3423
   5   2.0000     -11.257354      -306.3282
   6   2.0000     -11.256118      -306.2945
   7   2.0000     -11.254620      -306.2538
   8   2.0000     -10.567223      -287.5488
   9   2.0000      -8.976634      -244.2666
  10   2.0000      -8.034363      -218.6261
  11   2.0000      -8.032639      -218.5792
  12   2.0000      -8.032577      -218.5775
  13   2.0000      -6.658265      -181.1806
  14   2.0000      -6.657315      -181.1547
  15   2.0000      -6.656368      -181.1290
  16   2.0000      -1.201676       -32.6993
  17   2.0000      -1.135748       -30.9053
  18   2.0000      -1.045063       -28.4376
  19   2.0000      -1.043696       -28.4004
  20   2.0000      -0.944780       -25.7088
  21   2.0000      -0.860942       -23.4274
  22   2.0000      -0.813926       -22.1480
  23   2.0000      -0.697527       -18.9807
  24   2.0000      -0.669952       -18.2303
  25   2.0000      -0.652384       -17.7523
  26   2.0000      -0.613596       -16.6968
  27   2.0000      -0.583183       -15.8692
  28   2.0000      -0.558616       -15.2007
  29   2.0000      -0.539445       -14.6790
  30   2.0000      -0.524107       -14.2617
  31   2.0000      -0.491817       -13.3830
  32   2.0000      -0.479926       -13.0594
  33   2.0000      -0.458595       -12.4790
  34   2.0000      -0.413031       -11.2392
  35   2.0000      -0.363406        -9.8888
  36   2.0000      -0.314817        -8.5666
  37   0.0000       0.024201         0.6585
  38   0.0000       0.028792         0.7835
  39   0.0000       0.033240         0.9045
  40   0.0000       0.043517         1.1842
  41   0.0000       0.049185         1.3384

MULLIKEN ATOMIC CHARGES
-----------------------
   0 C :   -0.397361
   1 C :   -0.065803
   2 C :   -0.248667
   3 C :   -0.089732
   4 C :   -0.095381
   5 C :   -0.080402
   6 S :   -0.163709
   7 H :    0.429619
   8 H :    0.267010
   9 H :    0.349919
  10 H :    0.415956
  11 Cl:   -0.345092
  12 H :    0.023644
Sum of atomic charges:    0.0000000

LOEWDIN ATOMIC CHARGES
----------------------
   0 C :   -0.856737
   1 C :    0.194657
   2 C :    0.225092
   3 C :   -0.564321
   4 C :    0.204262
   5 C :    0.193006
   6 S :    1.611413
   7 H :   -0.352575
   8 H :   -0.349577
   9 H :   -0.345111
  10 H :   -0.352573
  11 Cl:    1.177526
  12 H :   -0.785063

  Mayer bond orders larger than 0.100000
B(  0-C ,  1-C ) :   1.1113 B(  0-C ,  5-C ) :   1.1001 B(  0-C , 11-Cl) :   1.0593
B(  1-C ,  2-C ) :   1.2743 B(  1-C ,  3-C ) :  -0.1345 B(  1-C ,  7-H ) :   0.8699
B(  1-C ,  8-H ) :  -0.1148 B(  1-C , 11-Cl) :  -0.1737 B(  2-C ,  3-C ) :   0.9296
B(  2-C ,  5-C ) :   0.1098 B(  2-C ,  7-H ) :  -0.1225 B(  2-C ,  8-H ) :   1.0080
B(  3-C ,  4-C ) :   0.9685 B(  3-C ,  5-C ) :  -0.1046 B(  3-C ,  6-S ) :   0.8472
B(  3-C , 12-H ) :  -0.1342 B(  4-C ,  5-C ) :   1.2608 B(  4-C ,  6-S ) :  -0.2181
B(  4-C ,  9-H ) :   0.9412 B(  4-C , 10-H ) :  -0.1151 B(  5-C ,  9-H ) :  -0.1133
B(  5-C , 10-H ) :   0.8816 B(  5-C , 11-Cl) :  -0.1764 B(  6-S , 12-H ) :   1.1173

MP2 TOTAL ENERGY:    -1088.693174248 Eh
FINAL SINGLE POINT ENERGY     -1088.693174248135

DIPOLE MOMENT
-------------
                                X             Y             Z
Electronic contribution:      6.98355      -0.86561      -0.17363
Nuclear contribution   :     -7.38064       1.17279       0.23563
                        -----------------------------------------
Total Dipole Moment    :     -0.39709       0.30717       0.06199
                        -----------------------------------------
Magnitude (a.u.)       :      0.50585
Magnitude (Debye)      :      1.28576

Rotational constants in cm-1:     0.188062     0.022321     0.019956
Rotational constants in MHz :  5637.959631   669.160257   598.263524

                             ****ORCA TERMINATED NORMALLY****
TOTAL RUN TIME: 0 days 0 hours 20 minutes 52 seconds 394 msec
