                         Program Version 4.2.1 -  RELEASE  -
|  1> %pal
|  2>  nprocs 32
|  3> end
|  4> !RI-MP2 aug-cc-pVQZ aug-cc-pVQZ/C TightSCF
|  5> %maxcore 4500
|  6> *xyzfile 0 1  08_10P1.xyz
|  7>
|  8>
|  9>                          ****END OF INPUT****

CARTESIAN COORDINATES (ANGSTROEM)
---------------------------------
  S     -1.400889    1.532448    0.529859
  C     -2.370379    0.591278   -0.719603
  S      0.152158    2.361155   -0.562498
  C      1.270748    0.951326   -0.865209
  C      1.707345    0.189036    0.383061
  H      2.135228    1.402396   -1.361765
  H      0.800109    0.267697   -1.566571
  C     -2.634837   -0.849945   -0.264806
  H     -1.817608    0.610871   -1.656024
  H     -3.327703    1.092637   -0.847077
  N      2.530224    1.007061    1.271008
  C      2.510123   -1.032630   -0.077480
  H      0.820114   -0.196950    0.890032
  O      2.018490   -1.940779   -0.706650
  O      3.786575   -0.999353    0.244619
  N     -3.482180   -0.869623    0.909424
  C     -1.312000   -1.584935   -0.067021
  H     -3.162564   -1.337539   -1.089328
  O     -0.915519   -1.971669    1.002315
  O     -0.624288   -1.696033   -1.200289
  H      0.295753   -2.008977   -1.009481
  H      3.899585   -0.159732    0.750706
  H     -3.920923   -1.775274    1.020289
  H     -2.921036   -0.722801    1.742806
  H      2.294545    0.850139    2.243633
  H      2.399814    1.995711    1.088355

 Total Charge           Charge          ....    0
 Multiplicity           Mult            ....    1
 Number of Electrons    NEL             ....  126
 Basis Dimension        Dim             .... 1680

ORBITAL ENERGIES
----------------

  NO   OCC          E(Eh)            E(eV)
   0   2.0000     -91.993679     -2503.2753
   1   2.0000     -91.986588     -2503.0823
   2   2.0000     -20.614714      -560.9549
   3   2.0000     -20.596123      -560.4490
   4   2.0000     -20.557289      -559.3923
   5   2.0000     -20.545384      -559.0683
   6   2.0000     -15.588936      -424.1965
   7   2.0000     -15.552887      -423.2156
   8   2.0000     -11.397166      -310.1327
   9   2.0000     -11.379716      -309.6578
  10   2.0000     -11.303475      -307.5832
  11   2.0000     -11.290081      -307.2187
  12   2.0000     -11.289502      -307.2030
  13   2.0000     -11.277564      -306.8781
  14   2.0000      -8.993452      -244.7243
  15   2.0000      -8.986841      -244.5444
  16   2.0000      -6.674732      -181.6287
  17   2.0000      -6.673569      -181.5971
  18   2.0000      -6.672768      -181.5753
  19   2.0000      -6.668129      -181.4490
  20   2.0000      -6.666970      -181.4175
  21   2.0000      -6.666247      -181.3978
  22   2.0000      -1.480554       -40.2879
  23   2.0000      -1.463073       -39.8123
  24   2.0000      -1.381610       -37.5955
  25   2.0000      -1.360054       -37.0089
  26   2.0000      -1.237777       -33.6816
  27   2.0000      -1.210858       -32.9491
  28   2.0000      -1.105088       -30.0710
  29   2.0000      -1.058871       -28.8133
  30   2.0000      -1.001538       -27.2532
  31   2.0000      -0.944980       -25.7142
  32   2.0000      -0.893941       -24.3254
  33   2.0000      -0.833274       -22.6745
  34   2.0000      -0.818174       -22.2637
  35   2.0000      -0.782409       -21.2904
  36   2.0000      -0.748763       -20.3749
  37   2.0000      -0.725645       -19.7458
  38   2.0000      -0.717464       -19.5232
  39   2.0000      -0.707010       -19.2387
  40   2.0000      -0.694793       -18.9063
  41   2.0000      -0.684521       -18.6268
  42   2.0000      -0.660726       -17.9793
  43   2.0000      -0.643488       -17.5102
  44   2.0000      -0.632678       -17.2160
  45   2.0000      -0.612477       -16.6664
  46   2.0000      -0.603548       -16.4234
  47   2.0000      -0.593251       -16.1432
  48   2.0000      -0.582105       -15.8399
  49   2.0000      -0.571382       -15.5481
  50   2.0000      -0.563315       -15.3286
  51   2.0000      -0.554738       -15.0952
  52   2.0000      -0.522524       -14.2186
  53   2.0000      -0.501664       -13.6510
  54   2.0000      -0.496203       -13.5024
  55   2.0000      -0.486900       -13.2492
  56   2.0000      -0.476065       -12.9544
  57   2.0000      -0.458904       -12.4874
  58   2.0000      -0.452874       -12.3233
  59   2.0000      -0.437059       -11.8930
  60   2.0000      -0.416602       -11.3363
  61   2.0000      -0.386569       -10.5191
  62   2.0000      -0.361260        -9.8304
  63   0.0000       0.019213         0.5228
  64   0.0000       0.025740         0.7004
  65   0.0000       0.028168         0.7665
  66   0.0000       0.036348         0.9891
  67   0.0000       0.039028         1.0620

MULLIKEN ATOMIC CHARGES
-----------------------
   0 S :   -0.159749
   1 C :   -0.621773
   2 S :   -0.323497
   3 C :   -0.599469
   4 C :    0.389779
   5 H :    0.249394
   6 H :    0.433350
   7 C :    0.232110
   8 H :    0.304117
   9 H :    0.358967
  10 N :   -0.809081
  11 C :    1.533642
  12 H :    0.247258
  13 O :   -0.908755
  14 O :   -0.996148
  15 N :   -0.878684
  16 C :    1.376945
  17 H :    0.479228
  18 O :   -1.029403
  19 O :   -0.926362
  20 H :    0.376988
  21 H :    0.388947
  22 H :    0.196687
  23 H :    0.271923
  24 H :    0.232011
  25 H :    0.181577
Sum of atomic charges:   -0.0000000

LOEWDIN ATOMIC CHARGES
----------------------
   0 S :    0.873590
   1 C :    0.114730
   2 S :    0.886282
   3 C :    0.082549
   4 C :   -0.157119
   5 H :   -0.356131
   6 H :   -0.419402
   7 C :   -0.195724
   8 H :   -0.398512
   9 H :   -0.359768
  10 N :    1.293811
  11 C :   -0.940332
  12 H :   -0.411759
  13 O :    0.840781
  14 O :    1.280844
  15 N :    1.261290
  16 C :   -1.082080
  17 H :   -0.304499
  18 O :    0.749592
  19 O :    1.278044
  20 H :   -1.089808
  21 H :   -0.938844
  22 H :   -0.490516
  23 H :   -0.555715
  24 H :   -0.442009
  25 H :   -0.519293

  Mayer bond orders larger than 0.100000
B(  0-S ,  1-C ) :   0.8016 B(  0-S ,  2-S ) :   1.2263 B(  1-C ,  7-C ) :   1.0458
B(  1-C ,  8-H ) :   0.9048 B(  1-C ,  9-H ) :   0.8650 B(  2-S ,  3-C ) :   0.7547
B(  3-C ,  4-C ) :   0.6989 B(  3-C ,  5-H ) :   0.9679 B(  3-C ,  6-H ) :   0.8619
B(  4-C , 10-N ) :   0.4275 B(  4-C , 11-C ) :   1.0979 B(  4-C , 12-H ) :   0.8538
B(  4-C , 13-O ) :   0.1399 B(  4-C , 14-O ) :   0.2816 B(  7-C , 15-N ) :   0.5877
B(  7-C , 16-C ) :   0.9087 B(  7-C , 17-H ) :   0.6785 B( 10-N , 21-H ) :   0.1503
B( 10-N , 24-H ) :   0.9912 B( 10-N , 25-H ) :   1.0724 B( 11-C , 13-O ) :   1.1852
B( 11-C , 14-O ) :   0.3967 B( 13-O , 14-O ) :   0.1633 B( 14-O , 21-H ) :   0.7077
B( 15-N , 16-C ) :   0.1044 B( 15-N , 22-H ) :   1.0050 B( 15-N , 23-H ) :   0.8780
B( 16-C , 18-O ) :   1.0134 B( 16-C , 19-O ) :   0.6952 B( 19-O , 20-H ) :   0.7790

MP2 TOTAL ENERGY:    -1440.915309044 Eh
FINAL SINGLE POINT ENERGY     -1440.915309044031

DIPOLE MOMENT
-------------
                                X             Y             Z
Electronic contribution:      2.32745       1.28790      -0.13746
Nuclear contribution   :     -2.36793      -0.20220       0.20580
                        -----------------------------------------
Total Dipole Moment    :     -0.04049       1.08569       0.06834
                        -----------------------------------------
Magnitude (a.u.)       :      1.08860
Magnitude (Debye)      :      2.76699

Rotational constants in cm-1:     0.024469     0.014509     0.010747
Rotational constants in MHz :   733.550598   434.955406   322.176702

                             ****ORCA TERMINATED NORMALLY****
TOTAL RUN TIME: 0 days 2 hours 13 minutes 35 seconds 314 msec
