                         Program Version 4.2.1 -  RELEASE  -
|  1> %pal
|  2>  nprocs 32
|  3> end
|  4> !RI-MP2 aug-cc-pVQZ aug-cc-pVQZ/C TightSCF
|  5> %maxcore 4500
|  6> *xyzfile 0 2  04_3TS.xyz
|  7>
|  8>
|  9>                          ****END OF INPUT****

CARTESIAN COORDINATES (ANGSTROEM)
---------------------------------
  C      2.316335   -1.008600    0.918821
  S      1.998380   -0.392977   -0.754658
  H      1.047008    0.785462   -0.317350
  S     -0.087162    1.691052    0.278630
  C     -1.476974    0.698971   -0.342192
  C     -1.706753   -0.614725    0.390686
  C     -2.927841   -1.356484   -0.142916
  H     -1.335716    0.533526   -1.411781
  H     -2.346278    1.355420   -0.237609
  H     -1.821033   -0.413091    1.458853
  H     -0.818280   -1.241312    0.278590
  H     -2.815888   -1.589016   -1.204935
  H     -3.836692   -0.760251   -0.026394
  H     -3.078201   -2.298086    0.388420
  H      2.763149   -0.238507    1.544286
  H      3.026366   -1.830602    0.815602
  H      1.407481   -1.387719    1.382378

 Total Charge           Charge          ....    0
 Multiplicity           Mult            ....    2
 Number of Electrons    NEL             ....   67
 Basis Dimension        Dim             ....  994

ORBITAL ENERGIES
----------------
                 SPIN UP ORBITALS
  NO   OCC          E(Eh)            E(eV)
   0   1.0000     -91.965172     -2502.4996
   1   1.0000     -91.961265     -2502.3932
   2   1.0000     -11.261029      -306.4282
   3   1.0000     -11.259269      -306.3803
   4   1.0000     -11.228538      -305.5441
   5   1.0000     -11.219395      -305.2953
   6   1.0000      -8.967028      -244.0052
   7   1.0000      -8.963373      -243.9058
   8   1.0000      -6.658706      -181.1926
   9   1.0000      -6.654927      -181.0898
  10   1.0000      -6.645344      -180.8290
  11   1.0000      -6.644284      -180.8001
  12   1.0000      -6.641694      -180.7297
  13   1.0000      -6.640703      -180.7027
  14   1.0000      -1.092612       -29.7315
  15   1.0000      -1.049302       -28.5529
  16   1.0000      -0.999591       -27.2003
  17   1.0000      -0.889201       -24.1964
  18   1.0000      -0.859588       -23.3906
  19   1.0000      -0.804938       -21.9035
  20   1.0000      -0.658969       -17.9315
  21   1.0000      -0.621550       -16.9132
  22   1.0000      -0.597021       -16.2458
  23   1.0000      -0.589991       -16.0545
  24   1.0000      -0.573412       -15.6033
  25   1.0000      -0.559209       -15.2169
  26   1.0000      -0.534980       -14.5575
  27   1.0000      -0.499653       -13.5963
  28   1.0000      -0.488551       -13.2942
  29   1.0000      -0.483567       -13.1585
  30   1.0000      -0.458604       -12.4793
  31   1.0000      -0.371903       -10.1200
  32   1.0000      -0.370517       -10.0823
  33   1.0000      -0.363043        -9.8789
  34   0.0000       0.024052         0.6545
  35   0.0000       0.030072         0.8183
  36   0.0000       0.035409         0.9635
  37   0.0000       0.035712         0.9718
  38   0.0000       0.046239         1.2582

                 SPIN DOWN ORBITALS
  NO   OCC          E(Eh)            E(eV)
   0   1.0000     -91.958944     -2502.3301
   1   1.0000     -91.955158     -2502.2271
   2   1.0000     -11.261502      -306.4410
   3   1.0000     -11.259765      -306.3938
   4   1.0000     -11.228471      -305.5422
   5   1.0000     -11.219424      -305.2960
   6   1.0000      -8.960242      -243.8206
   7   1.0000      -8.956743      -243.7254
   8   1.0000      -6.642320      -180.7467
   9   1.0000      -6.640637      -180.7009
  10   1.0000      -6.638715      -180.6486
  11   1.0000      -6.637140      -180.6057
  12   1.0000      -6.630073      -180.4135
  13   1.0000      -6.626749      -180.3230
  14   1.0000      -1.084776       -29.5182
  15   1.0000      -1.025322       -27.9004
  16   1.0000      -0.980444       -26.6792
  17   1.0000      -0.867299       -23.6004
  18   1.0000      -0.828547       -22.5459
  19   1.0000      -0.788571       -21.4581
  20   1.0000      -0.649829       -17.6827
  21   1.0000      -0.600507       -16.3406
  22   1.0000      -0.593627       -16.1534
  23   1.0000      -0.586743       -15.9661
  24   1.0000      -0.564193       -15.3525
  25   1.0000      -0.554768       -15.0960
  26   1.0000      -0.514437       -13.9985
  27   1.0000      -0.498419       -13.5627
  28   1.0000      -0.484963       -13.1965
  29   1.0000      -0.469725       -12.7819
  30   1.0000      -0.437548       -11.9063
  31   1.0000      -0.359416        -9.7802
  32   1.0000      -0.352135        -9.5821
  33   0.0000       0.000508         0.0138
  34   0.0000       0.024111         0.6561
  35   0.0000       0.030464         0.8290
  36   0.0000       0.035740         0.9725
  37   0.0000       0.036316         0.9882

MULLIKEN ATOMIC CHARGES AND SPIN POPULATIONS
--------------------------------------------
   0 C :   -0.971754   -0.060826
   1 S :   -0.009308    0.664869
   2 H :   -0.064416   -0.252005
   3 S :   -0.117819    0.681585
   4 C :   -0.515779   -0.097326
   5 C :   -0.360418    0.011140
   6 C :   -0.837625   -0.001024
   7 H :    0.266975    0.013252
   8 H :    0.332322    0.013317
   9 H :    0.260303    0.000769
  10 H :    0.303831    0.002158
  11 H :    0.223690    0.000249
  12 H :    0.224633    0.000263
  13 H :    0.274222   -0.000213
  14 H :    0.305272    0.005071
  15 H :    0.385003    0.012774
  16 H :    0.300867    0.005948
Sum of atomic charges         :    0.0000000

LOEWDIN ATOMIC CHARGES AND SPIN POPULATIONS
-------------------------------------------
   0 C :    0.475025    0.082010
   1 S :    1.383052    0.353748
   2 H :   -1.282991    0.088998
   3 S :    1.439459    0.345488
   4 C :    0.071158    0.080385
   5 C :    0.394469    0.002228
   6 C :    0.918869    0.000243
   7 H :   -0.363366    0.002486
   8 H :   -0.381606    0.020268
   9 H :   -0.295403   -0.000044
  10 H :   -0.336423   -0.000399
  11 H :   -0.283125    0.000033
  12 H :   -0.284351    0.000121
  13 H :   -0.281761   -0.000085
  14 H :   -0.378918    0.002177
  15 H :   -0.401674    0.019849
  16 H :   -0.392413    0.002495

  Mayer bond orders larger than 0.100000
B(  0-C ,  1-S ) :   1.0195 B(  0-C , 14-H ) :   0.8935 B(  0-C , 15-H ) :   0.8376
B(  0-C , 16-H ) :   0.8952 B(  1-S ,  2-H ) :   0.4338 B(  2-H ,  3-S ) :   0.5191
B(  3-S ,  4-C ) :   0.8929 B(  4-C ,  5-C ) :   0.8819 B(  4-C ,  7-H ) :   0.9276
B(  4-C ,  8-H ) :   0.8508 B(  5-C ,  6-C ) :   0.9054 B(  5-C ,  9-H ) :   0.8719
B(  5-C , 10-H ) :   0.8303 B(  6-C , 11-H ) :   0.9503 B(  6-C , 12-H ) :   0.9967
B(  6-C , 13-H ) :   0.9683

MP2 TOTAL ENERGY:     -954.136958909 Eh
FINAL SINGLE POINT ENERGY      -954.136958908790

DIPOLE MOMENT
-------------
                                X             Y             Z
Electronic contribution:      7.62922       6.65492      -2.37527
Nuclear contribution   :     -8.03167      -7.27329       2.74092
                        -----------------------------------------
Total Dipole Moment    :     -0.40244      -0.61838       0.36565
                        -----------------------------------------
Magnitude (a.u.)       :      0.82344
Magnitude (Debye)      :      2.09301

Rotational constants in cm-1:     0.082555     0.036224     0.029070
Rotational constants in MHz :  2474.925153  1085.962449   871.489067

                             ****ORCA TERMINATED NORMALLY****
TOTAL RUN TIME: 0 days 0 hours 42 minutes 30 seconds 902 msec
