                         Program Version 4.2.1 -  RELEASE  -
|  1> %pal
|  2>  nprocs 32
|  3> end
|  4> !RI-MP2 aug-cc-pVQZ aug-cc-pVQZ/C TightSCF
|  5> %maxcore 4500
|  6> *xyzfile 0 1  04_22P2.xyz
|  7>
|  8>
|  9>                          ****END OF INPUT****

CARTESIAN COORDINATES (ANGSTROEM)
---------------------------------
  S      0.662250   -0.086964   -0.000048
  C     -1.155222    0.019920    0.000076
  H     -1.523850    0.521240    0.892856
  H     -1.523965    0.521343   -0.892599
  H     -1.522838   -1.004838    0.000041
  H      0.905992    1.234161    0.000013

 Total Charge           Charge          ....    0
 Multiplicity           Mult            ....    1
 Number of Electrons    NEL             ....   26
 Basis Dimension        Dim             ....  348

ORBITAL ENERGIES
----------------

  NO   OCC          E(Eh)            E(eV)
   0   2.0000     -91.951898     -2502.1383
   1   2.0000     -11.257470      -306.3313
   2   2.0000      -8.953914      -243.6484
   3   2.0000      -6.635546      -180.5624
   4   2.0000      -6.634616      -180.5371
   5   2.0000      -6.633671      -180.5114
   6   2.0000      -1.036020       -28.1915
   7   2.0000      -0.866829       -23.5876
   8   2.0000      -0.607439       -16.5293
   9   2.0000      -0.592139       -16.1129
  10   2.0000      -0.528289       -14.3755
  11   2.0000      -0.459486       -12.5032
  12   2.0000      -0.357570        -9.7300
  13   0.0000       0.026096         0.7101
  14   0.0000       0.036761         1.0003
  15   0.0000       0.042232         1.1492
  16   0.0000       0.045538         1.2392
  17   0.0000       0.072418         1.9706

MULLIKEN ATOMIC CHARGES
-----------------------
   0 S :   -0.083904
   1 C :   -0.785723
   2 H :    0.256618
   3 H :    0.256618
   4 H :    0.288016
   5 H :    0.068375
Sum of atomic charges:    0.0000000

LOEWDIN ATOMIC CHARGES
----------------------
   0 S :    1.507799
   1 C :    0.477755
   2 H :   -0.384108
   3 H :   -0.384108
   4 H :   -0.409314
   5 H :   -0.808024

  Mayer bond orders larger than 0.100000
B(  0-S ,  1-C ) :   0.9783 B(  0-S ,  5-H ) :   1.0024 B(  1-C ,  2-H ) :   0.9160
B(  1-C ,  3-H ) :   0.9160 B(  1-C ,  4-H ) :   0.8976

MP2 TOTAL ENERGY:     -438.157500665 Eh
FINAL SINGLE POINT ENERGY      -438.157500665220

DIPOLE MOMENT
-------------
                                X             Y             Z
Electronic contribution:      3.17472      -0.96433      -0.00026
Nuclear contribution   :     -3.74078       1.29385       0.00032
                        -----------------------------------------
Total Dipole Moment    :     -0.56606       0.32952       0.00006
                        -----------------------------------------
Magnitude (a.u.)       :      0.65499
Magnitude (Debye)      :      1.66485

Rotational constants in cm-1:     3.444006     0.429045     0.411437
Rotational constants in MHz : 103248.697617 12862.432275 12334.585604

                             ****ORCA TERMINATED NORMALLY****
TOTAL RUN TIME: 0 days 0 hours 0 minutes 46 seconds 698 msec
