                         Program Version 4.2.1 -  RELEASE  -
|  1> %pal
|  2>  nprocs 32
|  3> end
|  4> !RI-MP2 aug-cc-pVQZ aug-cc-pVQZ/C TightSCF
|  5> %maxcore 4500
|  6> *xyzfile 0 1  02_9TS.xyz
|  7>
|  8>
|  9>                          ****END OF INPUT****

CARTESIAN COORDINATES (ANGSTROEM)
---------------------------------
  C     -3.433122    0.792289   -0.580434
  C     -1.993763    1.275339   -0.772661
  C     -1.055027    0.729281    0.295976
  C     -1.289059   -1.250312    0.046215
  C     -3.649059   -0.713539   -0.698165
  H     -1.638379    0.940106   -1.755794
  H     -3.777815    1.123461    0.408181
  H     -4.072254    1.299081   -1.310606
  H     -1.019004   -1.181819   -1.004048
  H     -3.362198   -1.016023   -1.714474
  H     -1.470815    0.722669    1.300555
  H     -3.022885   -1.219002    1.305973
  H     -2.971087   -2.556110    0.171674
  C     -2.762279   -1.485537    0.275054
  C      0.299542    1.075225    0.266178
  C     -0.347405   -1.854845    0.876937
  H     -0.683628   -2.289466    1.812753
  C      1.551665   -1.015736   -0.375388
  C      1.023018   -1.749924    0.662209
  H      1.682147   -2.122285    1.436251
  H      0.927523   -0.795462   -1.230247
  H      0.740006    1.527871   -0.613897
  C     -5.119003   -1.067043   -0.496901
  H     -5.289993   -2.139234   -0.619464
  H     -5.755253   -0.541023   -1.212501
  H     -5.449485   -0.789657    0.508559
  C      1.036003    1.127750    1.515094
  O      0.585059    0.634753    2.542647
  C      2.363165    1.852920    1.519627
  C      2.978479   -0.769679   -0.581516
  C      3.364034   -0.184910   -1.725576
  H      2.577036    0.072697   -2.431696
  C      4.744952    0.167563   -2.172328
  H      4.986190   -0.343058   -3.109722
  H      5.512360   -0.092956   -1.445676
  H      4.822291    1.240505   -2.374463
  C      3.922234   -1.192564    0.509981
  H      4.943668   -0.869575    0.323605
  H      3.928736   -2.281091    0.612218
  H      3.610212   -0.782238    1.472515
  C     -1.972115    2.808023   -0.761992
  H     -2.284749    3.188239    0.214276
  H     -0.974053    3.197241   -0.964458
  H     -2.656747    3.207894   -1.514408
  H      2.172631    2.929261    1.562166
  H      2.937778    1.654387    0.614223
  H      2.933743    1.571756    2.403480

 Total Charge           Charge          ....    0
 Multiplicity           Mult            ....    1
 Number of Electrons    NEL             ....  144
 Basis Dimension        Dim             .... 2808

ORBITAL ENERGIES
----------------

  NO   OCC          E(Eh)            E(eV)
   0   2.0000     -20.496916      -557.7494
   1   2.0000     -11.295293      -307.3606
   2   2.0000     -11.250279      -306.1357
   3   2.0000     -11.240888      -305.8801
   4   2.0000     -11.240801      -305.8778
   5   2.0000     -11.237657      -305.7922
   6   2.0000     -11.236455      -305.7595
   7   2.0000     -11.233200      -305.6709
   8   2.0000     -11.230026      -305.5846
   9   2.0000     -11.227737      -305.5223
  10   2.0000     -11.225369      -305.4578
  11   2.0000     -11.221213      -305.3447
  12   2.0000     -11.220807      -305.3337
  13   2.0000     -11.218550      -305.2723
  14   2.0000     -11.216393      -305.2136
  15   2.0000     -11.212111      -305.0971
  16   2.0000     -11.212085      -305.0963
  17   2.0000     -11.209028      -305.0132
  18   2.0000     -11.208537      -304.9998
  19   2.0000      -1.342471       -36.5305
  20   2.0000      -1.141365       -31.0581
  21   2.0000      -1.122816       -30.5534
  22   2.0000      -1.083000       -29.4699
  23   2.0000      -1.071395       -29.1541
  24   2.0000      -1.021414       -27.7941
  25   2.0000      -1.013652       -27.5829
  26   2.0000      -0.981464       -26.7070
  27   2.0000      -0.969529       -26.3822
  28   2.0000      -0.934083       -25.4177
  29   2.0000      -0.924777       -25.1645
  30   2.0000      -0.896211       -24.3872
  31   2.0000      -0.860083       -23.4040
  32   2.0000      -0.825279       -22.4570
  33   2.0000      -0.782238       -21.2858
  34   2.0000      -0.766597       -20.8602
  35   2.0000      -0.738432       -20.0938
  36   2.0000      -0.718255       -19.5447
  37   2.0000      -0.698928       -19.0188
  38   2.0000      -0.675108       -18.3706
  39   2.0000      -0.650686       -17.7061
  40   2.0000      -0.635803       -17.3011
  41   2.0000      -0.630272       -17.1506
  42   2.0000      -0.622209       -16.9312
  43   2.0000      -0.616366       -16.7722
  44   2.0000      -0.599447       -16.3118
  45   2.0000      -0.584328       -15.9004
  46   2.0000      -0.581479       -15.8228
  47   2.0000      -0.574706       -15.6385
  48   2.0000      -0.572457       -15.5774
  49   2.0000      -0.563753       -15.3405
  50   2.0000      -0.558092       -15.1865
  51   2.0000      -0.551408       -15.0046
  52   2.0000      -0.542629       -14.7657
  53   2.0000      -0.538632       -14.6569
  54   2.0000      -0.535737       -14.5781
  55   2.0000      -0.529359       -14.4046
  56   2.0000      -0.524757       -14.2794
  57   2.0000      -0.521320       -14.1858
  58   2.0000      -0.520320       -14.1586
  59   2.0000      -0.503642       -13.7048
  60   2.0000      -0.498899       -13.5757
  61   2.0000      -0.485426       -13.2091
  62   2.0000      -0.480891       -13.0857
  63   2.0000      -0.471298       -12.8247
  64   2.0000      -0.462541       -12.5864
  65   2.0000      -0.453073       -12.3287
  66   2.0000      -0.448139       -12.1945
  67   2.0000      -0.433896       -11.8069
  68   2.0000      -0.389569       -10.6007
  69   2.0000      -0.377602       -10.2751
  70   2.0000      -0.317140        -8.6298
  71   2.0000      -0.263920        -7.1816
  72   0.0000       0.018581         0.5056
  73   0.0000       0.023059         0.6275
  74   0.0000       0.026392         0.7182
  75   0.0000       0.028447         0.7741
  76   0.0000       0.033365         0.9079

MULLIKEN ATOMIC CHARGES
-----------------------
   0 C :   -0.355624
   1 C :    0.405630
   2 C :    1.013736
   3 C :    0.994058
   4 C :    0.132744
   5 H :    0.115577
   6 H :    0.167034
   7 H :    0.194637
   8 H :    0.212347
   9 H :    0.144051
  10 H :    0.067076
  11 H :    0.127420
  12 H :    0.181700
  13 C :   -0.285949
  14 C :   -0.895757
  15 C :   -0.647234
  16 H :    0.041733
  17 C :   -0.034192
  18 C :   -0.252690
  19 H :    0.035578
  20 H :    0.319929
  21 H :    0.136623
  22 C :   -1.133008
  23 H :    0.195999
  24 H :    0.207620
  25 H :    0.157733
  26 C :    1.303950
  27 O :   -1.201523
  28 C :   -1.172488
  29 C :    0.398718
  30 C :   -0.506675
  31 H :    0.138782
  32 C :   -0.932427
  33 H :    0.325705
  34 H :    0.254141
  35 H :    0.227775
  36 C :   -1.009491
  37 H :    0.292709
  38 H :    0.337661
  39 H :    0.177578
  40 C :   -1.231791
  41 H :    0.192348
  42 H :    0.243734
  43 H :    0.240004
  44 H :    0.310925
  45 H :    0.077233
  46 H :    0.286364
Sum of atomic charges:   -0.0000000

LOEWDIN ATOMIC CHARGES
----------------------
   0 C :    0.520599
   1 C :    0.131567
   2 C :    0.233555
   3 C :    0.263018
   4 C :    0.130347
   5 H :   -0.261795
   6 H :   -0.255425
   7 H :   -0.262158
   8 H :   -0.333002
   9 H :   -0.257669
  10 H :   -0.327328
  11 H :   -0.257622
  12 H :   -0.255893
  13 C :    0.523476
  14 C :    0.273804
  15 C :    0.402595
  16 H :   -0.282157
  17 C :    0.297112
  18 C :    0.358430
  19 H :   -0.335260
  20 H :   -0.376596
  21 H :   -0.314112
  22 C :    0.939031
  23 H :   -0.270519
  24 H :   -0.270167
  25 H :   -0.269117
  26 C :   -0.704806
  27 O :    0.756648
  28 C :    0.887726
  29 C :   -0.030106
  30 C :    0.402361
  31 H :   -0.322133
  32 C :    0.920594
  33 H :   -0.283485
  34 H :   -0.330306
  35 H :   -0.283425
  36 C :    0.898543
  37 H :   -0.315578
  38 H :   -0.264393
  39 H :   -0.297857
  40 C :    0.945278
  41 H :   -0.260363
  42 H :   -0.284376
  43 H :   -0.268077
  44 H :   -0.276768
  45 H :   -0.329784
  46 H :   -0.304409

  Mayer bond orders larger than 0.100000
B(  0-C ,  1-C ) :   0.5358 B(  0-C ,  2-C ) :  -0.1380 B(  0-C ,  4-C ) :   0.5233
B(  0-C ,  6-H ) :   1.0822 B(  0-C ,  7-H ) :   1.1161 B(  0-C , 40-C ) :   0.2164
B(  1-C ,  2-C ) :   0.8688 B(  1-C ,  4-C ) :  -0.1376 B(  1-C ,  5-H ) :   1.0760
B(  1-C ,  7-H ) :  -0.1363 B(  1-C , 40-C ) :   0.2990 B(  1-C , 41-H ) :  -0.2165
B(  1-C , 42-H ) :  -0.1498 B(  1-C , 43-H ) :  -0.1411 B(  2-C ,  3-C ) :   0.3400
B(  2-C ,  4-C ) :   0.1892 B(  2-C ,  5-H ) :   0.1155 B(  2-C , 10-H ) :   0.9273
B(  2-C , 14-C ) :   0.4417 B(  2-C , 15-C ) :   0.1001 B(  2-C , 17-C ) :   0.1001
B(  2-C , 26-C ) :  -0.2094 B(  2-C , 27-O ) :  -0.1974 B(  2-C , 40-C ) :  -0.1427
B(  3-C ,  4-C ) :  -0.1723 B(  3-C ,  8-H ) :   1.2664 B(  3-C , 11-H ) :  -0.2316
B(  3-C , 12-H ) :  -0.1907 B(  3-C , 13-C ) :   0.1512 B(  3-C , 15-C ) :   0.5206
B(  3-C , 16-H ) :  -0.1742 B(  3-C , 18-C ) :  -0.5316 B(  3-C , 20-H ) :  -0.1573
B(  4-C ,  7-H ) :  -0.1292 B(  4-C ,  9-H ) :   1.0957 B(  4-C , 13-C ) :   0.6896
B(  4-C , 22-C ) :   0.4617 B(  4-C , 23-H ) :  -0.1532 B(  4-C , 24-H ) :  -0.1453
B(  4-C , 25-H ) :  -0.1963 B(  8-H , 13-C ) :  -0.1088 B(  8-H , 15-C ) :  -0.1045
B(  8-H , 17-C ) :  -0.1249 B( 10-H , 14-C ) :  -0.1113 B( 10-H , 27-O ) :   0.1882
B( 11-H , 13-C ) :   1.2137 B( 12-H , 13-C ) :   1.1408 B( 13-C , 15-C ) :  -0.5259
B( 14-C , 21-H ) :   1.1476 B( 14-C , 26-C ) :   1.0401 B( 14-C , 27-O ) :   0.5201
B( 14-C , 28-C ) :  -0.2890 B( 15-C , 16-H ) :   1.4483 B( 15-C , 17-C ) :  -0.3896
B( 15-C , 18-C ) :   1.1901 B( 15-C , 19-H ) :  -0.2756 B( 16-H , 18-C ) :  -0.1769
B( 17-C , 18-C ) :   1.3677 B( 17-C , 20-H ) :   1.0044 B( 17-C , 29-C ) :   0.6028
B( 17-C , 30-C ) :  -0.3593 B( 17-C , 36-C ) :  -0.1833 B( 18-C , 19-H ) :   1.2532
B( 18-C , 29-C ) :  -0.4358 B( 22-C , 23-H ) :   1.1385 B( 22-C , 24-H ) :   1.1341
B( 22-C , 25-H ) :   1.1386 B( 26-C , 28-C ) :   0.8633 B( 26-C , 45-H ) :  -0.1030
B( 27-O , 28-C ) :   0.1383 B( 27-O , 45-H ) :   0.1011 B( 28-C , 44-H ) :   0.9622
B( 28-C , 45-H ) :   1.0390 B( 28-C , 46-H ) :   1.0588 B( 29-C , 30-C ) :   1.2201
B( 29-C , 31-H ) :  -0.1641 B( 29-C , 32-C ) :  -0.1735 B( 29-C , 36-C ) :   0.5258
B( 29-C , 38-H ) :  -0.1316 B( 29-C , 39-H ) :  -0.1953 B( 30-C , 31-H ) :   1.2045
B( 30-C , 32-C ) :   0.6917 B( 30-C , 33-H ) :  -0.1659 B( 30-C , 35-H ) :  -0.1559
B( 32-C , 33-H ) :   1.0004 B( 32-C , 34-H ) :   0.9899 B( 32-C , 35-H ) :   1.0630
B( 36-C , 37-H ) :   1.0201 B( 36-C , 38-H ) :   0.9866 B( 36-C , 39-H ) :   1.1304
B( 40-C , 41-H ) :   1.1481 B( 40-C , 42-H ) :   1.0889 B( 40-C , 43-H ) :   1.1071

MP2 TOTAL ENERGY:     -776.518620435 Eh
FINAL SINGLE POINT ENERGY      -776.518620434735

DIPOLE MOMENT
-------------
                                X             Y             Z
Electronic contribution:      2.93434      -3.78739       5.93202
Nuclear contribution   :     -2.74658       3.80726      -7.38874
                        -----------------------------------------
Total Dipole Moment    :      0.18776       0.01986      -1.45672
                        -----------------------------------------
Magnitude (a.u.)       :      1.46891
Magnitude (Debye)      :      3.73366

Rotational constants in cm-1:     0.020163     0.007132     0.006817
Rotational constants in MHz :   604.463680   213.812513   204.367505

                             ****ORCA TERMINATED NORMALLY****
TOTAL RUN TIME: 0 days 12 hours 10 minutes 24 seconds 92 msec
