                         Program Version 4.2.1 -  RELEASE  -
|  1> %pal
|  2>  nprocs 32
|  3> end
|  4> !RI-MP2 aug-cc-pVQZ aug-cc-pVQZ/C TightSCF
|  5> %maxcore 4500
|  6> *xyzfile 0 1  07_1TS.xyz
|  7>
|  8>
|  9>                          ****END OF INPUT****

CARTESIAN COORDINATES (ANGSTROEM)
---------------------------------
  N     -1.108278    0.196033   -0.000000
  C      0.000000    0.973544   -0.000000
  C      1.275716    0.387691    0.000000
  C      1.320867   -0.988726    0.000000
  C      0.154948   -1.773463    0.000000
  C     -1.066182   -1.137243    0.000000
  O     -0.431105    2.181332   -0.000000
  H     -1.553791    1.407858   -0.000000
  H      2.164230    1.001917    0.000000
  H      2.285437   -1.483367    0.000000
  H      0.208611   -2.852442    0.000000
  H     -2.009789   -1.667679    0.000000

 Total Charge           Charge          ....    0
 Multiplicity           Mult            ....    1
 Number of Electrons    NEL             ....   50
 Basis Dimension        Dim             ....  790

ORBITAL ENERGIES
----------------

  NO   OCC          E(Eh)            E(eV)
   0   2.0000     -20.533184      -558.7364
   1   2.0000     -15.596316      -424.3973
   2   2.0000     -11.347105      -308.7704
   3   2.0000     -11.309441      -307.7455
   4   2.0000     -11.279084      -306.9195
   5   2.0000     -11.242513      -305.9243
   6   2.0000     -11.240406      -305.8670
   7   2.0000      -1.406965       -38.2855
   8   2.0000      -1.256285       -34.1852
   9   2.0000      -1.106846       -30.1188
  10   2.0000      -1.034179       -28.1414
  11   2.0000      -0.901981       -24.5441
  12   2.0000      -0.852015       -23.1845
  13   2.0000      -0.744331       -20.2543
  14   2.0000      -0.700204       -19.0535
  15   2.0000      -0.666999       -18.1500
  16   2.0000      -0.627420       -17.0730
  17   2.0000      -0.613115       -16.6837
  18   2.0000      -0.602680       -16.3997
  19   2.0000      -0.557422       -15.1682
  20   2.0000      -0.499797       -13.6002
  21   2.0000      -0.494283       -13.4501
  22   2.0000      -0.457449       -12.4478
  23   2.0000      -0.415572       -11.3083
  24   2.0000      -0.324162        -8.8209
  25   0.0000       0.020243         0.5508
  26   0.0000       0.026290         0.7154
  27   0.0000       0.033241         0.9045
  28   0.0000       0.044862         1.2208
  29   0.0000       0.049681         1.3519

MULLIKEN ATOMIC CHARGES
-----------------------
   0 N :   -0.490976
   1 C :    1.081640
   2 C :   -0.504839
   3 C :   -0.236445
   4 C :   -0.409278
   5 C :   -0.187104
   6 O :   -0.905514
   7 H :    0.255414
   8 H :    0.327452
   9 H :    0.295773
  10 H :    0.320698
  11 H :    0.453179
Sum of atomic charges:   -0.0000000

LOEWDIN ATOMIC CHARGES
----------------------
   0 N :    0.699885
   1 C :   -0.744243
   2 C :    0.375019
   3 C :    0.319863
   4 C :    0.336187
   5 C :    0.190202
   6 O :    0.927308
   7 H :   -0.805396
   8 H :   -0.332862
   9 H :   -0.309437
  10 H :   -0.341014
  11 H :   -0.315512

  Mayer bond orders larger than 0.100000
B(  0-N ,  1-C ) :   1.2089 B(  0-N ,  5-C ) :   1.1042 B(  0-N ,  7-H ) :   0.6342
B(  1-C ,  2-C ) :   1.3218 B(  1-C ,  3-C ) :  -0.2020 B(  1-C ,  6-O ) :   0.8309
B(  2-C ,  3-C ) :   1.2850 B(  2-C ,  6-O ) :   0.1785 B(  2-C ,  8-H ) :   0.9463
B(  3-C ,  4-C ) :   1.1261 B(  3-C ,  9-H ) :   1.0404 B(  4-C ,  5-C ) :   1.3644
B(  4-C , 10-H ) :   0.9918 B(  5-C , 11-H ) :   0.8959 B(  6-O ,  7-H ) :   0.5101

MP2 TOTAL ENERGY:     -322.954840048 Eh
FINAL SINGLE POINT ENERGY      -322.954840048210

DIPOLE MOMENT
-------------
                                X             Y             Z
Electronic contribution:     -0.92534       1.99543       0.00000
Nuclear contribution   :      1.06778      -3.51338       0.00000
                        -----------------------------------------
Total Dipole Moment    :      0.14244      -1.51795       0.00000
                        -----------------------------------------
Magnitude (a.u.)       :      1.52461
Magnitude (Debye)      :      3.87526

Rotational constants in cm-1:     0.192432     0.096578     0.064304
Rotational constants in MHz :  5768.956927  2895.324478  1927.800059

                             ****ORCA TERMINATED NORMALLY****
TOTAL RUN TIME: 0 days 0 hours 15 minutes 2 seconds 498 msec
