                         Program Version 4.2.1 -  RELEASE  -
|  1> %pal
|  2>  nprocs 32
|  3> end
|  4> !RI-MP2 aug-cc-pVQZ aug-cc-pVQZ/C TightSCF
|  5> %maxcore 4500
|  6> *xyzfile 0 1  09_11R1.xyz
|  7>
|  8>
|  9>                          ****END OF INPUT****

CARTESIAN COORDINATES (ANGSTROEM)
---------------------------------
  H      0.000002   -1.086726    1.239780
  P      0.000000   -0.655073   -0.112768
  C     -1.419741    0.527496    0.022163
  H     -1.504949    1.090139   -0.909165
  H     -2.347751   -0.030949    0.153732
  H     -1.311839    1.232248    0.848323
  C      1.419741    0.527496    0.022163
  H      2.347748   -0.030950    0.153749
  H      1.504961    1.090128   -0.909171
  H      1.311831    1.232258    0.848314

 Total Charge           Charge          ....    0
 Multiplicity           Mult            ....    1
 Number of Electrons    NEL             ....   34
 Basis Dimension        Dim             ....  566

ORBITAL ENERGIES
----------------

  NO   OCC          E(Eh)            E(eV)
   0   2.0000     -79.931139     -2175.0369
   1   2.0000     -11.221653      -305.3567
   2   2.0000     -11.221645      -305.3565
   3   2.0000      -7.472529      -203.3378
   4   2.0000      -5.366679      -146.0347
   5   2.0000      -5.366461      -146.0288
   6   2.0000      -5.365407      -146.0001
   7   2.0000      -1.000253       -27.2183
   8   2.0000      -0.935820       -25.4650
   9   2.0000      -0.750060       -20.4102
  10   2.0000      -0.591603       -16.0983
  11   2.0000      -0.583571       -15.8798
  12   2.0000      -0.555883       -15.1263
  13   2.0000      -0.552590       -15.0367
  14   2.0000      -0.473043       -12.8722
  15   2.0000      -0.461761       -12.5651
  16   2.0000      -0.342960        -9.3324
  17   0.0000       0.027208         0.7404
  18   0.0000       0.033227         0.9042
  19   0.0000       0.036576         0.9953
  20   0.0000       0.040938         1.1140
  21   0.0000       0.055596         1.5129

MULLIKEN ATOMIC CHARGES
-----------------------
   0 H :   -0.098456
   1 P :    0.494188
   2 C :   -1.061166
   3 H :    0.259171
   4 H :    0.347164
   5 H :    0.256966
   6 C :   -1.061164
   7 H :    0.347163
   8 H :    0.259171
   9 H :    0.256964
Sum of atomic charges:   -0.0000000

LOEWDIN ATOMIC CHARGES
----------------------
   0 H :   -0.432275
   1 P :    1.200932
   2 C :    0.720781
   3 H :   -0.371039
   4 H :   -0.374756
   5 H :   -0.359315
   6 C :    0.720781
   7 H :   -0.374756
   8 H :   -0.371038
   9 H :   -0.359315

  Mayer bond orders larger than 0.100000
B(  0-H ,  1-P ) :   0.9256 B(  1-P ,  2-C ) :   0.8922 B(  1-P ,  6-C ) :   0.8922
B(  2-C ,  3-H ) :   0.9319 B(  2-C ,  4-H ) :   0.8826 B(  2-C ,  5-H ) :   0.9185
B(  6-C ,  7-H ) :   0.8826 B(  6-C ,  8-H ) :   0.9319 B(  6-C ,  9-H ) :   0.9186

MP2 TOTAL ENERGY:     -421.160355480 Eh
FINAL SINGLE POINT ENERGY      -421.160355479608

DIPOLE MOMENT
-------------
                                X             Y             Z
Electronic contribution:     -0.00000      -3.75608      -1.32996
Nuclear contribution   :      0.00000       4.23970       1.57749
                        -----------------------------------------
Total Dipole Moment    :     -0.00000       0.48361       0.24753
                        -----------------------------------------
Magnitude (a.u.)       :      0.54328
Magnitude (Debye)      :      1.38091

Rotational constants in cm-1:     0.536229     0.232258     0.179353
Rotational constants in MHz : 16075.748833  6962.916106  5376.879340

                             ****ORCA TERMINATED NORMALLY****
TOTAL RUN TIME: 0 days 0 hours 3 minutes 9 seconds 785 msec
