                         Program Version 4.2.1 -  RELEASE  -
|  1> %pal
|  2>  nprocs 32
|  3> end
|  4> !RI-MP2 aug-cc-pVQZ aug-cc-pVQZ/C TightSCF
|  5> %maxcore 4500
|  6> *xyzfile 0 1  02_1P.xyz
|  7>
|  8>
|  9>                          ****END OF INPUT****

CARTESIAN COORDINATES (ANGSTROEM)
---------------------------------
  C      1.083385   -1.635592    0.226375
  O      0.259715   -1.277345    1.331963
  C      2.528216   -1.282979    0.433411
  C      3.144852   -0.242789   -0.123674
  C      4.602624    0.011014    0.122701
  C      2.439182    0.678353   -1.099252
  C      2.938600    2.126400   -1.084689
  C      0.917524    0.563820   -0.991096
  C      0.493960   -0.910035   -0.988104
  C     -1.008168   -1.076296   -1.009458
  O     -1.499981   -2.076079   -1.524445
  C     -1.832609   -0.030694   -0.404418
  C     -1.238984    1.083162    0.221974
  C      0.245231    1.275151    0.172372
  O      0.815191    1.994979    0.955317
  C     -2.012973    2.023266    0.867124
  C     -3.400171    1.872788    0.884112
  C     -4.006374    0.793944    0.277172
  C     -3.231038   -0.175073   -0.365559
  C      0.619464   -1.854070    2.566211
  O     -3.855528   -1.219966   -0.913929
  H      4.755349    0.975005    0.613113
  H      5.035258   -0.766868    0.751724
  H      5.159709    0.040168   -0.818751
  H      2.342500    2.729726   -1.773650
  H      2.854878    2.570143   -0.095658
  H      3.976040    2.184104   -1.416224
  H     -1.528879    2.863263    1.346619
  H     -4.013015    2.614163    1.383041
  H     -5.080600    0.662293    0.291677
  H     -3.165788   -1.815516   -1.285435
  H     -0.175895   -1.612343    3.269069
  H      0.703114   -2.945016    2.481943
  H      1.562691   -1.447164    2.942656
  H      3.095065   -1.939909    1.085346
  H      0.479709    1.030747   -1.882876
  H      2.685590    0.281365   -2.095445
  H      0.875533   -1.400922   -1.885856
  H      0.987250   -2.718163    0.066238

 Total Charge           Charge          ....    0
 Multiplicity           Mult            ....    1
 Number of Electrons    NEL             ....  152
 Basis Dimension        Dim             .... 2508

ORBITAL ENERGIES
----------------

  NO   OCC          E(Eh)            E(eV)
   0   2.0000     -20.576347      -559.9109
   1   2.0000     -20.563032      -559.5486
   2   2.0000     -20.557974      -559.4109
   3   2.0000     -20.547581      -559.1281
   4   2.0000     -11.349211      -308.8277
   5   2.0000     -11.338540      -308.5374
   6   2.0000     -11.320973      -308.0593
   7   2.0000     -11.300579      -307.5044
   8   2.0000     -11.273989      -306.7808
   9   2.0000     -11.260423      -306.4117
  10   2.0000     -11.257380      -306.3289
  11   2.0000     -11.256319      -306.3000
  12   2.0000     -11.255520      -306.2783
  13   2.0000     -11.250751      -306.1485
  14   2.0000     -11.248849      -306.0968
  15   2.0000     -11.246364      -306.0291
  16   2.0000     -11.237791      -305.7958
  17   2.0000     -11.235836      -305.7426
  18   2.0000     -11.227537      -305.5168
  19   2.0000     -11.223343      -305.4027
  20   2.0000     -11.215662      -305.1937
  21   2.0000      -1.422042       -38.6957
  22   2.0000      -1.398579       -38.0573
  23   2.0000      -1.392818       -37.9005
  24   2.0000      -1.386113       -37.7180
  25   2.0000      -1.179249       -32.0890
  26   2.0000      -1.157882       -31.5076
  27   2.0000      -1.094251       -29.7761
  28   2.0000      -1.053459       -28.6661
  29   2.0000      -1.045192       -28.4411
  30   2.0000      -1.027985       -27.9729
  31   2.0000      -0.971459       -26.4347
  32   2.0000      -0.956091       -26.0166
  33   2.0000      -0.932540       -25.3757
  34   2.0000      -0.897304       -24.4169
  35   2.0000      -0.876133       -23.8408
  36   2.0000      -0.853842       -23.2342
  37   2.0000      -0.824833       -22.4449
  38   2.0000      -0.790365       -21.5069
  39   2.0000      -0.757067       -20.6008
  40   2.0000      -0.726333       -19.7645
  41   2.0000      -0.720928       -19.6174
  42   2.0000      -0.710221       -19.3261
  43   2.0000      -0.689785       -18.7700
  44   2.0000      -0.671745       -18.2791
  45   2.0000      -0.666001       -18.1228
  46   2.0000      -0.663407       -18.0522
  47   2.0000      -0.641904       -17.4671
  48   2.0000      -0.636822       -17.3288
  49   2.0000      -0.629832       -17.1386
  50   2.0000      -0.615127       -16.7384
  51   2.0000      -0.604334       -16.4448
  52   2.0000      -0.602602       -16.3976
  53   2.0000      -0.596393       -16.2287
  54   2.0000      -0.594555       -16.1787
  55   2.0000      -0.575488       -15.6598
  56   2.0000      -0.568480       -15.4691
  57   2.0000      -0.562103       -15.2956
  58   2.0000      -0.554072       -15.0771
  59   2.0000      -0.551243       -15.0001
  60   2.0000      -0.546540       -14.8721
  61   2.0000      -0.537667       -14.6307
  62   2.0000      -0.528754       -14.3881
  63   2.0000      -0.525013       -14.2863
  64   2.0000      -0.517685       -14.0869
  65   2.0000      -0.504097       -13.7172
  66   2.0000      -0.497026       -13.5248
  67   2.0000      -0.485797       -13.2192
  68   2.0000      -0.481691       -13.1075
  69   2.0000      -0.455923       -12.4063
  70   2.0000      -0.436736       -11.8842
  71   2.0000      -0.418654       -11.3921
  72   2.0000      -0.411223       -11.1900
  73   2.0000      -0.359833        -9.7916
  74   2.0000      -0.357268        -9.7218
  75   2.0000      -0.322278        -8.7696
  76   0.0000       0.019030         0.5178
  77   0.0000       0.024395         0.6638
  78   0.0000       0.025558         0.6955
  79   0.0000       0.029075         0.7912
  80   0.0000       0.034283         0.9329

MULLIKEN ATOMIC CHARGES
-----------------------
   0 C :    0.757697
   1 O :   -0.935928
   2 C :   -0.792757
   3 C :    0.331689
   4 C :   -1.001266
   5 C :    0.571537
   6 C :   -1.149446
   7 C :    0.261307
   8 C :   -0.707632
   9 C :    1.921981
  10 O :   -1.046521
  11 C :   -0.611359
  12 C :    0.300493
  13 C :    1.542125
  14 O :   -1.176862
  15 C :   -0.915947
  16 C :   -0.358710
  17 C :   -0.802773
  18 C :    1.387994
  19 C :   -0.968623
  20 O :   -1.052219
  21 H :    0.204350
  22 H :    0.219001
  23 H :    0.189715
  24 H :    0.233321
  25 H :    0.223933
  26 H :    0.152816
  27 H :    0.232113
  28 H :    0.184977
  29 H :    0.296739
  30 H :    0.334761
  31 H :    0.342917
  32 H :    0.273304
  33 H :    0.299264
  34 H :    0.115700
  35 H :    0.384396
  36 H :    0.250710
  37 H :    0.132982
  38 H :    0.374221
Sum of atomic charges:    0.0000000

LOEWDIN ATOMIC CHARGES
----------------------
   0 C :   -0.227894
   1 O :    0.907591
   2 C :    0.408488
   3 C :    0.023627
   4 C :    0.921401
   5 C :    0.114016
   6 C :    0.929752
   7 C :    0.092524
   8 C :    0.067579
   9 C :   -0.556917
  10 O :    0.914731
  11 C :   -0.085454
  12 C :   -0.117595
  13 C :   -0.634698
  14 O :    0.818048
  15 C :    0.350068
  16 C :    0.365638
  17 C :    0.356767
  18 C :   -0.424533
  19 C :    0.595438
  20 O :    1.300050
  21 H :   -0.282893
  22 H :   -0.298373
  23 H :   -0.268743
  24 H :   -0.260041
  25 H :   -0.322469
  26 H :   -0.280793
  27 H :   -0.333124
  28 H :   -0.308955
  29 H :   -0.321847
  30 H :   -1.112272
  31 H :   -0.311727
  32 H :   -0.293633
  33 H :   -0.309722
  34 H :   -0.319700
  35 H :   -0.263304
  36 H :   -0.268648
  37 H :   -0.278583
  38 H :   -0.283798

  Mayer bond orders larger than 0.100000
B(  0-C ,  1-O ) :   0.4346 B(  0-C ,  2-C ) :   0.8127 B(  0-C ,  8-C ) :   0.5438
B(  0-C , 10-O ) :   0.1358 B(  0-C , 19-C ) :  -0.1500 B(  0-C , 32-H ) :  -0.1245
B(  0-C , 38-H ) :   0.9653 B(  1-O , 19-C ) :   0.9838 B(  1-O , 31-H ) :  -0.1311
B(  1-O , 38-H ) :  -0.1270 B(  2-C ,  3-C ) :   0.9119 B(  2-C ,  4-C ) :  -0.1036
B(  2-C ,  5-C ) :  -0.2430 B(  2-C ,  7-C ) :   0.1592 B(  2-C , 34-H ) :   1.2747
B(  2-C , 38-H ) :  -0.2203 B(  3-C ,  4-C ) :   0.5751 B(  3-C ,  5-C ) :   0.1094
B(  3-C ,  7-C ) :   0.2908 B(  3-C , 12-C ) :  -0.1205 B(  3-C , 21-H ) :  -0.1990
B(  3-C , 23-H ) :  -0.1575 B(  3-C , 34-H ) :  -0.1857 B(  4-C ,  5-C ) :  -0.1438
B(  4-C , 21-H ) :   1.1209 B(  4-C , 22-H ) :   1.0848 B(  4-C , 23-H ) :   1.1538
B(  5-C ,  6-C ) :   0.4755 B(  5-C ,  7-C ) :   0.8184 B(  5-C , 12-C ) :  -0.1269
B(  5-C , 25-H ) :  -0.1673 B(  5-C , 26-H ) :  -0.2098 B(  5-C , 35-H ) :  -0.1663
B(  5-C , 36-H ) :   1.0207 B(  6-C ,  7-C ) :  -0.1262 B(  6-C , 24-H ) :   1.0732
B(  6-C , 25-H ) :   1.0657 B(  6-C , 26-H ) :   1.2179 B(  7-C ,  8-C ) :   0.8985
B(  7-C , 11-C ) :  -0.2228 B(  7-C , 12-C ) :  -0.3908 B(  7-C , 13-C ) :   0.9963
B(  7-C , 14-O ) :   0.3423 B(  7-C , 35-H ) :   0.9474 B(  7-C , 37-H ) :  -0.1130
B(  8-C ,  9-C ) :   1.3427 B(  8-C , 10-O ) :   0.7223 B(  8-C , 12-C ) :   0.1768
B(  8-C , 37-H ) :   1.1320 B(  9-C , 10-O ) :  -0.8660 B(  9-C , 11-C ) :   0.3549
B(  9-C , 12-C ) :  -0.3369 B(  9-C , 17-C ) :   0.1154 B(  9-C , 18-C ) :  -0.2306
B(  9-C , 30-H ) :  -0.1334 B(  9-C , 37-H ) :   0.1073 B( 10-O , 11-C ) :   0.7191
B( 10-O , 18-C ) :  -0.1027 B( 10-O , 30-H ) :   0.2039 B( 11-C , 12-C ) :   0.6216
B( 11-C , 13-C ) :  -0.3053 B( 11-C , 14-O ) :   0.1030 B( 11-C , 15-C ) :  -0.4457
B( 11-C , 16-C ) :   0.1944 B( 11-C , 17-C ) :  -0.2751 B( 11-C , 18-C ) :   1.1447
B( 11-C , 20-O ) :   0.7161 B( 11-C , 30-H ) :   0.2562 B( 12-C , 13-C ) :   0.7070
B( 12-C , 14-O ) :   0.3998 B( 12-C , 15-C ) :   0.9145 B( 12-C , 16-C ) :  -0.4880
B( 12-C , 17-C ) :  -0.1069 B( 12-C , 18-C ) :  -0.3774 B( 13-C , 15-C ) :  -0.1200
B( 13-C , 35-H ) :  -0.1418 B( 15-C , 16-C ) :   1.3605 B( 15-C , 17-C ) :   0.2441
B( 15-C , 18-C ) :   0.1033 B( 15-C , 27-H ) :   1.0614 B( 15-C , 28-H ) :  -0.1894
B( 15-C , 29-H ) :  -0.1022 B( 16-C , 17-C ) :   1.3278 B( 16-C , 18-C ) :  -0.3220
B( 16-C , 28-H ) :   1.2647 B( 17-C , 18-C ) :   1.1577 B( 17-C , 20-O ) :   0.3625
B( 17-C , 28-H ) :  -0.1958 B( 17-C , 29-H ) :   0.9531 B( 18-C , 20-O ) :  -0.7005
B( 18-C , 30-H ) :  -0.1136 B( 19-C , 31-H ) :   0.9749 B( 19-C , 32-H ) :   0.9739
B( 19-C , 33-H ) :   0.9194 B( 20-O , 30-H ) :   0.7688

MP2 TOTAL ENERGY:     -958.024130057 Eh
FINAL SINGLE POINT ENERGY      -958.024130057032

DIPOLE MOMENT
-------------
                                X             Y             Z
Electronic contribution:    -19.40322      -1.09174      -2.93311
Nuclear contribution   :     20.41952       1.26063       2.96621
                        -----------------------------------------
Total Dipole Moment    :      1.01630       0.16889       0.03311
                        -----------------------------------------
Magnitude (a.u.)       :      1.03077
Magnitude (Debye)      :      2.62001

Rotational constants in cm-1:     0.019179     0.008372     0.007442
Rotational constants in MHz :   574.983749   250.971538   223.097722

                             ****ORCA TERMINATED NORMALLY****
TOTAL RUN TIME: 0 days 10 hours 16 minutes 55 seconds 504 msec
