                         Program Version 4.2.1 -  RELEASE  -
|  1> %pal
|  2>  nprocs 32
|  3> end
|  4> !RI-MP2 aug-cc-pVQZ aug-cc-pVQZ/C TightSCF
|  5> %maxcore 4500
|  6> *xyzfile 0 1  02_29TS.xyz
|  7>
|  8>
|  9>                          ****END OF INPUT****

CARTESIAN COORDINATES (ANGSTROEM)
---------------------------------
  C     -1.738383    1.264662    0.077693
  C     -1.806233   -1.224319   -0.052850
  C      0.217600   -0.697091   -0.509213
  H      0.074365   -1.143972   -1.488195
  C      0.231627    0.697811   -0.467355
  H      0.085309    1.201451   -1.418389
  N     -2.417464   -0.539508   -1.084079
  N     -2.386986    0.724936   -1.016582
  N     -1.881933   -0.677945    1.204993
  N     -1.846580    0.594381    1.272389
  C      1.099882    1.448755    0.510962
  H      1.213511    0.876479    1.431003
  H      0.640861    2.393532    0.797038
  C      0.988485   -1.557486    0.467107
  H      0.524336   -2.541919    0.508309
  H      0.919838   -1.150740    1.477219
  C      2.474085    1.766652   -0.093800
  H      2.349381    2.521807   -0.877215
  H      3.082058    2.235080    0.686906
  C      2.460134   -1.779958    0.086282
  H      2.511394   -2.116753   -0.955737
  H      2.821655   -2.617982    0.689710
  C      3.429475   -0.610397    0.275437
  H      4.437950   -1.009508    0.138619
  H      3.388607   -0.265842    1.315098
  C      3.237859    0.578938   -0.678434
  H      4.216351    0.946521   -0.998214
  H      2.742035    0.232261   -1.590816
  C     -1.886624   -2.717244   -0.144974
  C     -1.743565    2.761189    0.143404
  H     -1.164210    3.195915   -0.671686
  H     -1.353037    3.102455    1.099496
  H     -2.771444    3.113968    0.045517
  H     -1.515156   -3.176447    0.768347
  H     -1.328506   -3.091933   -1.003580
  H     -2.930605   -3.006488   -0.276036

 Total Charge           Charge          ....    0
 Multiplicity           Mult            ....    1
 Number of Electrons    NEL             ....  120
 Basis Dimension        Dim             .... 2200

ORBITAL ENERGIES
----------------

  NO   OCC          E(Eh)            E(eV)
   0   2.0000     -15.618568      -425.0028
   1   2.0000     -15.617374      -424.9703
   2   2.0000     -15.615261      -424.9129
   3   2.0000     -15.614139      -424.8823
   4   2.0000     -11.314996      -307.8967
   5   2.0000     -11.314240      -307.8761
   6   2.0000     -11.259884      -306.3970
   7   2.0000     -11.257687      -306.3372
   8   2.0000     -11.232265      -305.6455
   9   2.0000     -11.231141      -305.6149
  10   2.0000     -11.230180      -305.5887
  11   2.0000     -11.230144      -305.5878
  12   2.0000     -11.228680      -305.5479
  13   2.0000     -11.227918      -305.5272
  14   2.0000     -11.224004      -305.4207
  15   2.0000     -11.222614      -305.3828
  16   2.0000      -1.420092       -38.6427
  17   2.0000      -1.319055       -35.8933
  18   2.0000      -1.162092       -31.6221
  19   2.0000      -1.131978       -30.8027
  20   2.0000      -1.065526       -28.9944
  21   2.0000      -1.059420       -28.8283
  22   2.0000      -1.028986       -28.0001
  23   2.0000      -0.959721       -26.1153
  24   2.0000      -0.946790       -25.7635
  25   2.0000      -0.943749       -25.6807
  26   2.0000      -0.925926       -25.1957
  27   2.0000      -0.869346       -23.6561
  28   2.0000      -0.820511       -22.3272
  29   2.0000      -0.794321       -21.6146
  30   2.0000      -0.757726       -20.6188
  31   2.0000      -0.740932       -20.1618
  32   2.0000      -0.689887       -18.7728
  33   2.0000      -0.671735       -18.2788
  34   2.0000      -0.658238       -17.9116
  35   2.0000      -0.629173       -17.1207
  36   2.0000      -0.628057       -17.0903
  37   2.0000      -0.616841       -16.7851
  38   2.0000      -0.601006       -16.3542
  39   2.0000      -0.595353       -16.2004
  40   2.0000      -0.582801       -15.8588
  41   2.0000      -0.572386       -15.5754
  42   2.0000      -0.570364       -15.5204
  43   2.0000      -0.559059       -15.2128
  44   2.0000      -0.551464       -15.0061
  45   2.0000      -0.537437       -14.6244
  46   2.0000      -0.526067       -14.3150
  47   2.0000      -0.516511       -14.0550
  48   2.0000      -0.514792       -14.0082
  49   2.0000      -0.500097       -13.6083
  50   2.0000      -0.495628       -13.4867
  51   2.0000      -0.492131       -13.3916
  52   2.0000      -0.483216       -13.1490
  53   2.0000      -0.476227       -12.9588
  54   2.0000      -0.461674       -12.5628
  55   2.0000      -0.456821       -12.4307
  56   2.0000      -0.452311       -12.3080
  57   2.0000      -0.368408       -10.0249
  58   2.0000      -0.358562        -9.7570
  59   2.0000      -0.350136        -9.5277
  60   0.0000       0.019518         0.5311
  61   0.0000       0.023511         0.6398
  62   0.0000       0.027592         0.7508
  63   0.0000       0.028500         0.7755
  64   0.0000       0.035186         0.9575

MULLIKEN ATOMIC CHARGES
-----------------------
   0 C :    1.428267
   1 C :    1.386517
   2 C :    0.306102
   3 H :    0.205609
   4 C :    0.091788
   5 H :    0.150351
   6 N :   -0.607371
   7 N :   -0.563940
   8 N :   -0.543467
   9 N :   -0.555422
  10 C :   -0.529464
  11 H :    0.188245
  12 H :    0.210416
  13 C :   -0.378248
  14 H :    0.205097
  15 H :    0.298801
  16 C :   -0.655407
  17 H :    0.131355
  18 H :    0.191641
  19 C :   -0.606897
  20 H :    0.218785
  21 H :    0.177660
  22 C :   -0.559925
  23 H :    0.212284
  24 H :    0.195046
  25 C :   -0.469779
  26 H :    0.254381
  27 H :    0.242895
  28 C :   -1.027799
  29 C :   -1.044403
  30 H :    0.160713
  31 H :    0.255274
  32 H :    0.306015
  33 H :    0.247623
  34 H :    0.175324
  35 H :    0.301933
Sum of atomic charges:    0.0000000

LOEWDIN ATOMIC CHARGES
----------------------
   0 C :   -0.731465
   1 C :   -0.730340
   2 C :    0.297130
   3 H :   -0.288602
   4 C :    0.277818
   5 H :   -0.292413
   6 N :    0.369923
   7 N :    0.368676
   8 N :    0.369764
   9 N :    0.374615
  10 C :    0.535039
  11 H :   -0.297136
  12 H :   -0.323797
  13 C :    0.539625
  14 H :   -0.333722
  15 H :   -0.282290
  16 C :    0.563872
  17 H :   -0.257053
  18 H :   -0.256946
  19 C :    0.573910
  20 H :   -0.261577
  21 H :   -0.263718
  22 C :    0.560454
  23 H :   -0.268760
  24 H :   -0.269978
  25 C :    0.552873
  26 H :   -0.264152
  27 H :   -0.282037
  28 C :    0.869445
  29 C :    0.869519
  30 H :   -0.280065
  31 H :   -0.302685
  32 H :   -0.275951
  33 H :   -0.303056
  34 H :   -0.280614
  35 H :   -0.276305

  Mayer bond orders larger than 0.100000
B(  0-C ,  1-C ) :   0.3021 B(  0-C ,  4-C ) :   0.5061 B(  0-C ,  7-N ) :   0.4898
B(  0-C ,  9-N ) :   0.4115 B(  0-C , 29-C ) :   0.1802 B(  0-C , 30-H ) :  -0.2141
B(  0-C , 31-H ) :  -0.1575 B(  0-C , 32-H ) :  -0.1361 B(  1-C ,  2-C ) :   0.4809
B(  1-C ,  6-N ) :   0.5075 B(  1-C ,  8-N ) :   0.4932 B(  1-C , 28-C ) :   0.2225
B(  1-C , 33-H ) :  -0.1504 B(  1-C , 34-H ) :  -0.2013 B(  1-C , 35-H ) :  -0.1409
B(  2-C ,  3-H ) :   1.0114 B(  2-C ,  4-C ) :   1.5674 B(  2-C ,  7-N ) :   0.1164
B(  2-C ,  8-N ) :   0.1458 B(  2-C , 13-C ) :   0.3363 B(  2-C , 14-H ) :  -0.1981
B(  2-C , 28-C ) :  -0.1249 B(  3-H , 13-C ) :  -0.1003 B(  4-C ,  5-H ) :   1.0537
B(  4-C ,  6-N ) :   0.1302 B(  4-C ,  9-N ) :   0.1201 B(  4-C , 10-C ) :   0.2888
B(  4-C , 12-H ) :  -0.1634 B(  4-C , 16-C ) :  -0.2076 B(  6-N ,  7-N ) :   0.8080
B(  6-N ,  8-N ) :   0.1366 B(  7-N ,  9-N ) :   0.1247 B(  8-N ,  9-N ) :   0.7905
B(  9-N , 10-C ) :   0.1256 B( 10-C , 11-H ) :   0.9825 B( 10-C , 12-H ) :   1.0840
B( 10-C , 13-C ) :   0.1168 B( 10-C , 16-C ) :   0.7647 B( 10-C , 18-H ) :  -0.1117
B( 10-C , 22-C ) :  -0.1130 B( 13-C , 14-H ) :   1.1629 B( 13-C , 15-H ) :   0.9777
B( 13-C , 19-C ) :   0.6453 B( 13-C , 21-H ) :  -0.1292 B( 13-C , 22-C ) :  -0.1362
B( 16-C , 17-H ) :   1.1075 B( 16-C , 18-H ) :   1.0848 B( 16-C , 25-C ) :   0.8488
B( 19-C , 20-H ) :   1.0133 B( 19-C , 21-H ) :   1.0766 B( 19-C , 22-C ) :   0.8773
B( 22-C , 23-H ) :   1.0607 B( 22-C , 24-H ) :   1.0822 B( 22-C , 25-C ) :   0.7443
B( 25-C , 26-H ) :   1.0017 B( 25-C , 27-H ) :   1.0038 B( 28-C , 33-H ) :   1.1036
B( 28-C , 34-H ) :   1.1810 B( 28-C , 35-H ) :   1.0084 B( 29-C , 30-H ) :   1.1949
B( 29-C , 31-H ) :   1.1054 B( 29-C , 32-H ) :   1.0051

MP2 TOTAL ENERGY:     -687.038091756 Eh
FINAL SINGLE POINT ENERGY      -687.038091756055

DIPOLE MOMENT
-------------
                                X             Y             Z
Electronic contribution:    -16.82406       0.27555       0.10336
Nuclear contribution   :     18.30467      -0.30843      -0.32774
                        -----------------------------------------
Total Dipole Moment    :      1.48062      -0.03288      -0.22437
                        -----------------------------------------
Magnitude (a.u.)       :      1.49788
Magnitude (Debye)      :      3.80731

Rotational constants in cm-1:     0.027882     0.015611     0.011566
Rotational constants in MHz :   835.894296   468.003230   346.725589

                             ****ORCA TERMINATED NORMALLY****
TOTAL RUN TIME: 0 days 7 hours 8 minutes 16 seconds 79 msec
