                         Program Version 4.2.1 -  RELEASE  -
|  1> %pal
|  2>  nprocs 32
|  3> end
|  4> !RI-MP2 aug-cc-pVQZ aug-cc-pVQZ/C TightSCF
|  5> %maxcore 4500
|  6> *xyzfile 0 1  10_42P.xyz
|  7>
|  8>
|  9>                          ****END OF INPUT****

CARTESIAN COORDINATES (ANGSTROEM)
---------------------------------
  C     -0.788932   -1.904341   -0.023747
  H     -0.994406   -2.750053   -0.689976
  H     -0.842412   -2.306410    1.009315
  C     -1.861160   -0.875905   -0.199081
  C     -0.164343    0.917338   -0.266510
  H      0.215538    1.180156   -1.259182
  H     -0.133264    1.830541    0.331473
  C      0.764332   -0.126312    0.355015
  H      0.489734   -0.228167    1.423846
  N      0.533262   -1.395629   -0.323821
  C     -2.679723    1.381648   -0.605732
  C     -3.278604   -1.369172   -0.269668
  C     -3.940697    1.021606   -0.352006
  C     -4.280885   -0.326808    0.229269
  C     -1.582772    0.421334   -0.349780
  C     -4.317914   -0.254541    1.761054
  H     -4.614959   -1.215365    2.190557
  H     -3.334525    0.009686    2.156278
  H     -5.029199    0.502159    2.098737
  C      2.217195    0.307149    0.302367
  C      1.566261   -2.380178   -0.071966
  H      1.254442   -3.326561   -0.519389
  H      1.699482   -2.559326    1.011097
  C      2.869393   -1.909456   -0.687350
  H      2.763939   -1.907129   -1.776501
  C      3.214306   -0.526417   -0.203134
  H      3.678759   -2.600947   -0.439368
  C      4.533323   -0.076933   -0.231300
  H      5.302692   -0.733228   -0.624471
  C      2.573667    1.562204    0.796444
  H      1.812215    2.207848    1.217624
  C      4.874428    1.178050    0.240814
  H      5.905381    1.509590    0.212016
  C      3.886004    2.000776    0.766169
  H      4.138319    2.980150    1.154465
  C     -2.336992    2.741828   -1.145483
  H     -1.712037    3.308197   -0.449932
  H     -3.241593    3.321097   -1.331622
  H     -1.780820    2.667270   -2.084021
  H     -3.385256   -2.295268    0.305214
  H     -3.501423   -1.627155   -1.314152
  H     -5.276468   -0.618817   -0.117060
  H     -4.748300    1.729911   -0.510441

 Total Charge           Charge          ....    0
 Multiplicity           Mult            ....    1
 Number of Electrons    NEL             ....  144
 Basis Dimension        Dim             .... 2658

ORBITAL ENERGIES
----------------

  NO   OCC          E(Eh)            E(eV)
   0   2.0000     -15.542930      -422.9446
   1   2.0000     -11.257964      -306.3448
   2   2.0000     -11.250393      -306.1387
   3   2.0000     -11.247079      -306.0486
   4   2.0000     -11.232781      -305.6595
   5   2.0000     -11.231560      -305.6263
   6   2.0000     -11.226923      -305.5001
   7   2.0000     -11.226225      -305.4811
   8   2.0000     -11.225997      -305.4749
   9   2.0000     -11.225171      -305.4524
  10   2.0000     -11.224745      -305.4408
  11   2.0000     -11.224387      -305.4311
  12   2.0000     -11.221845      -305.3619
  13   2.0000     -11.221234      -305.3453
  14   2.0000     -11.219411      -305.2957
  15   2.0000     -11.219193      -305.2898
  16   2.0000     -11.217282      -305.2377
  17   2.0000     -11.215056      -305.1772
  18   2.0000     -11.210035      -305.0406
  19   2.0000     -11.207300      -304.9661
  20   2.0000      -1.252308       -34.0770
  21   2.0000      -1.156135       -31.4600
  22   2.0000      -1.143700       -31.1216
  23   2.0000      -1.075675       -29.2706
  24   2.0000      -1.061430       -28.8830
  25   2.0000      -1.040924       -28.3250
  26   2.0000      -1.035115       -28.1669
  27   2.0000      -0.992388       -27.0043
  28   2.0000      -0.973701       -26.4957
  29   2.0000      -0.928596       -25.2684
  30   2.0000      -0.924055       -25.1448
  31   2.0000      -0.880510       -23.9599
  32   2.0000      -0.860404       -23.4128
  33   2.0000      -0.841052       -22.8862
  34   2.0000      -0.809697       -22.0330
  35   2.0000      -0.794221       -21.6119
  36   2.0000      -0.762140       -20.7389
  37   2.0000      -0.740580       -20.1522
  38   2.0000      -0.692587       -18.8462
  39   2.0000      -0.667011       -18.1503
  40   2.0000      -0.658937       -17.9306
  41   2.0000      -0.651518       -17.7287
  42   2.0000      -0.637337       -17.3428
  43   2.0000      -0.624523       -16.9941
  44   2.0000      -0.616056       -16.7637
  45   2.0000      -0.610753       -16.6194
  46   2.0000      -0.599972       -16.3261
  47   2.0000      -0.585989       -15.9456
  48   2.0000      -0.581928       -15.8351
  49   2.0000      -0.570447       -15.5226
  50   2.0000      -0.566540       -15.4163
  51   2.0000      -0.558702       -15.2030
  52   2.0000      -0.550597       -14.9825
  53   2.0000      -0.548258       -14.9189
  54   2.0000      -0.542838       -14.7714
  55   2.0000      -0.531025       -14.4499
  56   2.0000      -0.523222       -14.2376
  57   2.0000      -0.518951       -14.1214
  58   2.0000      -0.512153       -13.9364
  59   2.0000      -0.500110       -13.6087
  60   2.0000      -0.495152       -13.4738
  61   2.0000      -0.483930       -13.1684
  62   2.0000      -0.477154       -12.9840
  63   2.0000      -0.470710       -12.8087
  64   2.0000      -0.459820       -12.5123
  65   2.0000      -0.444763       -12.1026
  66   2.0000      -0.424356       -11.5473
  67   2.0000      -0.389911       -10.6100
  68   2.0000      -0.359398        -9.7797
  69   2.0000      -0.326874        -8.8947
  70   2.0000      -0.319805        -8.7023
  71   2.0000      -0.288045        -7.8381
  72   0.0000       0.021698         0.5904
  73   0.0000       0.024947         0.6788
  74   0.0000       0.025082         0.6825
  75   0.0000       0.029347         0.7986
  76   0.0000       0.032471         0.8836

MULLIKEN ATOMIC CHARGES
-----------------------
   0 C :   -0.255411
   1 H :    0.139498
   2 H :    0.110346
   3 C :    0.506325
   4 C :   -0.211401
   5 H :    0.323088
   6 H :    0.049527
   7 C :    1.532135
   8 H :    0.173412
   9 N :   -0.236838
  10 C :   -0.029468
  11 C :   -0.907935
  12 C :   -0.559467
  13 C :   -0.002286
  14 C :    0.771099
  15 C :   -1.045654
  16 H :    0.232680
  17 H :    0.144815
  18 H :    0.263239
  19 C :    0.426526
  20 C :   -0.742023
  21 H :    0.214451
  22 H :    0.236082
  23 C :   -0.696623
  24 H :    0.207316
  25 C :    0.223648
  26 H :    0.190765
  27 C :   -0.682512
  28 H :    0.240909
  29 C :   -0.812688
  30 H :    0.103044
  31 C :   -0.417223
  32 H :    0.267249
  33 C :   -0.460005
  34 H :    0.212465
  35 C :   -1.058923
  36 H :    0.202495
  37 H :    0.264875
  38 H :    0.184633
  39 H :    0.209012
  40 H :    0.266497
  41 H :    0.241897
  42 H :    0.180427
Sum of atomic charges:    0.0000000

LOEWDIN ATOMIC CHARGES
----------------------
   0 C :    0.346830
   1 H :   -0.275959
   2 H :   -0.243709
   3 C :    0.006763
   4 C :    0.503545
   5 H :   -0.244428
   6 H :   -0.307217
   7 C :   -0.049406
   8 H :   -0.252297
   9 N :    0.536960
  10 C :   -0.015060
  11 C :    0.506728
  12 C :    0.393052
  13 C :    0.097599
  14 C :    0.009383
  15 C :    0.932805
  16 H :   -0.270433
  17 H :   -0.278047
  18 H :   -0.269471
  19 C :   -0.024482
  20 C :    0.352777
  21 H :   -0.275144
  22 H :   -0.238898
  23 C :    0.523990
  24 H :   -0.255751
  25 C :   -0.038157
  26 H :   -0.274185
  27 C :    0.357248
  28 H :   -0.312974
  29 C :    0.360526
  30 H :   -0.321038
  31 C :    0.348873
  32 H :   -0.320755
  33 C :    0.356587
  34 H :   -0.319777
  35 C :    0.909678
  36 H :   -0.286580
  37 H :   -0.303694
  38 H :   -0.273464
  39 H :   -0.271693
  40 H :   -0.245680
  41 H :   -0.276805
  42 H :   -0.298238

  Mayer bond orders larger than 0.100000
B(  0-C ,  1-H ) :   1.2173 B(  0-C ,  2-H ) :   1.1194 B(  0-C ,  3-C ) :   0.2902
B(  0-C ,  9-N ) :   1.0255 B(  0-C , 14-C ) :  -0.3236 B(  1-H ,  2-H ) :   0.1103
B(  1-H ,  3-C ) :  -0.2501 B(  2-H ,  3-C ) :  -0.1358 B(  2-H ,  9-N ) :  -0.1094
B(  3-C ,  4-C ) :  -0.2908 B(  3-C ,  7-C ) :   0.1226 B(  3-C , 10-C ) :  -0.1926
B(  3-C , 11-C ) :   0.2067 B(  3-C , 13-C ) :  -0.2745 B(  3-C , 14-C ) :   1.2363
B(  3-C , 39-H ) :  -0.1954 B(  3-C , 40-H ) :  -0.1122 B(  4-C ,  5-H ) :   0.9097
B(  4-C ,  6-H ) :   1.1850 B(  4-C ,  7-C ) :   0.7547 B(  4-C , 10-C ) :  -0.1511
B(  4-C , 19-C ) :  -0.1235 B(  4-C , 29-C ) :   0.1124 B(  5-H , 14-C ) :  -0.1037
B(  7-C ,  8-H ) :   0.9385 B(  7-C ,  9-N ) :   0.4725 B(  7-C , 14-C ) :  -0.1847
B(  7-C , 19-C ) :  -0.2309 B(  7-C , 25-C ) :  -0.5720 B(  7-C , 29-C ) :  -0.8346
B(  9-N , 14-C ) :   0.1110 B(  9-N , 20-C ) :   0.7183 B(  9-N , 22-H ) :  -0.1257
B( 10-C , 12-C ) :   1.3854 B( 10-C , 13-C ) :  -0.3399 B( 10-C , 14-C ) :   0.2119
B( 10-C , 35-C ) :   0.5733 B( 10-C , 36-H ) :  -0.2189 B( 10-C , 37-H ) :  -0.1270
B( 10-C , 38-H ) :  -0.2021 B( 10-C , 42-H ) :  -0.1181 B( 11-C , 13-C ) :   1.1026
B( 11-C , 39-H ) :   1.1203 B( 11-C , 40-H ) :   0.9884 B( 12-C , 13-C ) :   1.0041
B( 12-C , 14-C ) :  -0.2591 B( 12-C , 41-H ) :  -0.1191 B( 12-C , 42-H ) :   1.1159
B( 13-C , 14-C ) :   0.1250 B( 13-C , 15-C ) :   0.6720 B( 13-C , 41-H ) :   1.0219
B( 14-C , 35-C ) :  -0.1660 B( 15-C , 16-H ) :   1.0246 B( 15-C , 17-H ) :   1.0338
B( 15-C , 18-H ) :   1.0341 B( 19-C , 23-C ) :  -0.1491 B( 19-C , 25-C ) :   1.1313
B( 19-C , 27-C ) :  -0.5661 B( 19-C , 29-C ) :   1.1373 B( 19-C , 30-H ) :  -0.1451
B( 19-C , 33-C ) :  -0.3392 B( 20-C , 21-H ) :   1.0187 B( 20-C , 22-H ) :   1.0134
B( 20-C , 23-C ) :   1.1445 B( 20-C , 26-H ) :  -0.1045 B( 23-C , 24-H ) :   1.0540
B( 23-C , 25-C ) :   0.3913 B( 23-C , 26-H ) :   1.1585 B( 25-C , 26-H ) :  -0.1848
B( 25-C , 27-C ) :   1.0699 B( 25-C , 28-H ) :  -0.1051 B( 25-C , 31-C ) :  -0.2337
B( 27-C , 28-H ) :   1.0467 B( 27-C , 29-C ) :   0.1525 B( 27-C , 31-C ) :   1.2621
B( 27-C , 32-H ) :  -0.1932 B( 27-C , 33-C ) :   0.1330 B( 29-C , 30-H ) :   1.2650
B( 29-C , 33-C ) :   1.2157 B( 29-C , 34-H ) :  -0.1782 B( 31-C , 32-H ) :   1.1443
B( 31-C , 33-C ) :   1.2060 B( 32-H , 33-C ) :  -0.1278 B( 33-C , 34-H ) :   1.1925
B( 35-C , 36-H ) :   1.1208 B( 35-C , 37-H ) :   1.0335 B( 35-C , 38-H ) :   1.1456

MP2 TOTAL ENERGY:     -791.164968534 Eh
FINAL SINGLE POINT ENERGY      -791.164968533538

DIPOLE MOMENT
-------------
                                X             Y             Z
Electronic contribution:     11.46104       0.68576      -1.87779
Nuclear contribution   :    -11.54631      -0.94768       2.03046
                        -----------------------------------------
Total Dipole Moment    :     -0.08528      -0.26192       0.15267
                        -----------------------------------------
Magnitude (a.u.)       :      0.31494
Magnitude (Debye)      :      0.80050

Rotational constants in cm-1:     0.024662     0.006762     0.005761
Rotational constants in MHz :   739.350441   202.725814   172.702208

                             ****ORCA TERMINATED NORMALLY****
TOTAL RUN TIME: 0 days 9 hours 14 minutes 44 seconds 906 msec
