                         Program Version 4.2.1 -  RELEASE  -
|  1> %pal
|  2>  nprocs 32
|  3> end
|  4> !RI-MP2 aug-cc-pVQZ aug-cc-pVQZ/C TightSCF
|  5> %maxcore 4500
|  6> *xyzfile 0 1  06_15R1.xyz
|  7>
|  8>
|  9>                          ****END OF INPUT****

CARTESIAN COORDINATES (ANGSTROEM)
---------------------------------
  C     -3.066100   -0.176651   -0.439092
  C     -2.031514   -0.203488    0.388683
  C     -0.770796    0.587069    0.221263
  C      0.470655   -0.297715    0.090895
  C      2.997510   -0.385270   -0.166221
  C      1.764039    0.500309   -0.032672
  H     -3.067394    0.455349   -1.321540
  H     -3.948853   -0.780529   -0.266679
  H     -2.071437   -0.854377    1.260498
  H     -0.857656    1.234962   -0.656495
  H     -0.642073    1.247030    1.087795
  H      0.536018   -0.961851    0.960653
  H      0.355814   -0.949126   -0.782113
  H      2.929241   -1.023204   -1.051368
  H      3.909833    0.208430   -0.253947
  H      3.108245   -1.038863    0.703158
  H      1.870949    1.150424    0.842515
  H      1.694546    1.166228   -0.899613

 Total Charge           Charge          ....    0
 Multiplicity           Mult            ....    1
 Number of Electrons    NEL             ....   48
 Basis Dimension        Dim             .... 1032

ORBITAL ENERGIES
----------------

  NO   OCC          E(Eh)            E(eV)
   0   2.0000     -11.228220      -305.5354
   1   2.0000     -11.221345      -305.3483
   2   2.0000     -11.217075      -305.2321
   3   2.0000     -11.216450      -305.2151
   4   2.0000     -11.214872      -305.1722
   5   2.0000     -11.210217      -305.0455
   6   2.0000      -1.093345       -29.7514
   7   2.0000      -1.044213       -28.4145
   8   2.0000      -0.967507       -26.3272
   9   2.0000      -0.868946       -23.6452
  10   2.0000      -0.793662       -21.5966
  11   2.0000      -0.754386       -20.5279
  12   2.0000      -0.653637       -17.7864
  13   2.0000      -0.623507       -16.9665
  14   2.0000      -0.595393       -16.2015
  15   2.0000      -0.584126       -15.8949
  16   2.0000      -0.555680       -15.1208
  17   2.0000      -0.534385       -14.5414
  18   2.0000      -0.505964       -13.7680
  19   2.0000      -0.489018       -13.3069
  20   2.0000      -0.474914       -12.9231
  21   2.0000      -0.465003       -12.6534
  22   2.0000      -0.458751       -12.4832
  23   2.0000      -0.358648        -9.7593
  24   0.0000       0.026857         0.7308
  25   0.0000       0.029851         0.8123
  26   0.0000       0.032362         0.8806
  27   0.0000       0.035167         0.9569
  28   0.0000       0.043329         1.1790

MULLIKEN ATOMIC CHARGES
-----------------------
   0 C :   -0.887740
   1 C :   -0.627541
   2 C :   -0.259171
   3 C :   -0.220920
   4 C :   -0.889889
   5 C :   -0.412758
   6 H :    0.294653
   7 H :    0.362054
   8 H :    0.407303
   9 H :    0.259646
  10 H :    0.304749
  11 H :    0.235925
  12 H :    0.263899
  13 H :    0.218795
  14 H :    0.263807
  15 H :    0.223636
  16 H :    0.229502
  17 H :    0.234050
Sum of atomic charges:   -0.0000000

LOEWDIN ATOMIC CHARGES
----------------------
   0 C :    0.796001
   1 C :    0.355998
   2 C :    0.469157
   3 C :    0.493799
   4 C :    0.923598
   5 C :    0.500681
   6 H :   -0.353998
   7 H :   -0.358259
   8 H :   -0.320425
   9 H :   -0.298995
  10 H :   -0.276081
  11 H :   -0.270843
  12 H :   -0.266362
  13 H :   -0.283887
  14 H :   -0.282989
  15 H :   -0.284056
  16 H :   -0.272254
  17 H :   -0.271085

  Mayer bond orders larger than 0.100000
B(  0-C ,  1-C ) :   1.9212 B(  0-C ,  2-C ) :  -0.1781 B(  0-C ,  6-H ) :   0.9407
B(  0-C ,  7-H ) :   0.9404 B(  1-C ,  2-C ) :   0.9772 B(  1-C ,  3-C ) :  -0.1747
B(  1-C ,  8-H ) :   0.8188 B(  2-C ,  3-C ) :   0.9551 B(  2-C ,  9-H ) :   0.8955
B(  2-C , 10-H ) :   0.8250 B(  3-C ,  5-C ) :   0.9028 B(  3-C , 11-H ) :   0.8684
B(  3-C , 12-H ) :   0.8739 B(  4-C ,  5-C ) :   0.9743 B(  4-C , 13-H ) :   0.9607
B(  4-C , 14-H ) :   1.0186 B(  4-C , 15-H ) :   0.9601 B(  5-C , 16-H ) :   0.8882
B(  5-C , 17-H ) :   0.8797

MP2 TOTAL ENERGY:     -235.377243991 Eh
FINAL SINGLE POINT ENERGY      -235.377243990821

DIPOLE MOMENT
-------------
                                X             Y             Z
Electronic contribution:     -3.91381       0.19714       0.44800
Nuclear contribution   :      4.08871      -0.15588      -0.40396
                        -----------------------------------------
Total Dipole Moment    :      0.17490       0.04126       0.04404
                        -----------------------------------------
Magnitude (a.u.)       :      0.18502
Magnitude (Debye)      :      0.47027

Rotational constants in cm-1:     0.452716     0.041768     0.041006
Rotational constants in MHz : 13572.091579  1252.182131  1229.340508

                             ****ORCA TERMINATED NORMALLY****
TOTAL RUN TIME: 0 days 0 hours 21 minutes 24 seconds 666 msec
