                         Program Version 4.2.1 -  RELEASE  -
|  1> %pal
|  2>  nprocs 32
|  3> end
|  4> !RI-MP2 aug-cc-pVQZ aug-cc-pVQZ/C TightSCF
|  5> %maxcore 4500
|  6> *xyzfile 0 1  10_46TS.xyz
|  7>
|  8>
|  9>                          ****END OF INPUT****

CARTESIAN COORDINATES (ANGSTROEM)
---------------------------------
  C      0.026652   -2.396407    0.057016
  H     -0.008158   -3.377518    0.533356
  H      0.184947   -2.567838   -1.028576
  C      1.195562   -1.603886    0.594284
  C     -0.201458    0.432629    0.568515
  H     -0.578765    0.505625    1.592933
  H     -0.177157    1.433637    0.164263
  C     -1.214143   -0.382602   -0.240105
  H     -0.865368   -0.406740   -1.292780
  N     -1.241550   -1.737491    0.289287
  C      2.347186    0.524060    0.236949
  C      2.354108   -2.263847    0.955767
  H      2.903366   -1.846609    1.783596
  H      2.412526   -3.345252    0.870880
  C      3.433252   -0.117136   -0.394276
  H      3.802655    0.426810   -1.264018
  C      3.968223   -1.390595   -0.239430
  C      1.175906   -0.205069    0.556837
  C      4.627098   -2.070459   -1.413660
  H      4.455828   -3.148517   -1.377206
  H      4.233085   -1.705750   -2.363601
  H      5.711900   -1.919835   -1.406306
  H      4.413955   -1.652455    0.703865
  C     -2.587305    0.266417   -0.237601
  C     -2.361257   -2.516005   -0.201077
  H     -2.234974   -3.548408    0.131558
  H     -2.391317   -2.529498   -1.306450
  C     -3.648577   -1.936919    0.352035
  H     -3.670971   -2.099769    1.433802
  C     -3.739452   -0.463774    0.054832
  H     -4.512724   -2.453457   -0.073753
  C     -4.977895    0.175366    0.041878
  H     -5.867793   -0.401858    0.270273
  C     -2.713534    1.615022   -0.572287
  H     -1.833231    2.188761   -0.835823
  C     -5.089840    1.519306   -0.266976
  H     -6.061433    1.998455   -0.273099
  C     -3.947402    2.242047   -0.585626
  H     -4.018082    3.290924   -0.847297
  C      2.394541    2.075321    0.205154
  C      1.773094    2.646449   -1.081010
  H      0.718835    2.398961   -1.196670
  H      2.295689    2.260789   -1.959459
  H      1.862946    3.736214   -1.091390
  C      3.857864    2.559754    0.252231
  H      4.420765    2.291921   -0.641523
  H      4.380717    2.143681    1.115419
  H      3.877001    3.649153    0.334989
  C      1.738579    2.676231    1.461659
  H      0.666046    2.520413    1.525713
  H      1.913809    3.754845    1.480712
  H      2.189532    2.250335    2.360931

 Total Charge           Charge          ....    0
 Multiplicity           Mult            ....    1
 Number of Electrons    NEL             ....  168
 Basis Dimension        Dim             .... 3174

ORBITAL ENERGIES
----------------

  NO   OCC          E(Eh)            E(eV)
   0   2.0000     -15.541434      -422.9039
   1   2.0000     -11.256401      -306.3023
   2   2.0000     -11.246648      -306.0369
   3   2.0000     -11.245429      -306.0037
   4   2.0000     -11.239261      -305.8358
   5   2.0000     -11.239112      -305.8318
   6   2.0000     -11.237189      -305.7795
   7   2.0000     -11.232137      -305.6420
   8   2.0000     -11.230912      -305.6087
   9   2.0000     -11.226329      -305.4840
  10   2.0000     -11.225889      -305.4720
  11   2.0000     -11.225686      -305.4665
  12   2.0000     -11.224534      -305.4351
  13   2.0000     -11.223589      -305.4094
  14   2.0000     -11.223344      -305.4027
  15   2.0000     -11.220641      -305.3292
  16   2.0000     -11.218232      -305.2636
  17   2.0000     -11.216877      -305.2267
  18   2.0000     -11.215498      -305.1892
  19   2.0000     -11.214106      -305.1513
  20   2.0000     -11.211670      -305.0850
  21   2.0000     -11.205567      -304.9190
  22   2.0000     -11.205177      -304.9084
  23   2.0000      -1.250918       -34.0392
  24   2.0000      -1.154379       -31.4122
  25   2.0000      -1.140688       -31.0397
  26   2.0000      -1.090564       -29.6758
  27   2.0000      -1.069224       -29.0951
  28   2.0000      -1.053630       -28.6707
  29   2.0000      -1.045971       -28.4623
  30   2.0000      -1.002424       -27.2773
  31   2.0000      -0.991734       -26.9865
  32   2.0000      -0.965587       -26.2750
  33   2.0000      -0.933417       -25.3996
  34   2.0000      -0.928060       -25.2538
  35   2.0000      -0.919967       -25.0336
  36   2.0000      -0.887550       -24.1515
  37   2.0000      -0.856647       -23.3105
  38   2.0000      -0.836684       -22.7673
  39   2.0000      -0.826328       -22.4855
  40   2.0000      -0.805048       -21.9065
  41   2.0000      -0.768992       -20.9253
  42   2.0000      -0.750847       -20.4316
  43   2.0000      -0.737377       -20.0651
  44   2.0000      -0.692229       -18.8365
  45   2.0000      -0.665474       -18.1085
  46   2.0000      -0.661707       -18.0060
  47   2.0000      -0.654651       -17.8140
  48   2.0000      -0.639039       -17.3891
  49   2.0000      -0.635888       -17.3034
  50   2.0000      -0.620432       -16.8828
  51   2.0000      -0.610903       -16.6235
  52   2.0000      -0.606500       -16.5037
  53   2.0000      -0.599655       -16.3174
  54   2.0000      -0.592954       -16.1351
  55   2.0000      -0.587268       -15.9804
  56   2.0000      -0.579073       -15.7574
  57   2.0000      -0.570505       -15.5242
  58   2.0000      -0.563512       -15.3339
  59   2.0000      -0.559913       -15.2360
  60   2.0000      -0.553307       -15.0563
  61   2.0000      -0.544626       -14.8200
  62   2.0000      -0.540347       -14.7036
  63   2.0000      -0.533236       -14.5101
  64   2.0000      -0.530636       -14.4393
  65   2.0000      -0.523888       -14.2557
  66   2.0000      -0.517346       -14.0777
  67   2.0000      -0.514657       -14.0045
  68   2.0000      -0.509709       -13.8699
  69   2.0000      -0.500556       -13.6208
  70   2.0000      -0.496905       -13.5215
  71   2.0000      -0.487407       -13.2630
  72   2.0000      -0.477393       -12.9905
  73   2.0000      -0.471726       -12.8363
  74   2.0000      -0.461823       -12.5669
  75   2.0000      -0.455673       -12.3995
  76   2.0000      -0.443057       -12.0562
  77   2.0000      -0.437758       -11.9120
  78   2.0000      -0.415692       -11.3116
  79   2.0000      -0.358909        -9.7664
  80   2.0000      -0.326430        -8.8826
  81   2.0000      -0.319313        -8.6889
  82   2.0000      -0.295437        -8.0393
  83   2.0000      -0.274990        -7.4829
  84   0.0000       0.020395         0.5550
  85   0.0000       0.024330         0.6621
  86   0.0000       0.024747         0.6734
  87   0.0000       0.028548         0.7768
  88   0.0000       0.031751         0.8640

MULLIKEN ATOMIC CHARGES
-----------------------
   0 C :    0.005029
   1 H :    0.196539
   2 H :    0.169846
   3 C :   -0.240883
   4 C :   -0.479340
   5 H :    0.328843
   6 H :    0.262108
   7 C :    2.113817
   8 H :    0.299876
   9 N :   -0.385312
  10 C :    0.779794
  11 C :   -1.138016
  12 H :    0.149155
  13 H :    0.160277
  14 C :   -0.442995
  15 H :    0.039501
  16 C :   -0.339421
  17 C :    0.609707
  18 C :   -1.003242
  19 H :    0.252380
  20 H :    0.196506
  21 H :    0.266214
  22 H :    0.217345
  23 C :    0.503821
  24 C :   -0.886212
  25 H :    0.188415
  26 H :    0.247501
  27 C :   -0.693709
  28 H :    0.193991
  29 C :    0.215806
  30 H :    0.196993
  31 C :   -0.663785
  32 H :    0.242707
  33 C :   -0.992941
  34 H :    0.145238
  35 C :   -0.465858
  36 H :    0.248612
  37 C :   -0.610790
  38 H :    0.195194
  39 C :    2.299678
  40 C :   -1.408178
  41 H :    0.301374
  42 H :    0.110309
  43 H :    0.159039
  44 C :   -1.356235
  45 H :    0.194471
  46 H :    0.165525
  47 H :    0.220735
  48 C :   -1.333632
  49 H :    0.280301
  50 H :    0.168528
  51 H :    0.115371
Sum of atomic charges:   -0.0000000

LOEWDIN ATOMIC CHARGES
----------------------
   0 C :    0.346012
   1 H :   -0.297700
   2 H :   -0.239490
   3 C :   -0.030607
   4 C :    0.512236
   5 H :   -0.227794
   6 H :   -0.438184
   7 C :   -0.035434
   8 H :   -0.248031
   9 N :    0.536916
  10 C :    0.019920
  11 C :    0.713745
  12 H :   -0.349071
  13 H :   -0.273053
  14 C :    0.349962
  15 H :   -0.349391
  16 C :    0.342762
  17 C :    0.023632
  18 C :    0.931692
  19 H :   -0.290715
  20 H :   -0.297919
  21 H :   -0.279164
  22 H :   -0.368717
  23 C :   -0.012078
  24 C :    0.354225
  25 H :   -0.276609
  26 H :   -0.237818
  27 C :    0.524371
  28 H :   -0.255942
  29 C :   -0.036347
  30 H :   -0.273918
  31 C :    0.357371
  32 H :   -0.312828
  33 C :    0.366176
  34 H :   -0.325682
  35 C :    0.349683
  36 H :   -0.320561
  37 C :    0.360038
  38 H :   -0.318966
  39 C :   -0.267346
  40 C :    0.942111
  41 H :   -0.297649
  42 H :   -0.262339
  43 H :   -0.258702
  44 C :    0.890913
  45 H :   -0.295097
  46 H :   -0.254713
  47 H :   -0.273028
  48 C :    0.924786
  49 H :   -0.323593
  50 H :   -0.268855
  51 H :   -0.249213

  Mayer bond orders larger than 0.100000
B(  0-C ,  1-H ) :   1.1920 B(  0-C ,  2-H ) :   0.9438 B(  0-C ,  3-C ) :   0.2476
B(  0-C ,  7-C ) :  -0.1367 B(  0-C ,  9-N ) :   1.1477 B(  0-C , 11-C ) :  -0.2348
B(  0-C , 17-C ) :  -0.1611 B(  1-H ,  3-C ) :  -0.2606 B(  3-C ,  4-C ) :  -0.4143
B(  3-C ,  7-C ) :   0.1325 B(  3-C , 10-C ) :  -0.4181 B(  3-C , 11-C ) :   1.4485
B(  3-C , 12-H ) :  -0.1567 B(  3-C , 13-H ) :  -0.1354 B(  3-C , 16-C ) :  -0.1007
B(  3-C , 17-C ) :   0.8367 B(  4-C ,  5-H ) :   0.8558 B(  4-C ,  6-H ) :   1.0152
B(  4-C ,  7-C ) :   1.1925 B(  4-C ,  8-H ) :   0.1458 B(  4-C , 10-C ) :   0.1364
B(  4-C , 17-C ) :   0.3987 B(  4-C , 23-C ) :   0.2280 B(  4-C , 29-C ) :  -0.1323
B(  4-C , 33-C ) :   0.3002 B(  4-C , 39-C ) :   0.1248 B(  5-H ,  8-H ) :   0.1205
B(  5-H ,  9-N ) :  -0.1857 B(  6-H , 10-C ) :   0.1122 B(  6-H , 23-C ) :  -0.1828
B(  6-H , 33-C ) :  -0.3333 B(  7-C ,  8-H ) :   0.8036 B(  7-C ,  9-N ) :   0.3189
B(  7-C , 17-C ) :  -0.3810 B(  7-C , 23-C ) :  -0.6043 B(  7-C , 24-C ) :  -0.3390
B(  7-C , 29-C ) :  -0.5017 B(  7-C , 33-C ) :  -0.9896 B(  9-N , 17-C ) :   0.3632
B(  9-N , 24-C ) :   0.7684 B(  9-N , 26-H ) :  -0.1241 B( 10-C , 11-C ) :   0.2607
B( 10-C , 14-C ) :   0.6939 B( 10-C , 15-H ) :  -0.1284 B( 10-C , 16-C ) :  -0.3230
B( 10-C , 17-C ) :   0.9018 B( 10-C , 39-C ) :   0.5259 B( 10-C , 44-C ) :  -0.1999
B( 10-C , 48-C ) :  -0.1118 B( 11-C , 12-H ) :   1.2417 B( 11-C , 13-H ) :   1.1941
B( 11-C , 14-C ) :  -0.2291 B( 11-C , 16-C ) :   0.5398 B( 11-C , 17-C ) :  -0.3363
B( 14-C , 15-H ) :   1.2477 B( 14-C , 16-C ) :   0.9564 B( 14-C , 17-C ) :  -0.1447
B( 14-C , 18-C ) :  -0.1802 B( 14-C , 20-H ) :   0.1057 B( 14-C , 39-C ) :  -0.3461
B( 16-C , 17-C ) :   0.2155 B( 16-C , 18-C ) :   0.6459 B( 16-C , 19-H ) :  -0.1043
B( 16-C , 20-H ) :  -0.1459 B( 16-C , 21-H ) :  -0.1122 B( 16-C , 22-H ) :   1.0152
B( 17-C , 39-C ) :  -0.2816 B( 18-C , 19-H ) :   1.0382 B( 18-C , 20-H ) :   1.0653
B( 18-C , 21-H ) :   1.0459 B( 23-C , 24-C ) :   0.1948 B( 23-C , 27-C ) :  -0.1507
B( 23-C , 29-C ) :   1.0321 B( 23-C , 31-C ) :  -0.6264 B( 23-C , 33-C ) :   1.0326
B( 23-C , 37-C ) :  -0.5186 B( 24-C , 25-H ) :   1.0711 B( 24-C , 26-H ) :   1.0165
B( 24-C , 27-C ) :   1.1348 B( 24-C , 30-H ) :  -0.1037 B( 27-C , 28-H ) :   1.0833
B( 27-C , 29-C ) :   0.3681 B( 27-C , 30-H ) :   1.1565 B( 29-C , 30-H ) :  -0.1906
B( 29-C , 31-C ) :   1.0969 B( 29-C , 32-H ) :  -0.1116 B( 29-C , 35-C ) :  -0.2665
B( 29-C , 37-C ) :   0.1418 B( 31-C , 32-H ) :   1.0426 B( 31-C , 33-C ) :   0.1026
B( 31-C , 35-C ) :   1.2935 B( 31-C , 36-H ) :  -0.2195 B( 31-C , 37-C ) :   0.2042
B( 33-C , 34-H ) :   1.1929 B( 33-C , 35-C ) :  -0.1170 B( 33-C , 37-C ) :   1.1474
B( 33-C , 38-H ) :  -0.1610 B( 35-C , 36-H ) :   1.1808 B( 35-C , 37-C ) :   1.3438
B( 36-H , 37-C ) :  -0.1456 B( 37-C , 38-H ) :   1.1655 B( 39-C , 42-H ) :  -0.2701
B( 39-C , 43-H ) :  -0.2371 B( 39-C , 44-C ) :  -0.2085 B( 39-C , 45-H ) :  -0.2603
B( 39-C , 46-H ) :  -0.2354 B( 39-C , 47-H ) :  -0.2032 B( 39-C , 50-H ) :  -0.2317
B( 39-C , 51-H ) :  -0.3432 B( 40-C , 41-H ) :   0.9343 B( 40-C , 42-H ) :   1.2917
B( 40-C , 43-H ) :   1.2369 B( 40-C , 44-C ) :   0.1620 B( 40-C , 48-C ) :   0.1209
B( 44-C , 45-H ) :   1.1859 B( 44-C , 46-H ) :   1.2383 B( 44-C , 47-H ) :   1.1805
B( 44-C , 48-C ) :   0.1952 B( 48-C , 49-H ) :   1.0289 B( 48-C , 50-H ) :   1.2130
B( 48-C , 51-H ) :   1.3175

MP2 TOTAL ENERGY:     -908.795811847 Eh
FINAL SINGLE POINT ENERGY      -908.795811846709

DIPOLE MOMENT
-------------
                                X             Y             Z
Electronic contribution:    -18.42431      -4.22552       2.41246
Nuclear contribution   :     18.69238       3.93709      -2.72332
                        -----------------------------------------
Total Dipole Moment    :      0.26807      -0.28843      -0.31086
                        -----------------------------------------
Magnitude (a.u.)       :      0.50168
Magnitude (Debye)      :      1.27518

Rotational constants in cm-1:     0.014541     0.005707     0.004420
Rotational constants in MHz :   435.923298   171.104368   132.510611

                             ****ORCA TERMINATED NORMALLY****
TOTAL RUN TIME: 0 days 22 hours 1 minutes 38 seconds 335 msec
