                         Program Version 4.2.1 -  RELEASE  -
|  1> %pal
|  2>  nprocs 32
|  3> end
|  4> !RI-MP2 aug-cc-pVQZ aug-cc-pVQZ/C TightSCF
|  5> %maxcore 4500
|  6> *xyzfile 1 1  02_33TS.xyz
|  7>
|  8>
|  9>                          ****END OF INPUT****

CARTESIAN COORDINATES (ANGSTROEM)
---------------------------------
  C     -1.896755    1.172722    0.166910
  N     -0.899292    0.616958   -0.398319
  N      0.193609    1.111172   -0.856699
  C      1.319321    0.633203   -0.333724
  C      2.538919    0.915800   -1.019745
  C      1.329555   -0.211334    0.820603
  C      3.706142    0.408835   -0.545801
  H      2.490806    1.525751   -1.912384
  C      2.566595   -0.674440    1.311262
  H      0.461624   -0.225282    1.463180
  C      3.718603   -0.383720    0.633943
  H      4.637653    0.610658   -1.058426
  H      2.596089   -1.256938    2.222870
  H      4.667369   -0.745352    1.011528
  C     -3.176584    0.430165    0.380815
  C     -1.767211    2.580328    0.662980
  H     -1.309323    3.201149   -0.110633
  H     -2.738564    2.986839    0.937384
  H     -1.117643    2.618070    1.541133
  C     -0.891295   -1.595833   -0.683018
  C      0.348571   -1.984872   -0.227560
  H     -0.993298   -1.364390   -1.737724
  H      1.175744   -2.084807   -0.916610
  H      0.422129   -2.536114    0.701831
  C     -2.162312   -1.895929    0.048485
  C     -3.300219   -0.933701   -0.284145
  H     -3.316636    0.344162    1.465827
  H     -3.982923    1.089530    0.045030
  H     -3.364213   -0.811791   -1.369283
  H     -4.247886   -1.372619    0.030348
  H     -2.461233   -2.908696   -0.242450
  H     -1.979910   -1.934432    1.127476

 Total Charge           Charge          ....    1
 Multiplicity           Mult            ....    1
 Number of Electrons    NEL             ....  108
 Basis Dimension        Dim             .... 1982

ORBITAL ENERGIES
----------------

  NO   OCC          E(Eh)            E(eV)
   0   2.0000     -15.785000      -429.5317
   1   2.0000     -15.783599      -429.4936
   2   2.0000     -11.465182      -311.9835
   3   2.0000     -11.432458      -311.0930
   4   2.0000     -11.427808      -310.9665
   5   2.0000     -11.408278      -310.4350
   6   2.0000     -11.399155      -310.1868
   7   2.0000     -11.387746      -309.8763
   8   2.0000     -11.376976      -309.5832
   9   2.0000     -11.375822      -309.5518
  10   2.0000     -11.375358      -309.5392
  11   2.0000     -11.372325      -309.4567
  12   2.0000     -11.368903      -309.3636
  13   2.0000     -11.364312      -309.2387
  14   2.0000     -11.358204      -309.0725
  15   2.0000      -1.536335       -41.8058
  16   2.0000      -1.341917       -36.5154
  17   2.0000      -1.285572       -34.9822
  18   2.0000      -1.235598       -33.6223
  19   2.0000      -1.195185       -32.5226
  20   2.0000      -1.174751       -31.9666
  21   2.0000      -1.154363       -31.4118
  22   2.0000      -1.111058       -30.2334
  23   2.0000      -1.079543       -29.3759
  24   2.0000      -1.014723       -27.6120
  25   2.0000      -0.980587       -26.6831
  26   2.0000      -0.967334       -26.3225
  27   2.0000      -0.921928       -25.0869
  28   2.0000      -0.896485       -24.3946
  29   2.0000      -0.846624       -23.0378
  30   2.0000      -0.819098       -22.2888
  31   2.0000      -0.808651       -22.0045
  32   2.0000      -0.806966       -21.9587
  33   2.0000      -0.777927       -21.1685
  34   2.0000      -0.770726       -20.9725
  35   2.0000      -0.753286       -20.4979
  36   2.0000      -0.747642       -20.3444
  37   2.0000      -0.743341       -20.2273
  38   2.0000      -0.739510       -20.1231
  39   2.0000      -0.706793       -19.2328
  40   2.0000      -0.703542       -19.1444
  41   2.0000      -0.694328       -18.8936
  42   2.0000      -0.682584       -18.5741
  43   2.0000      -0.670885       -18.2557
  44   2.0000      -0.658404       -17.9161
  45   2.0000      -0.645794       -17.5730
  46   2.0000      -0.632870       -17.2213
  47   2.0000      -0.623948       -16.9785
  48   2.0000      -0.618300       -16.8248
  49   2.0000      -0.609010       -16.5720
  50   2.0000      -0.549358       -14.9488
  51   2.0000      -0.521370       -14.1872
  52   2.0000      -0.497606       -13.5405
  53   2.0000      -0.438567       -11.9340
  54   0.0000      -0.138680        -3.7737
  55   0.0000      -0.067383        -1.8336
  56   0.0000      -0.055969        -1.5230
  57   0.0000      -0.054841        -1.4923
  58   0.0000      -0.052602        -1.4314

MULLIKEN ATOMIC CHARGES
-----------------------
   0 C :    0.446605
   1 N :    0.412657
   2 N :   -1.072298
   3 C :    0.908822
   4 C :   -0.742976
   5 C :    0.242775
   6 C :   -0.463617
   7 H :    0.393122
   8 C :   -0.460105
   9 H :    0.278423
  10 C :   -0.359294
  11 H :    0.289494
  12 H :    0.255093
  13 H :    0.305547
  14 C :   -0.241876
  15 C :   -0.763406
  16 H :    0.246855
  17 H :    0.297936
  18 H :    0.247213
  19 C :    0.095510
  20 C :   -0.766485
  21 H :    0.348372
  22 H :    0.270903
  23 H :    0.283174
  24 C :   -0.432395
  25 C :   -0.528783
  26 H :    0.179253
  27 H :    0.302583
  28 H :    0.240338
  29 H :    0.266620
  30 H :    0.330186
  31 H :    0.189756
Sum of atomic charges:    1.0000000

LOEWDIN ATOMIC CHARGES
----------------------
   0 C :   -0.194553
   1 N :    0.317314
   2 N :    0.479747
   3 C :   -0.363114
   4 C :    0.366184
   5 C :    0.249203
   6 C :    0.396433
   7 H :   -0.301129
   8 C :    0.399190
   9 H :   -0.310004
  10 C :    0.400136
  11 H :   -0.305233
  12 H :   -0.295044
  13 H :   -0.288116
  14 C :    0.543150
  15 C :    0.963676
  16 H :   -0.275360
  17 H :   -0.278761
  18 H :   -0.257914
  19 C :    0.324587
  20 C :    0.758166
  21 H :   -0.283502
  22 H :   -0.293677
  23 H :   -0.298987
  24 C :    0.534604
  25 C :    0.552151
  26 H :   -0.251985
  27 H :   -0.262991
  28 H :   -0.256816
  29 H :   -0.251381
  30 H :   -0.251370
  31 H :   -0.264604

  Mayer bond orders larger than 0.100000
B(  0-C ,  1-N ) :   1.5307 B(  0-C ,  2-N ) :  -0.2357 B(  0-C , 14-C ) :   0.4986
B(  0-C , 15-C ) :   0.4457 B(  0-C , 16-H ) :  -0.1761 B(  0-C , 18-H ) :  -0.1240
B(  0-C , 25-C ) :  -0.1382 B(  1-N ,  3-C ) :  -0.1061 B(  1-N , 19-C ) :   0.1812
B(  2-N ,  3-C ) :   0.7290 B(  2-N ,  6-C ) :   0.1276 B(  3-C ,  4-C ) :   0.7023
B(  3-C ,  5-C ) :   0.9761 B(  3-C ,  6-C ) :  -0.4294 B(  3-C ,  8-C ) :  -0.2394
B(  3-C , 10-C ) :  -0.1072 B(  4-C ,  6-C ) :   1.6425 B(  4-C ,  7-H ) :   0.8288
B(  4-C ,  8-C ) :   0.1478 B(  4-C , 10-C ) :   0.2283 B(  4-C , 11-H ) :  -0.1541
B(  5-C ,  6-C ) :   0.1116 B(  5-C ,  8-C ) :   1.0512 B(  5-C ,  9-H ) :   0.8634
B(  5-C , 10-C ) :  -0.1468 B(  5-C , 20-C ) :   0.2055 B(  6-C , 10-C ) :   0.9858
B(  6-C , 11-H ) :   1.1021 B(  8-C ,  9-H ) :  -0.1019 B(  8-C , 10-C ) :   1.3581
B(  8-C , 12-H ) :   1.0789 B(  8-C , 13-H ) :  -0.1380 B( 10-C , 13-H ) :   1.0796
B( 14-C , 25-C ) :   0.9426 B( 14-C , 26-H ) :   1.0051 B( 14-C , 27-H ) :   0.9629
B( 15-C , 16-H ) :   1.0719 B( 15-C , 17-H ) :   0.9538 B( 15-C , 18-H ) :   0.9975
B( 19-C , 20-C ) :   1.3153 B( 19-C , 21-H ) :   0.9458 B( 19-C , 22-H ) :  -0.1588
B( 19-C , 24-C ) :   0.7224 B( 19-C , 25-C ) :  -0.1370 B( 20-C , 22-H ) :   1.0619
B( 20-C , 23-H ) :   0.9776 B( 24-C , 25-C ) :   0.9951 B( 24-C , 30-H ) :   0.9113
B( 24-C , 31-H ) :   1.0014 B( 25-C , 28-H ) :   0.9755 B( 25-C , 29-H ) :   1.0071

MP2 TOTAL ENERGY:     -613.684991590 Eh
FINAL SINGLE POINT ENERGY      -613.684991589607

DIPOLE MOMENT
-------------
                                X             Y             Z
Electronic contribution:      8.97157       2.81060      -2.56660
Nuclear contribution   :     -9.21822      -2.90257       3.24591
                        -----------------------------------------
Total Dipole Moment    :     -0.24665      -0.09197       0.67931
                        -----------------------------------------
Magnitude (a.u.)       :      0.72853
Magnitude (Debye)      :      1.85178

Rotational constants in cm-1:     0.038171     0.014263     0.011910
Rotational constants in MHz :  1144.350838   427.592164   357.040571

                             ****ORCA TERMINATED NORMALLY****
TOTAL RUN TIME: 0 days 5 hours 20 minutes 34 seconds 302 msec
