                         Program Version 4.2.1 -  RELEASE  -
|  1> %pal
|  2>  nprocs 32
|  3> end
|  4> !RI-MP2 aug-cc-pVQZ aug-cc-pVQZ/C TightSCF
|  5> %maxcore 4500
|  6> *xyzfile 0 2  04_1TS.xyz
|  7>
|  8>
|  9>                          ****END OF INPUT****

CARTESIAN COORDINATES (ANGSTROEM)
---------------------------------
  C     -1.324764   -0.871902   -0.068585
  H     -0.116702   -1.277127   -0.021726
  H     -1.606203   -1.105432   -1.094667
  H     -1.875561   -1.464953    0.658718
  C     -1.169531    0.598608    0.234373
  H     -2.000194    1.170484   -0.194290
  C      1.294533    0.252562    0.230088
  H      2.246596    0.557722   -0.220312
  O      1.117265   -1.099527   -0.088291
  H     -1.193284    0.764867    1.315166
  H      1.370868    0.396527    1.317627
  C      0.159377    1.112811   -0.325473
  H      0.320518    2.160630   -0.059398
  H      0.158153    1.041028   -1.417212

 Total Charge           Charge          ....    0
 Multiplicity           Mult            ....    2
 Number of Electrons    NEL             ....   41
 Basis Dimension        Dim             ....  814

ORBITAL ENERGIES
----------------
                 SPIN UP ORBITALS
  NO   OCC          E(Eh)            E(eV)
   0   1.0000     -20.584382      -560.1295
   1   1.0000     -11.271627      -306.7166
   2   1.0000     -11.235599      -305.7362
   3   1.0000     -11.227871      -305.5259
   4   1.0000     -11.227258      -305.5092
   5   1.0000      -1.381157       -37.5832
   6   1.0000      -1.081469       -29.4283
   7   1.0000      -0.988870       -26.9085
   8   1.0000      -0.859016       -23.3750
   9   1.0000      -0.809469       -22.0268
  10   1.0000      -0.712388       -19.3851
  11   1.0000      -0.652895       -17.7662
  12   1.0000      -0.617579       -16.8052
  13   1.0000      -0.606123       -16.4934
  14   1.0000      -0.569379       -15.4936
  15   1.0000      -0.556494       -15.1430
  16   1.0000      -0.514440       -13.9986
  17   1.0000      -0.498669       -13.5695
  18   1.0000      -0.486774       -13.2458
  19   1.0000      -0.448959       -12.2168
  20   1.0000      -0.389467       -10.5979
  21   0.0000       0.025571         0.6958
  22   0.0000       0.032370         0.8808
  23   0.0000       0.033849         0.9211
  24   0.0000       0.036815         1.0018
  25   0.0000       0.050779         1.3818

                 SPIN DOWN ORBITALS
  NO   OCC          E(Eh)            E(eV)
   0   1.0000     -20.553241      -559.2821
   1   1.0000     -11.273469      -306.7667
   2   1.0000     -11.229100      -305.5594
   3   1.0000     -11.226316      -305.4836
   4   1.0000     -11.220794      -305.3333
   5   1.0000      -1.289485       -35.0887
   6   1.0000      -1.065998       -29.0073
   7   1.0000      -0.964173       -26.2365
   8   1.0000      -0.832282       -22.6475
   9   1.0000      -0.788886       -21.4667
  10   1.0000      -0.659213       -17.9381
  11   1.0000      -0.637534       -17.3482
  12   1.0000      -0.609624       -16.5887
  13   1.0000      -0.577764       -15.7218
  14   1.0000      -0.547824       -14.9070
  15   1.0000      -0.501654       -13.6507
  16   1.0000      -0.489312       -13.3149
  17   1.0000      -0.481716       -13.1082
  18   1.0000      -0.450269       -12.2524
  19   1.0000      -0.427914       -11.6441
  20   0.0000       0.025611         0.6969
  21   0.0000       0.032391         0.8814
  22   0.0000       0.033868         0.9216
  23   0.0000       0.036926         1.0048
  24   0.0000       0.050555         1.3757

MULLIKEN ATOMIC CHARGES AND SPIN POPULATIONS
--------------------------------------------
   0 C :   -0.666385    0.637473
   1 H :    0.273490   -0.279464
   2 H :    0.241157   -0.034068
   3 H :    0.338011   -0.025477
   4 C :   -0.451876   -0.077630
   5 H :    0.319524    0.039153
   6 C :   -0.017917   -0.124483
   7 H :    0.364880    0.049130
   8 O :   -0.792962    0.766108
   9 H :    0.236659   -0.000198
  10 H :    0.189661   -0.000062
  11 C :   -0.602120    0.059548
  12 H :    0.343283   -0.008061
  13 H :    0.224593   -0.001970
Sum of atomic charges         :   -0.0000000

LOEWDIN ATOMIC CHARGES AND SPIN POPULATIONS
-------------------------------------------
   0 C :    0.857948    0.196232
   1 H :   -0.946524    0.076433
   2 H :   -0.253105    0.050323
   3 H :   -0.250046    0.055976
   4 C :    0.506824    0.039635
   5 H :   -0.266370    0.013027
   6 C :    0.143657    0.059459
   7 H :   -0.311189    0.017828
   8 O :    1.124835    0.485415
   9 H :   -0.275874    0.000555
  10 H :   -0.295365   -0.003404
  11 C :    0.500807    0.006262
  12 H :   -0.264910    0.001295
  13 H :   -0.270688    0.000963

  Mayer bond orders larger than 0.100000
B(  0-C ,  1-H ) :   0.5517 B(  0-C ,  2-H ) :   0.9650 B(  0-C ,  3-H ) :   0.9038
B(  0-C ,  4-C ) :   1.0234 B(  1-H ,  8-O ) :   0.2608 B(  4-C ,  5-H ) :   0.8460
B(  4-C ,  9-H ) :   0.9144 B(  4-C , 11-C ) :   0.9376 B(  6-C ,  7-H ) :   0.8354
B(  6-C ,  8-O ) :   0.6209 B(  6-C , 10-H ) :   0.9686 B(  6-C , 11-C ) :   1.0075
B( 11-C , 12-H ) :   0.8336 B( 11-C , 13-H ) :   0.9169

MP2 TOTAL ENERGY:     -232.570275309 Eh
FINAL SINGLE POINT ENERGY      -232.570275309491

DIPOLE MOMENT
-------------
                                X             Y             Z
Electronic contribution:      2.40831      -1.64885      -0.19976
Nuclear contribution   :     -2.82054       2.34474       0.29753
                        -----------------------------------------
Total Dipole Moment    :     -0.41223       0.69590       0.09777
                        -----------------------------------------
Magnitude (a.u.)       :      0.81472
Magnitude (Debye)      :      2.07085

Rotational constants in cm-1:     0.236798     0.157552     0.106568
Rotational constants in MHz :  7099.033074  4723.288663  3194.832145

                             ****ORCA TERMINATED NORMALLY****
TOTAL RUN TIME: 0 days 0 hours 25 minutes 28 seconds 532 msec
