                         Program Version 4.2.1 -  RELEASE  -
|  1> %pal
|  2>  nprocs 32
|  3> end
|  4> !RI-MP2 aug-cc-pVQZ aug-cc-pVQZ/C TightSCF
|  5> %maxcore 4500
|  6> *xyzfile -1 1  08_14R2.xyz
|  7>
|  8>
|  9>                          ****END OF INPUT****

CARTESIAN COORDINATES (ANGSTROEM)
---------------------------------
  N     -0.166254    1.350843   -0.083598
  C      1.049103    0.638470   -0.064604
  C      1.023118   -0.755849   -0.238974
  N     -0.196349   -1.368153   -0.410572
  C     -1.296241   -0.766932    0.389699
  C     -1.360804    0.705881   -0.017400
  N     -2.459982    1.392904   -0.153264
  C     -3.663082    0.739825   -0.159148
  C     -2.573842   -1.484114   -0.053288
  N     -3.668844   -0.664371   -0.153605
  C      2.272092    1.280674    0.073197
  C      3.481008    0.590188    0.034424
  C      3.458946   -0.794515   -0.146494
  C      2.234719   -1.439129   -0.273179
  O     -4.735645    1.313653   -0.217133
  O     -2.657546   -2.687345   -0.204425
  O     -1.177586   -0.828032    1.697866
  C     -0.133858    2.801486   -0.135776
  H     -1.155080    3.148357   -0.256941
  H      0.476854    3.134336   -0.977942
  H      0.279991    3.209544    0.790809
  C      4.780547    1.333765    0.192689
  H      5.434956    1.203801   -0.675704
  H      5.342960    0.990298    1.067189
  H      4.602679    2.403533    0.315053
  C      4.737636   -1.587625   -0.189674
  H      5.307446   -1.484843    0.739202
  H      5.392085   -1.256238   -1.002268
  H      4.532087   -2.648595   -0.338113
  H      2.297884    2.352322    0.218374
  H      2.208409   -2.516867   -0.399599
  H     -4.575353   -1.098741   -0.254728
  H     -0.194757   -2.374432   -0.297357

 Total Charge           Charge          ....   -1
 Multiplicity           Mult            ....    1
 Number of Electrons    NEL             ....  144
 Basis Dimension        Dim             .... 2198

ORBITAL ENERGIES
----------------

  NO   OCC          E(Eh)            E(eV)
   0   2.0000     -20.401780      -555.1606
   1   2.0000     -20.391792      -554.8889
   2   2.0000     -20.299972      -552.3903
   3   2.0000     -15.495076      -421.6424
   4   2.0000     -15.470814      -420.9823
   5   2.0000     -15.433944      -419.9790
   6   2.0000     -15.411428      -419.3663
   7   2.0000     -11.251773      -306.1763
   8   2.0000     -11.222945      -305.3919
   9   2.0000     -11.215896      -305.2000
  10   2.0000     -11.183745      -304.3252
  11   2.0000     -11.165617      -303.8319
  12   2.0000     -11.162599      -303.7497
  13   2.0000     -11.154323      -303.5246
  14   2.0000     -11.139570      -303.1231
  15   2.0000     -11.139315      -303.1162
  16   2.0000     -11.136394      -303.0367
  17   2.0000     -11.130535      -302.8773
  18   2.0000     -11.129311      -302.8439
  19   2.0000     -11.119647      -302.5810
  20   2.0000      -1.281528       -34.8721
  21   2.0000      -1.256952       -34.2034
  22   2.0000      -1.214770       -33.0556
  23   2.0000      -1.148987       -31.2655
  24   2.0000      -1.126346       -30.6494
  25   2.0000      -1.090361       -29.6702
  26   2.0000      -1.064561       -28.9682
  27   2.0000      -1.040222       -28.3059
  28   2.0000      -0.942631       -25.6503
  29   2.0000      -0.931585       -25.3497
  30   2.0000      -0.875449       -23.8222
  31   2.0000      -0.857382       -23.3305
  32   2.0000      -0.834645       -22.7119
  33   2.0000      -0.785823       -21.3833
  34   2.0000      -0.757038       -20.6001
  35   2.0000      -0.723322       -19.6826
  36   2.0000      -0.711589       -19.3633
  37   2.0000      -0.668505       -18.1910
  38   2.0000      -0.634661       -17.2700
  39   2.0000      -0.607060       -16.5189
  40   2.0000      -0.584235       -15.8978
  41   2.0000      -0.568658       -15.4740
  42   2.0000      -0.543562       -14.7911
  43   2.0000      -0.537041       -14.6136
  44   2.0000      -0.533352       -14.5132
  45   2.0000      -0.510982       -13.9045
  46   2.0000      -0.507924       -13.8213
  47   2.0000      -0.506127       -13.7724
  48   2.0000      -0.505015       -13.7421
  49   2.0000      -0.488726       -13.2989
  50   2.0000      -0.480870       -13.0851
  51   2.0000      -0.471458       -12.8290
  52   2.0000      -0.468125       -12.7383
  53   2.0000      -0.458050       -12.4642
  54   2.0000      -0.449671       -12.2362
  55   2.0000      -0.443638       -12.0720
  56   2.0000      -0.435578       -11.8527
  57   2.0000      -0.420255       -11.4357
  58   2.0000      -0.404611       -11.0100
  59   2.0000      -0.397604       -10.8194
  60   2.0000      -0.388148       -10.5620
  61   2.0000      -0.367943       -10.0122
  62   2.0000      -0.347701        -9.4614
  63   2.0000      -0.324751        -8.8369
  64   2.0000      -0.321385        -8.7453
  65   2.0000      -0.297206        -8.0874
  66   2.0000      -0.288882        -7.8609
  67   2.0000      -0.281552        -7.6614
  68   2.0000      -0.226827        -6.1723
  69   2.0000      -0.212880        -5.7928
  70   2.0000      -0.211129        -5.7451
  71   2.0000      -0.163006        -4.4356
  72   0.0000       0.077099         2.0980
  73   0.0000       0.083343         2.2679
  74   0.0000       0.096343         2.6216
  75   0.0000       0.098244         2.6734
  76   0.0000       0.104769         2.8509

MULLIKEN ATOMIC CHARGES
-----------------------
   0 N :   -0.447846
   1 C :    1.211024
   2 C :    0.891772
   3 N :   -1.033735
   4 C :    1.826194
   5 C :    0.790299
   6 N :   -0.917560
   7 C :    1.264847
   8 C :    1.208778
   9 N :   -0.915920
  10 C :   -0.650185
  11 C :    0.619701
  12 C :    0.263289
  13 C :   -1.011063
  14 O :   -0.962517
  15 O :   -1.011609
  16 O :   -1.359347
  17 C :   -1.186482
  18 H :    0.341252
  19 H :    0.294358
  20 H :    0.343381
  21 C :   -1.029951
  22 H :    0.163495
  23 H :    0.177508
  24 H :    0.254607
  25 C :   -0.999980
  26 H :    0.182700
  27 H :    0.174536
  28 H :    0.290350
  29 H :    0.032682
  30 H :    0.061737
  31 H :   -0.042477
  32 H :    0.176161
Sum of atomic charges:   -1.0000000

LOEWDIN ATOMIC CHARGES
----------------------
   0 N :    0.456104
   1 C :   -0.200510
   2 C :   -0.238473
   3 N :    0.837400
   4 C :   -1.186242
   5 C :   -0.549077
   6 N :    0.555679
   7 C :   -1.131582
   8 C :   -0.928265
   9 N :    0.749770
  10 C :    0.355387
  11 C :   -0.060656
  12 C :   -0.069209
  13 C :    0.373385
  14 O :    0.622164
  15 O :    0.698696
  16 O :    0.619803
  17 C :    0.768835
  18 H :   -0.376794
  19 H :   -0.275590
  20 H :   -0.266165
  21 C :    0.887752
  22 H :   -0.288142
  23 H :   -0.286108
  24 H :   -0.308647
  25 C :    0.890823
  26 H :   -0.285620
  27 H :   -0.287219
  28 H :   -0.308592
  29 H :   -0.361882
  30 H :   -0.319404
  31 H :   -0.538604
  32 H :   -0.549018

  Mayer bond orders larger than 0.100000
B(  0-N ,  1-C ) :   0.4677 B(  0-N ,  2-C ) :   0.3284 B(  0-N ,  5-C ) :   1.3049
B(  0-N ,  6-N ) :   0.2090 B(  0-N , 10-C ) :  -0.2153 B(  0-N , 17-C ) :   0.9627
B(  1-C ,  2-C ) :   1.5037 B(  1-C ,  3-N ) :   0.4915 B(  1-C , 10-C ) :   0.8916
B(  1-C , 11-C ) :  -0.6419 B(  1-C , 13-C ) :  -0.2422 B(  1-C , 16-O ) :  -0.2056
B(  1-C , 17-C ) :  -0.2523 B(  1-C , 29-H ) :  -0.1139 B(  2-C , 11-C ) :   0.1057
B(  2-C , 12-C ) :  -0.3046 B(  2-C , 13-C ) :   0.9304 B(  2-C , 16-O ) :   0.2018
B(  2-C , 30-H ) :  -0.1842 B(  2-C , 32-H ) :  -0.2732 B(  3-N ,  4-C ) :   0.6793
B(  3-N ,  5-C ) :  -0.1828 B(  3-N , 16-O ) :   0.1947 B(  3-N , 32-H ) :   1.0016
B(  4-C ,  5-C ) :   0.6705 B(  4-C ,  8-C ) :   1.0577 B(  4-C ,  9-N ) :  -0.1177
B(  4-C , 15-O ) :   0.2428 B(  4-C , 16-O ) :  -0.1785 B(  5-C ,  6-N ) :   0.8003
B(  5-C ,  8-C ) :  -0.2188 B(  5-C , 10-C ) :  -0.1022 B(  5-C , 16-O ) :   0.3743
B(  6-N ,  7-C ) :   1.4529 B(  6-N , 17-C ) :  -0.1334 B(  7-C ,  8-C ) :   0.1078
B(  7-C ,  9-N ) :   0.9765 B(  7-C , 14-O ) :   1.0306 B(  7-C , 31-H ) :  -0.1393
B(  8-C ,  9-N ) :   0.8994 B(  8-C , 15-O ) :   0.7213 B(  8-C , 16-O ) :   0.3097
B(  8-C , 31-H ) :  -0.1717 B(  9-N , 14-O ) :   0.1920 B(  9-N , 15-O ) :   0.2431
B(  9-N , 31-H ) :   1.3642 B( 10-C , 11-C ) :   0.7443 B( 10-C , 12-C ) :  -0.1546
B( 10-C , 13-C ) :   0.1952 B( 10-C , 16-O ) :  -0.1077 B( 10-C , 21-C ) :  -0.3116
B( 10-C , 29-H ) :   1.1157 B( 11-C , 12-C ) :   0.8369 B( 11-C , 21-C ) :   0.5777
B( 11-C , 22-H ) :  -0.1891 B( 11-C , 23-H ) :  -0.1956 B( 12-C , 13-C ) :   0.8971
B( 12-C , 23-H ) :   0.1063 B( 12-C , 25-C ) :   0.6612 B( 12-C , 26-H ) :  -0.1766
B( 12-C , 27-H ) :  -0.1762 B( 12-C , 30-H ) :  -0.1273 B( 13-C , 25-C ) :  -0.2510
B( 13-C , 30-H ) :   1.1384 B( 17-C , 18-H ) :   0.8450 B( 17-C , 19-H ) :   0.9863
B( 17-C , 20-H ) :   0.9898 B( 21-C , 22-H ) :   1.1164 B( 21-C , 23-H ) :   1.1044
B( 21-C , 24-H ) :   1.0428 B( 25-C , 26-H ) :   1.0976 B( 25-C , 27-H ) :   1.1135
B( 25-C , 28-H ) :   1.0028

MP2 TOTAL ENERGY:     -946.557954818 Eh
FINAL SINGLE POINT ENERGY      -946.557954818404

DIPOLE MOMENT
-------------
                                X             Y             Z
Electronic contribution:    -25.31283      -4.17853      -0.30602
Nuclear contribution   :     29.26399       4.94526      -1.03841
                        -----------------------------------------
Total Dipole Moment    :      3.95116       0.76673      -1.34443
                        -----------------------------------------
Magnitude (a.u.)       :      4.24347
Magnitude (Debye)      :     10.78604

Rotational constants in cm-1:     0.026807     0.007387     0.006046
Rotational constants in MHz :   803.653860   221.452322   181.243590

                             ****ORCA TERMINATED NORMALLY****
TOTAL RUN TIME: 0 days 5 hours 38 minutes 41 seconds 701 msec
