                         Program Version 4.2.1 -  RELEASE  -
|  1> %pal
|  2>  nprocs 32
|  3> end
|  4> !RI-MP2 aug-cc-pVQZ aug-cc-pVQZ/C TightSCF
|  5> %maxcore 4500
|  6> *xyzfile -1 1  05_10TS.xyz
|  7>
|  8>
|  9>                          ****END OF INPUT****

CARTESIAN COORDINATES (ANGSTROEM)
---------------------------------
  C      0.284434    1.641145   -0.068136
  C      0.582893    0.482936   -0.821283
  N     -0.376625   -0.440046   -1.138519
  N     -1.028922    1.877932    0.301303
  C     -2.042503    1.024987   -0.104620
  C     -1.667755   -0.109474   -0.857795
  N     -3.277848    1.358740    0.220376
  C     -4.302289    0.551385   -0.162846
  N     -3.979454   -0.583761   -0.918736
  C     -2.716866   -0.996879   -1.314731
  C     -1.337258    3.010819    1.152185
  H     -0.777876    2.933234    2.087923
  H     -2.403445    2.990013    1.351451
  H     -1.076580    3.948244    0.653089
  H     -4.754061   -1.166692   -1.200441
  O     -5.478055    0.754533    0.107560
  O     -2.563559   -2.018500   -1.966034
  C      1.325157    2.497914    0.269025
  C      2.641008    2.240329   -0.123252
  C      2.946329    1.098899   -0.863953
  C      1.912800    0.220426   -1.169445
  C      3.728575    3.198042    0.278532
  H      4.222355    3.631897   -0.596135
  H      4.502453    2.690752    0.861219
  H      3.330815    4.015648    0.880856
  C      4.357883    0.783540   -1.275765
  H      4.967279    0.509886   -0.411234
  H      4.833253    1.632237   -1.776567
  H      4.377158   -0.066941   -1.957259
  H      2.098945   -0.665703   -1.762466
  H      1.125562    3.383426    0.855354
  H      0.035300   -1.496510   -0.369636
  C      0.512266   -2.117066    0.671505
  C      1.811057   -1.624635    0.947130
  C      3.003394   -2.190716    0.424820
  C     -0.563556   -1.702051    1.602986
  O      2.797563   -3.239097   -0.445085
  H      3.682622   -3.522905   -0.702322
  O      4.153744   -1.838633    0.658732
  O     -0.526284   -0.761143    2.357516
  O     -1.679492   -2.447792    1.462116
  H     -2.363658   -2.027124    2.001635
  H      0.419376   -3.133583    0.297821
  H      1.935694   -0.798501    1.631157

 Total Charge           Charge          ....   -1
 Multiplicity           Mult            ....    1
 Number of Electrons    NEL             ....  196
 Basis Dimension        Dim             .... 2942

ORBITAL ENERGIES
----------------

  NO   OCC          E(Eh)            E(eV)
   0   2.0000     -20.507153      -558.0280
   1   2.0000     -20.485090      -557.4276
   2   2.0000     -20.441737      -556.2479
   3   2.0000     -20.406343      -555.2848
   4   2.0000     -20.399820      -555.1073
   5   2.0000     -20.387976      -554.7850
   6   2.0000     -15.515656      -422.2025
   7   2.0000     -15.509380      -422.0317
   8   2.0000     -15.479362      -421.2148
   9   2.0000     -15.415952      -419.4894
  10   2.0000     -11.281563      -306.9869
  11   2.0000     -11.252501      -306.1961
  12   2.0000     -11.251901      -306.1798
  13   2.0000     -11.237746      -305.7946
  14   2.0000     -11.234546      -305.7075
  15   2.0000     -11.202095      -304.8245
  16   2.0000     -11.176051      -304.1158
  17   2.0000     -11.165432      -303.8269
  18   2.0000     -11.162074      -303.7355
  19   2.0000     -11.152163      -303.4658
  20   2.0000     -11.149349      -303.3892
  21   2.0000     -11.145570      -303.2864
  22   2.0000     -11.142967      -303.2155
  23   2.0000     -11.139057      -303.1091
  24   2.0000     -11.138798      -303.1021
  25   2.0000     -11.130181      -302.8676
  26   2.0000     -11.105893      -302.2067
  27   2.0000      -1.364663       -37.1344
  28   2.0000      -1.330868       -36.2148
  29   2.0000      -1.281799       -34.8795
  30   2.0000      -1.257748       -34.2251
  31   2.0000      -1.254499       -34.1366
  32   2.0000      -1.230461       -33.4825
  33   2.0000      -1.219501       -33.1843
  34   2.0000      -1.154005       -31.4021
  35   2.0000      -1.133030       -30.8313
  36   2.0000      -1.081787       -29.4369
  37   2.0000      -1.058808       -28.8116
  38   2.0000      -0.974693       -26.5228
  39   2.0000      -0.964296       -26.2398
  40   2.0000      -0.951315       -25.8866
  41   2.0000      -0.905560       -24.6415
  42   2.0000      -0.874193       -23.7880
  43   2.0000      -0.860593       -23.4179
  44   2.0000      -0.842008       -22.9122
  45   2.0000      -0.807866       -21.9832
  46   2.0000      -0.773357       -21.0441
  47   2.0000      -0.735451       -20.0126
  48   2.0000      -0.726645       -19.7730
  49   2.0000      -0.716652       -19.5011
  50   2.0000      -0.684678       -18.6310
  51   2.0000      -0.663898       -18.0656
  52   2.0000      -0.650000       -17.6874
  53   2.0000      -0.632259       -17.2046
  54   2.0000      -0.606377       -16.5004
  55   2.0000      -0.595076       -16.1928
  56   2.0000      -0.594311       -16.1720
  57   2.0000      -0.583043       -15.8654
  58   2.0000      -0.576022       -15.6744
  59   2.0000      -0.564418       -15.3586
  60   2.0000      -0.550839       -14.9891
  61   2.0000      -0.547707       -14.9039
  62   2.0000      -0.540388       -14.7047
  63   2.0000      -0.534725       -14.5506
  64   2.0000      -0.519711       -14.1420
  65   2.0000      -0.516044       -14.0423
  66   2.0000      -0.513053       -13.9609
  67   2.0000      -0.507593       -13.8123
  68   2.0000      -0.503568       -13.7028
  69   2.0000      -0.501152       -13.6370
  70   2.0000      -0.490161       -13.3380
  71   2.0000      -0.488998       -13.3063
  72   2.0000      -0.484375       -13.1805
  73   2.0000      -0.469377       -12.7724
  74   2.0000      -0.467015       -12.7081
  75   2.0000      -0.461512       -12.5584
  76   2.0000      -0.458712       -12.4822
  77   2.0000      -0.452308       -12.3079
  78   2.0000      -0.433090       -11.7850
  79   2.0000      -0.431215       -11.7340
  80   2.0000      -0.427083       -11.6215
  81   2.0000      -0.412329       -11.2201
  82   2.0000      -0.408631       -11.1194
  83   2.0000      -0.387285       -10.5386
  84   2.0000      -0.384955       -10.4752
  85   2.0000      -0.368193       -10.0190
  86   2.0000      -0.366355        -9.9690
  87   2.0000      -0.355707        -9.6793
  88   2.0000      -0.340730        -9.2717
  89   2.0000      -0.328123        -8.9287
  90   2.0000      -0.316788        -8.6202
  91   2.0000      -0.304259        -8.2793
  92   2.0000      -0.299225        -8.1423
  93   2.0000      -0.295817        -8.0496
  94   2.0000      -0.285772        -7.7762
  95   2.0000      -0.238069        -6.4782
  96   2.0000      -0.202367        -5.5067
  97   2.0000      -0.122840        -3.3426
  98   0.0000       0.076563         2.0834
  99   0.0000       0.085724         2.3327
 100   0.0000       0.093535         2.5452
 101   0.0000       0.096212         2.6181
 102   0.0000       0.101272         2.7557

MULLIKEN ATOMIC CHARGES
-----------------------
   0 C :    1.417935
   1 C :    1.263191
   2 N :   -0.663395
   3 N :   -0.475097
   4 C :    1.309992
   5 C :   -0.769022
   6 N :   -1.068010
   7 C :    1.215534
   8 N :   -0.955508
   9 C :    1.894340
  10 C :   -1.313960
  11 H :    0.333852
  12 H :    0.292558
  13 H :    0.363921
  14 H :   -0.089176
  15 O :   -1.038144
  16 O :   -1.087306
  17 C :   -1.062836
  18 C :    0.816755
  19 C :    0.419176
  20 C :   -0.716139
  21 C :   -1.129704
  22 H :    0.192322
  23 H :    0.192975
  24 H :    0.256162
  25 C :   -1.229725
  26 H :    0.186893
  27 H :    0.292279
  28 H :    0.241699
  29 H :    0.091867
  30 H :    0.006858
  31 H :    0.228702
  32 C :   -0.035898
  33 C :   -0.796730
  34 C :    1.657135
  35 C :    1.702774
  36 O :   -0.926665
  37 H :    0.289073
  38 O :   -1.150725
  39 O :   -1.145183
  40 O :   -0.992342
  41 H :    0.324707
  42 H :    0.421128
  43 H :    0.233737
Sum of atomic charges:   -1.0000000

LOEWDIN ATOMIC CHARGES
----------------------
   0 C :   -0.197212
   1 C :   -0.267795
   2 N :    0.729268
   3 N :    0.461727
   4 C :   -0.523493
   5 C :   -0.334865
   6 N :    0.543801
   7 C :   -1.157341
   8 N :    0.737148
   9 C :   -0.919390
  10 C :    0.773545
  11 H :   -0.267443
  12 H :   -0.379270
  13 H :   -0.268239
  14 H :   -0.539731
  15 O :    0.602234
  16 O :    0.676178
  17 C :    0.378953
  18 C :   -0.039956
  19 C :   -0.048269
  20 C :    0.322110
  21 C :    0.910202
  22 H :   -0.282474
  23 H :   -0.278221
  24 H :   -0.302375
  25 C :    0.889788
  26 H :   -0.300060
  27 H :   -0.291438
  28 H :   -0.298830
  29 H :   -0.304642
  30 H :   -0.362194
  31 H :   -0.686069
  32 C :    0.299754
  33 C :    0.249072
  34 C :   -1.099653
  35 C :   -1.045177
  36 O :    1.233172
  37 H :   -0.855035
  38 O :    0.664446
  39 O :    0.756028
  40 O :    1.282812
  41 H :   -0.807952
  42 H :   -0.290080
  43 H :   -0.363036

  Mayer bond orders larger than 0.100000
B(  0-C ,  1-C ) :   1.3385 B(  0-C ,  2-N ) :   0.2060 B(  0-C ,  3-N ) :   0.4476
B(  0-C ,  5-C ) :  -0.1372 B(  0-C , 10-C ) :  -0.4724 B(  0-C , 17-C ) :   1.0009
B(  0-C , 18-C ) :  -0.4830 B(  0-C , 20-C ) :  -0.3235 B(  0-C , 30-H ) :  -0.1576
B(  0-C , 39-O ) :  -0.1694 B(  1-C ,  2-N ) :  -0.3901 B(  1-C ,  5-C ) :  -0.4834
B(  1-C , 10-C ) :   0.1414 B(  1-C , 17-C ) :  -0.1179 B(  1-C , 19-C ) :  -0.6259
B(  1-C , 20-C ) :   0.5978 B(  1-C , 29-H ) :  -0.2370 B(  1-C , 31-H ) :   0.2886
B(  1-C , 32-C ) :   0.2088 B(  2-N ,  4-C ) :   0.1548 B(  2-N ,  5-C ) :   1.1284
B(  2-N ,  9-C ) :  -0.1796 B(  2-N , 20-C ) :   0.1663 B(  2-N , 32-C ) :  -0.1404
B(  2-N , 33-C ) :   0.1793 B(  3-N ,  4-C ) :   1.3749 B(  3-N ,  5-C ) :  -0.1303
B(  3-N ,  6-N ) :   0.2545 B(  3-N , 10-C ) :   0.9973 B(  3-N , 17-C ) :  -0.1757
B(  3-N , 20-C ) :   0.1510 B(  4-C ,  5-C ) :   0.9742 B(  4-C ,  6-N ) :   0.2367
B(  4-C ,  9-C ) :  -0.4310 B(  4-C , 17-C ) :  -0.1244 B(  5-C ,  6-N ) :   0.2205
B(  5-C ,  8-N ) :  -0.3006 B(  5-C ,  9-C ) :   1.9481 B(  5-C , 16-O ) :   0.6704
B(  5-C , 31-H ) :   0.1670 B(  6-N ,  7-C ) :   1.5171 B(  6-N , 10-C ) :  -0.1243
B(  6-N , 12-H ) :   0.1039 B(  7-C ,  8-N ) :   1.0053 B(  7-C ,  9-C ) :   0.1203
B(  7-C , 14-H ) :  -0.1489 B(  7-C , 15-O ) :   0.9678 B(  8-N ,  9-C ) :   0.8549
B(  8-N , 14-H ) :   1.4294 B(  8-N , 15-O ) :   0.1725 B(  8-N , 16-O ) :   0.3404
B(  9-C , 14-H ) :  -0.2037 B( 10-C , 11-H ) :   0.9581 B( 10-C , 12-H ) :   0.8991
B( 10-C , 13-H ) :   0.9910 B( 17-C , 18-C ) :   0.3759 B( 17-C , 19-C ) :   0.1555
B( 17-C , 20-C ) :   0.2326 B( 17-C , 21-C ) :  -0.2631 B( 17-C , 30-H ) :   1.1426
B( 18-C , 19-C ) :   0.5038 B( 18-C , 20-C ) :  -0.1063 B( 18-C , 21-C ) :   0.6169
B( 18-C , 22-H ) :  -0.2773 B( 18-C , 23-H ) :  -0.1762 B( 18-C , 26-H ) :   0.1349
B( 19-C , 20-C ) :   1.0039 B( 19-C , 21-C ) :  -0.1290 B( 19-C , 25-C ) :   0.5066
B( 19-C , 26-H ) :  -0.1923 B( 19-C , 27-H ) :  -0.2129 B( 19-C , 29-H ) :  -0.1084
B( 19-C , 38-O ) :  -0.1423 B( 20-C , 25-C ) :  -0.2614 B( 20-C , 29-H ) :   1.1752
B( 20-C , 30-H ) :   0.1057 B( 20-C , 38-O ) :   0.2046 B( 21-C , 22-H ) :   1.1536
B( 21-C , 23-H ) :   1.1005 B( 21-C , 24-H ) :   1.0496 B( 25-C , 26-H ) :   1.0849
B( 25-C , 27-H ) :   1.0751 B( 25-C , 28-H ) :   1.0657 B( 31-H , 32-C ) :   0.3610
B( 32-C , 33-C ) :   0.7784 B( 32-C , 34-C ) :  -0.3034 B( 32-C , 35-C ) :   1.3183
B( 32-C , 36-O ) :  -0.1248 B( 32-C , 39-O ) :   0.1091 B( 32-C , 40-O ) :   0.2919
B( 32-C , 42-H ) :   0.8916 B( 33-C , 34-C ) :   1.7067 B( 33-C , 35-C ) :  -0.1441
B( 33-C , 36-O ) :   0.1626 B( 33-C , 38-O ) :   0.1983 B( 33-C , 39-O ) :  -0.1338
B( 33-C , 43-H ) :   0.9120 B( 34-C , 36-O ) :   0.5254 B( 34-C , 38-O ) :   0.6682
B( 35-C , 39-O ) :   0.9986 B( 35-C , 40-O ) :   0.1943 B( 36-O , 37-H ) :   0.9306
B( 36-O , 38-O ) :   0.1531 B( 39-O , 40-O ) :   0.1396 B( 40-O , 41-H ) :   0.9174

MP2 TOTAL ENERGY:    -1326.594042758 Eh
FINAL SINGLE POINT ENERGY     -1326.594042758331

DIPOLE MOMENT
-------------
                                X             Y             Z
Electronic contribution:    -21.00954     -11.03368      -1.84794
Nuclear contribution   :     23.59364      12.47721       1.83405
                        -----------------------------------------
Total Dipole Moment    :      2.58410       1.44353      -0.01389
                        -----------------------------------------
Magnitude (a.u.)       :      2.95999
Magnitude (Debye)      :      7.52369

Rotational constants in cm-1:     0.010306     0.005218     0.004157
Rotational constants in MHz :   308.978070   156.429539   124.622461

                             ****ORCA TERMINATED NORMALLY****
TOTAL RUN TIME: 0 days 18 hours 38 minutes 14 seconds 706 msec
