                         Program Version 4.2.1 -  RELEASE  -
|  1> %pal
|  2>  nprocs 32
|  3> end
|  4> !RI-MP2 aug-cc-pVQZ aug-cc-pVQZ/C TightSCF
|  5> %maxcore 4500
|  6> *xyzfile 0 1  08_3R1.xyz
|  7>
|  8>
|  9>                          ****END OF INPUT****

CARTESIAN COORDINATES (ANGSTROEM)
---------------------------------
  C      0.111367   -1.023429   -0.170823
  N     -1.263280   -1.306103   -0.034565
  C     -2.212635   -0.347211    0.077306
  N     -1.940043    0.921840    0.057387
  C     -0.627115    1.270535   -0.066947
  C      0.416195    0.361780   -0.200263
  N      1.739834    0.865967   -0.337389
  C      2.773676    0.339572    0.538718
  O      3.368978   -0.849827    0.093496
  O      0.883921   -1.979538   -0.230601
  N     -3.500985   -0.755853    0.255343
  H     -3.781251   -1.667528   -0.066067
  H     -4.189902   -0.024171    0.184967
  H     -1.486446   -2.288458    0.048533
  N     -0.380013    2.594836   -0.085853
  H     -1.125458    3.228842    0.142078
  H      0.584434    2.886361   -0.064514
  H      2.649721   -1.493803   -0.036891
  H      3.582344    1.069232    0.603865
  H      2.322105    0.225195    1.531509
  H      2.063747    0.846957   -1.299050

 Total Charge           Charge          ....    0
 Multiplicity           Mult            ....    1
 Number of Electrons    NEL             ....   90
 Basis Dimension        Dim             .... 1374

ORBITAL ENERGIES
----------------

  NO   OCC          E(Eh)            E(eV)
   0   2.0000     -20.515193      -558.2468
   1   2.0000     -20.513279      -558.1947
   2   2.0000     -15.627565      -425.2477
   3   2.0000     -15.612889      -424.8483
   4   2.0000     -15.580045      -423.9546
   5   2.0000     -15.556257      -423.3073
   6   2.0000     -15.544760      -422.9944
   7   2.0000     -11.396914      -310.1258
   8   2.0000     -11.356395      -309.0232
   9   2.0000     -11.338782      -308.5439
  10   2.0000     -11.282477      -307.0118
  11   2.0000     -11.235569      -305.7354
  12   2.0000      -1.398347       -38.0510
  13   2.0000      -1.351253       -36.7695
  14   2.0000      -1.333701       -36.2918
  15   2.0000      -1.275526       -34.7088
  16   2.0000      -1.227114       -33.3915
  17   2.0000      -1.194096       -32.4930
  18   2.0000      -1.178513       -32.0690
  19   2.0000      -1.016075       -27.6488
  20   2.0000      -0.906568       -24.6690
  21   2.0000      -0.885438       -24.0940
  22   2.0000      -0.857420       -23.3316
  23   2.0000      -0.795764       -21.6538
  24   2.0000      -0.761232       -20.7142
  25   2.0000      -0.739146       -20.1132
  26   2.0000      -0.713324       -19.4105
  27   2.0000      -0.690797       -18.7975
  28   2.0000      -0.672192       -18.2913
  29   2.0000      -0.662917       -18.0389
  30   2.0000      -0.651092       -17.7171
  31   2.0000      -0.628407       -17.0998
  32   2.0000      -0.608902       -16.5691
  33   2.0000      -0.591084       -16.0842
  34   2.0000      -0.584620       -15.9083
  35   2.0000      -0.552580       -15.0365
  36   2.0000      -0.534777       -14.5520
  37   2.0000      -0.497018       -13.5245
  38   2.0000      -0.463986       -12.6257
  39   2.0000      -0.451866       -12.2959
  40   2.0000      -0.445198       -12.1144
  41   2.0000      -0.433204       -11.7881
  42   2.0000      -0.400168       -10.8891
  43   2.0000      -0.387163       -10.5352
  44   2.0000      -0.312468        -8.5027
  45   0.0000       0.011371         0.3094
  46   0.0000       0.023785         0.6472
  47   0.0000       0.031322         0.8523
  48   0.0000       0.039623         1.0782
  49   0.0000       0.042564         1.1582

MULLIKEN ATOMIC CHARGES
-----------------------
   0 C :    1.524096
   1 N :   -0.600637
   2 C :    0.870903
   3 N :   -0.764373
   4 C :    1.004267
   5 C :   -0.324574
   6 N :   -0.498406
   7 C :   -0.007207
   8 O :   -0.958793
   9 O :   -0.960172
  10 N :   -0.808437
  11 H :    0.276530
  12 H :    0.297862
  13 H :    0.078588
  14 N :   -0.894413
  15 H :    0.238389
  16 H :    0.254897
  17 H :    0.399200
  18 H :    0.389897
  19 H :    0.256587
  20 H :    0.225796
Sum of atomic charges:    0.0000000

LOEWDIN ATOMIC CHARGES
----------------------
   0 C :   -0.794265
   1 N :    0.822272
   2 C :   -0.626918
   3 N :    0.613900
   4 C :   -0.507080
   5 C :   -0.279427
   6 N :    0.819235
   7 C :    0.015857
   8 O :    1.272288
   9 O :    0.799715
  10 N :    1.278819
  11 H :   -0.478849
  12 H :   -0.498784
  13 H :   -0.493396
  14 N :    1.265749
  15 H :   -0.483278
  16 H :   -0.518424
  17 H :   -1.066677
  18 H :   -0.332803
  19 H :   -0.312214
  20 H :   -0.495723

  Mayer bond orders larger than 0.100000
B(  0-C ,  1-N ) :   0.7980 B(  0-C ,  4-C ) :  -0.1966 B(  0-C ,  5-C ) :   1.4601
B(  0-C ,  9-O ) :   0.6075 B(  0-C , 13-H ) :  -0.1342 B(  1-N ,  2-C ) :   1.0998
B(  1-N ,  9-O ) :   0.1751 B(  1-N , 13-H ) :   1.2367 B(  2-C ,  3-N ) :   1.5541
B(  2-C , 10-N ) :   1.0546 B(  3-N ,  4-C ) :   0.7337 B(  3-N ,  5-C ) :   0.1381
B(  3-N , 14-N ) :   0.1093 B(  4-C ,  5-C ) :   1.3843 B(  4-C , 14-N ) :   0.8077
B(  5-C ,  6-N ) :   0.6521 B(  5-C ,  7-C ) :  -0.1188 B(  5-C ,  9-O ) :   0.5209
B(  6-N ,  7-C ) :   1.0624 B(  6-N , 20-H ) :   0.9715 B(  7-C ,  8-O ) :   0.6771
B(  7-C , 18-H ) :   0.8158 B(  7-C , 19-H ) :   0.9300 B(  8-O , 17-H ) :   0.7707
B( 10-N , 11-H ) :   0.9390 B( 10-N , 12-H ) :   0.9040 B( 14-N , 15-H ) :   1.0053
B( 14-N , 16-H ) :   0.9887

MP2 TOTAL ENERGY:     -619.324367866 Eh
FINAL SINGLE POINT ENERGY      -619.324367866315

DIPOLE MOMENT
-------------
                                X             Y             Z
Electronic contribution:     -3.41511      -2.04510      -1.04595
Nuclear contribution   :      0.64680       2.71735       1.02844
                        -----------------------------------------
Total Dipole Moment    :     -2.76831       0.67225      -0.01751
                        -----------------------------------------
Magnitude (a.u.)       :      2.84882
Magnitude (Debye)      :      7.24111

Rotational constants in cm-1:     0.055687     0.023350     0.016866
Rotational constants in MHz :  1669.460834   700.013417   505.638938

                             ****ORCA TERMINATED NORMALLY****
TOTAL RUN TIME: 0 days 1 hours 12 minutes 21 seconds 135 msec
