                         Program Version 4.2.1 -  RELEASE  -
|  1> %pal
|  2>  nprocs 32
|  3> end
|  4> !RI-MP2 aug-cc-pVQZ aug-cc-pVQZ/C TightSCF
|  5> %maxcore 4500
|  6> *xyzfile 0 2  04_64TS.xyz
|  7>
|  8>
|  9>                          ****END OF INPUT****

CARTESIAN COORDINATES (ANGSTROEM)
---------------------------------
  N     -0.567708    0.423515   -0.476262
  S     -0.357362   -1.199621   -0.692778
  O      0.105650   -1.785441    0.753468
  C      1.488244   -1.662821    1.143176
  C      1.798075   -0.289752    1.722751
  H      2.118603   -1.904571    0.287325
  H      1.614731   -2.432479    1.902344
  C      1.710881    0.861851    0.745054
  H      2.818090   -0.333529    2.126472
  H      1.133973   -0.114083    2.572148
  H      0.588273    0.770013    0.144312
  C      2.730513    0.921076   -0.368441
  H      1.595770    1.822492    1.251232
  C     -1.740021    0.969792    0.257336
  C     -2.069747    0.249676    1.565585
  C     -1.393873    2.433503    0.537169
  C     -2.937994    0.921560   -0.701985
  H     -3.784045    1.435386   -0.240136
  H     -3.225430   -0.104025   -0.922778
  H     -2.691505    1.424818   -1.637870
  H     -2.337670   -0.792284    1.394753
  H     -2.916393    0.746039    2.044109
  H     -1.225956    0.278938    2.256545
  H     -2.269839    2.944830    0.938993
  H     -0.590091    2.520977    1.269444
  H     -1.086863    2.937976   -0.380049
  O      0.766232   -1.356198   -1.586809
  O     -1.623258   -1.834031   -0.951621
  C      2.464806    2.057885   -1.348669
  H      2.748266   -0.026703   -0.909687
  H      3.721406    1.043837    0.090442
  H      3.236877    2.099927   -2.118384
  H      1.502952    1.915279   -1.844144
  H      2.446305    3.025224   -0.838950

 Total Charge           Charge          ....    0
 Multiplicity           Mult            ....    2
 Number of Electrons    NEL             ....  121
 Basis Dimension        Dim             .... 2044

ORBITAL ENERGIES
----------------
                 SPIN UP ORBITALS
  NO   OCC          E(Eh)            E(eV)
   0   1.0000     -92.221140     -2509.4648
   1   1.0000     -20.609217      -560.8053
   2   1.0000     -20.553198      -559.2810
   3   1.0000     -20.549318      -559.1754
   4   1.0000     -15.616486      -424.9462
   5   1.0000     -11.304371      -307.6076
   6   1.0000     -11.289114      -307.1924
   7   1.0000     -11.263792      -306.5034
   8   1.0000     -11.249213      -306.1066
   9   1.0000     -11.229380      -305.5670
  10   1.0000     -11.226804      -305.4969
  11   1.0000     -11.220054      -305.3132
  12   1.0000     -11.215432      -305.1874
  13   1.0000     -11.214554      -305.1635
  14   1.0000      -9.181401      -249.8386
  15   1.0000      -6.868228      -186.8940
  16   1.0000      -6.866714      -186.8528
  17   1.0000      -6.866325      -186.8422
  18   1.0000      -1.500339       -40.8263
  19   1.0000      -1.382359       -37.6159
  20   1.0000      -1.352268       -36.7971
  21   1.0000      -1.251574       -34.0571
  22   1.0000      -1.118595       -30.4385
  23   1.0000      -1.078456       -29.3463
  24   1.0000      -1.036315       -28.1996
  25   1.0000      -0.958247       -26.0752
  26   1.0000      -0.951705       -25.8972
  27   1.0000      -0.943293       -25.6683
  28   1.0000      -0.881754       -23.9937
  29   1.0000      -0.841530       -22.8992
  30   1.0000      -0.813922       -22.1479
  31   1.0000      -0.769639       -20.9429
  32   1.0000      -0.740797       -20.1581
  33   1.0000      -0.694321       -18.8934
  34   1.0000      -0.692116       -18.8334
  35   1.0000      -0.671430       -18.2705
  36   1.0000      -0.655182       -17.8284
  37   1.0000      -0.644426       -17.5357
  38   1.0000      -0.624657       -16.9978
  39   1.0000      -0.616044       -16.7634
  40   1.0000      -0.612700       -16.6724
  41   1.0000      -0.596928       -16.2432
  42   1.0000      -0.591032       -16.0828
  43   1.0000      -0.564467       -15.3599
  44   1.0000      -0.564157       -15.3515
  45   1.0000      -0.553884       -15.0719
  46   1.0000      -0.547912       -14.9094
  47   1.0000      -0.538168       -14.6443
  48   1.0000      -0.529940       -14.4204
  49   1.0000      -0.520160       -14.1543
  50   1.0000      -0.514249       -13.9934
  51   1.0000      -0.511323       -13.9138
  52   1.0000      -0.503616       -13.7041
  53   1.0000      -0.499660       -13.5964
  54   1.0000      -0.490066       -13.3354
  55   1.0000      -0.484082       -13.1725
  56   1.0000      -0.478081       -13.0093
  57   1.0000      -0.474727       -12.9180
  58   1.0000      -0.472330       -12.8528
  59   1.0000      -0.436814       -11.8863
  60   1.0000      -0.387647       -10.5484
  61   0.0000       0.015750         0.4286
  62   0.0000       0.023953         0.6518
  63   0.0000       0.026287         0.7153
  64   0.0000       0.031008         0.8438
  65   0.0000       0.036620         0.9965

                 SPIN DOWN ORBITALS
  NO   OCC          E(Eh)            E(eV)
   0   1.0000     -92.221540     -2509.4757
   1   1.0000     -20.609401      -560.8103
   2   1.0000     -20.551512      -559.2351
   3   1.0000     -20.549510      -559.1806
   4   1.0000     -15.591883      -424.2767
   5   1.0000     -11.304012      -307.5978
   6   1.0000     -11.290400      -307.2274
   7   1.0000     -11.250457      -306.1405
   8   1.0000     -11.248608      -306.0902
   9   1.0000     -11.230420      -305.5953
  10   1.0000     -11.226514      -305.4890
  11   1.0000     -11.219982      -305.3112
  12   1.0000     -11.215271      -305.1830
  13   1.0000     -11.213355      -305.1309
  14   1.0000      -9.181952      -249.8536
  15   1.0000      -6.868474      -186.9007
  16   1.0000      -6.867835      -186.8833
  17   1.0000      -6.866719      -186.8529
  18   1.0000      -1.497956       -40.7615
  19   1.0000      -1.381464       -37.5915
  20   1.0000      -1.350482       -36.7485
  21   1.0000      -1.201797       -32.7026
  22   1.0000      -1.100405       -29.9435
  23   1.0000      -1.064368       -28.9629
  24   1.0000      -1.033763       -28.1301
  25   1.0000      -0.951229       -25.8843
  26   1.0000      -0.946414       -25.7532
  27   1.0000      -0.935991       -25.4696
  28   1.0000      -0.873560       -23.7708
  29   1.0000      -0.835813       -22.7436
  30   1.0000      -0.794467       -21.6185
  31   1.0000      -0.763377       -20.7725
  32   1.0000      -0.720258       -19.5992
  33   1.0000      -0.690239       -18.7824
  34   1.0000      -0.675208       -18.3733
  35   1.0000      -0.650780       -17.7086
  36   1.0000      -0.643440       -17.5089
  37   1.0000      -0.639925       -17.4133
  38   1.0000      -0.620206       -16.8767
  39   1.0000      -0.612675       -16.6717
  40   1.0000      -0.607349       -16.5268
  41   1.0000      -0.587626       -15.9901
  42   1.0000      -0.585385       -15.9291
  43   1.0000      -0.561251       -15.2724
  44   1.0000      -0.552788       -15.0421
  45   1.0000      -0.549544       -14.9539
  46   1.0000      -0.543551       -14.7908
  47   1.0000      -0.529153       -14.3990
  48   1.0000      -0.519015       -14.1231
  49   1.0000      -0.514292       -13.9946
  50   1.0000      -0.505328       -13.7507
  51   1.0000      -0.502591       -13.6762
  52   1.0000      -0.497363       -13.5339
  53   1.0000      -0.493523       -13.4294
  54   1.0000      -0.485256       -13.2045
  55   1.0000      -0.480594       -13.0776
  56   1.0000      -0.474275       -12.9057
  57   1.0000      -0.471510       -12.8304
  58   1.0000      -0.455723       -12.4009
  59   1.0000      -0.409266       -11.1367
  60   0.0000       0.015719         0.4277
  61   0.0000       0.023495         0.6393
  62   0.0000       0.026273         0.7149
  63   0.0000       0.028895         0.7863
  64   0.0000       0.036595         0.9958

MULLIKEN ATOMIC CHARGES AND SPIN POPULATIONS
--------------------------------------------
   0 N :   -0.573377    0.789175
   1 S :    3.586203   -0.051484
   2 O :   -1.035843   -0.000618
   3 C :   -0.322648    0.009381
   4 C :   -0.840544   -0.068009
   5 H :    0.281529   -0.003120
   6 H :    0.385530   -0.002358
   7 C :    0.448528    0.607354
   8 H :    0.153395    0.045686
   9 H :    0.148426   -0.002495
  10 H :    0.701652   -0.324402
  11 C :   -0.647885   -0.052341
  12 H :    0.518972   -0.025303
  13 C :    1.559238   -0.057668
  14 C :   -1.185149    0.004062
  15 C :   -1.211437    0.010918
  16 C :   -1.181940    0.036459
  17 H :    0.263378    0.008018
  18 H :    0.227685   -0.000834
  19 H :    0.254437   -0.003331
  20 H :    0.175736   -0.001663
  21 H :    0.167182   -0.004051
  22 H :    0.272904   -0.000592
  23 H :    0.182552   -0.004248
  24 H :    0.306519    0.008119
  25 H :    0.223606   -0.001181
  26 O :   -1.516557   -0.004230
  27 O :   -1.574249    0.033689
  28 C :   -0.930688    0.006380
  29 H :    0.235345    0.002836
  30 H :    0.193868    0.046924
  31 H :    0.287242   -0.002545
  32 H :    0.270782    0.001864
  33 H :    0.175608   -0.000394
Sum of atomic charges         :    0.0000000

LOEWDIN ATOMIC CHARGES AND SPIN POPULATIONS
-------------------------------------------
   0 N :    0.600619    0.380853
   1 S :   -0.622477    0.044422
   2 O :    0.673478   -0.004799
   3 C :    0.159558    0.000448
   4 C :    0.547169    0.043031
   5 H :   -0.356324    0.000434
   6 H :   -0.302263    0.000319
   7 C :    0.448181    0.210403
   8 H :   -0.261728    0.012527
   9 H :   -0.281430    0.001582
  10 H :   -0.761940    0.106143
  11 C :    0.523760    0.046759
  12 H :   -0.243287    0.055446
  13 C :   -0.498582    0.047433
  14 C :    0.900661   -0.003079
  15 C :    0.893553   -0.003064
  16 C :    0.892015    0.016214
  17 H :   -0.272202    0.005637
  18 H :   -0.340073    0.002915
  19 H :   -0.269011    0.003326
  20 H :   -0.305821   -0.000413
  21 H :   -0.266018   -0.000759
  22 H :   -0.289607   -0.000641
  23 H :   -0.266823   -0.000267
  24 H :   -0.294374   -0.001390
  25 H :   -0.263071   -0.000868
  26 O :    0.375534   -0.005261
  27 O :    0.359489    0.026620
  28 C :    0.940348    0.000359
  29 H :   -0.326484    0.002387
  30 H :   -0.256152    0.014892
  31 H :   -0.272366   -0.000037
  32 H :   -0.289014   -0.001368
  33 H :   -0.275317   -0.000202

  Mayer bond orders larger than 0.100000
B(  0-N ,  1-S ) :   1.0868 B(  0-N ,  7-C ) :   0.1313 B(  0-N , 10-H ) :  -0.3838
B(  0-N , 13-C ) :   0.4945 B(  0-N , 16-C ) :   0.1085 B(  1-S ,  2-O ) :   0.3755
B(  1-S , 26-O ) :   0.7602 B(  1-S , 27-O ) :   0.4025 B(  2-O ,  3-C ) :   0.7449
B(  2-O , 10-H ) :  -0.2002 B(  3-C ,  4-C ) :   0.9445 B(  3-C ,  5-H ) :   1.0184
B(  3-C ,  6-H ) :   0.8602 B(  4-C ,  7-C ) :   0.5007 B(  4-C ,  8-H ) :   1.1317
B(  4-C ,  9-H ) :   1.1540 B(  4-C , 10-H ) :  -0.1630 B(  4-C , 12-H ) :  -0.1316
B(  7-C ,  9-H ) :  -0.1220 B(  7-C , 10-H ) :   0.3742 B(  7-C , 11-C ) :   0.6120
B(  7-C , 12-H ) :   0.7830 B(  7-C , 28-C ) :  -0.2238 B( 10-H , 13-C ) :   0.1023
B( 11-C , 28-C ) :   1.1114 B( 11-C , 29-H ) :   0.9423 B( 11-C , 30-H ) :   0.9841
B( 13-C , 14-C ) :   0.2710 B( 13-C , 15-C ) :   0.1739 B( 13-C , 17-H ) :  -0.1346
B( 13-C , 18-H ) :  -0.1941 B( 13-C , 19-H ) :  -0.1790 B( 13-C , 20-H ) :  -0.1717
B( 13-C , 21-H ) :  -0.1203 B( 13-C , 22-H ) :  -0.1603 B( 13-C , 23-H ) :  -0.1210
B( 13-C , 24-H ) :  -0.1575 B( 13-C , 25-H ) :  -0.2095 B( 13-C , 27-O ) :   0.1053
B( 14-C , 15-C ) :   0.1310 B( 14-C , 16-C ) :   0.1347 B( 14-C , 20-H ) :   1.1404
B( 14-C , 21-H ) :   1.1348 B( 14-C , 22-H ) :   1.0171 B( 15-C , 16-C ) :   0.1427
B( 15-C , 23-H ) :   1.1503 B( 15-C , 24-H ) :   1.0065 B( 15-C , 25-H ) :   1.1397
B( 16-C , 17-H ) :   1.0458 B( 16-C , 18-H ) :   1.0585 B( 16-C , 19-H ) :   1.1019
B( 26-O , 27-O ) :   0.1359 B( 28-C , 31-H ) :   0.9971 B( 28-C , 32-H ) :   0.9088
B( 28-C , 33-H ) :   1.0289

MP2 TOTAL ENERGY:    -1032.087336287 Eh
FINAL SINGLE POINT ENERGY     -1032.087336287015

DIPOLE MOMENT
-------------
                                X             Y             Z
Electronic contribution:     -2.67090     -16.27049      -5.88276
Nuclear contribution   :      3.46846      17.60048       7.53993
                        -----------------------------------------
Total Dipole Moment    :      0.79755       1.32999       1.65717
                        -----------------------------------------
Magnitude (a.u.)       :      2.26962
Magnitude (Debye)      :      5.76892

Rotational constants in cm-1:     0.024528     0.018749     0.015413
Rotational constants in MHz :   735.335502   562.066779   462.059597

                             ****ORCA TERMINATED NORMALLY****
TOTAL RUN TIME: 0 days 8 hours 32 minutes 42 seconds 548 msec
