                         Program Version 4.2.1 -  RELEASE  -
|  1> %pal
|  2>  nprocs 32
|  3> end
|  4> !RI-MP2 aug-cc-pVQZ aug-cc-pVQZ/C TightSCF
|  5> %maxcore 4500
|  6> *xyzfile -1 1  09_8P.xyz
|  7>
|  8>
|  9>                          ****END OF INPUT****

CARTESIAN COORDINATES (ANGSTROEM)
---------------------------------
  C      3.147244    1.037445   -0.583902
  C      2.564107   -0.260624   -0.054686
  C      1.100476   -0.463575   -0.236856
  O      3.284961   -1.041250    0.541967
  C      0.260717    0.547853    0.620236
  C     -1.238943    0.500465    0.519132
  C     -1.782421   -0.374468   -0.306784
  O     -3.170369   -0.539169   -0.531959
  C     -3.995256    0.320806    0.204789
  H      2.970986    1.823304    0.155855
  H      4.221965    0.926581   -0.726537
  H      2.664411    1.352159   -1.510716
  H     -1.297562   -1.117115   -0.951853
  H     -5.025704    0.072586   -0.069901
  H     -3.845099    0.195834    1.283327
  H     -3.782244    1.372687   -0.018996
  H      0.845091   -1.485777    0.044082
  H      0.834871   -0.309733   -1.288199
  H      0.563921    0.404375    1.665949
  H      0.597088    1.561039    0.365349

 Total Charge           Charge          ....   -1
 Multiplicity           Mult            ....    1
 Number of Electrons    NEL             ....   70
 Basis Dimension        Dim             .... 1226

ORBITAL ENERGIES
----------------

  NO   OCC          E(Eh)            E(eV)
   0   2.0000     -20.415731      -555.5403
   1   2.0000     -20.381673      -554.6135
   2   2.0000     -11.201723      -304.8144
   3   2.0000     -11.119254      -302.5703
   4   2.0000     -11.103467      -302.1407
   5   2.0000     -11.081608      -301.5459
   6   2.0000     -11.068568      -301.1911
   7   2.0000     -11.060527      -300.9722
   8   2.0000     -10.972216      -298.5692
   9   2.0000      -1.257332       -34.2137
  10   2.0000      -1.196516       -32.5589
  11   2.0000      -0.932210       -25.3667
  12   2.0000      -0.872934       -23.7537
  13   2.0000      -0.808852       -22.0100
  14   2.0000      -0.763457       -20.7747
  15   2.0000      -0.696583       -18.9550
  16   2.0000      -0.608110       -16.5475
  17   2.0000      -0.542126       -14.7520
  18   2.0000      -0.520275       -14.1574
  19   2.0000      -0.516921       -14.0661
  20   2.0000      -0.485278       -13.2051
  21   2.0000      -0.480829       -13.0840
  22   2.0000      -0.461718       -12.5640
  23   2.0000      -0.450583       -12.2610
  24   2.0000      -0.425910       -11.5896
  25   2.0000      -0.407638       -11.0924
  26   2.0000      -0.379505       -10.3268
  27   2.0000      -0.365227        -9.9383
  28   2.0000      -0.349202        -9.5023
  29   2.0000      -0.341951        -9.3050
  30   2.0000      -0.305940        -8.3251
  31   2.0000      -0.300029        -8.1642
  32   2.0000      -0.281719        -7.6660
  33   2.0000      -0.122741        -3.3400
  34   2.0000      -0.101090        -2.7508
  35   0.0000       0.095126         2.5885
  36   0.0000       0.107756         2.9322
  37   0.0000       0.114014         3.1025
  38   0.0000       0.115370         3.1394
  39   0.0000       0.123167         3.3515

MULLIKEN ATOMIC CHARGES
-----------------------
   0 C :   -0.908786
   1 C :    0.955113
   2 C :   -0.527418
   3 O :   -0.909985
   4 C :   -0.071313
   5 C :   -0.995290
   6 C :   -0.085436
   7 O :   -0.906754
   8 C :   -0.731647
   9 H :    0.245608
  10 H :    0.334244
  11 H :    0.208973
  12 H :    0.435782
  13 H :    0.503368
  14 H :    0.255288
  15 H :    0.260669
  16 H :    0.261394
  17 H :    0.212945
  18 H :    0.258237
  19 H :    0.205007
Sum of atomic charges:   -1.0000000

LOEWDIN ATOMIC CHARGES
----------------------
   0 C :    0.872809
   1 C :   -0.667636
   2 C :    0.398483
   3 O :    0.708363
   4 C :    0.313369
   5 C :    0.156874
   6 C :   -0.186588
   7 O :    0.764270
   8 C :    0.414410
   9 H :   -0.300883
  10 H :   -0.321057
  11 H :   -0.298769
  12 H :   -0.447877
  13 H :   -0.356120
  14 H :   -0.358195
  15 H :   -0.357396
  16 H :   -0.321390
  17 H :   -0.316138
  18 H :   -0.333177
  19 H :   -0.363351

  Mayer bond orders larger than 0.100000
B(  0-C ,  1-C ) :   0.8988 B(  0-C ,  3-O ) :   0.1008 B(  0-C ,  9-H ) :   0.9176
B(  0-C , 10-H ) :   0.9315 B(  0-C , 11-H ) :   1.0114 B(  1-C ,  2-C ) :   0.9877
B(  1-C ,  3-O ) :   0.8210 B(  2-C ,  3-O ) :   0.3277 B(  2-C ,  4-C ) :   0.8031
B(  2-C , 16-H ) :   0.8968 B(  2-C , 17-H ) :   0.9234 B(  4-C ,  5-C ) :   0.4944
B(  4-C , 18-H ) :   0.9027 B(  4-C , 19-H ) :   0.9338 B(  5-C ,  6-C ) :   1.9709
B(  5-C ,  7-O ) :   0.1859 B(  6-C ,  7-O ) :   0.4279 B(  6-C , 12-H ) :   0.7761
B(  7-O ,  8-C ) :   0.9537 B(  8-C , 13-H ) :   0.7381 B(  8-C , 14-H ) :   0.9238
B(  8-C , 15-H ) :   0.9245

MP2 TOTAL ENERGY:     -423.063469444 Eh
FINAL SINGLE POINT ENERGY      -423.063469443908

DIPOLE MOMENT
-------------
                                X             Y             Z
Electronic contribution:      2.97919      -4.45877       0.07720
Nuclear contribution   :     -1.27431       4.86197      -1.07153
                        -----------------------------------------
Total Dipole Moment    :      1.70488       0.40321      -0.99433
                        -----------------------------------------
Magnitude (a.u.)       :      2.01442
Magnitude (Debye)      :      5.12024

Rotational constants in cm-1:     0.176964     0.018298     0.017751
Rotational constants in MHz :  5305.258670   548.558283   532.170393

                             ****ORCA TERMINATED NORMALLY****
TOTAL RUN TIME: 0 days 0 hours 39 minutes 9 seconds 956 msec
