                         Program Version 4.2.1 -  RELEASE  -
|  1> %pal
|  2>  nprocs 32
|  3> end
|  4> !RI-MP2 aug-cc-pVQZ aug-cc-pVQZ/C TightSCF
|  5> %maxcore 4500
|  6> *xyzfile 0 1  04_74R1.xyz
|  7>
|  8>
|  9>                          ****END OF INPUT****

CARTESIAN COORDINATES (ANGSTROEM)
---------------------------------
  C     -3.031331   -1.407851    0.080786
  H     -2.815834   -1.762521    1.100105
  H     -2.666039   -2.156851   -0.624129
  N     -2.453489   -0.111626   -0.199454
  C     -1.065520    0.017460   -0.109704
  C     -0.449701    1.280585   -0.073333
  C     -0.224414   -1.096909   -0.068755
  C      0.923549    1.409673   -0.026705
  H     -1.046141    2.181009   -0.084723
  C      1.160730   -0.966642   -0.022829
  H     -0.636102   -2.095345   -0.075157
  C      1.746499    0.288973   -0.004403
  H      1.382976    2.389941   -0.001804
  H      1.762214   -1.864608    0.004188
  H     -4.111583   -1.348806   -0.041755
  C     -3.266923    1.036042    0.142729
  O      3.091578    0.524232    0.042974
  C      3.953655   -0.590119    0.064414
  H      4.965485   -0.191440    0.095723
  H      3.836321   -1.205088   -0.834196
  H      3.784112   -1.211598    0.950153
  H     -4.316881    0.772784    0.025574
  H     -3.067444    1.871641   -0.530131
  H     -3.108546    1.381146    1.175340

 Total Charge           Charge          ....    0
 Multiplicity           Mult            ....    1
 Number of Electrons    NEL             ....   82
 Basis Dimension        Dim             .... 1478

ORBITAL ENERGIES
----------------

  NO   OCC          E(Eh)            E(eV)
   0   2.0000     -20.570250      -559.7450
   1   2.0000     -15.559540      -423.3966
   2   2.0000     -11.278186      -306.8951
   3   2.0000     -11.275603      -306.8248
   4   2.0000     -11.263713      -306.5012
   5   2.0000     -11.250778      -306.1492
   6   2.0000     -11.250648      -306.1457
   7   2.0000     -11.224573      -305.4361
   8   2.0000     -11.222489      -305.3795
   9   2.0000     -11.220945      -305.3374
  10   2.0000     -11.220810      -305.3338
  11   2.0000      -1.399252       -38.0756
  12   2.0000      -1.251604       -34.0579
  13   2.0000      -1.132781       -30.8245
  14   2.0000      -1.017699       -27.6930
  15   2.0000      -1.008959       -27.4552
  16   2.0000      -0.965469       -26.2718
  17   2.0000      -0.939556       -25.5666
  18   2.0000      -0.874611       -23.7994
  19   2.0000      -0.826272       -22.4840
  20   2.0000      -0.778643       -21.1879
  21   2.0000      -0.718588       -19.5538
  22   2.0000      -0.676115       -18.3980
  23   2.0000      -0.670347       -18.2411
  24   2.0000      -0.648290       -17.6409
  25   2.0000      -0.636128       -17.3099
  26   2.0000      -0.623354       -16.9623
  27   2.0000      -0.607041       -16.5184
  28   2.0000      -0.586314       -15.9544
  29   2.0000      -0.567626       -15.4459
  30   2.0000      -0.560037       -15.2394
  31   2.0000      -0.551161       -14.9978
  32   2.0000      -0.529694       -14.4137
  33   2.0000      -0.527515       -14.3544
  34   2.0000      -0.518840       -14.1184
  35   2.0000      -0.504849       -13.7376
  36   2.0000      -0.470959       -12.8154
  37   2.0000      -0.469178       -12.7670
  38   2.0000      -0.391529       -10.6540
  39   2.0000      -0.336722        -9.1627
  40   2.0000      -0.268104        -7.2955
  41   0.0000       0.024132         0.6567
  42   0.0000       0.026728         0.7273
  43   0.0000       0.029818         0.8114
  44   0.0000       0.036918         1.0046
  45   0.0000       0.038688         1.0528

MULLIKEN ATOMIC CHARGES
-----------------------
   0 C :   -0.914059
   1 H :    0.307232
   2 H :    0.245878
   3 N :   -0.287537
   4 C :    0.799811
   5 C :   -0.315491
   6 C :   -0.328793
   7 C :   -0.540306
   8 H :    0.191114
   9 C :   -0.586759
  10 H :    0.132352
  11 C :    1.209337
  12 H :    0.163698
  13 H :    0.150173
  14 H :    0.352968
  15 C :   -0.916449
  16 O :   -0.870555
  17 C :   -0.689617
  18 H :    0.493471
  19 H :    0.255187
  20 H :    0.240821
  21 H :    0.350412
  22 H :    0.252496
  23 H :    0.304616
Sum of atomic charges:    0.0000000

LOEWDIN ATOMIC CHARGES
----------------------
   0 C :    0.746325
   1 H :   -0.255149
   2 H :   -0.301815
   3 N :    0.464838
   4 C :   -0.229636
   5 C :    0.343038
   6 C :    0.348292
   7 C :    0.330208
   8 H :   -0.359012
   9 C :    0.333741
  10 H :   -0.359663
  11 C :   -0.458246
  12 H :   -0.320628
  13 H :   -0.353859
  14 H :   -0.306131
  15 C :    0.749604
  16 O :    0.869381
  17 C :    0.557270
  18 H :   -0.319693
  19 H :   -0.307354
  20 H :   -0.307469
  21 H :   -0.306935
  22 H :   -0.302890
  23 H :   -0.254215

  Mayer bond orders larger than 0.100000
B(  0-C ,  1-H ) :   0.9209 B(  0-C ,  2-H ) :   1.0040 B(  0-C ,  3-N ) :   0.9104
B(  0-C ,  4-C ) :  -0.1086 B(  0-C , 14-H ) :   0.8838 B(  3-N ,  4-C ) :   0.6870
B(  3-N ,  5-C ) :  -0.1226 B(  3-N ,  6-C ) :  -0.1014 B(  3-N , 15-C ) :   0.9100
B(  4-C ,  5-C ) :   1.2193 B(  4-C ,  6-C ) :   1.2787 B(  4-C ,  7-C ) :  -0.2531
B(  4-C ,  8-H ) :  -0.1048 B(  4-C ,  9-C ) :  -0.4577 B(  4-C , 15-C ) :  -0.1010
B(  5-C ,  6-C ) :  -0.1126 B(  5-C ,  7-C ) :   1.1305 B(  5-C ,  8-H ) :   1.0852
B(  5-C , 11-C ) :  -0.3743 B(  5-C , 12-H ) :  -0.1352 B(  6-C ,  7-C ) :   0.1752
B(  6-C ,  9-C ) :   0.7535 B(  6-C , 10-H ) :   1.1115 B(  6-C , 11-C ) :  -0.2757
B(  6-C , 13-H ) :  -0.2351 B(  7-C ,  8-H ) :  -0.1448 B(  7-C , 11-C ) :   1.2171
B(  7-C , 12-H ) :   1.1100 B(  7-C , 16-O ) :   0.2951 B(  9-C , 10-H ) :  -0.1604
B(  9-C , 11-C ) :   1.4826 B(  9-C , 13-H ) :   1.2102 B(  9-C , 16-O ) :   0.2460
B(  9-C , 17-C ) :   0.1851 B( 11-C , 12-H ) :  -0.1242 B( 11-C , 13-H ) :  -0.1202
B( 11-C , 16-O ) :  -0.1657 B( 11-C , 17-C ) :  -0.2107 B( 15-C , 21-H ) :   0.8846
B( 15-C , 22-H ) :   1.0016 B( 15-C , 23-H ) :   0.9273 B( 16-O , 17-C ) :   0.9452
B( 17-C , 18-H ) :   0.7612 B( 17-C , 19-H ) :   0.9197 B( 17-C , 20-H ) :   0.9272

MP2 TOTAL ENERGY:     -479.917105726 Eh
FINAL SINGLE POINT ENERGY      -479.917105726268

DIPOLE MOMENT
-------------
                                X             Y             Z
Electronic contribution:      5.71369       2.79508      -1.03003
Nuclear contribution   :     -6.11401      -3.29183       1.18010
                        -----------------------------------------
Total Dipole Moment    :     -0.40032      -0.49675       0.15007
                        -----------------------------------------
Magnitude (a.u.)       :      0.65539
Magnitude (Debye)      :      1.66587

Rotational constants in cm-1:     0.106113     0.019152     0.016418
Rotational constants in MHz :  3181.187256   574.175590   492.213351

                             ****ORCA TERMINATED NORMALLY****
TOTAL RUN TIME: 0 days 1 hours 26 minutes 21 seconds 464 msec
