                         Program Version 4.2.1 -  RELEASE  -
|  1> %pal
|  2>  nprocs 32
|  3> end
|  4> !RI-MP2 aug-cc-pVQZ aug-cc-pVQZ/C TightSCF
|  5> %maxcore 4500
|  6> *xyzfile 0 1  06_17TS.xyz
|  7>
|  8>
|  9>                          ****END OF INPUT****

CARTESIAN COORDINATES (ANGSTROEM)
---------------------------------
  C      2.483629   -2.560277   -0.263057
  H      2.418322   -3.648849   -0.278944
  H      0.717603   -2.651309   -1.516471
  C      1.240341   -1.608491    1.399210
  O      0.904321   -1.279538    2.497395
  C     -1.617601   -0.665576    1.181382
  O     -2.746149   -0.119146    0.677954
  O     -1.230773   -0.756397   -1.032679
  H     -4.616560   -1.729871   -0.795302
  H     -3.182122   -2.648512   -0.340941
  H     -4.189893    1.094522   -1.537550
  H     -2.510282    1.521050   -1.895838
  C     -1.855710    1.885145    2.129035
  H     -0.152038    1.641119    0.878370
  H     -2.232340    1.850268    3.145686
  H     -2.410941    2.096126    0.072906
  H      0.771985   -0.643784   -2.603518
  C      1.827959    0.609263   -1.260123
  C      1.204020    2.940198   -1.069737
  C      3.023742    2.085795    0.236279
  H      3.493030    0.022076   -0.023293
  H      2.356936    4.126619    0.300232
  H      0.209000    1.516043   -2.327246
  H      3.434082   -2.249482   -0.692080
  C      1.273018   -1.903841   -0.949418
  N      0.500314   -1.528836    0.232323
  O      2.447680   -2.134244    1.103289
  C     -0.762329   -0.985102    0.160462
  H     -1.520897   -0.906205    2.222334
  B     -2.753859   -0.496558   -0.876411
  C     -3.554369   -1.872011   -1.016508
  H     -3.486007   -2.257143   -2.038854
  C     -3.217673    0.688981   -1.834065
  H     -3.340050    0.305097   -2.851300
  C     -2.759321    1.854983    1.064562
  C     -0.555419    1.575326    1.879648
  H      0.150226    1.366752    2.672992
  H     -3.823394    1.952374    1.230333
  C      1.598272   -0.737864   -1.901929
  H      2.477747   -1.032412   -2.484216
  C      1.011498    1.679557   -1.617827
  C      2.209862    3.146586   -0.136734
  C      2.838829    0.830768   -0.326221
  H      3.809847    2.234561    0.966585
  H      0.559718    3.759574   -1.365532

 Total Charge           Charge          ....    0
 Multiplicity           Mult            ....    1
 Number of Electrons    NEL             ....  168
 Basis Dimension        Dim             .... 2852

ORBITAL ENERGIES
----------------

  NO   OCC          E(Eh)            E(eV)
   0   2.0000     -20.615441      -560.9747
   1   2.0000     -20.567514      -559.6705
   2   2.0000     -20.548140      -559.1433
   3   2.0000     -20.541221      -558.9550
   4   2.0000     -15.619142      -425.0184
   5   2.0000     -11.415715      -310.6374
   6   2.0000     -11.341464      -308.6169
   7   2.0000     -11.316223      -307.9301
   8   2.0000     -11.304996      -307.6246
   9   2.0000     -11.303514      -307.5842
  10   2.0000     -11.273319      -306.7626
  11   2.0000     -11.252245      -306.1891
  12   2.0000     -11.249456      -306.1132
  13   2.0000     -11.245932      -306.0174
  14   2.0000     -11.243986      -305.9644
  15   2.0000     -11.242990      -305.9373
  16   2.0000     -11.241776      -305.9043
  17   2.0000     -11.240926      -305.8811
  18   2.0000     -11.238995      -305.8286
  19   2.0000     -11.230299      -305.5920
  20   2.0000     -11.163263      -303.7678
  21   2.0000     -11.146941      -303.3237
  22   2.0000      -7.582515      -206.3307
  23   2.0000      -1.491732       -40.5921
  24   2.0000      -1.424257       -38.7560
  25   2.0000      -1.384613       -37.6772
  26   2.0000      -1.347689       -36.6725
  27   2.0000      -1.273899       -34.6646
  28   2.0000      -1.171163       -31.8690
  29   2.0000      -1.103013       -30.0145
  30   2.0000      -1.093686       -29.7607
  31   2.0000      -1.037738       -28.2383
  32   2.0000      -1.027238       -27.9526
  33   2.0000      -0.992477       -27.0067
  34   2.0000      -0.957878       -26.0652
  35   2.0000      -0.941663       -25.6240
  36   2.0000      -0.926590       -25.2138
  37   2.0000      -0.887437       -24.1484
  38   2.0000      -0.881358       -23.9830
  39   2.0000      -0.868108       -23.6224
  40   2.0000      -0.840268       -22.8648
  41   2.0000      -0.809905       -22.0386
  42   2.0000      -0.789509       -21.4836
  43   2.0000      -0.763706       -20.7815
  44   2.0000      -0.740964       -20.1627
  45   2.0000      -0.731004       -19.8916
  46   2.0000      -0.714122       -19.4322
  47   2.0000      -0.703635       -19.1469
  48   2.0000      -0.690310       -18.7843
  49   2.0000      -0.672642       -18.3035
  50   2.0000      -0.658930       -17.9304
  51   2.0000      -0.653138       -17.7728
  52   2.0000      -0.643678       -17.5154
  53   2.0000      -0.636938       -17.3320
  54   2.0000      -0.632671       -17.2159
  55   2.0000      -0.623401       -16.9636
  56   2.0000      -0.607869       -16.5410
  57   2.0000      -0.602158       -16.3856
  58   2.0000      -0.596457       -16.2304
  59   2.0000      -0.592082       -16.1114
  60   2.0000      -0.579627       -15.7724
  61   2.0000      -0.574731       -15.6392
  62   2.0000      -0.569528       -15.4976
  63   2.0000      -0.560416       -15.2497
  64   2.0000      -0.545310       -14.8386
  65   2.0000      -0.536825       -14.6078
  66   2.0000      -0.530440       -14.4340
  67   2.0000      -0.520282       -14.1576
  68   2.0000      -0.514749       -14.0070
  69   2.0000      -0.507190       -13.8013
  70   2.0000      -0.500758       -13.6263
  71   2.0000      -0.496143       -13.5007
  72   2.0000      -0.493554       -13.4303
  73   2.0000      -0.491163       -13.3652
  74   2.0000      -0.487592       -13.2680
  75   2.0000      -0.471003       -12.8166
  76   2.0000      -0.466297       -12.6886
  77   2.0000      -0.458580       -12.4786
  78   2.0000      -0.443164       -12.0591
  79   2.0000      -0.406609       -11.0644
  80   2.0000      -0.370655       -10.0860
  81   2.0000      -0.349887        -9.5209
  82   2.0000      -0.342767        -9.3272
  83   2.0000      -0.272236        -7.4079
  84   0.0000       0.017868         0.4862
  85   0.0000       0.021605         0.5879
  86   0.0000       0.025752         0.7008
  87   0.0000       0.028830         0.7845
  88   0.0000       0.033144         0.9019

MULLIKEN ATOMIC CHARGES
-----------------------
   0 C :   -0.327355
   1 H :    0.325104
   2 H :    0.449417
   3 C :    1.665298
   4 O :   -1.084839
   5 C :    0.545773
   6 O :   -1.489822
   7 O :   -1.341996
   8 H :    0.345987
   9 H :    0.223030
  10 H :    0.354074
  11 H :    0.270427
  12 C :   -0.207329
  13 H :    0.724005
  14 H :    0.271042
  15 H :    0.284292
  16 H :    0.270059
  17 C :    1.436285
  18 C :   -0.463321
  19 C :   -0.512478
  20 H :    0.294258
  21 H :    0.276853
  22 H :    0.314126
  23 H :    0.337980
  24 C :   -0.367980
  25 N :   -0.831067
  26 O :   -1.136150
  27 C :    1.470579
  28 H :    0.440362
  29 B :    1.318880
  30 C :   -1.097622
  31 H :    0.288991
  32 C :   -1.197060
  33 H :    0.265403
  34 C :   -0.525746
  35 C :   -0.917766
  36 H :    0.322024
  37 H :    0.360513
  38 C :   -0.482347
  39 H :    0.267174
  40 C :   -0.558446
  41 C :   -0.436286
  42 C :   -0.476378
  43 H :    0.174102
  44 H :    0.157953
Sum of atomic charges:    0.0000000

LOEWDIN ATOMIC CHARGES
----------------------
   0 C :    0.231056
   1 H :   -0.268587
   2 H :   -0.261578
   3 C :   -1.238782
   4 O :    0.716271
   5 C :   -0.083290
   6 O :    0.937991
   7 O :    0.993708
   8 H :   -0.293416
   9 H :   -0.303376
  10 H :   -0.285379
  11 H :   -0.317873
  12 C :    0.360126
  13 H :   -0.365957
  14 H :   -0.316192
  15 H :   -0.367414
  16 H :   -0.323433
  17 C :   -0.054846
  18 C :    0.342707
  19 C :    0.358815
  20 H :   -0.335451
  21 H :   -0.314565
  22 H :   -0.312593
  23 H :   -0.298291
  24 C :    0.002418
  25 N :    0.410668
  26 O :    0.886062
  27 C :   -0.684208
  28 H :   -0.350584
  29 B :   -1.499613
  30 C :    1.021769
  31 H :   -0.297767
  32 C :    1.025754
  33 H :   -0.290734
  34 C :    0.656679
  35 C :    0.762413
  36 H :   -0.283492
  37 H :   -0.256520
  38 C :    0.540708
  39 H :   -0.261880
  40 C :    0.346818
  41 C :    0.339368
  42 C :    0.350703
  43 H :   -0.310391
  44 H :   -0.307820

  Mayer bond orders larger than 0.100000
B(  0-C ,  1-H ) :   0.9842 B(  0-C , 23-H ) :   0.9999 B(  0-C , 24-C ) :   0.8406
B(  0-C , 25-N ) :  -0.1422 B(  0-C , 26-O ) :   0.5413 B(  2-H , 24-C ) :   0.7722
B(  3-C ,  4-O ) :   0.7902 B(  3-C , 25-N ) :   1.2358 B(  3-C , 26-O ) :   0.7693
B(  4-O ,  5-C ) :  -0.1822 B(  4-O , 25-N ) :   0.2829 B(  4-O , 27-C ) :   0.3900
B(  5-C ,  6-O ) :   0.7702 B(  5-C ,  7-O ) :   0.1336 B(  5-C , 12-C ) :  -0.1336
B(  5-C , 27-C ) :   1.0629 B(  5-C , 28-H ) :   0.9539 B(  6-O , 12-C ) :  -0.1145
B(  6-O , 27-C ) :  -0.1866 B(  6-O , 29-B ) :   0.2455 B(  6-O , 34-C ) :   0.3967
B(  6-O , 35-C ) :   0.1093 B(  7-O , 25-N ) :   0.1305 B(  7-O , 29-B ) :   0.4516
B(  8-H , 30-C ) :   0.9395 B(  9-H , 30-C ) :   0.9739 B( 10-H , 32-C ) :   0.9323
B( 11-H , 32-C ) :   0.9532 B( 12-C , 13-H ) :  -0.2327 B( 12-C , 14-H ) :   1.0624
B( 12-C , 34-C ) :   1.2065 B( 12-C , 35-C ) :   1.4607 B( 12-C , 37-H ) :  -0.1075
B( 13-H , 35-C ) :   0.4749 B( 15-H , 34-C ) :   0.9851 B( 16-H , 17-C ) :  -0.1732
B( 16-H , 38-C ) :   1.0798 B( 17-C , 18-C ) :  -0.5226 B( 17-C , 19-C ) :  -0.2574
B( 17-C , 20-H ) :  -0.1280 B( 17-C , 22-H ) :  -0.1217 B( 17-C , 24-C ) :  -0.1951
B( 17-C , 27-C ) :   0.1820 B( 17-C , 38-C ) :   0.2505 B( 17-C , 39-H ) :  -0.2048
B( 17-C , 40-C ) :   0.5576 B( 17-C , 42-C ) :   0.8868 B( 18-C , 19-C ) :   0.1413
B( 18-C , 21-H ) :  -0.1163 B( 18-C , 22-H ) :  -0.1216 B( 18-C , 40-C ) :   1.4721
B( 18-C , 41-C ) :   1.3010 B( 18-C , 42-C ) :   0.1336 B( 18-C , 44-H ) :   1.2158
B( 19-C , 21-H ) :  -0.1138 B( 19-C , 40-C ) :   0.1139 B( 19-C , 41-C ) :   1.3008
B( 19-C , 42-C ) :   1.1389 B( 19-C , 43-H ) :   1.2187 B( 20-H , 42-C ) :   1.1171
B( 21-H , 41-C ) :   1.1206 B( 22-H , 40-C ) :   0.9449 B( 24-C , 25-N ) :   0.8223
B( 24-C , 38-C ) :   1.0813 B( 25-N , 26-O ) :  -0.1287 B( 25-N , 27-C ) :   0.6938
B( 26-O , 27-C ) :  -0.1534 B( 27-C , 30-C ) :   0.1234 B( 29-B , 30-C ) :   0.5534
B( 29-B , 32-C ) :   0.7548 B( 29-B , 33-H ) :  -0.1203 B( 29-B , 34-C ) :  -0.1128
B( 30-C , 31-H ) :   0.9740 B( 32-C , 33-H ) :   1.0046 B( 34-C , 35-C ) :   0.1004
B( 34-C , 37-H ) :   0.9259 B( 35-C , 36-H ) :   0.9687 B( 38-C , 39-H ) :   1.0559
B( 38-C , 40-C ) :  -0.3452 B( 38-C , 42-C ) :  -0.2889 B( 41-C , 42-C ) :  -0.1323
B( 42-C , 43-H ) :  -0.1671

MP2 TOTAL ENERGY:    -1039.878025698 Eh
FINAL SINGLE POINT ENERGY     -1039.878025698358

DIPOLE MOMENT
-------------
                                X             Y             Z
Electronic contribution:      9.99478      -5.35650       7.99000
Nuclear contribution   :     -8.86343       6.04867      -8.51208
                        -----------------------------------------
Total Dipole Moment    :      1.13134       0.69218      -0.52208
                        -----------------------------------------
Magnitude (a.u.)       :      1.42534
Magnitude (Debye)      :      3.62294

Rotational constants in cm-1:     0.011614     0.008522     0.007205
Rotational constants in MHz :   348.177307   255.487368   215.997046

                             ****ORCA TERMINATED NORMALLY****
TOTAL RUN TIME: 0 days 16 hours 1 minutes 13 seconds 750 msec
