                         Program Version 4.2.1 -  RELEASE  -
|  1> %pal
|  2>  nprocs 32
|  3> end
|  4> !RI-MP2 aug-cc-pVQZ aug-cc-pVQZ/C TightSCF
|  5> %maxcore 4500
|  6> *xyzfile 0 2  01_24R.xyz
|  7>
|  8>
|  9>                          ****END OF INPUT****

CARTESIAN COORDINATES (ANGSTROEM)
---------------------------------
  C     -1.682900   -0.530317    1.360102
  C     -1.354901   -0.010926   -0.003259
  C      0.075424   -0.425924   -0.405138
  C      1.194015    0.141000    0.472059
  H      0.251639   -0.128686   -1.444267
  H      0.129873   -1.520564   -0.387039
  C      2.529161   -0.441037    0.125056
  H     -1.393754   -1.535613    1.645524
  H     -2.351737    0.010582    2.018466
  H      0.964413   -0.077749    1.521311
  H      1.239252    1.228607    0.377788
  C     -2.329410   -0.638959   -1.022559
  H     -2.115919   -0.270676   -2.030449
  H     -3.363897   -0.387556   -0.779504
  H     -2.238293   -1.727416   -1.031774
  C     -1.518938    1.513094   -0.044266
  H     -1.250949    1.905831   -1.028699
  H     -0.893850    2.006849    0.701306
  H     -2.556613    1.790838    0.156402
  C      3.574135    0.248689   -0.309628
  H      2.619862   -1.520424    0.235081
  H      3.526637    1.325548   -0.437180
  H      4.513816   -0.233286   -0.551172

 Total Charge           Charge          ....    0
 Multiplicity           Mult            ....    2
 Number of Electrons    NEL             ....   63
 Basis Dimension        Dim             .... 1330

ORBITAL ENERGIES
----------------
                 SPIN UP ORBITALS
  NO   OCC          E(Eh)            E(eV)
   0   1.0000     -11.233839      -305.6883
   1   1.0000     -11.227646      -305.5198
   2   1.0000     -11.224620      -305.4375
   3   1.0000     -11.219446      -305.2967
   4   1.0000     -11.217754      -305.2506
   5   1.0000     -11.214694      -305.1673
   6   1.0000     -11.211502      -305.0805
   7   1.0000     -11.210516      -305.0536
   8   1.0000      -1.122130       -30.5347
   9   1.0000      -1.068023       -29.0624
  10   1.0000      -0.977221       -26.5915
  11   1.0000      -0.933029       -25.3890
  12   1.0000      -0.932182       -25.3660
  13   1.0000      -0.860903       -23.4264
  14   1.0000      -0.754814       -20.5395
  15   1.0000      -0.730735       -19.8843
  16   1.0000      -0.649501       -17.6738
  17   1.0000      -0.626047       -17.0356
  18   1.0000      -0.620313       -16.8796
  19   1.0000      -0.601837       -16.3768
  20   1.0000      -0.573351       -15.6017
  21   1.0000      -0.561357       -15.2753
  22   1.0000      -0.556244       -15.1362
  23   1.0000      -0.529849       -14.4179
  24   1.0000      -0.512166       -13.9367
  25   1.0000      -0.501203       -13.6384
  26   1.0000      -0.485879       -13.2214
  27   1.0000      -0.474888       -12.9224
  28   1.0000      -0.462951       -12.5975
  29   1.0000      -0.449258       -12.2249
  30   1.0000      -0.366160        -9.9637
  31   1.0000      -0.342745        -9.3266
  32   0.0000       0.025056         0.6818
  33   0.0000       0.029564         0.8045
  34   0.0000       0.029800         0.8109
  35   0.0000       0.032501         0.8844
  36   0.0000       0.041483         1.1288

                 SPIN DOWN ORBITALS
  NO   OCC          E(Eh)            E(eV)
   0   1.0000     -11.236810      -305.7692
   1   1.0000     -11.228237      -305.5359
   2   1.0000     -11.219196      -305.2898
   3   1.0000     -11.216958      -305.2289
   4   1.0000     -11.214092      -305.1509
   5   1.0000     -11.210030      -305.0404
   6   1.0000     -11.209306      -305.0207
   7   1.0000     -11.200872      -304.7912
   8   1.0000      -1.113099       -30.2890
   9   1.0000      -1.064736       -28.9730
  10   1.0000      -0.973884       -26.5007
  11   1.0000      -0.929525       -25.2937
  12   1.0000      -0.877625       -23.8814
  13   1.0000      -0.850065       -23.1314
  14   1.0000      -0.754786       -20.5388
  15   1.0000      -0.719193       -19.5702
  16   1.0000      -0.647320       -17.6145
  17   1.0000      -0.620181       -16.8760
  18   1.0000      -0.616320       -16.7709
  19   1.0000      -0.598861       -16.2958
  20   1.0000      -0.565581       -15.3902
  21   1.0000      -0.556634       -15.1468
  22   1.0000      -0.551395       -15.0042
  23   1.0000      -0.525208       -14.2916
  24   1.0000      -0.510662       -13.8958
  25   1.0000      -0.499457       -13.5909
  26   1.0000      -0.484721       -13.1899
  27   1.0000      -0.462702       -12.5908
  28   1.0000      -0.455208       -12.3868
  29   1.0000      -0.447248       -12.1702
  30   1.0000      -0.357718        -9.7340
  31   0.0000       0.025270         0.6876
  32   0.0000       0.029395         0.7999
  33   0.0000       0.029825         0.8116
  34   0.0000       0.032106         0.8737
  35   0.0000       0.041317         1.1243

MULLIKEN ATOMIC CHARGES AND SPIN POPULATIONS
--------------------------------------------
   0 C :   -0.994696    1.330894
   1 C :    1.274932   -0.216648
   2 C :   -0.285445    0.020873
   3 C :   -0.234650    0.000490
   4 H :    0.262736   -0.006219
   5 H :    0.212151   -0.000123
   6 C :   -0.639164   -0.033105
   7 H :    0.211033   -0.095239
   8 H :    0.301731   -0.101268
   9 H :    0.299420    0.001951
  10 H :    0.268051   -0.005211
  11 C :   -1.075711    0.062906
  12 H :    0.190112    0.014172
  13 H :    0.252211   -0.009854
  14 H :    0.239025   -0.004335
  15 C :   -1.093534    0.018278
  16 H :    0.217265   -0.002088
  17 H :    0.200749   -0.001702
  18 H :    0.258833   -0.004208
  19 C :   -0.874959    0.032059
  20 H :    0.375900    0.002219
  21 H :    0.293116   -0.001955
  22 H :    0.340892   -0.001885
Sum of atomic charges         :   -0.0000000

LOEWDIN ATOMIC CHARGES AND SPIN POPULATIONS
-------------------------------------------
   0 C :    0.833510    0.454089
   1 C :   -0.340460    0.122770
   2 C :    0.474340    0.015651
   3 C :    0.476348    0.009937
   4 H :   -0.262656    0.001276
   5 H :   -0.277252    0.000588
   6 C :    0.367507   -0.004994
   7 H :   -0.305510    0.146038
   8 H :   -0.308305    0.149008
   9 H :   -0.278739    0.014214
  10 H :   -0.309242    0.000841
  11 C :    0.898508    0.033353
  12 H :   -0.271119    0.008736
  13 H :   -0.271513    0.011212
  14 H :   -0.271744    0.009201
  15 C :    0.892046    0.010989
  16 H :   -0.262503    0.000384
  17 H :   -0.283618    0.004838
  18 H :   -0.273054    0.000252
  19 C :    0.801157    0.007448
  20 H :   -0.317313   -0.002785
  21 H :   -0.352644    0.003491
  22 H :   -0.357743    0.003461

  Mayer bond orders larger than 0.100000
B(  0-C ,  1-C ) :   0.3138 B(  0-C ,  7-H ) :   1.1238 B(  0-C ,  8-H ) :   1.0351
B(  0-C , 15-C ) :   0.1019 B(  1-C ,  2-C ) :   0.6585 B(  1-C ,  7-H ) :  -0.1518
B(  1-C ,  8-H ) :  -0.1334 B(  1-C , 11-C ) :   0.5325 B(  1-C , 12-H ) :  -0.1142
B(  1-C , 13-H ) :  -0.1041 B(  1-C , 14-H ) :  -0.1016 B(  1-C , 15-C ) :   0.3970
B(  1-C , 17-H ) :  -0.1483 B(  1-C , 18-H ) :  -0.1176 B(  2-C ,  3-C ) :   0.8657
B(  2-C ,  4-H ) :   0.9237 B(  2-C ,  5-H ) :   0.9353 B(  2-C ,  6-C ) :  -0.2390
B(  3-C ,  6-C ) :   0.9976 B(  3-C ,  9-H ) :   0.8119 B(  3-C , 10-H ) :   0.8791
B(  3-C , 19-C ) :  -0.1973 B(  6-C , 19-C ) :   1.9079 B(  6-C , 20-H ) :   0.8672
B( 11-C , 12-H ) :   1.0361 B( 11-C , 13-H ) :   1.0313 B( 11-C , 14-H ) :   1.0431
B( 11-C , 15-C ) :   0.1336 B( 15-C , 16-H ) :   1.0417 B( 15-C , 17-H ) :   1.0996
B( 15-C , 18-H ) :   1.0289 B( 19-C , 21-H ) :   0.9525 B( 19-C , 22-H ) :   0.9663

MP2 TOTAL ENERGY:     -313.181939837 Eh
FINAL SINGLE POINT ENERGY      -313.181939836981

DIPOLE MOMENT
-------------
                                X             Y             Z
Electronic contribution:      2.90421      -0.93772       1.08462
Nuclear contribution   :     -3.10619       0.92167      -1.10033
                        -----------------------------------------
Total Dipole Moment    :     -0.20198      -0.01604      -0.01571
                        -----------------------------------------
Magnitude (a.u.)       :      0.20323
Magnitude (Debye)      :      0.51656

Rotational constants in cm-1:     0.133584     0.031410     0.031089
Rotational constants in MHz :  4004.752197   941.662075   932.027622

                             ****ORCA TERMINATED NORMALLY****
TOTAL RUN TIME: 0 days 2 hours 2 minutes 22 seconds 87 msec
