                         Program Version 4.2.1 -  RELEASE  -
|  1> %pal
|  2>  nprocs 32
|  3> end
|  4> !RI-MP2 aug-cc-pVQZ aug-cc-pVQZ/C TightSCF
|  5> %maxcore 4500
|  6> *xyzfile 0 1  02_45R2.xyz
|  7>
|  8>
|  9>                          ****END OF INPUT****

CARTESIAN COORDINATES (ANGSTROEM)
---------------------------------
  C     -0.000004   -0.000019   -0.661655
  C      0.000004    0.000019    0.661655
  H      0.551654   -0.739610   -1.230923
  H     -0.551669    0.739541   -1.230959
  H      0.551669   -0.739541    1.230959
  H     -0.551654    0.739610    1.230923

 Total Charge           Charge          ....    0
 Multiplicity           Mult            ....    1
 Number of Electrons    NEL             ....   16
 Basis Dimension        Dim             ....  344

ORBITAL ENERGIES
----------------

  NO   OCC          E(Eh)            E(eV)
   0   2.0000     -11.229511      -305.5705
   1   2.0000     -11.227703      -305.5213
   2   2.0000      -1.036476       -28.2040
   3   2.0000      -0.791790       -21.5457
   4   2.0000      -0.643658       -17.5148
   5   2.0000      -0.590397       -16.0655
   6   2.0000      -0.505362       -13.7516
   7   2.0000      -0.379652       -10.3309
   8   0.0000       0.029242         0.7957
   9   0.0000       0.036234         0.9860
  10   0.0000       0.038290         1.0419
  11   0.0000       0.052933         1.4404
  12   0.0000       0.081089         2.2065

MULLIKEN ATOMIC CHARGES
-----------------------
   0 C :   -0.862671
   1 C :   -0.862671
   2 H :    0.431336
   3 H :    0.431335
   4 H :    0.431335
   5 H :    0.431336
Sum of atomic charges:    0.0000000

LOEWDIN ATOMIC CHARGES
----------------------
   0 C :    0.742459
   1 C :    0.742459
   2 H :   -0.371230
   3 H :   -0.371229
   4 H :   -0.371229
   5 H :   -0.371230

  Mayer bond orders larger than 0.100000
B(  0-C ,  1-C ) :   1.9482 B(  0-C ,  2-H ) :   0.8084 B(  0-C ,  3-H ) :   0.8084
B(  1-C ,  4-H ) :   0.8084 B(  1-C ,  5-H ) :   0.8084

MP2 TOTAL ENERGY:      -78.427556818 Eh
FINAL SINGLE POINT ENERGY       -78.427556818263

DIPOLE MOMENT
-------------
                                X             Y             Z
Electronic contribution:     -0.00000       0.00000      -0.00000
Nuclear contribution   :      0.00000       0.00000       0.00000
                        -----------------------------------------
Total Dipole Moment    :     -0.00000       0.00000      -0.00000
                        -----------------------------------------
Magnitude (a.u.)       :      0.00000
Magnitude (Debye)      :      0.00000

Rotational constants in cm-1:     4.911256     1.013940     0.840431
Rotational constants in MHz : 147235.744904 30397.161534 25195.493398

                             ****ORCA TERMINATED NORMALLY****
TOTAL RUN TIME: 0 days 0 hours 0 minutes 33 seconds 991 msec
