                         Program Version 4.2.1 -  RELEASE  -
|  1> %pal
|  2>  nprocs 32
|  3> end
|  4> !RI-MP2 aug-cc-pVQZ aug-cc-pVQZ/C TightSCF
|  5> %maxcore 4500
|  6> *xyzfile 0 1  02_35TS.xyz
|  7>
|  8>
|  9>                          ****END OF INPUT****

CARTESIAN COORDINATES (ANGSTROEM)
---------------------------------
  C      0.084594   -0.970723   -0.893587
  C      2.303971   -0.720893    0.029777
  C     -0.441546   -0.028215   -0.002747
  H     -0.179796   -0.175677    1.035946
  C      2.204227    0.684789    0.228658
  C      1.369259   -1.448344   -0.699881
  C      3.622070    1.198035    0.324280
  H      1.730727   -2.312127   -1.250556
  H     -0.459692   -1.244203   -1.789423
  C     -1.697154    0.722911   -0.234978
  H     -1.704555    1.565148    0.466857
  C     -1.850546    1.254131   -1.662677
  H     -0.980436    1.849935   -1.949491
  H     -1.944479    0.447757   -2.392098
  H     -2.736521    1.884802   -1.755619
  N      1.127607    1.387507    0.236734
  C      1.185890    2.825834    0.075623
  H      1.675835    3.131478   -0.856060
  H      0.171785    3.226554    0.072995
  H      1.719496    3.290770    0.911979
  O      4.451628    0.045925    0.371258
  H      3.783986    1.790269    1.227784
  H      3.887322    1.804452   -0.546919
  C      3.714408   -1.091687    0.119139
  O      4.240958   -2.159752   -0.001448
  Si    -3.203533   -0.329253    0.321684
  C     -2.877020   -0.983927    2.047759
  C     -4.701646    0.801371    0.335248
  C     -3.482803   -1.748663   -0.869021
  H     -3.755340   -1.506404    2.435174
  H     -2.043638   -1.690056    2.057574
  H     -2.640903   -0.176532    2.745822
  H     -4.549656    1.658160    0.996555
  H     -4.930959    1.183965   -0.661824
  H     -5.584623    0.263699    0.690350
  H     -3.670454   -1.395954   -1.885835
  H     -2.622636   -2.420514   -0.896607
  H     -4.352165   -2.335629   -0.561353

 Total Charge           Charge          ....    0
 Multiplicity           Mult            ....    1
 Number of Electrons    NEL             ....  136
 Basis Dimension        Dim             .... 2330

ORBITAL ENERGIES
----------------

  NO   OCC          E(Eh)            E(eV)
   0   2.0000     -68.764185     -1871.1686
   1   2.0000     -20.585815      -560.1685
   2   2.0000     -20.514602      -558.2307
   3   2.0000     -15.562038      -423.4646
   4   2.0000     -11.357624      -309.0567
   5   2.0000     -11.303081      -307.5725
   6   2.0000     -11.302713      -307.5625
   7   2.0000     -11.299186      -307.4665
   8   2.0000     -11.268133      -306.6215
   9   2.0000     -11.263841      -306.5047
  10   2.0000     -11.233219      -305.6714
  11   2.0000     -11.232601      -305.6546
  12   2.0000     -11.218442      -305.2693
  13   2.0000     -11.214285      -305.1562
  14   2.0000     -11.209307      -305.0208
  15   2.0000     -11.207636      -304.9753
  16   2.0000     -11.205610      -304.9201
  17   2.0000      -6.113256      -166.3501
  18   2.0000      -4.219782      -114.8261
  19   2.0000      -4.219538      -114.8195
  20   2.0000      -4.219469      -114.8176
  21   2.0000      -1.443475       -39.2790
  22   2.0000      -1.349214       -36.7140
  23   2.0000      -1.249500       -34.0006
  24   2.0000      -1.128691       -30.7132
  25   2.0000      -1.088110       -29.6090
  26   2.0000      -1.024702       -27.8836
  27   2.0000      -0.983522       -26.7630
  28   2.0000      -0.975523       -26.5453
  29   2.0000      -0.952606       -25.9217
  30   2.0000      -0.937210       -25.5028
  31   2.0000      -0.935528       -25.4570
  32   2.0000      -0.919900       -25.0318
  33   2.0000      -0.851345       -23.1663
  34   2.0000      -0.789709       -21.4891
  35   2.0000      -0.762502       -20.7487
  36   2.0000      -0.719985       -19.5918
  37   2.0000      -0.689867       -18.7722
  38   2.0000      -0.683810       -18.6074
  39   2.0000      -0.669987       -18.2313
  40   2.0000      -0.658046       -17.9063
  41   2.0000      -0.644325       -17.5330
  42   2.0000      -0.621697       -16.9172
  43   2.0000      -0.610449       -16.6112
  44   2.0000      -0.602146       -16.3852
  45   2.0000      -0.597069       -16.2471
  46   2.0000      -0.587324       -15.9819
  47   2.0000      -0.581348       -15.8193
  48   2.0000      -0.575387       -15.6571
  49   2.0000      -0.572958       -15.5910
  50   2.0000      -0.562063       -15.2945
  51   2.0000      -0.557132       -15.1603
  52   2.0000      -0.551150       -14.9976
  53   2.0000      -0.548509       -14.9257
  54   2.0000      -0.544367       -14.8130
  55   2.0000      -0.541733       -14.7413
  56   2.0000      -0.537214       -14.6183
  57   2.0000      -0.517203       -14.0738
  58   2.0000      -0.504121       -13.7178
  59   2.0000      -0.490532       -13.3480
  60   2.0000      -0.466376       -12.6907
  61   2.0000      -0.443308       -12.0630
  62   2.0000      -0.441902       -12.0248
  63   2.0000      -0.438810       -11.9406
  64   2.0000      -0.428418       -11.6578
  65   2.0000      -0.407010       -11.0753
  66   2.0000      -0.367698       -10.0056
  67   2.0000      -0.293457        -7.9854
  68   0.0000       0.013798         0.3755
  69   0.0000       0.020844         0.5672
  70   0.0000       0.023786         0.6473
  71   0.0000       0.027568         0.7502
  72   0.0000       0.034214         0.9310

MULLIKEN ATOMIC CHARGES
-----------------------
   0 C :   -0.938049
   1 C :   -0.795662
   2 C :    0.705508
   3 H :    0.593559
   4 C :    0.513974
   5 C :   -0.087897
   6 C :    0.209043
   7 H :    0.214503
   8 H :    0.174119
   9 C :   -0.330719
  10 H :    0.155967
  11 C :   -1.270895
  12 H :    0.299637
  13 H :    0.193528
  14 H :    0.252152
  15 N :   -0.481236
  16 C :   -1.264942
  17 H :    0.364701
  18 H :    0.413891
  19 H :    0.366307
  20 O :   -1.016741
  21 H :    0.297020
  22 H :    0.277813
  23 C :    1.523686
  24 O :   -0.937376
  25 Si:    1.729528
  26 C :   -1.166038
  27 C :   -1.218684
  28 C :   -1.244936
  29 H :    0.303760
  30 H :    0.245169
  31 H :    0.243432
  32 H :    0.283970
  33 H :    0.258541
  34 H :    0.320175
  35 H :    0.238456
  36 H :    0.289532
  37 H :    0.285204
Sum of atomic charges:   -0.0000000

LOEWDIN ATOMIC CHARGES
----------------------
   0 C :    0.371900
   1 C :   -0.140257
   2 C :    0.180980
   3 H :   -0.343699
   4 C :   -0.341061
   5 C :    0.364814
   6 C :    0.170105
   7 H :   -0.297237
   8 H :   -0.332572
   9 C :    0.197835
  10 H :   -0.333317
  11 C :    0.890851
  12 H :   -0.269357
  13 H :   -0.293192
  14 H :   -0.275773
  15 N :    0.599848
  16 C :    0.718369
  17 H :   -0.286194
  18 H :   -0.317407
  19 H :   -0.296281
  20 O :    0.853462
  21 H :   -0.289143
  22 H :   -0.283639
  23 C :   -1.101740
  24 O :    0.652130
  25 Si:    0.174752
  26 C :    1.007564
  27 C :    1.003928
  28 C :    1.004731
  29 H :   -0.329780
  30 H :   -0.333802
  31 H :   -0.326476
  32 H :   -0.329488
  33 H :   -0.337623
  34 H :   -0.331955
  35 H :   -0.331691
  36 H :   -0.341127
  37 H :   -0.328459

  Mayer bond orders larger than 0.100000
B(  0-C ,  2-C ) :   0.8175 B(  0-C ,  3-H ) :  -0.1570 B(  0-C ,  5-C ) :   1.3962
B(  0-C ,  7-H ) :  -0.1417 B(  0-C ,  8-H ) :   1.0510 B(  1-C ,  2-C ) :   0.1762
B(  1-C ,  4-C ) :   0.6880 B(  1-C ,  5-C ) :   0.9169 B(  1-C ,  6-C ) :  -0.1218
B(  1-C , 20-O ) :   0.1354 B(  1-C , 23-C ) :   1.7904 B(  1-C , 24-O ) :   0.5349
B(  2-C ,  3-H ) :   0.6798 B(  2-C ,  5-C ) :  -0.4776 B(  2-C ,  9-C ) :   1.1291
B(  2-C , 10-H ) :   0.1363 B(  2-C , 15-N ) :   0.1871 B(  4-C ,  6-C ) :   0.6785
B(  4-C , 15-N ) :   1.4879 B(  4-C , 16-C ) :  -0.1122 B(  4-C , 20-O ) :   0.1244
B(  4-C , 21-H ) :  -0.1163 B(  4-C , 22-H ) :  -0.1317 B(  4-C , 23-C ) :  -0.3426
B(  5-C ,  7-H ) :   1.0424 B(  5-C , 23-C ) :  -0.1832 B(  6-C , 20-O ) :   0.2566
B(  6-C , 21-H ) :   1.0065 B(  6-C , 22-H ) :   0.9757 B(  9-C , 10-H ) :   1.0199
B(  9-C , 13-H ) :  -0.2389 B(  9-C , 14-H ) :  -0.1639 B(  9-C , 25-Si) :   0.4357
B(  9-C , 28-C ) :   0.1460 B( 11-C , 12-H ) :   1.0386 B( 11-C , 13-H ) :   1.1665
B( 11-C , 14-H ) :   1.1150 B( 15-N , 16-C ) :   0.9652 B( 16-C , 17-H ) :   0.9069
B( 16-C , 18-H ) :   0.8482 B( 16-C , 19-H ) :   0.8958 B( 20-O , 23-C ) :   0.7027
B( 20-O , 24-O ) :   0.1774 B( 23-C , 24-O ) :   0.7670 B( 25-Si, 26-C ) :   0.7102
B( 25-Si, 27-C ) :   0.7569 B( 25-Si, 28-C ) :   0.5304 B( 26-C , 29-H ) :   1.0079
B( 26-C , 30-H ) :   0.9998 B( 26-C , 31-H ) :   0.9789 B( 27-C , 32-H ) :   0.9772
B( 27-C , 33-H ) :   0.9746 B( 27-C , 34-H ) :   0.9723 B( 28-C , 35-H ) :   0.9932
B( 28-C , 36-H ) :   0.9546 B( 28-C , 37-H ) :   1.0093

MP2 TOTAL ENERGY:    -1001.081173457 Eh
FINAL SINGLE POINT ENERGY     -1001.081173457296

DIPOLE MOMENT
-------------
                                X             Y             Z
Electronic contribution:     26.79868      -7.06818       1.78626
Nuclear contribution   :    -29.30940       8.97583      -1.94768
                        -----------------------------------------
Total Dipole Moment    :     -2.51073       1.90765      -0.16143
                        -----------------------------------------
Magnitude (a.u.)       :      3.15736
Magnitude (Debye)      :      8.02537

Rotational constants in cm-1:     0.027946     0.007197     0.006444
Rotational constants in MHz :   837.799672   215.760704   193.198464

                             ****ORCA TERMINATED NORMALLY****
TOTAL RUN TIME: 0 days 6 hours 38 minutes 14 seconds 805 msec
