                         Program Version 4.2.1 -  RELEASE  -
|  1> %pal
|  2>  nprocs 32
|  3> end
|  4> !RI-MP2 aug-cc-pVQZ aug-cc-pVQZ/C TightSCF
|  5> %maxcore 4500
|  6> *xyzfile 0 1  10_19TS.xyz
|  7>
|  8>
|  9>                          ****END OF INPUT****

CARTESIAN COORDINATES (ANGSTROEM)
---------------------------------
  C     -5.386186   -2.165413    0.331917
  C     -4.758030   -0.943563    0.517684
  C     -3.485932   -0.700217   -0.003443
  C     -2.850809   -1.731280   -0.702892
  C     -3.482552   -2.949558   -0.893713
  C     -4.753211   -3.174631   -0.379612
  H     -6.374621   -2.328789    0.744669
  H     -5.260926   -0.160371    1.074113
  H     -1.844583   -1.588886   -1.075864
  H     -2.972339   -3.734917   -1.438862
  H     -5.241214   -4.130361   -0.526079
  C     -2.853487    0.610125    0.229817
  H     -3.443363    1.300300    0.817174
  C     -1.962096    1.144087   -0.698522
  H     -1.657709    0.533970   -1.537483
  C     -0.465731    2.762371   -1.706765
  C     -1.625212    3.333501    0.379757
  C      0.893995    3.000015   -1.054590
  H     -0.806361    3.678519   -2.202860
  H     -0.408468    1.976795   -2.458781
  C     -0.291554    3.575373    1.083535
  H     -2.002600    4.272242   -0.041461
  H     -2.368117    2.962031    1.079535
  C      0.780674    4.009007    0.086168
  H      1.597853    3.347480   -1.814665
  H      1.273066    2.050369   -0.670153
  H     -0.431742    4.332930    1.858211
  H      0.015688    2.654926    1.587179
  H      1.743163    4.121839    0.589456
  H      0.521029    4.993219   -0.321670
  N     -1.466279    2.381102   -0.714251
  N     -0.077653   -0.208632    0.361268
  N     -0.619117   -0.113339    1.526922
  N     -1.678544    0.217934    1.890632
  C      1.252018   -0.577857    0.285237
  C      2.155000   -0.775737    1.333287
  C      1.768499   -0.736495   -1.005187
  C      3.475666   -1.120086    1.103763
  C      3.083310   -1.074620   -1.245339
  C      3.950232   -1.272090   -0.184942
  F      1.764480   -0.626393    2.602713
  F      4.298585   -1.299269    2.135081
  F      5.222745   -1.600041   -0.404311
  F      3.520923   -1.209681   -2.496069
  F      0.958247   -0.542209   -2.056461

 Total Charge           Charge          ....    0
 Multiplicity           Mult            ....    1
 Number of Electrons    NEL             ....  204
 Basis Dimension        Dim             .... 3022

ORBITAL ENERGIES
----------------

  NO   OCC          E(Eh)            E(eV)
   0   2.0000     -26.338340      -716.7027
   1   2.0000     -26.335839      -716.6346
   2   2.0000     -26.334882      -716.6086
   3   2.0000     -26.333476      -716.5703
   4   2.0000     -26.328264      -716.4285
   5   2.0000     -15.710090      -427.4933
   6   2.0000     -15.671590      -426.4456
   7   2.0000     -15.613527      -424.8657
   8   2.0000     -15.597419      -424.4273
   9   2.0000     -11.360746      -309.1416
  10   2.0000     -11.359926      -309.1193
  11   2.0000     -11.353723      -308.9505
  12   2.0000     -11.351710      -308.8957
  13   2.0000     -11.350987      -308.8761
  14   2.0000     -11.323564      -308.1298
  15   2.0000     -11.317591      -307.9673
  16   2.0000     -11.282899      -307.0233
  17   2.0000     -11.282413      -307.0101
  18   2.0000     -11.243943      -305.9633
  19   2.0000     -11.239580      -305.8445
  20   2.0000     -11.238559      -305.8167
  21   2.0000     -11.238036      -305.8025
  22   2.0000     -11.237948      -305.8001
  23   2.0000     -11.229505      -305.5704
  24   2.0000     -11.229217      -305.5625
  25   2.0000     -11.225058      -305.4494
  26   2.0000     -11.223285      -305.4011
  27   2.0000     -11.222889      -305.3903
  28   2.0000      -1.669385       -45.4263
  29   2.0000      -1.663180       -45.2574
  30   2.0000      -1.653714       -44.9998
  31   2.0000      -1.647320       -44.8258
  32   2.0000      -1.643549       -44.7232
  33   2.0000      -1.465513       -39.8786
  34   2.0000      -1.307174       -35.5700
  35   2.0000      -1.259337       -34.2683
  36   2.0000      -1.190709       -32.4008
  37   2.0000      -1.157553       -31.4986
  38   2.0000      -1.113324       -30.2951
  39   2.0000      -1.066264       -29.0145
  40   2.0000      -1.059766       -28.8377
  41   2.0000      -1.057010       -28.7627
  42   2.0000      -1.051903       -28.6237
  43   2.0000      -1.012220       -27.5439
  44   2.0000      -0.994812       -27.0702
  45   2.0000      -0.930605       -25.3231
  46   2.0000      -0.922917       -25.1139
  47   2.0000      -0.906264       -24.6607
  48   2.0000      -0.885614       -24.0988
  49   2.0000      -0.843974       -22.9657
  50   2.0000      -0.840519       -22.8717
  51   2.0000      -0.824422       -22.4337
  52   2.0000      -0.816074       -22.2065
  53   2.0000      -0.805675       -21.9235
  54   2.0000      -0.800143       -21.7730
  55   2.0000      -0.773879       -21.0583
  56   2.0000      -0.764468       -20.8022
  57   2.0000      -0.753116       -20.4933
  58   2.0000      -0.752381       -20.4733
  59   2.0000      -0.750272       -20.4159
  60   2.0000      -0.734974       -19.9996
  61   2.0000      -0.731061       -19.8932
  62   2.0000      -0.722514       -19.6606
  63   2.0000      -0.720226       -19.5983
  64   2.0000      -0.706717       -19.2308
  65   2.0000      -0.706113       -19.2143
  66   2.0000      -0.703410       -19.1408
  67   2.0000      -0.701531       -19.0896
  68   2.0000      -0.685133       -18.6434
  69   2.0000      -0.679708       -18.4958
  70   2.0000      -0.668279       -18.1848
  71   2.0000      -0.658640       -17.9225
  72   2.0000      -0.648336       -17.6421
  73   2.0000      -0.642886       -17.4938
  74   2.0000      -0.640356       -17.4250
  75   2.0000      -0.632599       -17.2139
  76   2.0000      -0.626352       -17.0439
  77   2.0000      -0.620213       -16.8769
  78   2.0000      -0.612274       -16.6608
  79   2.0000      -0.602961       -16.4074
  80   2.0000      -0.595053       -16.1922
  81   2.0000      -0.586769       -15.9668
  82   2.0000      -0.581124       -15.8132
  83   2.0000      -0.578447       -15.7403
  84   2.0000      -0.558377       -15.1942
  85   2.0000      -0.546949       -14.8832
  86   2.0000      -0.538302       -14.6479
  87   2.0000      -0.521543       -14.1919
  88   2.0000      -0.518412       -14.1067
  89   2.0000      -0.506168       -13.7735
  90   2.0000      -0.496590       -13.5129
  91   2.0000      -0.488212       -13.2849
  92   2.0000      -0.484899       -13.1948
  93   2.0000      -0.476909       -12.9774
  94   2.0000      -0.458063       -12.4645
  95   2.0000      -0.448764       -12.2115
  96   2.0000      -0.441238       -12.0067
  97   2.0000      -0.366155        -9.9636
  98   2.0000      -0.365153        -9.9363
  99   2.0000      -0.335339        -9.1250
 100   2.0000      -0.315962        -8.5978
 101   2.0000      -0.273790        -7.4502
 102   0.0000       0.014760         0.4016
 103   0.0000       0.022899         0.6231
 104   0.0000       0.024399         0.6639
 105   0.0000       0.026729         0.7273
 106   0.0000       0.032402         0.8817

MULLIKEN ATOMIC CHARGES
-----------------------
   0 C :   -0.303531
   1 C :   -0.702625
   2 C :    0.786030
   3 C :   -0.450302
   4 C :   -0.575570
   5 C :   -0.432898
   6 H :    0.209521
   7 H :    0.214092
   8 H :    0.380040
   9 H :    0.218856
  10 H :    0.352826
  11 C :    0.073756
  12 H :    0.052897
  13 C :    0.914266
  14 H :    0.516067
  15 C :   -0.658434
  16 C :   -0.865225
  17 C :   -0.787514
  18 H :    0.252600
  19 H :    0.190100
  20 C :   -0.463776
  21 H :    0.264910
  22 H :    0.365477
  23 C :   -0.498556
  24 H :    0.230045
  25 H :    0.660789
  26 H :    0.245915
  27 H :    0.390011
  28 H :    0.210335
  29 H :    0.185292
  30 N :   -0.516901
  31 N :    0.190464
  32 N :   -0.248267
  33 N :   -0.265113
  34 C :   -0.500320
  35 C :    0.795452
  36 C :    0.679896
  37 C :    0.993068
  38 C :    1.027892
  39 C :    0.949317
  40 F :   -0.784117
  41 F :   -0.825939
  42 F :   -0.791014
  43 F :   -0.829591
  44 F :   -0.850217
Sum of atomic charges:   -0.0000000

LOEWDIN ATOMIC CHARGES
----------------------
   0 C :    0.341051
   1 C :    0.340672
   2 C :   -0.120486
   3 C :    0.331395
   4 C :    0.350642
   5 C :    0.334681
   6 H :   -0.320427
   7 H :   -0.318316
   8 H :   -0.356122
   9 H :   -0.318358
  10 H :   -0.325770
  11 C :    0.151464
  12 H :   -0.386815
  13 C :    0.171474
  14 H :   -0.345377
  15 C :    0.420023
  16 C :    0.416238
  17 C :    0.552271
  18 H :   -0.249808
  19 H :   -0.289274
  20 C :    0.554678
  21 H :   -0.247116
  22 H :   -0.319755
  23 C :    0.550686
  24 H :   -0.246937
  25 H :   -0.308138
  26 H :   -0.248955
  27 H :   -0.282811
  28 H :   -0.253453
  29 H :   -0.260129
  30 N :    0.537726
  31 N :    0.271477
  32 N :   -0.084674
  33 N :    0.444388
  34 C :   -0.497095
  35 C :   -0.770191
  36 C :   -0.809377
  37 C :   -0.803608
  38 C :   -0.800127
  39 C :   -0.805262
  40 F :    0.801736
  41 F :    0.797175
  42 F :    0.788698
  43 F :    0.796256
  44 F :    0.815650

  Mayer bond orders larger than 0.100000
B(  0-C ,  1-C ) :   1.3764 B(  0-C ,  2-C ) :  -0.4268 B(  0-C ,  5-C ) :   1.1625
B(  0-C ,  6-H ) :   1.1908 B(  1-C ,  2-C ) :   0.9493 B(  1-C ,  4-C ) :   0.1713
B(  1-C ,  6-H ) :  -0.1659 B(  1-C ,  7-H ) :   1.0778 B(  1-C , 10-H ) :  -0.1218
B(  1-C , 11-C ) :  -0.3931 B(  2-C ,  3-C ) :   1.1715 B(  2-C ,  4-C ) :  -0.4583
B(  2-C ,  7-H ) :  -0.1189 B(  2-C ,  8-H ) :  -0.1466 B(  2-C , 11-C ) :   0.5603
B(  2-C , 12-H ) :  -0.2102 B(  2-C , 13-C ) :  -0.5501 B(  2-C , 33-N ) :  -0.1738
B(  3-C ,  4-C ) :   1.2620 B(  3-C ,  8-H ) :   0.7247 B(  3-C ,  9-H ) :  -0.1109
B(  3-C , 11-C ) :  -0.2635 B(  3-C , 14-H ) :  -0.1416 B(  4-C ,  5-C ) :   1.2811
B(  4-C ,  8-H ) :  -0.1786 B(  4-C ,  9-H ) :   1.1289 B(  5-C ,  6-H ) :  -0.1028
B(  5-C , 10-H ) :   0.9891 B( 11-C , 12-H ) :   1.1577 B( 11-C , 13-C ) :   0.8649
B( 11-C , 16-C ) :  -0.3240 B( 11-C , 30-N ) :  -0.2494 B( 11-C , 31-N ) :   0.2161
B( 11-C , 32-N ) :   0.1140 B( 11-C , 33-N ) :   0.4162 B( 13-C , 14-H ) :   0.7456
B( 13-C , 15-C ) :  -0.4603 B( 13-C , 16-C ) :   0.2101 B( 13-C , 17-C ) :   0.1215
B( 13-C , 30-N ) :   1.1506 B( 13-C , 33-N ) :  -0.1145 B( 15-C , 17-C ) :   0.9289
B( 15-C , 18-H ) :   1.0142 B( 15-C , 19-H ) :   1.0560 B( 15-C , 23-C ) :  -0.1367
B( 15-C , 30-N ) :   1.0585 B( 16-C , 20-C ) :   0.9211 B( 16-C , 21-H ) :   1.0213
B( 16-C , 22-H ) :   0.8574 B( 16-C , 30-N ) :   0.8329 B( 17-C , 23-C ) :   0.9125
B( 17-C , 24-H ) :   0.9978 B( 17-C , 25-H ) :   0.5371 B( 20-C , 23-C ) :   0.8608
B( 20-C , 26-H ) :   0.9829 B( 20-C , 27-H ) :   0.7480 B( 20-C , 30-N ) :  -0.1013
B( 23-C , 28-H ) :   0.9747 B( 23-C , 29-H ) :   1.0391 B( 30-N , 31-N ) :   0.1279
B( 31-N , 32-N ) :   0.7660 B( 31-N , 34-C ) :   0.7837 B( 31-N , 44-F ) :  -0.2889
B( 32-N , 33-N ) :   1.6637 B( 32-N , 34-C ) :  -0.2570 B( 33-N , 34-C ) :  -0.1036
B( 34-C , 35-C ) :   1.3234 B( 34-C , 36-C ) :   1.0891 B( 34-C , 37-C ) :  -0.3856
B( 34-C , 38-C ) :  -0.3494 B( 34-C , 39-C ) :   0.1156 B( 34-C , 40-F ) :   0.6540
B( 34-C , 44-F ) :   0.5076 B( 35-C , 37-C ) :   1.5412 B( 35-C , 38-C ) :   0.1998
B( 35-C , 40-F ) :  -0.3534 B( 35-C , 41-F ) :   0.1569 B( 36-C , 38-C ) :   1.5135
B( 36-C , 39-C ) :  -0.1748 B( 36-C , 43-F ) :   0.2979 B( 37-C , 39-C ) :   1.5754
B( 38-C , 39-C ) :   1.6205 B( 38-C , 43-F ) :  -0.2915 B( 38-C , 44-F ) :  -0.1006
B( 39-C , 42-F ) :  -0.1266

MP2 TOTAL ENERGY:    -1450.298259181 Eh
FINAL SINGLE POINT ENERGY     -1450.298259181420

DIPOLE MOMENT
-------------
                                X             Y             Z
Electronic contribution:     40.86140     -26.60121       3.39170
Nuclear contribution   :    -41.80874      28.52141      -3.96620
                        -----------------------------------------
Total Dipole Moment    :     -0.94733       1.92021      -0.57450
                        -----------------------------------------
Magnitude (a.u.)       :      2.21691
Magnitude (Debye)      :      5.63493

Rotational constants in cm-1:     0.007771     0.004080     0.003440
Rotational constants in MHz :   232.982291   122.318203   103.127826

                             ****ORCA TERMINATED NORMALLY****
TOTAL RUN TIME: 0 days 16 hours 18 minutes 16 seconds 500 msec
