                         Program Version 4.2.1 -  RELEASE  -
|  1> %pal
|  2>  nprocs 32
|  3> end
|  4> !RI-MP2 aug-cc-pVQZ aug-cc-pVQZ/C TightSCF
|  5> %maxcore 4500
|  6> *xyzfile 0 1  02_25R.xyz
|  7>
|  8>
|  9>                          ****END OF INPUT****

CARTESIAN COORDINATES (ANGSTROEM)
---------------------------------
  C      1.933966    1.073786   -0.414493
  C     -1.486110    0.275761    0.620009
  C     -1.395805   -1.065394    0.694680
  C      3.735779   -2.083160    0.178958
  C      3.442086   -0.785253    0.172569
  C      2.235321   -0.223588   -0.417937
  C      0.689394    1.665614   -0.997578
  C     -0.194363    2.350222    0.053172
  C     -0.679959    1.399023    1.155091
  H      0.958240    2.407136   -1.757162
  H     -1.056563    2.803115   -0.444503
  H      0.169179    1.003360    1.716173
  C     -2.742168    0.296780   -0.250187
  H     -3.640628    0.715929    0.209101
  H     -2.627635    0.696314   -1.260739
  C     -2.605621   -1.247942   -0.140353
  O     -3.237021   -2.166445   -0.575027
  H      0.121485    0.883939   -1.510325
  H      0.359921    3.168882    0.520862
  H     -1.301292    1.964532    1.858542
  H     -0.701003   -1.740290    1.176906
  H      1.547734   -0.926891   -0.883125
  H      2.624704    1.770348    0.059609
  H      4.128852   -0.078886    0.632603
  H      3.073269   -2.813471   -0.273375
  H      4.644779   -2.457544    0.632049

 Total Charge           Charge          ....    0
 Multiplicity           Mult            ....    1
 Number of Electrons    NEL             ....   88
 Basis Dimension        Dim             .... 1604

ORBITAL ENERGIES
----------------

  NO   OCC          E(Eh)            E(eV)
   0   2.0000     -20.537230      -558.8464
   1   2.0000     -11.328293      -308.2585
   2   2.0000     -11.276265      -306.8428
   3   2.0000     -11.246712      -306.0386
   4   2.0000     -11.245929      -306.0173
   5   2.0000     -11.243704      -305.9567
   6   2.0000     -11.240441      -305.8679
   7   2.0000     -11.239289      -305.8366
   8   2.0000     -11.238178      -305.8064
   9   2.0000     -11.236456      -305.7595
  10   2.0000     -11.235369      -305.7299
  11   2.0000     -11.228307      -305.5378
  12   2.0000      -1.384215       -37.6664
  13   2.0000      -1.178341       -32.0643
  14   2.0000      -1.118259       -30.4294
  15   2.0000      -1.080311       -29.3967
  16   2.0000      -1.024035       -27.8654
  17   2.0000      -0.959912       -26.1205
  18   2.0000      -0.925558       -25.1857
  19   2.0000      -0.862694       -23.4751
  20   2.0000      -0.798400       -21.7256
  21   2.0000      -0.764264       -20.7967
  22   2.0000      -0.757040       -20.6001
  23   2.0000      -0.716105       -19.4862
  24   2.0000      -0.672935       -18.3115
  25   2.0000      -0.656673       -17.8690
  26   2.0000      -0.651782       -17.7359
  27   2.0000      -0.634485       -17.2652
  28   2.0000      -0.625789       -17.0286
  29   2.0000      -0.611576       -16.6418
  30   2.0000      -0.598243       -16.2790
  31   2.0000      -0.570293       -15.5185
  32   2.0000      -0.560449       -15.2506
  33   2.0000      -0.537064       -14.6142
  34   2.0000      -0.521348       -14.1866
  35   2.0000      -0.517663       -14.0863
  36   2.0000      -0.511734       -13.9250
  37   2.0000      -0.497659       -13.5420
  38   2.0000      -0.489514       -13.3204
  39   2.0000      -0.478957       -13.0331
  40   2.0000      -0.443625       -12.0717
  41   2.0000      -0.398510       -10.8440
  42   2.0000      -0.375983       -10.2310
  43   2.0000      -0.322537        -8.7767
  44   0.0000       0.018210         0.4955
  45   0.0000       0.024579         0.6688
  46   0.0000       0.026509         0.7214
  47   0.0000       0.029334         0.7982
  48   0.0000       0.038249         1.0408

MULLIKEN ATOMIC CHARGES
-----------------------
   0 C :   -0.134509
   1 C :    0.327580
   2 C :   -1.142548
   3 C :   -0.840849
   4 C :   -0.530985
   5 C :   -0.387555
   6 C :   -0.395860
   7 C :   -0.410434
   8 C :   -0.078288
   9 H :    0.321436
  10 H :    0.223780
  11 H :    0.243277
  12 C :   -0.608210
  13 H :    0.294268
  14 H :    0.231442
  15 C :    1.072590
  16 O :   -0.941178
  17 H :    0.147009
  18 H :    0.222584
  19 H :    0.291561
  20 H :    0.323428
  21 H :    0.408581
  22 H :    0.258821
  23 H :    0.397733
  24 H :    0.381985
  25 H :    0.324340
Sum of atomic charges:   -0.0000000

LOEWDIN ATOMIC CHARGES
----------------------
   0 C :    0.375392
   1 C :   -0.075124
   2 C :    0.424226
   3 C :    0.784794
   4 C :    0.318050
   5 C :    0.336676
   6 C :    0.497528
   7 C :    0.523517
   8 C :    0.537035
   9 H :   -0.264576
  10 H :   -0.266629
  11 H :   -0.289602
  12 C :    0.520884
  13 H :   -0.266659
  14 H :   -0.274214
  15 C :   -0.708871
  16 O :    0.658963
  17 H :   -0.307460
  18 H :   -0.261827
  19 H :   -0.264060
  20 H :   -0.292523
  21 H :   -0.339505
  22 H :   -0.305506
  23 H :   -0.348879
  24 H :   -0.356180
  25 H :   -0.355451

  Mayer bond orders larger than 0.100000
B(  0-C ,  4-C ) :  -0.3977 B(  0-C ,  5-C ) :   1.3815 B(  0-C ,  6-C ) :   0.9504
B(  0-C ,  7-C ) :  -0.1397 B(  0-C , 22-H ) :   0.9469 B(  1-C ,  2-C ) :   1.2952
B(  1-C ,  7-C ) :  -0.1333 B(  1-C ,  8-C ) :   0.4298 B(  1-C , 12-C ) :   0.8506
B(  1-C , 15-C ) :  -0.4076 B(  1-C , 16-O ) :   0.1545 B(  2-C ,  8-C ) :  -0.2888
B(  2-C , 15-C ) :   1.4240 B(  2-C , 16-O ) :   0.2397 B(  2-C , 20-H ) :   0.9426
B(  3-C ,  4-C ) :   1.7337 B(  3-C ,  5-C ) :  -0.2855 B(  3-C , 24-H ) :   0.8612
B(  3-C , 25-H ) :   1.0370 B(  4-C ,  5-C ) :   0.9020 B(  4-C , 23-H ) :   0.8279
B(  4-C , 25-H ) :  -0.1496 B(  5-C ,  6-C ) :  -0.3181 B(  5-C , 21-H ) :   0.7890
B(  6-C ,  7-C ) :   0.9312 B(  6-C ,  9-H ) :   0.9121 B(  6-C , 17-H ) :   0.9460
B(  7-C ,  8-C ) :   0.8705 B(  7-C , 10-H ) :   0.9665 B(  7-C , 18-H ) :   0.9694
B(  8-C , 11-H ) :   0.9951 B(  8-C , 19-H ) :   0.9618 B( 12-C , 13-H ) :   0.9014
B( 12-C , 14-H ) :   0.9160 B( 12-C , 15-C ) :   1.2320 B( 12-C , 16-O ) :   0.1129
B( 15-C , 16-O ) :   0.7726

MP2 TOTAL ENERGY:     -501.845268594 Eh
FINAL SINGLE POINT ENERGY      -501.845268593812

DIPOLE MOMENT
-------------
                                X             Y             Z
Electronic contribution:     -7.45143      -5.84819      -0.10935
Nuclear contribution   :      8.40453       7.50021       0.68006
                        -----------------------------------------
Total Dipole Moment    :      0.95309       1.65202       0.57070
                        -----------------------------------------
Magnitude (a.u.)       :      1.99079
Magnitude (Debye)      :      5.06019

Rotational constants in cm-1:     0.039783     0.017457     0.013420
Rotational constants in MHz :  1192.649562   523.355102   402.327071

                             ****ORCA TERMINATED NORMALLY****
TOTAL RUN TIME: 0 days 1 hours 38 minutes 3 seconds 342 msec
