                         Program Version 4.2.1 -  RELEASE  -
|  1> %pal
|  2>  nprocs 32
|  3> end
|  4> !RI-MP2 aug-cc-pVQZ aug-cc-pVQZ/C TightSCF
|  5> %maxcore 4500
|  6> *xyzfile 0 1  09_18R1.xyz
|  7>
|  8>
|  9>                          ****END OF INPUT****

CARTESIAN COORDINATES (ANGSTROEM)
---------------------------------
  C     -0.745946    0.268767   -0.004698
  O     -0.626695    1.465026   -0.004914
  C     -2.078309   -0.434348    0.005276
  H     -2.586853   -0.194575    0.940857
  H     -1.982420   -1.515470   -0.086567
  H     -2.683299   -0.045760   -0.814795
  S      0.656837   -0.826938   -0.004811
  C      1.987967    0.396178    0.007441
  H      1.923579    1.030073   -0.873932
  H      2.924713   -0.158276    0.000329
  H      1.926170    1.011236    0.902287

 Total Charge           Charge          ....    0
 Multiplicity           Mult            ....    1
 Number of Electrons    NEL             ....   48
 Basis Dimension        Dim             ....  680

ORBITAL ENERGIES
----------------

  NO   OCC          E(Eh)            E(eV)
   0   2.0000     -91.968679     -2502.5950
   1   2.0000     -20.552324      -559.2572
   2   2.0000     -11.360833      -309.1440
   3   2.0000     -11.257555      -306.3337
   4   2.0000     -11.244108      -305.9677
   5   2.0000      -8.971636      -244.1306
   6   2.0000      -6.653101      -181.0401
   7   2.0000      -6.652032      -181.0110
   8   2.0000      -6.651450      -180.9951
   9   2.0000      -1.404866       -38.2284
  10   2.0000      -1.070456       -29.1286
  11   2.0000      -1.016367       -27.6568
  12   2.0000      -0.894055       -24.3285
  13   2.0000      -0.733039       -19.9470
  14   2.0000      -0.655172       -17.8281
  15   2.0000      -0.638342       -17.3702
  16   2.0000      -0.621704       -16.9174
  17   2.0000      -0.590612       -16.0714
  18   2.0000      -0.587003       -15.9732
  19   2.0000      -0.541582       -14.7372
  20   2.0000      -0.516589       -14.0571
  21   2.0000      -0.482838       -13.1387
  22   2.0000      -0.408071       -11.1042
  23   2.0000      -0.371745       -10.1157
  24   0.0000       0.026369         0.7175
  25   0.0000       0.029515         0.8032
  26   0.0000       0.038806         1.0560
  27   0.0000       0.040876         1.1123
  28   0.0000       0.050825         1.3830

MULLIKEN ATOMIC CHARGES
-----------------------
   0 C :    0.512325
   1 O :   -0.777876
   2 C :   -0.782051
   3 H :    0.284852
   4 H :    0.283266
   5 H :    0.271006
   6 S :    0.192900
   7 C :   -0.965764
   8 H :    0.279497
   9 H :    0.423807
  10 H :    0.278038
Sum of atomic charges:   -0.0000000

LOEWDIN ATOMIC CHARGES
----------------------
   0 C :   -1.112866
   1 O :    0.637408
   2 C :    0.776355
   3 H :   -0.306774
   4 H :   -0.351445
   5 H :   -0.309834
   6 S :    1.287270
   7 C :    0.521676
   8 H :   -0.376335
   9 H :   -0.390457
  10 H :   -0.374998

  Mayer bond orders larger than 0.100000
B(  0-C ,  1-O ) :   1.4347 B(  0-C ,  2-C ) :   0.7997 B(  0-C ,  6-S ) :   0.9999
B(  2-C ,  3-H ) :   0.9287 B(  2-C ,  4-H ) :   0.9688 B(  2-C ,  5-H ) :   0.9636
B(  6-S ,  7-C ) :   1.0325 B(  7-C ,  8-H ) :   0.9101 B(  7-C ,  9-H ) :   0.8161
B(  7-C , 10-H ) :   0.9117

MP2 TOTAL ENERGY:     -590.593420757 Eh
FINAL SINGLE POINT ENERGY      -590.593420756595

DIPOLE MOMENT
-------------
                                X             Y             Z
Electronic contribution:      0.55159      -0.77068      -0.05704
Nuclear contribution   :     -0.50830       0.17585       0.06826
                        -----------------------------------------
Total Dipole Moment    :      0.04329      -0.59483       0.01121
                        -----------------------------------------
Magnitude (a.u.)       :      0.59651
Magnitude (Debye)      :      1.51620

Rotational constants in cm-1:     0.246459     0.102862     0.074604
Rotational constants in MHz :  7388.659067  3083.730318  2236.575121

                             ****ORCA TERMINATED NORMALLY****
TOTAL RUN TIME: 0 days 0 hours 7 minutes 29 seconds 424 msec
