                         Program Version 4.2.1 -  RELEASE  -
|  1> %pal
|  2>  nprocs 32
|  3> end
|  4> !RI-MP2 aug-cc-pVQZ aug-cc-pVQZ/C TightSCF
|  5> %maxcore 4500
|  6> *xyzfile -1 1  08_5TS.xyz
|  7>
|  8>
|  9>                          ****END OF INPUT****

CARTESIAN COORDINATES (ANGSTROEM)
---------------------------------
  C      2.188345    0.188457    0.898730
  O      1.992218   -0.454821    1.893569
  O      2.288680    1.525558    0.897043
  C      2.289595   -0.390133   -0.482416
  C      2.224088    0.477722   -1.699327
  H      2.182709   -0.142349   -2.593553
  H      1.338986    1.109616   -1.642368
  H      3.103727    1.113860   -1.744262
  Cl     4.706514   -0.335642   -0.178092
  H      2.509823   -1.435894   -0.524842
  O      0.430266   -1.048322   -0.582451
  C     -0.590866   -0.358509   -0.312340
  O     -0.579422    0.832420    0.057735
  C     -1.919826   -1.086038   -0.488676
  C     -3.069970   -0.608966    0.409898
  H     -1.748712   -2.141834   -0.284025
  H     -2.200120   -1.005148   -1.545202
  N     -4.036668   -1.688298    0.551603
  C     -3.724884    0.701256   -0.072383
  H     -2.653982   -0.396263    1.400516
  O     -4.915993    0.773630   -0.271523
  O     -2.924027    1.735517   -0.219627
  H     -1.955593    1.465136   -0.056016
  H      2.169615    1.807037    1.812269
  H     -4.871798   -1.321468    0.996043
  H     -4.341391   -1.983287   -0.371112

 Total Charge           Charge          ....   -1
 Multiplicity           Mult            ....    1
 Number of Electrons    NEL             ....  126
 Basis Dimension        Dim             .... 1710

ORBITAL ENERGIES
----------------

  NO   OCC          E(Eh)            E(eV)
   0   2.0000    -104.602347     -2846.3746
   1   2.0000     -20.496569      -557.7400
   2   2.0000     -20.471961      -557.0704
   3   2.0000     -20.433414      -556.0215
   4   2.0000     -20.429990      -555.9283
   5   2.0000     -20.429326      -555.9102
   6   2.0000     -20.421561      -555.6989
   7   2.0000     -15.457746      -420.6267
   8   2.0000     -11.285140      -307.0843
   9   2.0000     -11.267145      -306.5946
  10   2.0000     -11.259980      -306.3996
  11   2.0000     -11.242792      -305.9319
  12   2.0000     -11.183798      -304.3266
  13   2.0000     -11.146933      -303.3235
  14   2.0000     -11.124883      -302.7234
  15   2.0000     -10.328472      -281.0520
  16   2.0000      -7.794966      -212.1118
  17   2.0000      -7.794482      -212.0986
  18   2.0000      -7.794470      -212.0983
  19   2.0000      -1.358706       -36.9723
  20   2.0000      -1.343543       -36.5597
  21   2.0000      -1.313881       -35.7525
  22   2.0000      -1.252412       -34.0799
  23   2.0000      -1.245199       -33.8836
  24   2.0000      -1.209379       -32.9089
  25   2.0000      -1.108033       -30.1511
  26   2.0000      -0.975120       -26.5344
  27   2.0000      -0.936259       -25.4769
  28   2.0000      -0.843669       -22.9574
  29   2.0000      -0.814279       -22.1577
  30   2.0000      -0.806056       -21.9339
  31   2.0000      -0.719686       -19.5836
  32   2.0000      -0.704794       -19.1784
  33   2.0000      -0.647423       -17.6173
  34   2.0000      -0.636773       -17.3275
  35   2.0000      -0.599534       -16.3141
  36   2.0000      -0.590857       -16.0780
  37   2.0000      -0.578550       -15.7432
  38   2.0000      -0.560309       -15.2468
  39   2.0000      -0.549655       -14.9569
  40   2.0000      -0.539583       -14.6828
  41   2.0000      -0.530749       -14.4424
  42   2.0000      -0.512556       -13.9473
  43   2.0000      -0.508580       -13.8392
  44   2.0000      -0.498502       -13.5649
  45   2.0000      -0.480095       -13.0641
  46   2.0000      -0.473624       -12.8880
  47   2.0000      -0.472527       -12.8581
  48   2.0000      -0.461488       -12.5577
  49   2.0000      -0.444354       -12.0915
  50   2.0000      -0.436262       -11.8713
  51   2.0000      -0.412792       -11.2326
  52   2.0000      -0.377804       -10.2806
  53   2.0000      -0.363043        -9.8789
  54   2.0000      -0.351255        -9.5581
  55   2.0000      -0.349866        -9.5203
  56   2.0000      -0.344317        -9.3693
  57   2.0000      -0.335313        -9.1243
  58   2.0000      -0.330267        -8.9870
  59   2.0000      -0.311190        -8.4679
  60   2.0000      -0.250701        -6.8219
  61   2.0000      -0.249295        -6.7837
  62   2.0000      -0.246541        -6.7087
  63   0.0000       0.092888         2.5276
  64   0.0000       0.100915         2.7460
  65   0.0000       0.105833         2.8799
  66   0.0000       0.110830         3.0158
  67   0.0000       0.113143         3.0788

MULLIKEN ATOMIC CHARGES
-----------------------
   0 C :    1.514667
   1 O :   -0.972768
   2 O :   -0.777718
   3 C :    0.291444
   4 C :   -1.040893
   5 H :    0.282715
   6 H :    0.282023
   7 H :    0.420953
   8 Cl:   -0.919042
   9 H :    0.469484
  10 O :   -0.982947
  11 C :    1.130372
  12 O :   -0.979390
  13 C :   -0.585666
  14 C :    0.348024
  15 H :    0.301444
  16 H :    0.315572
  17 N :   -0.910662
  18 C :    1.144853
  19 H :    0.379177
  20 O :   -0.933473
  21 O :   -0.980739
  22 H :    0.487928
  23 H :    0.264012
  24 H :    0.204684
  25 H :    0.245946
Sum of atomic charges:   -1.0000000

LOEWDIN ATOMIC CHARGES
----------------------
   0 C :   -1.278439
   1 O :    0.708014
   2 O :    1.245801
   3 C :   -0.224882
   4 C :    0.813216
   5 H :   -0.280142
   6 H :   -0.339682
   7 H :   -0.376632
   8 Cl:    0.287579
   9 H :   -0.470208
  10 O :    0.762689
  11 C :   -1.116903
  12 O :    0.884217
  13 C :    0.443709
  14 C :   -0.116707
  15 H :   -0.321724
  16 H :   -0.271101
  17 N :    1.269550
  18 C :   -1.052026
  19 H :   -0.303937
  20 O :    0.652779
  21 O :    1.213000
  22 H :   -1.258235
  23 H :   -0.808918
  24 H :   -0.546867
  25 H :   -0.514153

  Mayer bond orders larger than 0.100000
B(  0-C ,  1-O ) :   1.0055 B(  0-C ,  2-O ) :   0.6620 B(  0-C ,  3-C ) :   1.0483
B(  1-O ,  2-O ) :   0.1057 B(  1-O ,  3-C ) :   0.1839 B(  2-O , 23-H ) :   0.9781
B(  3-C ,  4-C ) :   0.8105 B(  3-C ,  8-Cl) :   0.2659 B(  3-C ,  9-H ) :   0.7316
B(  3-C , 10-O ) :   0.2474 B(  4-C ,  5-H ) :   1.0086 B(  4-C ,  6-H ) :   0.9208
B(  4-C ,  7-H ) :   0.8379 B( 10-O , 11-C ) :   1.0219 B( 10-O , 12-O ) :   0.1062
B( 11-C , 12-O ) :   1.1334 B( 11-C , 13-C ) :   0.8134 B( 11-C , 14-C ) :  -0.1800
B( 12-O , 22-H ) :   0.1487 B( 13-C , 14-C ) :   1.0861 B( 13-C , 15-H ) :   0.9588
B( 13-C , 16-H ) :   0.8320 B( 14-C , 17-N ) :   0.4767 B( 14-C , 18-C ) :   1.0419
B( 14-C , 19-H ) :   0.8334 B( 14-C , 20-O ) :   0.1147 B( 17-N , 18-C ) :   0.1224
B( 17-N , 24-H ) :   0.9915 B( 17-N , 25-H ) :   0.8986 B( 18-C , 20-O ) :   1.1378
B( 18-C , 21-O ) :   0.8560 B( 20-O , 21-O ) :   0.1505 B( 21-O , 22-H ) :   0.5661

MP2 TOTAL ENERGY:    -1238.286828762 Eh
FINAL SINGLE POINT ENERGY     -1238.286828762005

DIPOLE MOMENT
-------------
                                X             Y             Z
Electronic contribution:     10.78148       2.29393       3.71199
Nuclear contribution   :    -12.95882      -2.34866      -4.16264
                        -----------------------------------------
Total Dipole Moment    :     -2.17734      -0.05473      -0.45066
                        -----------------------------------------
Magnitude (a.u.)       :      2.22416
Magnitude (Debye)      :      5.65336

Rotational constants in cm-1:     0.044228     0.006887     0.006708
Rotational constants in MHz :  1325.909324   206.468230   201.106853

                             ****ORCA TERMINATED NORMALLY****
TOTAL RUN TIME: 0 days 2 hours 14 minutes 4 seconds 612 msec
