                         Program Version 4.2.1 -  RELEASE  -
|  1> %pal
|  2>  nprocs 32
|  3> end
|  4> !RI-MP2 aug-cc-pVQZ aug-cc-pVQZ/C TightSCF
|  5> %maxcore 4500
|  6> *xyzfile 0 1  02_24R.xyz
|  7>
|  8>
|  9>                          ****END OF INPUT****

CARTESIAN COORDINATES (ANGSTROEM)
---------------------------------
  C      0.788607   -1.612924   -0.901339
  C     -0.613505   -1.468823   -0.400345
  C     -1.318975   -0.341473   -0.481890
  C     -2.685560   -0.184991   -0.007888
  C     -3.376769    0.950734   -0.092451
  C      2.948287    1.296076    0.138993
  C      3.527635    2.523027   -0.390248
  H      3.671956    2.446383   -1.469894
  H      4.499977    2.723552    0.063960
  C      2.477183    0.283056    0.572570
  C     -4.777770    1.141760    0.388762
  H     -5.436434    1.445315   -0.430361
  H     -4.829327    1.931829    1.143805
  C      1.896289   -0.952023    1.104890
  H      0.948053   -0.718008    1.602823
  H      2.565958   -1.387501    1.847264
  H      1.110661   -0.692604   -1.401755
  H      0.860488   -2.433434   -1.617522
  H     -5.177981    0.225634    0.826239
  H      2.879297    3.379931   -0.196690
  O      1.709031   -1.958582    0.127598
  H     -1.053582   -2.350507    0.060539
  H     -0.856666    0.535706   -0.931076
  H     -2.896769    1.816377   -0.545122
  H     -3.150423   -1.060534    0.440680

 Total Charge           Charge          ....    0
 Multiplicity           Mult            ....    1
 Number of Electrons    NEL             ....   82
 Basis Dimension        Dim             .... 1524

ORBITAL ENERGIES
----------------

  NO   OCC          E(Eh)            E(eV)
   0   2.0000     -20.553986      -559.3024
   1   2.0000     -11.291636      -307.2610
   2   2.0000     -11.271832      -306.7221
   3   2.0000     -11.246411      -306.0304
   4   2.0000     -11.235167      -305.7244
   5   2.0000     -11.233791      -305.6870
   6   2.0000     -11.227835      -305.5249
   7   2.0000     -11.224337      -305.4297
   8   2.0000     -11.224191      -305.4258
   9   2.0000     -11.223264      -305.4005
  10   2.0000     -11.213019      -305.1218
  11   2.0000      -1.374074       -37.3905
  12   2.0000      -1.105496       -30.0821
  13   2.0000      -1.065473       -28.9930
  14   2.0000      -1.049839       -28.5676
  15   2.0000      -0.999338       -27.1934
  16   2.0000      -0.960196       -26.1283
  17   2.0000      -0.921416       -25.0730
  18   2.0000      -0.868888       -23.6437
  19   2.0000      -0.773131       -21.0380
  20   2.0000      -0.757859       -20.6224
  21   2.0000      -0.680676       -18.5221
  22   2.0000      -0.673541       -18.3280
  23   2.0000      -0.664671       -18.0866
  24   2.0000      -0.632692       -17.2164
  25   2.0000      -0.622254       -16.9324
  26   2.0000      -0.610768       -16.6199
  27   2.0000      -0.589571       -16.0431
  28   2.0000      -0.588153       -16.0045
  29   2.0000      -0.571559       -15.5529
  30   2.0000      -0.562995       -15.3199
  31   2.0000      -0.548911       -14.9366
  32   2.0000      -0.534127       -14.5343
  33   2.0000      -0.517105       -14.0711
  34   2.0000      -0.497862       -13.5475
  35   2.0000      -0.478337       -13.0162
  36   2.0000      -0.435817       -11.8592
  37   2.0000      -0.432831       -11.7779
  38   2.0000      -0.378421       -10.2974
  39   2.0000      -0.368710       -10.0331
  40   2.0000      -0.313284        -8.5249
  41   0.0000       0.022052         0.6001
  42   0.0000       0.025542         0.6950
  43   0.0000       0.030428         0.8280
  44   0.0000       0.033250         0.9048
  45   0.0000       0.037691         1.0256

MULLIKEN ATOMIC CHARGES
-----------------------
   0 C :   -0.088215
   1 C :   -0.425345
   2 C :   -0.307970
   3 C :   -0.452300
   4 C :   -0.386648
   5 C :   -0.233691
   6 C :   -0.598109
   7 H :    0.206662
   8 H :    0.213203
   9 C :   -0.260264
  10 C :   -0.740701
  11 H :    0.241783
  12 H :    0.226510
  13 C :    0.194273
  14 H :    0.309691
  15 H :    0.477169
  16 H :    0.239974
  17 H :    0.485531
  18 H :    0.237938
  19 H :    0.209879
  20 O :   -1.029984
  21 H :    0.295664
  22 H :    0.406295
  23 H :    0.402469
  24 H :    0.376188
Sum of atomic charges:    0.0000000

LOEWDIN ATOMIC CHARGES
----------------------
   0 C :    0.130112
   1 C :    0.356291
   2 C :    0.342519
   3 C :    0.347362
   4 C :    0.373551
   5 C :    0.166988
   6 C :    0.836800
   7 H :   -0.318061
   8 H :   -0.318270
   9 C :    0.136182
  10 C :    0.888954
  11 H :   -0.294697
  12 H :   -0.294777
  13 C :    0.071695
  14 H :   -0.341859
  15 H :   -0.342313
  16 H :   -0.350352
  17 H :   -0.317603
  18 H :   -0.315024
  19 H :   -0.318559
  20 O :    0.879475
  21 H :   -0.314239
  22 H :   -0.336568
  23 H :   -0.324906
  24 H :   -0.342701

  Mayer bond orders larger than 0.100000
B(  0-C ,  1-C ) :   1.1532 B(  0-C ,  2-C ) :  -0.2136 B(  0-C , 16-H ) :   0.9272
B(  0-C , 17-H ) :   0.7539 B(  0-C , 20-O ) :   0.6982 B(  1-C ,  2-C ) :   1.4444
B(  1-C ,  3-C ) :  -0.3877 B(  1-C , 21-H ) :   0.9231 B(  2-C ,  3-C ) :   0.9653
B(  2-C ,  4-C ) :  -0.4353 B(  2-C , 22-H ) :   0.7812 B(  3-C ,  4-C ) :   1.6168
B(  3-C , 10-C ) :  -0.2134 B(  3-C , 24-H ) :   0.8171 B(  4-C , 10-C ) :   0.9313
B(  4-C , 23-H ) :   0.7779 B(  5-C ,  6-C ) :   0.7232 B(  5-C ,  8-H ) :  -0.1116
B(  5-C ,  9-C ) :   3.0117 B(  6-C ,  7-H ) :   1.0194 B(  6-C ,  8-H ) :   1.0491
B(  6-C , 19-H ) :   1.0170 B(  9-C , 13-C ) :   0.4784 B(  9-C , 15-H ) :  -0.1337
B(  9-C , 20-O ) :   0.1332 B( 10-C , 11-H ) :   0.9993 B( 10-C , 12-H ) :   0.9911
B( 10-C , 18-H ) :   0.9719 B( 13-C , 14-H ) :   0.9432 B( 13-C , 15-H ) :   0.8620
B( 13-C , 20-O ) :   0.6446

MP2 TOTAL ENERGY:     -463.778860448 Eh
FINAL SINGLE POINT ENERGY      -463.778860447795

DIPOLE MOMENT
-------------
                                X             Y             Z
Electronic contribution:      6.56799      -5.17529       0.54967
Nuclear contribution   :     -7.00995       5.97803      -0.62033
                        -----------------------------------------
Total Dipole Moment    :     -0.44197       0.80274      -0.07066
                        -----------------------------------------
Magnitude (a.u.)       :      0.91909
Magnitude (Debye)      :      2.33614

Rotational constants in cm-1:     0.046967     0.014607     0.011992
Rotational constants in MHz :  1408.021891   437.895082   359.500432

                             ****ORCA TERMINATED NORMALLY****
TOTAL RUN TIME: 0 days 1 hours 2 minutes 33 seconds 33 msec
