                         Program Version 4.2.1 -  RELEASE  -
|  1> %pal
|  2>  nprocs 32
|  3> end
|  4> !RI-MP2 aug-cc-pVQZ aug-cc-pVQZ/C TightSCF
|  5> %maxcore 4500
|  6> *xyzfile 0 1  10_76P.xyz
|  7>
|  8>
|  9>                          ****END OF INPUT****

CARTESIAN COORDINATES (ANGSTROEM)
---------------------------------
  C     -0.435590   -1.031723    0.516464
  C     -1.389660   -1.439594   -0.307846
  C      0.663443   -0.109898    0.082591
  C      2.020346   -0.415611    0.721613
  C      3.114908    0.577523    0.258419
  C      2.551625   -1.817752    0.325248
  C     -2.234305    1.473381    0.356290
  C     -1.083031    1.635535   -0.279489
  H     -2.197514    1.297081    1.431247
  C     -3.597058    1.355606   -0.246999
  C      0.239726    1.365119    0.376605
  C      1.338729    2.301706   -0.049206
  C      2.612748    1.936529   -0.119103
  C      3.869653   -0.173368   -0.848215
  C      3.940235   -1.595438   -0.296626
  H      1.878040   -2.265882   -0.409214
  H      2.583543   -2.503207    1.173514
  H      4.185786   -2.341933   -1.054029
  H      4.716078   -1.647649    0.473492
  H      4.847682    0.261863   -1.064350
  H      3.285948   -0.150958   -1.774359
  C     -2.707047   -2.046038    0.055168
  H     -1.268578   -1.220650   -1.368606
  C     -4.322057    0.054921    0.156614
  H     -3.538561    1.429586   -1.337405
  H     -4.220507    2.191068    0.091260
  C     -3.906499   -1.264272   -0.519632
  H     -5.383537    0.202410   -0.062529
  H     -4.259293   -0.062458    1.244882
  H     -2.800696   -2.130578    1.142400
  H     -2.763947   -3.064850   -0.344782
  H     -3.732455   -1.083154   -1.586837
  H     -4.772260   -1.931144   -0.471789
  H     -0.539627   -1.201165    1.588078
  H     -1.074297    1.778051   -1.359290
  H      1.051733    3.316529   -0.307628
  H      3.357951    2.657275   -0.445276
  H      0.097624    1.455674    1.461621
  H      0.770064   -0.190628   -1.005988
  H      1.897142   -0.342132    1.806779
  H      3.822684    0.707097    1.087436

 Total Charge           Charge          ....    0
 Multiplicity           Mult            ....    1
 Number of Electrons    NEL             ....  126
 Basis Dimension        Dim             .... 2464

ORBITAL ENERGIES
----------------

  NO   OCC          E(Eh)            E(eV)
   0   2.0000     -11.226044      -305.4762
   1   2.0000     -11.221736      -305.3589
   2   2.0000     -11.220624      -305.3287
   3   2.0000     -11.220349      -305.3212
   4   2.0000     -11.219999      -305.3117
   5   2.0000     -11.219683      -305.3031
   6   2.0000     -11.219679      -305.3030
   7   2.0000     -11.216608      -305.2194
   8   2.0000     -11.216320      -305.2116
   9   2.0000     -11.214494      -305.1619
  10   2.0000     -11.214287      -305.1563
  11   2.0000     -11.213895      -305.1456
  12   2.0000     -11.211088      -305.0692
  13   2.0000     -11.210249      -305.0464
  14   2.0000     -11.209786      -305.0338
  15   2.0000     -11.208568      -305.0006
  16   2.0000     -11.207239      -304.9645
  17   2.0000      -1.153450       -31.3870
  18   2.0000      -1.108632       -30.1674
  19   2.0000      -1.081010       -29.4158
  20   2.0000      -1.068370       -29.0718
  21   2.0000      -1.042437       -28.3662
  22   2.0000      -0.995682       -27.0939
  23   2.0000      -0.976401       -26.5692
  24   2.0000      -0.943846       -25.6833
  25   2.0000      -0.934049       -25.4168
  26   2.0000      -0.863095       -23.4860
  27   2.0000      -0.836533       -22.7632
  28   2.0000      -0.786972       -21.4146
  29   2.0000      -0.774252       -21.0685
  30   2.0000      -0.772559       -21.0224
  31   2.0000      -0.755852       -20.5678
  32   2.0000      -0.738529       -20.0964
  33   2.0000      -0.698137       -18.9973
  34   2.0000      -0.665304       -18.1038
  35   2.0000      -0.640818       -17.4376
  36   2.0000      -0.624836       -17.0026
  37   2.0000      -0.622223       -16.9315
  38   2.0000      -0.616959       -16.7883
  39   2.0000      -0.603110       -16.4115
  40   2.0000      -0.595585       -16.2067
  41   2.0000      -0.580178       -15.7874
  42   2.0000      -0.565251       -15.3813
  43   2.0000      -0.561434       -15.2774
  44   2.0000      -0.559076       -15.2132
  45   2.0000      -0.530909       -14.4468
  46   2.0000      -0.520693       -14.1688
  47   2.0000      -0.516465       -14.0537
  48   2.0000      -0.500770       -13.6266
  49   2.0000      -0.486806       -13.2467
  50   2.0000      -0.479594       -13.0504
  51   2.0000      -0.477830       -13.0024
  52   2.0000      -0.472994       -12.8708
  53   2.0000      -0.471930       -12.8419
  54   2.0000      -0.464196       -12.6314
  55   2.0000      -0.461479       -12.5575
  56   2.0000      -0.457819       -12.4579
  57   2.0000      -0.445434       -12.1209
  58   2.0000      -0.434670       -11.8280
  59   2.0000      -0.422996       -11.5103
  60   2.0000      -0.358106        -9.7446
  61   2.0000      -0.334705        -9.1078
  62   2.0000      -0.319197        -8.6858
  63   0.0000       0.023171         0.6305
  64   0.0000       0.025736         0.7003
  65   0.0000       0.027261         0.7418
  66   0.0000       0.028236         0.7683
  67   0.0000       0.035032         0.9533

MULLIKEN ATOMIC CHARGES
-----------------------
   0 C :   -0.413501
   1 C :   -0.411799
   2 C :    1.486946
   3 C :    0.158206
   4 C :    0.139637
   5 C :   -0.767245
   6 C :   -0.486943
   7 C :   -0.125537
   8 H :    0.082168
   9 C :   -0.606255
  10 C :    0.669090
  11 C :   -0.727608
  12 C :   -0.686926
  13 C :   -0.590760
  14 C :   -0.606235
  15 H :    0.191050
  16 H :    0.234381
  17 H :    0.287380
  18 H :    0.111539
  19 H :    0.248207
  20 H :    0.165547
  21 C :   -0.612541
  22 H :    0.078001
  23 C :   -0.501513
  24 H :    0.160560
  25 H :    0.257971
  26 C :   -0.498396
  27 H :    0.193545
  28 H :    0.328184
  29 H :    0.178324
  30 H :    0.260463
  31 H :    0.321841
  32 H :    0.193441
  33 H :    0.100947
  34 H :    0.053391
  35 H :    0.161817
  36 H :    0.091660
  37 H :    0.346430
  38 H :    0.030134
  39 H :    0.184056
  40 H :    0.320344
Sum of atomic charges:    0.0000000

LOEWDIN ATOMIC CHARGES
----------------------
   0 C :    0.384218
   1 C :    0.397315
   2 C :    0.082641
   3 C :    0.155359
   4 C :    0.113665
   5 C :    0.567619
   6 C :    0.388193
   7 C :    0.377501
   8 H :   -0.303207
   9 C :    0.524591
  10 C :    0.083635
  11 C :    0.424459
  12 C :    0.433003
  13 C :    0.536151
  14 C :    0.556079
  15 H :   -0.279518
  16 H :   -0.242653
  17 H :   -0.251221
  18 H :   -0.259953
  19 H :   -0.243497
  20 H :   -0.254374
  21 C :    0.527648
  22 H :   -0.298169
  23 C :    0.546276
  24 H :   -0.288582
  25 H :   -0.276121
  26 C :    0.546673
  27 H :   -0.278957
  28 H :   -0.274939
  29 H :   -0.288166
  30 H :   -0.275597
  31 H :   -0.274863
  32 H :   -0.278911
  33 H :   -0.277350
  34 H :   -0.285664
  35 H :   -0.306871
  36 H :   -0.302039
  37 H :   -0.293531
  38 H :   -0.294993
  39 H :   -0.250486
  40 H :   -0.265365

  Mayer bond orders larger than 0.100000
B(  0-C ,  1-C ) :   1.3730 B(  0-C ,  2-C ) :   0.1935 B(  0-C ,  5-C ) :   0.1038
B(  0-C , 21-C ) :  -0.3670 B(  0-C , 22-H ) :   0.1680 B(  0-C , 33-H ) :   1.1792
B(  1-C ,  2-C ) :  -0.5167 B(  1-C , 21-C ) :   0.6943 B(  1-C , 22-H ) :   1.1287
B(  1-C , 26-C ) :  -0.1366 B(  1-C , 30-H ) :  -0.2031 B(  2-C ,  3-C ) :   0.5302
B(  2-C ,  4-C ) :  -0.1718 B(  2-C ,  5-C ) :  -0.1899 B(  2-C ,  7-C ) :  -0.1260
B(  2-C , 10-C ) :   0.7061 B(  2-C , 22-H ) :  -0.1112 B(  2-C , 38-H ) :   1.0680
B(  3-C ,  4-C ) :   0.7640 B(  3-C ,  5-C ) :   0.6367 B(  3-C , 10-C ) :   0.2359
B(  3-C , 13-C ) :  -0.1330 B(  3-C , 14-C ) :  -0.1080 B(  3-C , 15-H ) :  -0.1224
B(  3-C , 39-H ) :   0.9756 B(  3-C , 40-H ) :  -0.1218 B(  4-C , 10-C ) :   0.2807
B(  4-C , 11-C ) :  -0.1274 B(  4-C , 12-C ) :   0.7358 B(  4-C , 13-C ) :   0.7418
B(  4-C , 40-H ) :   1.0246 B(  5-C , 14-C ) :   0.9027 B(  5-C , 15-H ) :   1.0184
B(  5-C , 16-H ) :   1.0323 B(  6-C ,  7-C ) :   1.4140 B(  6-C ,  8-H ) :   1.2162
B(  6-C ,  9-C ) :   0.7788 B(  6-C , 10-C ) :  -0.4683 B(  6-C , 25-H ) :  -0.1815
B(  7-C ,  9-C ) :  -0.3662 B(  7-C , 10-C ) :   0.4235 B(  7-C , 11-C ) :  -0.2252
B(  7-C , 34-H ) :   1.2299 B(  7-C , 37-H ) :  -0.1547 B(  9-C , 23-C ) :   0.9928
B(  9-C , 24-H ) :   1.0403 B(  9-C , 25-H ) :   1.0279 B( 10-C , 11-C ) :   0.5341
B( 10-C , 12-C ) :  -0.3542 B( 10-C , 34-H ) :  -0.1071 B( 10-C , 37-H ) :   0.9039
B( 11-C , 12-C ) :   1.6781 B( 11-C , 35-H ) :   1.1772 B( 11-C , 36-H ) :  -0.2386
B( 12-C , 35-H ) :  -0.1803 B( 12-C , 36-H ) :   1.3492 B( 12-C , 40-H ) :  -0.2105
B( 13-C , 14-C ) :   0.9209 B( 13-C , 19-H ) :   0.9848 B( 13-C , 20-H ) :   1.0604
B( 14-C , 17-H ) :   0.9166 B( 14-C , 18-H ) :   1.1508 B( 21-C , 26-C ) :   1.0502
B( 21-C , 29-H ) :   1.0393 B( 21-C , 30-H ) :   1.0188 B( 23-C , 26-C ) :   0.8191
B( 23-C , 27-H ) :   1.0662 B( 23-C , 28-H ) :   0.8567 B( 26-C , 31-H ) :   0.8632
B( 26-C , 32-H ) :   1.0784 B( 37-H , 38-H ) :   0.1252

MP2 TOTAL ENERGY:     -660.955588275 Eh
FINAL SINGLE POINT ENERGY      -660.955588275202

DIPOLE MOMENT
-------------
                                X             Y             Z
Electronic contribution:      4.00333       4.80323       1.16557
Nuclear contribution   :     -4.20370      -5.01476      -1.13084
                        -----------------------------------------
Total Dipole Moment    :     -0.20037      -0.21153       0.03473
                        -----------------------------------------
Magnitude (a.u.)       :      0.29342
Magnitude (Debye)      :      0.74582

Rotational constants in cm-1:     0.031681     0.009432     0.007680
Rotational constants in MHz :   949.779967   282.750363   230.236695

                             ****ORCA TERMINATED NORMALLY****
TOTAL RUN TIME: 0 days 5 hours 36 minutes 25 seconds 893 msec
