                         Program Version 4.2.1 -  RELEASE  -
|  1> %pal
|  2>  nprocs 32
|  3> end
|  4> !RI-MP2 aug-cc-pVQZ aug-cc-pVQZ/C TightSCF
|  5> %maxcore 4500
|  6> *xyzfile -1 1  10_47P.xyz
|  7>
|  8>
|  9>                          ****END OF INPUT****

CARTESIAN COORDINATES (ANGSTROEM)
---------------------------------
  C     -0.198971   -0.734658   -0.555812
  C      1.002421   -1.132745   -1.137383
  C     -0.409000    0.644195   -0.388173
  C      2.060552   -1.691448   -0.216644
  H      2.996701   -1.876555   -0.756756
  C      0.718615    1.458208   -0.068014
  C      2.256371   -0.583263    0.851357
  H      1.498923   -0.728963    1.629426
  C      2.105864    0.858887    0.318252
  H      2.452278    1.544416    1.098684
  H      2.787594    1.013996   -0.525324
  H      1.790021   -2.633719    0.273476
  H      3.233064   -0.669825    1.349640
  O      0.635623    2.698559    0.064161
  C     -1.171811   -1.710524    0.075978
  H     -0.629550   -2.394302    0.742502
  H     -1.609733   -2.341474   -0.706419
  C     -1.785093    1.241130   -0.236120
  H     -1.790885    1.912524    0.631561
  H     -2.051744    1.877618   -1.091355
  C     -2.839464    0.140874   -0.057888
  H     -3.758942    0.560891    0.364895
  H     -3.106345   -0.283037   -1.034306
  C     -2.294384   -0.985905    0.819989
  H     -1.907119   -0.553839    1.750111
  H     -3.087177   -1.690643    1.096145
  H      1.427327   -0.354078   -1.768810

 Total Charge           Charge          ....   -1
 Multiplicity           Mult            ....    1
 Number of Electrons    NEL             ....   90
 Basis Dimension        Dim             .... 1650

ORBITAL ENERGIES
----------------

  NO   OCC          E(Eh)            E(eV)
   0   2.0000     -20.326590      -553.1146
   1   2.0000     -11.133323      -302.9531
   2   2.0000     -11.090751      -301.7947
   3   2.0000     -11.086870      -301.6891
   4   2.0000     -11.083551      -301.5987
   5   2.0000     -11.079875      -301.4987
   6   2.0000     -11.076991      -301.4203
   7   2.0000     -11.076000      -301.3933
   8   2.0000     -11.072465      -301.2971
   9   2.0000     -11.066496      -301.1347
  10   2.0000     -11.024165      -299.9828
  11   2.0000     -11.013324      -299.6878
  12   2.0000      -1.163765       -31.6676
  13   2.0000      -0.985736       -26.8232
  14   2.0000      -0.935369       -25.4527
  15   2.0000      -0.866848       -23.5881
  16   2.0000      -0.862777       -23.4774
  17   2.0000      -0.817329       -22.2407
  18   2.0000      -0.735272       -20.0078
  19   2.0000      -0.707984       -19.2652
  20   2.0000      -0.671907       -18.2835
  21   2.0000      -0.631218       -17.1763
  22   2.0000      -0.584409       -15.9026
  23   2.0000      -0.528482       -14.3807
  24   2.0000      -0.484231       -13.1766
  25   2.0000      -0.482520       -13.1300
  26   2.0000      -0.464674       -12.6444
  27   2.0000      -0.455816       -12.4034
  28   2.0000      -0.441811       -12.0223
  29   2.0000      -0.438424       -11.9301
  30   2.0000      -0.414523       -11.2797
  31   2.0000      -0.402445       -10.9511
  32   2.0000      -0.381999       -10.3947
  33   2.0000      -0.376617       -10.2483
  34   2.0000      -0.363559        -9.8929
  35   2.0000      -0.346179        -9.4200
  36   2.0000      -0.339552        -9.2397
  37   2.0000      -0.332815        -9.0564
  38   2.0000      -0.317998        -8.6532
  39   2.0000      -0.307787        -8.3753
  40   2.0000      -0.302445        -8.2299
  41   2.0000      -0.291912        -7.9433
  42   2.0000      -0.218910        -5.9568
  43   2.0000      -0.166888        -4.5412
  44   2.0000      -0.079346        -2.1591
  45   0.0000       0.095816         2.6073
  46   0.0000       0.101779         2.7696
  47   0.0000       0.106322         2.8932
  48   0.0000       0.110258         3.0003
  49   0.0000       0.116212         3.1623

MULLIKEN ATOMIC CHARGES
-----------------------
   0 C :    0.782266
   1 C :   -0.990941
   2 C :   -0.410376
   3 C :   -0.596472
   4 H :    0.182163
   5 C :    1.519169
   6 C :   -0.507798
   7 H :    0.112940
   8 C :   -0.573856
   9 H :    0.211171
  10 H :    0.174619
  11 H :    0.238522
  12 H :    0.297984
  13 O :   -1.144598
  14 C :   -0.389063
  15 H :    0.219512
  16 H :    0.277699
  17 C :   -0.467814
  18 H :    0.080080
  19 H :    0.243541
  20 C :   -0.559220
  21 H :    0.218687
  22 H :    0.144492
  23 C :   -0.511214
  24 H :    0.164726
  25 H :    0.196486
  26 H :    0.087296
Sum of atomic charges:   -1.0000000

LOEWDIN ATOMIC CHARGES
----------------------
   0 C :   -0.140945
   1 C :    0.329171
   2 C :   -0.116366
   3 C :    0.456581
   4 H :   -0.293613
   5 C :   -0.693422
   6 C :    0.501307
   7 H :   -0.288666
   8 C :    0.459334
   9 H :   -0.339542
  10 H :   -0.290339
  11 H :   -0.297829
  12 H :   -0.271874
  13 O :    0.653794
  14 C :    0.500619
  15 H :   -0.277795
  16 H :   -0.279721
  17 C :    0.452453
  18 H :   -0.306070
  19 H :   -0.272416
  20 C :    0.498535
  21 H :   -0.267477
  22 H :   -0.273208
  23 C :    0.501267
  24 H :   -0.267337
  25 H :   -0.266034
  26 H :   -0.410404

  Mayer bond orders larger than 0.100000
B(  0-C ,  1-C ) :   0.9929 B(  0-C ,  2-C ) :   0.9799 B(  0-C ,  3-C ) :  -0.3527
B(  0-C ,  5-C ) :  -0.1657 B(  0-C , 13-O ) :   0.1054 B(  0-C , 14-C ) :   0.3992
B(  0-C , 16-H ) :  -0.1244 B(  0-C , 17-C ) :  -0.1640 B(  0-C , 23-C ) :  -0.1029
B(  0-C , 26-H ) :  -0.1217 B(  1-C ,  2-C ) :  -0.1774 B(  1-C ,  3-C ) :   1.1539
B(  1-C , 14-C ) :  -0.1513 B(  1-C , 26-H ) :   1.2594 B(  2-C ,  5-C ) :   1.2564
B(  2-C , 13-O ) :   0.6071 B(  2-C , 17-C ) :   0.3695 B(  2-C , 18-H ) :  -0.1324
B(  2-C , 19-H ) :  -0.1529 B(  3-C ,  4-H ) :   1.0327 B(  3-C ,  6-C ) :   0.8311
B(  3-C , 11-H ) :   0.9457 B(  5-C ,  8-C ) :   0.8240 B(  6-C ,  7-H ) :   1.0302
B(  6-C ,  8-C ) :   0.8718 B(  6-C , 12-H ) :   0.9243 B(  8-C ,  9-H ) :   1.0454
B(  8-C , 10-H ) :   1.0097 B(  8-C , 13-O ) :   0.2822 B( 14-C , 15-H ) :   0.9995
B( 14-C , 16-H ) :   1.0221 B( 14-C , 23-C ) :   0.8580 B( 17-C , 18-H ) :   1.1747
B( 17-C , 19-H ) :   1.0276 B( 17-C , 20-C ) :   0.8464 B( 20-C , 21-H ) :   1.0077
B( 20-C , 22-H ) :   1.0567 B( 20-C , 23-C ) :   0.9079 B( 23-C , 24-H ) :   1.0131
B( 23-C , 25-H ) :   1.0300

MP2 TOTAL ENERGY:     -502.519026686 Eh
FINAL SINGLE POINT ENERGY      -502.519026685738

DIPOLE MOMENT
-------------
                                X             Y             Z
Electronic contribution:      1.09793       5.36357      -2.18081
Nuclear contribution   :     -1.78736      -6.73186       3.12761
                        -----------------------------------------
Total Dipole Moment    :     -0.68943      -1.36830       0.94681
                        -----------------------------------------
Magnitude (a.u.)       :      1.80111
Magnitude (Debye)      :      4.57805

Rotational constants in cm-1:     0.044702     0.030389     0.020684
Rotational constants in MHz :  1340.145451   911.035863   620.091261

                             ****ORCA TERMINATED NORMALLY****
TOTAL RUN TIME: 0 days 2 hours 35 minutes 1 seconds 182 msec
