                         Program Version 4.2.1 -  RELEASE  -
|  1> %pal
|  2>  nprocs 32
|  3> end
|  4> !RI-MP2 aug-cc-pVQZ aug-cc-pVQZ/C TightSCF
|  5> %maxcore 4500
|  6> *xyzfile -1 1  09_15TS.xyz
|  7>
|  8>
|  9>                          ****END OF INPUT****

CARTESIAN COORDINATES (ANGSTROEM)
---------------------------------
  C     -1.110588   -0.805645   -0.672096
  C     -1.193374    0.534851   -0.291998
  C     -2.353478    0.966717    0.349155
  C     -3.407843    0.097109    0.588863
  C     -3.318099   -1.233700    0.199233
  C     -2.160499   -1.680149   -0.427930
  C     -0.090266    1.550426   -0.521677
  O     -0.185317    2.639102    0.087287
  C      1.016399    1.180063   -1.294644
  C      2.355324    0.631460    0.363040
  C      2.322789    1.362392    1.377924
  C      3.019073   -0.538222   -0.250777
  O      2.196715   -1.693608   -0.393629
  C      1.703882   -2.174224    0.835305
  H      1.678060    1.977217   -1.609798
  H      0.978086    0.302194   -1.925718
  H      3.363167   -0.311159   -1.260229
  H      3.890425   -0.794656    0.369212
  H      1.688122    2.207659    1.613693
  H      1.097328   -3.053121    0.613931
  H      1.089556   -1.424864    1.341370
  H      2.527429   -2.460569    1.505097
  H     -2.387837    2.004498    0.657143
  H     -4.302698    0.456626    1.086716
  H     -4.137771   -1.918512    0.389041
  H     -2.070785   -2.720736   -0.722458
  H     -0.204177   -1.174996   -1.133675

 Total Charge           Charge          ....   -1
 Multiplicity           Mult            ....    1
 Number of Electrons    NEL             ....  102
 Basis Dimension        Dim             .... 1718

ORBITAL ENERGIES
----------------

  NO   OCC          E(Eh)            E(eV)
   0   2.0000     -20.435218      -556.0706
   1   2.0000     -20.332916      -553.2868
   2   2.0000     -11.160951      -303.7049
   3   2.0000     -11.148585      -303.3684
   4   2.0000     -11.139985      -303.1344
   5   2.0000     -11.122387      -302.6555
   6   2.0000     -11.118171      -302.5408
   7   2.0000     -11.117775      -302.5300
   8   2.0000     -11.109180      -302.2962
   9   2.0000     -11.105667      -302.2005
  10   2.0000     -11.104423      -302.1667
  11   2.0000     -11.089774      -301.7681
  12   2.0000     -11.032380      -300.2063
  13   2.0000     -11.030481      -300.1546
  14   2.0000      -1.253651       -34.1136
  15   2.0000      -1.171300       -31.8727
  16   2.0000      -1.033881       -28.1333
  17   2.0000      -0.909674       -24.7535
  18   2.0000      -0.900741       -24.5104
  19   2.0000      -0.896128       -24.3849
  20   2.0000      -0.828728       -22.5508
  21   2.0000      -0.810756       -22.0618
  22   2.0000      -0.747005       -20.3270
  23   2.0000      -0.714612       -19.4456
  24   2.0000      -0.700166       -19.0525
  25   2.0000      -0.608591       -16.5606
  26   2.0000      -0.575000       -15.6465
  27   2.0000      -0.560794       -15.2600
  28   2.0000      -0.537236       -14.6189
  29   2.0000      -0.533623       -14.5206
  30   2.0000      -0.508022       -13.8240
  31   2.0000      -0.499965       -13.6047
  32   2.0000      -0.479967       -13.0606
  33   2.0000      -0.476444       -12.9647
  34   2.0000      -0.467426       -12.7193
  35   2.0000      -0.441123       -12.0036
  36   2.0000      -0.426576       -11.6077
  37   2.0000      -0.411402       -11.1948
  38   2.0000      -0.401842       -10.9347
  39   2.0000      -0.397485       -10.8161
  40   2.0000      -0.371969       -10.1218
  41   2.0000      -0.363777        -9.8989
  42   2.0000      -0.358692        -9.7605
  43   2.0000      -0.353449        -9.6178
  44   2.0000      -0.312749        -8.5103
  45   2.0000      -0.241053        -6.5594
  46   2.0000      -0.235743        -6.4149
  47   2.0000      -0.221372        -6.0238
  48   2.0000      -0.217140        -5.9087
  49   2.0000      -0.211484        -5.7548
  50   2.0000      -0.101678        -2.7668
  51   0.0000       0.087765         2.3882
  52   0.0000       0.095872         2.6088
  53   0.0000       0.102708         2.7948
  54   0.0000       0.106802         2.9062
  55   0.0000       0.109403         2.9770

MULLIKEN ATOMIC CHARGES
-----------------------
   0 C :   -0.224321
   1 C :   -0.080112
   2 C :   -0.454974
   3 C :   -0.316322
   4 C :   -0.360654
   5 C :   -0.459229
   6 C :    1.290116
   7 O :   -1.094657
   8 C :   -0.767738
   9 C :    0.010438
  10 C :   -1.068132
  11 C :    0.127643
  12 O :   -0.916734
  13 C :   -0.721473
  14 H :    0.194676
  15 H :    0.248418
  16 H :    0.327775
  17 H :    0.386689
  18 H :    0.369334
  19 H :    0.335873
  20 H :    0.345846
  21 H :    0.368527
  22 H :    0.272397
  23 H :    0.219486
  24 H :    0.304621
  25 H :    0.188367
  26 H :    0.474140
Sum of atomic charges:   -1.0000000

LOEWDIN ATOMIC CHARGES
----------------------
   0 C :    0.305979
   1 C :   -0.121097
   2 C :    0.304285
   3 C :    0.324022
   4 C :    0.309194
   5 C :    0.330189
   6 C :   -0.804330
   7 O :    0.661118
   8 C :    0.545218
   9 C :   -0.080282
  10 C :    0.531586
  11 C :    0.036870
  12 O :    0.864872
  13 C :    0.521178
  14 H :   -0.362860
  15 H :   -0.401962
  16 H :   -0.355245
  17 H :   -0.340916
  18 H :   -0.547688
  19 H :   -0.325168
  20 H :   -0.340401
  21 H :   -0.303069
  22 H :   -0.367615
  23 H :   -0.333654
  24 H :   -0.335704
  25 H :   -0.328404
  26 H :   -0.386117

  Mayer bond orders larger than 0.100000
B(  0-C ,  1-C ) :   1.0173 B(  0-C ,  4-C ) :  -0.1444 B(  0-C ,  5-C ) :   1.2108
B(  0-C ,  6-C ) :  -0.2518 B(  0-C , 25-H ) :  -0.1194 B(  0-C , 26-H ) :   0.7592
B(  1-C ,  2-C ) :   1.1482 B(  1-C ,  3-C ) :  -0.4197 B(  1-C ,  5-C ) :  -0.3665
B(  1-C ,  6-C ) :   0.9280 B(  1-C ,  7-O ) :   0.5005 B(  1-C , 26-H ) :  -0.1548
B(  2-C ,  3-C ) :   1.2789 B(  2-C ,  5-C ) :   0.1652 B(  2-C ,  6-C ) :  -0.3404
B(  2-C ,  7-O ) :  -0.1345 B(  2-C , 22-H ) :   0.8867 B(  2-C , 23-H ) :  -0.1891
B(  3-C ,  4-C ) :   1.1648 B(  3-C , 23-H ) :   1.1732 B(  4-C ,  5-C ) :   1.2402
B(  4-C , 23-H ) :  -0.1132 B(  4-C , 24-H ) :   1.0312 B(  5-C , 24-H ) :  -0.1037
B(  5-C , 25-H ) :   1.1758 B(  5-C , 26-H ) :  -0.1292 B(  6-C ,  7-O ) :   0.1272
B(  6-C ,  8-C ) :   1.3832 B(  7-O ,  8-C ) :   0.2537 B(  7-O , 22-H ) :   0.1348
B(  8-C ,  9-C ) :   0.1847 B(  8-C , 10-C ) :   0.1140 B(  8-C , 14-H ) :   1.0198
B(  8-C , 15-H ) :   1.0126 B(  9-C , 10-C ) :   1.9047 B(  9-C , 11-C ) :   0.7520
B(  9-C , 17-H ) :  -0.1068 B( 10-C , 18-H ) :   0.8518 B( 11-C , 12-O ) :   0.5994
B( 11-C , 16-H ) :   0.9085 B( 11-C , 17-H ) :   0.8543 B( 12-O , 13-C ) :   0.8059
B( 13-C , 19-H ) :   0.9400 B( 13-C , 20-H ) :   0.8012 B( 13-C , 21-H ) :   0.8646

MP2 TOTAL ENERGY:     -614.438357403 Eh
FINAL SINGLE POINT ENERGY      -614.438357402544

DIPOLE MOMENT
-------------
                                X             Y             Z
Electronic contribution:     -4.67969       4.34580      -1.37645
Nuclear contribution   :      3.24834      -6.91196       0.92169
                        -----------------------------------------
Total Dipole Moment    :     -1.43135      -2.56616      -0.45476
                        -----------------------------------------
Magnitude (a.u.)       :      2.97334
Magnitude (Debye)      :      7.55764

Rotational constants in cm-1:     0.033591     0.017317     0.013075
Rotational constants in MHz :  1007.029044   519.149345   391.973476

                             ****ORCA TERMINATED NORMALLY****
TOTAL RUN TIME: 0 days 2 hours 49 minutes 48 seconds 528 msec
