                         Program Version 4.2.1 -  RELEASE  -
|  1> %pal
|  2>  nprocs 32
|  3> end
|  4> !RI-MP2 aug-cc-pVQZ aug-cc-pVQZ/C TightSCF
|  5> %maxcore 4500
|  6> *xyzfile 0 2  04_4TS.xyz
|  7>
|  8>
|  9>                          ****END OF INPUT****

CARTESIAN COORDINATES (ANGSTROEM)
---------------------------------
  C     -1.577597    0.171599   -0.293843
  H     -2.611440    0.425027   -0.029407
  H     -1.534900    0.161820   -1.387508
  C     -0.643560    1.261683    0.241174
  H     -1.033735    2.235720   -0.066435
  C      1.563290   -0.073494    0.277998
  H      2.624336    0.014023    0.016478
  O      1.159308   -1.284082   -0.308387
  H     -0.671150    1.254174    1.337750
  H      1.507203   -0.129333    1.375017
  C      0.809589    1.152717   -0.226500
  C     -1.258011   -1.203285    0.235097
  H     -0.051414   -1.423467   -0.042088
  H     -1.774207   -2.026332   -0.257531
  H     -1.293345   -1.292341    1.321842
  H      0.849790    1.158234   -1.320755
  H      1.352130    2.039810    0.116181

 Total Charge           Charge          ....    0
 Multiplicity           Mult            ....    2
 Number of Electrons    NEL             ....   49
 Basis Dimension        Dim             ....  986

ORBITAL ENERGIES
----------------
                 SPIN UP ORBITALS
  NO   OCC          E(Eh)            E(eV)
   0   1.0000     -20.587279      -560.2083
   1   1.0000     -11.272050      -306.7281
   2   1.0000     -11.230542      -305.5986
   3   1.0000     -11.222589      -305.3822
   4   1.0000     -11.221816      -305.3611
   5   1.0000     -11.221436      -305.3508
   6   1.0000      -1.381699       -37.5979
   7   1.0000      -1.086409       -29.5627
   8   1.0000      -1.022028       -27.8108
   9   1.0000      -0.915821       -24.9207
  10   1.0000      -0.855108       -23.2687
  11   1.0000      -0.775443       -21.1009
  12   1.0000      -0.712833       -19.3972
  13   1.0000      -0.644120       -17.5274
  14   1.0000      -0.625094       -17.0097
  15   1.0000      -0.604612       -16.4523
  16   1.0000      -0.594578       -16.1793
  17   1.0000      -0.586350       -15.9554
  18   1.0000      -0.540085       -14.6965
  19   1.0000      -0.518181       -14.1004
  20   1.0000      -0.490732       -13.3535
  21   1.0000      -0.469458       -12.7746
  22   1.0000      -0.462462       -12.5842
  23   1.0000      -0.442652       -12.0452
  24   1.0000      -0.402365       -10.9489
  25   0.0000       0.025468         0.6930
  26   0.0000       0.030406         0.8274
  27   0.0000       0.033207         0.9036
  28   0.0000       0.035309         0.9608
  29   0.0000       0.047517         1.2930

                 SPIN DOWN ORBITALS
  NO   OCC          E(Eh)            E(eV)
   0   1.0000     -20.555187      -559.3351
   1   1.0000     -11.273722      -306.7736
   2   1.0000     -11.223201      -305.3988
   3   1.0000     -11.222108      -305.3691
   4   1.0000     -11.221227      -305.3451
   5   1.0000     -11.216029      -305.2037
   6   1.0000      -1.285044       -34.9678
   7   1.0000      -1.077431       -29.3184
   8   1.0000      -1.004648       -27.3379
   9   1.0000      -0.892630       -24.2897
  10   1.0000      -0.832215       -22.6457
  11   1.0000      -0.768688       -20.9171
  12   1.0000      -0.642536       -17.4843
  13   1.0000      -0.632515       -17.2116
  14   1.0000      -0.617092       -16.7919
  15   1.0000      -0.582240       -15.8435
  16   1.0000      -0.576190       -15.6789
  17   1.0000      -0.553228       -15.0541
  18   1.0000      -0.512010       -13.9325
  19   1.0000      -0.498250       -13.5581
  20   1.0000      -0.480470       -13.0743
  21   1.0000      -0.467409       -12.7189
  22   1.0000      -0.429358       -11.6834
  23   1.0000      -0.420825       -11.4512
  24   0.0000       0.025527         0.6946
  25   0.0000       0.030459         0.8288
  26   0.0000       0.033192         0.9032
  27   0.0000       0.035386         0.9629
  28   0.0000       0.047273         1.2864

MULLIKEN ATOMIC CHARGES AND SPIN POPULATIONS
--------------------------------------------
   0 C :   -0.399717   -0.069879
   1 H :    0.295869    0.033338
   2 H :    0.214288    0.002448
   3 C :   -0.368865    0.007015
   4 H :    0.273286    0.000040
   5 C :    0.021123   -0.109977
   6 H :    0.361362    0.052089
   7 O :   -0.828119    0.801402
   8 H :    0.201224   -0.001498
   9 H :    0.152563    0.008934
  10 C :   -0.539846    0.016543
  11 C :   -0.570906    0.632925
  12 H :    0.249394   -0.302802
  13 H :    0.266319   -0.027972
  14 H :    0.162748   -0.036475
  15 H :    0.234472   -0.002754
  16 H :    0.274804   -0.003375
Sum of atomic charges         :   -0.0000000

LOEWDIN ATOMIC CHARGES AND SPIN POPULATIONS
-------------------------------------------
   0 C :    0.521347    0.039445
   1 H :   -0.270231    0.012067
   2 H :   -0.271662    0.001154
   3 C :    0.518303   -0.000003
   4 H :   -0.270467    0.000789
   5 C :    0.160732    0.063793
   6 H :   -0.319048    0.020304
   7 O :    1.134867    0.504672
   8 H :   -0.271813    0.000281
   9 H :   -0.292225   -0.002748
  10 C :    0.513404   -0.002856
  11 C :    0.859472    0.187177
  12 H :   -0.962002    0.080210
  13 H :   -0.248686    0.049517
  14 H :   -0.251519    0.047022
  15 H :   -0.274790   -0.000890
  16 H :   -0.275683    0.000064

  Mayer bond orders larger than 0.100000
B(  0-C ,  1-H ) :   0.8702 B(  0-C ,  2-H ) :   0.9330 B(  0-C ,  3-C ) :   0.8727
B(  0-C , 11-C ) :   1.0203 B(  3-C ,  4-H ) :   0.9227 B(  3-C ,  8-H ) :   0.9231
B(  3-C , 10-C ) :   0.8793 B(  5-C ,  6-H ) :   0.8361 B(  5-C ,  7-O ) :   0.5898
B(  5-C ,  9-H ) :   1.0001 B(  5-C , 10-C ) :   0.9998 B(  7-O , 12-H ) :   0.2595
B( 10-C , 15-H ) :   0.8858 B( 10-C , 16-H ) :   0.9250 B( 11-C , 12-H ) :   0.5326
B( 11-C , 13-H ) :   0.9753 B( 11-C , 14-H ) :   1.0145

MP2 TOTAL ENERGY:     -271.806018045 Eh
FINAL SINGLE POINT ENERGY      -271.806018044502

DIPOLE MOMENT
-------------
                                X             Y             Z
Electronic contribution:      2.51332      -1.91152      -0.84699
Nuclear contribution   :     -2.76520       2.53143       1.11801
                        -----------------------------------------
Total Dipole Moment    :     -0.25188       0.61991       0.27102
                        -----------------------------------------
Magnitude (a.u.)       :      0.72193
Magnitude (Debye)      :      1.83499

Rotational constants in cm-1:     0.148250     0.108677     0.070397
Rotational constants in MHz :  4444.434484  3258.058298  2110.445911

                             ****ORCA TERMINATED NORMALLY****
TOTAL RUN TIME: 0 days 0 hours 49 minutes 52 seconds 941 msec
