                         Program Version 4.2.1 -  RELEASE  -
|  1> %pal
|  2>  nprocs 32
|  3> end
|  4> !RI-MP2 aug-cc-pVQZ aug-cc-pVQZ/C TightSCF
|  5> %maxcore 4500
|  6> *xyzfile 0 2  04_18TS.xyz
|  7>
|  8>
|  9>                          ****END OF INPUT****

CARTESIAN COORDINATES (ANGSTROEM)
---------------------------------
  H     -0.375978   -0.772277   -0.254384
  C     -0.400126    1.532719   -0.276297
  H      0.091092    2.443270    0.086252
  C     -2.543251    0.160244   -0.121762
  H     -3.464516    0.037385    0.448106
  H     -0.603354    1.668409   -1.341216
  H     -2.818522    0.415967   -1.147145
  C     -1.701564    1.279492    0.486195
  H     -2.293666    2.198992    0.480371
  H     -1.474601    1.048342    1.529960
  C      0.565887    0.398000   -0.146204
  C      2.691172   -0.299168   -0.553859
  C      2.254722   -0.625967    0.875023
  H      2.969448   -1.181287   -1.129823
  H      3.498289    0.434369   -0.589646
  H      1.896882   -1.655002    0.969561
  H      3.013037   -0.426189    1.628297
  S     -1.697657   -1.464619   -0.115814
  O      1.521684    0.294615   -1.129857
  O      1.168738    0.274136    1.079122

 Total Charge           Charge          ....    0
 Multiplicity           Mult            ....    2
 Number of Electrons    NEL             ....   79
 Basis Dimension        Dim             .... 1230

ORBITAL ENERGIES
----------------
                 SPIN UP ORBITALS
  NO   OCC          E(Eh)            E(eV)
   0   1.0000     -91.924492     -2501.3926
   1   1.0000     -20.592142      -560.3407
   2   1.0000     -20.590707      -560.3016
   3   1.0000     -11.353400      -308.9417
   4   1.0000     -11.300241      -307.4952
   5   1.0000     -11.299326      -307.4703
   6   1.0000     -11.248330      -306.0826
   7   1.0000     -11.236575      -305.7628
   8   1.0000     -11.231688      -305.6298
   9   1.0000      -8.926993      -242.9158
  10   1.0000      -6.615101      -180.0061
  11   1.0000      -6.606358      -179.7681
  12   1.0000      -6.605310      -179.7396
  13   1.0000      -1.481583       -40.3159
  14   1.0000      -1.367880       -37.2219
  15   1.0000      -1.112054       -30.2605
  16   1.0000      -1.050108       -28.5749
  17   1.0000      -0.986074       -26.8324
  18   1.0000      -0.919650       -25.0250
  19   1.0000      -0.880885       -23.9701
  20   1.0000      -0.822334       -22.3769
  21   1.0000      -0.800789       -21.7906
  22   1.0000      -0.733950       -19.9718
  23   1.0000      -0.709423       -19.3044
  24   1.0000      -0.675396       -18.3785
  25   1.0000      -0.647395       -17.6165
  26   1.0000      -0.617956       -16.8154
  27   1.0000      -0.614606       -16.7243
  28   1.0000      -0.587591       -15.9892
  29   1.0000      -0.564045       -15.3484
  30   1.0000      -0.544527       -14.8173
  31   1.0000      -0.543417       -14.7871
  32   1.0000      -0.523087       -14.2339
  33   1.0000      -0.518456       -14.1079
  34   1.0000      -0.494144       -13.4463
  35   1.0000      -0.471880       -12.8405
  36   1.0000      -0.467459       -12.7202
  37   1.0000      -0.441533       -12.0147
  38   1.0000      -0.337349        -9.1797
  39   1.0000      -0.304805        -8.2942
  40   0.0000       0.021991         0.5984
  41   0.0000       0.026926         0.7327
  42   0.0000       0.033436         0.9098
  43   0.0000       0.033929         0.9233
  44   0.0000       0.042975         1.1694

                 SPIN DOWN ORBITALS
  NO   OCC          E(Eh)            E(eV)
   0   1.0000     -91.920053     -2501.2718
   1   1.0000     -20.588832      -560.2506
   2   1.0000     -20.586010      -560.1738
   3   1.0000     -11.333360      -308.3964
   4   1.0000     -11.300332      -307.4977
   5   1.0000     -11.299487      -307.4747
   6   1.0000     -11.248835      -306.0964
   7   1.0000     -11.236875      -305.7709
   8   1.0000     -11.231224      -305.6171
   9   1.0000      -8.922030      -242.7808
  10   1.0000      -6.604141      -179.7078
  11   1.0000      -6.602579      -179.6653
  12   1.0000      -6.595685      -179.4777
  13   1.0000      -1.467639       -39.9365
  14   1.0000      -1.357172       -36.9305
  15   1.0000      -1.102160       -29.9913
  16   1.0000      -1.042883       -28.3783
  17   1.0000      -0.976039       -26.5594
  18   1.0000      -0.896459       -24.3939
  19   1.0000      -0.878266       -23.8988
  20   1.0000      -0.798287       -21.7225
  21   1.0000      -0.784553       -21.3488
  22   1.0000      -0.713361       -19.4116
  23   1.0000      -0.703564       -19.1449
  24   1.0000      -0.657734       -17.8978
  25   1.0000      -0.633988       -17.2517
  26   1.0000      -0.613130       -16.6841
  27   1.0000      -0.603160       -16.4128
  28   1.0000      -0.562987       -15.3196
  29   1.0000      -0.555063       -15.1040
  30   1.0000      -0.541180       -14.7263
  31   1.0000      -0.532705       -14.4956
  32   1.0000      -0.518881       -14.1195
  33   1.0000      -0.503482       -13.7004
  34   1.0000      -0.493051       -13.4166
  35   1.0000      -0.454233       -12.3603
  36   1.0000      -0.446564       -12.1516
  37   1.0000      -0.424261       -11.5447
  38   1.0000      -0.329016        -8.9530
  39   0.0000       0.021836         0.5942
  40   0.0000       0.026744         0.7277
  41   0.0000       0.033464         0.9106
  42   0.0000       0.033984         0.9247
  43   0.0000       0.043010         1.1704

MULLIKEN ATOMIC CHARGES AND SPIN POPULATIONS
--------------------------------------------
   0 H :   -0.438314   -0.342554
   1 C :   -0.686131   -0.058703
   2 H :    0.234956    0.077061
   3 C :   -0.508533   -0.053149
   4 H :    0.299485    0.005892
   5 H :    0.260730   -0.012724
   6 H :    0.188857   -0.000836
   7 C :   -0.446079    0.026137
   8 H :    0.262362   -0.005279
   9 H :    0.281275   -0.001945
  10 C :    2.043353    0.711951
  11 C :   -0.383461   -0.009378
  12 C :   -0.551932   -0.001940
  13 H :    0.346562    0.005174
  14 H :    0.350071    0.003070
  15 H :    0.324915    0.000489
  16 H :    0.411917   -0.000700
  17 S :   -0.158045    0.510181
  18 O :   -0.933548    0.088655
  19 O :   -0.898441    0.058599
Sum of atomic charges         :   -0.0000000

LOEWDIN ATOMIC CHARGES AND SPIN POPULATIONS
-------------------------------------------
   0 H :   -0.909324    0.094848
   1 C :    0.470498    0.058550
   2 H :   -0.265757    0.018215
   3 C :    0.115523    0.045044
   4 H :   -0.373414    0.009970
   5 H :   -0.285268    0.003188
   6 H :   -0.361785    0.001180
   7 C :    0.434710    0.004107
   8 H :   -0.270063    0.000835
   9 H :   -0.285700    0.000410
  10 C :   -0.842301    0.297722
  11 C :    0.209319    0.005184
  12 C :    0.194018    0.005506
  13 H :   -0.291175   -0.000362
  14 H :   -0.293786    0.001900
  15 H :   -0.288143   -0.000439
  16 H :   -0.291540    0.000384
  17 S :    1.524008    0.236104
  18 O :    0.906017    0.116374
  19 O :    0.904163    0.101282

  Mayer bond orders larger than 0.100000
B(  0-H , 10-C ) :  -0.1101 B(  0-H , 17-S ) :   0.8614 B(  0-H , 19-O ) :   0.1309
B(  1-C ,  2-H ) :   0.9199 B(  1-C ,  5-H ) :   0.9757 B(  1-C ,  7-C ) :   0.9929
B(  1-C , 10-C ) :   0.6412 B(  1-C , 18-O ) :   0.1085 B(  3-C ,  4-H ) :   0.9205
B(  3-C ,  6-H ) :   0.9681 B(  3-C ,  7-C ) :   0.9733 B(  3-C , 17-S ) :   0.9120
B(  7-C ,  8-H ) :   0.9096 B(  7-C ,  9-H ) :   0.8756 B(  7-C , 10-C ) :  -0.1468
B( 10-C , 11-C ) :  -0.1966 B( 10-C , 12-C ) :  -0.1871 B( 10-C , 17-S ) :  -0.1144
B( 10-C , 18-O ) :   0.3367 B( 10-C , 19-O ) :   0.4846 B( 11-C , 12-C ) :   1.3156
B( 11-C , 13-H ) :   0.8427 B( 11-C , 14-H ) :   0.8439 B( 11-C , 18-O ) :   0.8961
B( 11-C , 19-O ) :   0.1077 B( 12-C , 15-H ) :   0.8399 B( 12-C , 16-H ) :   0.8241
B( 12-C , 19-O ) :   0.9027

MP2 TOTAL ENERGY:     -782.754422501 Eh
FINAL SINGLE POINT ENERGY      -782.754422501011

DIPOLE MOMENT
-------------
                                X             Y             Z
Electronic contribution:      0.45570      -3.66491      -0.52462
Nuclear contribution   :      0.53709       4.29963       0.68847
                        -----------------------------------------
Total Dipole Moment    :      0.99279       0.63472       0.16385
                        -----------------------------------------
Magnitude (a.u.)       :      1.18968
Magnitude (Debye)      :      3.02394

Rotational constants in cm-1:     0.078627     0.030753     0.026888
Rotational constants in MHz :  2357.180473   921.951524   806.096229

                             ****ORCA TERMINATED NORMALLY****
TOTAL RUN TIME: 0 days 1 hours 12 minutes 10 seconds 324 msec
