                         Program Version 4.2.1 -  RELEASE  -
|  1> %pal
|  2>  nprocs 32
|  3> end
|  4> !RI-MP2 aug-cc-pVQZ aug-cc-pVQZ/C TightSCF
|  5> %maxcore 4500
|  6> *xyzfile -1 1  07_4TS.xyz
|  7>
|  8>
|  9>                          ****END OF INPUT****

CARTESIAN COORDINATES (ANGSTROEM)
---------------------------------
  C      1.336778   -1.204494   -0.531511
  C      2.349415   -0.330239   -0.004452
  O      3.052841   -0.573518    0.981671
  C      2.456876    1.041883   -0.664148
  C     -1.118565   -0.190813    0.495230
  C     -2.237560   -0.973209    0.107368
  C     -3.130183   -1.702292   -0.271413
  O     -1.035912    1.081763   -0.160735
  C     -2.057856    1.974013    0.189704
  H      1.116842   -1.071025   -1.591201
  H      1.449400   -2.246772   -0.236188
  H      0.169257   -0.795977    0.019881
  H      3.109061    1.682009   -0.069234
  H      1.463491    1.487882   -0.751283
  H      2.872083    0.943601   -1.672381
  H     -3.891188   -2.356756   -0.614296
  H     -1.030037   -0.070324    1.581002
  H     -1.895666    2.905006   -0.362201
  H     -2.043891    2.193596    1.268449
  H     -3.048206    1.573704   -0.064705

 Total Charge           Charge          ....   -1
 Multiplicity           Mult            ....    1
 Number of Electrons    NEL             ....   70
 Basis Dimension        Dim             .... 1226

ORBITAL ENERGIES
----------------

  NO   OCC          E(Eh)            E(eV)
   0   2.0000     -20.405066      -555.2501
   1   2.0000     -20.353802      -553.8551
   2   2.0000     -11.152543      -303.4761
   3   2.0000     -11.135682      -303.0173
   4   2.0000     -11.083777      -301.6049
   5   2.0000     -11.076195      -301.3986
   6   2.0000     -11.075152      -301.3702
   7   2.0000     -11.058464      -300.9161
   8   2.0000     -11.018912      -299.8398
   9   2.0000      -1.217568       -33.1317
  10   2.0000      -1.191604       -32.4252
  11   2.0000      -0.885167       -24.0866
  12   2.0000      -0.868116       -23.6226
  13   2.0000      -0.807103       -21.9624
  14   2.0000      -0.780159       -21.2292
  15   2.0000      -0.725113       -19.7313
  16   2.0000      -0.569242       -15.4899
  17   2.0000      -0.560860       -15.2618
  18   2.0000      -0.515703       -14.0330
  19   2.0000      -0.499316       -13.5871
  20   2.0000      -0.490648       -13.3512
  21   2.0000      -0.464577       -12.6418
  22   2.0000      -0.460738       -12.5373
  23   2.0000      -0.443565       -12.0700
  24   2.0000      -0.424959       -11.5637
  25   2.0000      -0.392040       -10.6679
  26   2.0000      -0.373633       -10.1671
  27   2.0000      -0.354859        -9.6562
  28   2.0000      -0.348865        -9.4931
  29   2.0000      -0.314506        -8.5581
  30   2.0000      -0.285563        -7.7706
  31   2.0000      -0.251074        -6.8321
  32   2.0000      -0.238337        -6.4855
  33   2.0000      -0.234555        -6.3826
  34   2.0000      -0.090050        -2.4504
  35   0.0000       0.097613         2.6562
  36   0.0000       0.104186         2.8350
  37   0.0000       0.113228         3.0811
  38   0.0000       0.116724         3.1762
  39   0.0000       0.120570         3.2809

MULLIKEN ATOMIC CHARGES
-----------------------
   0 C :   -0.834272
   1 C :    0.940356
   2 O :   -0.976477
   3 C :   -1.026328
   4 C :    0.582187
   5 C :   -0.111297
   6 C :   -1.103223
   7 O :   -0.847330
   8 C :   -0.698667
   9 H :    0.172873
  10 H :    0.253700
  11 H :    0.261372
  12 H :    0.303594
  13 H :    0.354980
  14 H :    0.247560
  15 H :    0.268906
  16 H :    0.282893
  17 H :    0.358600
  18 H :    0.271429
  19 H :    0.299144
Sum of atomic charges:   -1.0000000

LOEWDIN ATOMIC CHARGES
----------------------
   0 C :    0.704754
   1 C :   -0.742207
   2 O :    0.637263
   3 C :    0.840897
   4 C :   -0.123372
   5 C :   -0.041039
   6 C :    0.502968
   7 O :    0.796681
   8 C :    0.489411
   9 H :   -0.329383
  10 H :   -0.333310
  11 H :   -0.526549
  12 H :   -0.336240
  13 H :   -0.336192
  14 H :   -0.303751
  15 H :   -0.522943
  16 H :   -0.374586
  17 H :   -0.339036
  18 H :   -0.321824
  19 H :   -0.341542

  Mayer bond orders larger than 0.100000
B(  0-C ,  1-C ) :   1.1438 B(  0-C ,  2-O ) :   0.1575 B(  0-C ,  4-C ) :  -0.1232
B(  0-C ,  9-H ) :   1.0344 B(  0-C , 10-H ) :   1.0006 B(  0-C , 11-H ) :   0.4431
B(  1-C ,  2-O ) :   0.9433 B(  1-C ,  3-C ) :   0.8918 B(  2-O ,  3-C ) :   0.1219
B(  3-C , 12-H ) :   0.9648 B(  3-C , 13-H ) :   0.8284 B(  3-C , 14-H ) :   0.9704
B(  4-C ,  5-C ) :   0.7946 B(  4-C ,  6-C ) :  -0.3232 B(  4-C ,  7-O ) :   0.3490
B(  4-C , 11-H ) :   0.4287 B(  4-C , 16-H ) :   0.9239 B(  5-C ,  6-C ) :   2.4601
B(  5-C ,  7-O ) :   0.1251 B(  5-C , 15-H ) :  -0.1686 B(  6-C , 15-H ) :   1.2394
B(  7-O ,  8-C ) :   0.9642 B(  8-C , 17-H ) :   0.9011 B(  8-C , 18-H ) :   0.9151
B(  8-C , 19-H ) :   0.8889

MP2 TOTAL ENERGY:     -423.021989531 Eh
FINAL SINGLE POINT ENERGY      -423.021989530712

DIPOLE MOMENT
-------------
                                X             Y             Z
Electronic contribution:      0.82447      -3.10171       1.84138
Nuclear contribution   :     -1.72941       4.33403      -2.52648
                        -----------------------------------------
Total Dipole Moment    :     -0.90494       1.23232      -0.68510
                        -----------------------------------------
Magnitude (a.u.)       :      1.67538
Magnitude (Debye)      :      4.25847

Rotational constants in cm-1:     0.075677     0.025278     0.020788
Rotational constants in MHz :  2268.733517   757.825733   623.220199

                             ****ORCA TERMINATED NORMALLY****
TOTAL RUN TIME: 0 days 0 hours 39 minutes 49 seconds 923 msec
