                         Program Version 4.2.1 -  RELEASE  -
|  1> %pal
|  2>  nprocs 32
|  3> end
|  4> !RI-MP2 aug-cc-pVQZ aug-cc-pVQZ/C TightSCF
|  5> %maxcore 4500
|  6> *xyzfile 1 1  05_22P1.xyz
|  7>
|  8>
|  9>                          ****END OF INPUT****

CARTESIAN COORDINATES (ANGSTROEM)
---------------------------------
  C      2.525899    0.502308   -0.000005
  C      1.127332    0.298608   -0.000003
  C      0.302629    1.438687   -0.000013
  C      0.570934   -0.996223    0.000008
  C     -1.069254    1.290502   -0.000009
  H      0.738972    2.430611   -0.000022
  C     -0.796716   -1.142156    0.000011
  H      1.216400   -1.864676    0.000016
  C     -1.581364    0.004747    0.000002
  H     -1.741783    2.136842   -0.000015
  H     -1.272276   -2.113075    0.000019
  O      3.339615   -0.463985   -0.000010
  C      4.784286   -0.247612    0.000004
  H      4.997190    0.820392   -0.000140
  H      5.163712   -0.732829    0.895036
  H      5.163757   -0.733077   -0.894873
  N     -3.064592   -0.160161    0.000005
  O     -3.483185   -1.294343   -0.000008
  O     -3.722298    0.854197    0.000015
  H      2.930642    1.516808   -0.000015

 Total Charge           Charge          ....    1
 Multiplicity           Mult            ....    1
 Number of Electrons    NEL             ....   86
 Basis Dimension        Dim             .... 1328

ORBITAL ENERGIES
----------------

  NO   OCC          E(Eh)            E(eV)
   0   2.0000     -20.847453      -567.2880
   1   2.0000     -20.727474      -564.0233
   2   2.0000     -20.727196      -564.0157
   3   2.0000     -15.980616      -434.8547
   4   2.0000     -11.585786      -315.2653
   5   2.0000     -11.480924      -312.4118
   6   2.0000     -11.480889      -312.4109
   7   2.0000     -11.448503      -311.5296
   8   2.0000     -11.444217      -311.4130
   9   2.0000     -11.441119      -311.3287
  10   2.0000     -11.419900      -310.7513
  11   2.0000     -11.419247      -310.7335
  12   2.0000      -1.744574       -47.4723
  13   2.0000      -1.688063       -45.9345
  14   2.0000      -1.538414       -41.8624
  15   2.0000      -1.370892       -37.3039
  16   2.0000      -1.284795       -34.9611
  17   2.0000      -1.220278       -33.2055
  18   2.0000      -1.201711       -32.7002
  19   2.0000      -1.133002       -30.8305
  20   2.0000      -1.062761       -28.9192
  21   2.0000      -1.027346       -27.9555
  22   2.0000      -0.986134       -26.8341
  23   2.0000      -0.933838       -25.4110
  24   2.0000      -0.922120       -25.0922
  25   2.0000      -0.909891       -24.7594
  26   2.0000      -0.872989       -23.7552
  27   2.0000      -0.858804       -23.3692
  28   2.0000      -0.854033       -23.2394
  29   2.0000      -0.816384       -22.2149
  30   2.0000      -0.812373       -22.1058
  31   2.0000      -0.792793       -21.5730
  32   2.0000      -0.786824       -21.4106
  33   2.0000      -0.743586       -20.2340
  34   2.0000      -0.739133       -20.1128
  35   2.0000      -0.724760       -19.7217
  36   2.0000      -0.690680       -18.7944
  37   2.0000      -0.690098       -18.7785
  38   2.0000      -0.623934       -16.9781
  39   2.0000      -0.620796       -16.8927
  40   2.0000      -0.577292       -15.7089
  41   2.0000      -0.550993       -14.9933
  42   2.0000      -0.527449       -14.3526
  43   0.0000      -0.172205        -4.6859
  44   0.0000      -0.089748        -2.4422
  45   0.0000      -0.073531        -2.0009
  46   0.0000      -0.071604        -1.9484
  47   0.0000      -0.064515        -1.7555

MULLIKEN ATOMIC CHARGES
-----------------------
   0 C :    0.581589
   1 C :    0.035756
   2 C :   -0.029946
   3 C :   -0.043450
   4 C :   -0.166195
   5 H :    0.200265
   6 C :   -0.262922
   7 H :    0.262202
   8 C :   -0.141056
   9 H :    0.347898
  10 H :    0.391019
  11 O :   -0.674381
  12 C :   -0.597508
  13 H :    0.334455
  14 H :    0.340380
  15 H :    0.340376
  16 N :    0.777808
  17 O :   -0.562484
  18 O :   -0.565578
  19 H :    0.431772
Sum of atomic charges:    1.0000000

LOEWDIN ATOMIC CHARGES
----------------------
   0 C :    0.072109
   1 C :   -0.061523
   2 C :    0.388921
   3 C :    0.392815
   4 C :    0.376660
   5 H :   -0.288152
   6 C :    0.377522
   7 H :   -0.294889
   8 C :   -0.241632
   9 H :   -0.336160
  10 H :   -0.336554
  11 O :    0.955182
  12 C :    0.762021
  13 H :   -0.301198
  14 H :   -0.277940
  15 H :   -0.277944
  16 N :   -0.805003
  17 O :    0.586479
  18 O :    0.585803
  19 H :   -0.276517

  Mayer bond orders larger than 0.100000
B(  0-C ,  1-C ) :   1.0269 B(  0-C ,  2-C ) :  -0.4336 B(  0-C ,  3-C ) :  -0.2726
B(  0-C , 11-O ) :   1.0544 B(  0-C , 12-C ) :  -0.1168 B(  0-C , 19-H ) :   0.9203
B(  1-C ,  2-C ) :   0.9013 B(  1-C ,  3-C ) :   0.9518 B(  1-C ,  4-C ) :  -0.3101
B(  1-C ,  6-C ) :  -0.2168 B(  1-C , 11-O ) :   0.1790 B(  1-C , 19-H ) :  -0.1989
B(  2-C ,  4-C ) :   1.2007 B(  2-C ,  5-H ) :   1.1101 B(  2-C ,  6-C ) :   0.1037
B(  2-C ,  8-C ) :  -0.1821 B(  2-C ,  9-H ) :  -0.1084 B(  3-C ,  4-C ) :   0.1005
B(  3-C ,  6-C ) :   1.1721 B(  3-C ,  7-H ) :   0.9936 B(  3-C ,  8-C ) :  -0.2531
B(  3-C , 10-H ) :  -0.1143 B(  4-C ,  5-H ) :  -0.1574 B(  4-C ,  8-C ) :   1.2753
B(  4-C ,  9-H ) :   0.9060 B(  4-C , 16-N ) :  -0.1309 B(  6-C ,  7-H ) :  -0.1169
B(  6-C ,  8-C ) :   1.2848 B(  6-C , 10-H ) :   0.8373 B(  6-C , 16-N ) :  -0.1505
B(  8-C ,  9-H ) :  -0.1044 B(  8-C , 16-N ) :   0.8438 B(  8-C , 17-O ) :   0.2578
B(  8-C , 18-O ) :   0.2904 B( 11-O , 12-C ) :   0.7801 B( 12-C , 13-H ) :   0.8703
B( 12-C , 14-H ) :   0.8940 B( 12-C , 15-H ) :   0.8940 B( 16-N , 17-O ) :   1.2150
B( 16-N , 18-O ) :   1.2083

MP2 TOTAL ENERGY:     -588.821421820 Eh
FINAL SINGLE POINT ENERGY      -588.821421819636

DIPOLE MOMENT
-------------
                                X             Y             Z
Electronic contribution:    -11.20732      -0.58442      -0.00000
Nuclear contribution   :     16.83297       1.42176       0.00001
                        -----------------------------------------
Total Dipole Moment    :      5.62565       0.83734       0.00000
                        -----------------------------------------
Magnitude (a.u.)       :      5.68762
Magnitude (Debye)      :     14.45678

Rotational constants in cm-1:     0.117215     0.013560     0.012182
Rotational constants in MHz :  3514.024922   406.519009   365.217626

                             ****ORCA TERMINATED NORMALLY****
TOTAL RUN TIME: 0 days 0 hours 58 minutes 7 seconds 565 msec
