                         Program Version 4.2.1 -  RELEASE  -
|  1> %pal
|  2>  nprocs 32
|  3> end
|  4> !RI-MP2 aug-cc-pVQZ aug-cc-pVQZ/C TightSCF
|  5> %maxcore 4500
|  6> *xyzfile 1 1  08_12P1.xyz
|  7>
|  8>
|  9>                          ****END OF INPUT****

CARTESIAN COORDINATES (ANGSTROEM)
---------------------------------
  C      3.071230   -1.123568    0.757701
  N      2.609639   -0.341813   -0.443506
  C      1.312758    0.329262   -0.247667
  N      1.362796    1.629899   -0.128587
  C      0.200700    2.280926    0.062354
  N     -1.000504    1.726050    0.138982
  C     -0.997530    0.411771    0.012139
  C      0.143596   -0.389530   -0.185496
  H      0.262310    3.357252    0.158972
  N     -0.190408   -1.713696   -0.277718
  C     -1.492287   -1.710732   -0.142651
  N     -2.042037   -0.467713    0.035584
  H     -2.112492   -2.595711   -0.164149
  C     -3.450492   -0.128625    0.211233
  H     -4.032252   -1.047475    0.203068
  H     -3.778765    0.518192   -0.600554
  H     -3.590194    0.382920    1.161867
  H      3.134617   -0.436516    1.597763
  H      4.046052   -1.552265    0.536180
  H      2.339078   -1.904321    0.947790
  H      2.547345   -0.969512   -1.251246
  H      3.280049    0.401318   -0.668656

 Total Charge           Charge          ....    1
 Multiplicity           Mult            ....    1
 Number of Electrons    NEL             ....   86
 Basis Dimension        Dim             .... 1420

ORBITAL ENERGIES
----------------

  NO   OCC          E(Eh)            E(eV)
   0   2.0000     -15.871710      -431.8912
   1   2.0000     -15.770527      -429.1379
   2   2.0000     -15.726793      -427.9478
   3   2.0000     -15.718002      -427.7086
   4   2.0000     -15.706553      -427.3970
   5   2.0000     -11.500694      -312.9498
   6   2.0000     -11.469652      -312.1051
   7   2.0000     -11.468288      -312.0680
   8   2.0000     -11.459352      -311.8248
   9   2.0000     -11.453511      -311.6659
  10   2.0000     -11.422025      -310.8091
  11   2.0000     -11.401338      -310.2462
  12   2.0000      -1.532382       -41.6982
  13   2.0000      -1.508168       -41.0393
  14   2.0000      -1.448437       -39.4140
  15   2.0000      -1.367774       -37.2190
  16   2.0000      -1.333107       -36.2757
  17   2.0000      -1.207943       -32.8698
  18   2.0000      -1.143029       -31.1034
  19   2.0000      -1.119945       -30.4753
  20   2.0000      -1.056848       -28.7583
  21   2.0000      -1.044143       -28.4126
  22   2.0000      -0.975909       -26.5558
  23   2.0000      -0.955525       -26.0012
  24   2.0000      -0.897472       -24.4215
  25   2.0000      -0.880899       -23.9705
  26   2.0000      -0.852275       -23.1916
  27   2.0000      -0.835214       -22.7273
  28   2.0000      -0.804513       -21.8919
  29   2.0000      -0.786196       -21.3935
  30   2.0000      -0.771591       -20.9960
  31   2.0000      -0.747711       -20.3462
  32   2.0000      -0.744098       -20.2479
  33   2.0000      -0.738695       -20.1009
  34   2.0000      -0.727986       -19.8095
  35   2.0000      -0.700696       -19.0669
  36   2.0000      -0.675668       -18.3859
  37   2.0000      -0.646278       -17.5861
  38   2.0000      -0.613321       -16.6893
  39   2.0000      -0.610610       -16.6156
  40   2.0000      -0.565888       -15.3986
  41   2.0000      -0.524065       -14.2605
  42   2.0000      -0.481306       -13.0970
  43   0.0000      -0.087505        -2.3811
  44   0.0000      -0.067155        -1.8274
  45   0.0000      -0.063276        -1.7218
  46   0.0000      -0.061091        -1.6624
  47   0.0000      -0.055425        -1.5082

MULLIKEN ATOMIC CHARGES
-----------------------
   0 C :   -0.916809
   1 N :   -0.047166
   2 C :    1.112520
   3 N :   -0.872290
   4 C :   -0.171821
   5 N :   -0.795839
   6 C :    1.382988
   7 C :   -0.136428
   8 H :    0.586642
   9 N :   -0.941959
  10 C :    0.037721
  11 N :   -0.481454
  12 H :    0.555295
  13 C :   -0.970256
  14 H :    0.321002
  15 H :    0.341641
  16 H :    0.339834
  17 H :    0.323786
  18 H :    0.398065
  19 H :    0.350819
  20 H :    0.342596
  21 H :    0.241113
Sum of atomic charges:    1.0000000

LOEWDIN ATOMIC CHARGES
----------------------
   0 C :    0.985341
   1 N :    1.140172
   2 C :   -0.392952
   3 N :    0.644364
   4 C :   -0.103940
   5 N :    0.663441
   6 C :   -0.568197
   7 C :   -0.417903
   8 H :   -0.355480
   9 N :    0.638663
  10 C :    0.004241
  11 N :    0.442862
  12 H :   -0.283084
  13 C :    0.860509
  14 H :   -0.285450
  15 H :   -0.264436
  16 H :   -0.265518
  17 H :   -0.236548
  18 H :   -0.230260
  19 H :   -0.260016
  20 H :   -0.334027
  21 H :   -0.381782

  Mayer bond orders larger than 0.100000
B(  0-C ,  1-N ) :   0.8088 B(  0-C , 17-H ) :   0.9275 B(  0-C , 18-H ) :   0.8598
B(  0-C , 19-H ) :   0.8837 B(  1-N ,  2-C ) :   0.7427 B(  1-N , 20-H ) :   0.8701
B(  1-N , 21-H ) :   1.0393 B(  2-C ,  3-N ) :   0.6321 B(  2-C ,  6-C ) :  -0.4305
B(  2-C ,  7-C ) :   1.1741 B(  3-N ,  4-C ) :   1.3832 B(  3-N ,  7-C ) :   0.2594
B(  4-C ,  5-N ) :   1.3847 B(  4-C ,  7-C ) :   0.2814 B(  4-C ,  8-H ) :   0.7233
B(  5-N ,  6-C ) :   0.8032 B(  5-N ,  7-C ) :   0.1308 B(  5-N , 11-N ) :   0.1927
B(  6-C ,  7-C ) :   1.2054 B(  6-C , 10-C ) :   0.1401 B(  6-C , 11-N ) :   0.8927
B(  6-C , 13-C ) :  -0.1893 B(  7-C ,  9-N ) :   0.3449 B(  9-N , 10-C ) :   1.6081
B(  9-N , 11-N ) :   0.1211 B( 10-C , 11-N ) :   1.4158 B( 10-C , 12-H ) :   0.6650
B( 11-N , 13-C ) :   0.7116 B( 13-C , 14-H ) :   0.9010 B( 13-C , 15-H ) :   0.9538
B( 13-C , 16-H ) :   0.9563

MP2 TOTAL ENERGY:     -545.422605278 Eh
FINAL SINGLE POINT ENERGY      -545.422605277531

DIPOLE MOMENT
-------------
                                X             Y             Z
Electronic contribution:     -0.31976       2.72718      -2.06162
Nuclear contribution   :      2.08986      -3.82252       1.90774
                        -----------------------------------------
Total Dipole Moment    :      1.77010      -1.09535      -0.15389
                        -----------------------------------------
Magnitude (a.u.)       :      2.08728
Magnitude (Debye)      :      5.30544

Rotational constants in cm-1:     0.058005     0.026788     0.019193
Rotational constants in MHz :  1738.931254   803.069989   575.394738

                             ****ORCA TERMINATED NORMALLY****
TOTAL RUN TIME: 0 days 1 hours 17 minutes 31 seconds 320 msec
