                         Program Version 4.2.1 -  RELEASE  -
|  1> %pal
|  2>  nprocs 32
|  3> end
|  4> !RI-MP2 aug-cc-pVQZ aug-cc-pVQZ/C TightSCF
|  5> %maxcore 4500
|  6> *xyzfile 0 1  08_8P2.xyz
|  7>
|  8>
|  9>                          ****END OF INPUT****

CARTESIAN COORDINATES (ANGSTROEM)
---------------------------------
  S     -2.965708   -0.392257   -0.297509
  C     -1.405753   -1.056978    0.356953
  C     -3.023551    1.244802    0.481841
  C     -0.203604   -0.766945   -0.520549
  H     -1.531435   -2.138204    0.412944
  H     -1.240626   -0.681832    1.366132
  C      0.309180    0.663811   -0.528120
  O      0.898881   -1.565668   -0.057066
  H     -0.437369   -1.054905   -1.551647
  C      2.125156   -0.856156   -0.146648
  C      1.781929    0.456216   -0.888622
  O      2.589289    1.533368   -0.488777
  H      1.877494    0.309150   -1.967586
  O      0.216363    1.228562    0.767572
  H     -0.222504    1.280175   -1.258414
  N      2.717654   -0.559796    1.132717
  H      2.835982   -1.462570   -0.711027
  H      0.848745    1.958690    0.785577
  H      3.137038    1.191113    0.238943
  H      2.004212   -0.251573    1.786206
  H      3.196450   -1.361200    1.521256
  H     -3.954131    1.706269    0.152854
  H     -2.183797    1.868300    0.185623
  H     -3.038723    1.152688    1.567290

 Total Charge           Charge          ....    0
 Multiplicity           Mult            ....    1
 Number of Electrons    NEL             ....   96
 Basis Dimension        Dim             .... 1482

ORBITAL ENERGIES
----------------

  NO   OCC          E(Eh)            E(eV)
   0   2.0000     -91.940129     -2501.8181
   1   2.0000     -20.566561      -559.6446
   2   2.0000     -20.562942      -559.5461
   3   2.0000     -20.560755      -559.4866
   4   2.0000     -15.561067      -423.4382
   5   2.0000     -11.319900      -308.0301
   6   2.0000     -11.289344      -307.1987
   7   2.0000     -11.288992      -307.1891
   8   2.0000     -11.286672      -307.1260
   9   2.0000     -11.250702      -306.1472
  10   2.0000     -11.243123      -305.9409
  11   2.0000      -8.941888      -243.3211
  12   2.0000      -6.623532      -180.2355
  13   2.0000      -6.622577      -180.2095
  14   2.0000      -6.621776      -180.1877
  15   2.0000      -1.412469       -38.4352
  16   2.0000      -1.377057       -37.4716
  17   2.0000      -1.362495       -37.0754
  18   2.0000      -1.196520       -32.5590
  19   2.0000      -1.080884       -29.4123
  20   2.0000      -1.037568       -28.2337
  21   2.0000      -0.996733       -27.1225
  22   2.0000      -0.921943       -25.0873
  23   2.0000      -0.829307       -22.5666
  24   2.0000      -0.822043       -22.3689
  25   2.0000      -0.784834       -21.3564
  26   2.0000      -0.753569       -20.5056
  27   2.0000      -0.707978       -19.2650
  28   2.0000      -0.683573       -18.6010
  29   2.0000      -0.674428       -18.3521
  30   2.0000      -0.663309       -18.0496
  31   2.0000      -0.632124       -17.2010
  32   2.0000      -0.600567       -16.3423
  33   2.0000      -0.594256       -16.1705
  34   2.0000      -0.587936       -15.9985
  35   2.0000      -0.581584       -15.8257
  36   2.0000      -0.572867       -15.5885
  37   2.0000      -0.565718       -15.3940
  38   2.0000      -0.533637       -14.5210
  39   2.0000      -0.522137       -14.2081
  40   2.0000      -0.497217       -13.5300
  41   2.0000      -0.475647       -12.9430
  42   2.0000      -0.467435       -12.7196
  43   2.0000      -0.454663       -12.3720
  44   2.0000      -0.442028       -12.0282
  45   2.0000      -0.425432       -11.5766
  46   2.0000      -0.416211       -11.3257
  47   2.0000      -0.336601        -9.1594
  48   0.0000       0.022646         0.6162
  49   0.0000       0.028634         0.7792
  50   0.0000       0.029122         0.7924
  51   0.0000       0.035053         0.9538
  52   0.0000       0.040383         1.0989

MULLIKEN ATOMIC CHARGES
-----------------------
   0 S :   -0.059336
   1 C :   -0.653509
   2 C :   -1.078625
   3 C :    0.369119
   4 H :    0.347181
   5 H :    0.224307
   6 C :    0.435139
   7 O :   -1.019219
   8 H :    0.286898
   9 C :    0.331765
  10 C :    0.287801
  11 O :   -1.150910
  12 H :    0.374022
  13 O :   -0.928551
  14 H :    0.423272
  15 N :   -0.737784
  16 H :    0.466163
  17 H :    0.286692
  18 H :    0.408286
  19 H :    0.257963
  20 H :    0.158579
  21 H :    0.421455
  22 H :    0.279160
  23 H :    0.270133
Sum of atomic charges:    0.0000000

LOEWDIN ATOMIC CHARGES
----------------------
   0 S :    1.341028
   1 C :    0.138505
   2 C :    0.553903
   3 C :   -0.317025
   4 H :   -0.371739
   5 H :   -0.375604
   6 C :   -0.251443
   7 O :    0.932564
   8 H :   -0.309420
   9 C :   -0.354180
  10 C :   -0.220090
  11 O :    1.316970
  12 H :   -0.280115
  13 O :    1.312715
  14 H :   -0.274173
  15 N :    1.293731
  16 H :   -0.298088
  17 H :   -0.819624
  18 H :   -0.891320
  19 H :   -0.501311
  20 H :   -0.468453
  21 H :   -0.390205
  22 H :   -0.404577
  23 H :   -0.362048

  Mayer bond orders larger than 0.100000
B(  0-S ,  1-C ) :   0.9988 B(  0-S ,  2-C ) :   1.0210 B(  0-S ,  3-C ) :  -0.1440
B(  1-C ,  3-C ) :   0.7063 B(  1-C ,  4-H ) :   0.9330 B(  1-C ,  5-H ) :   0.9027
B(  2-C , 21-H ) :   0.8438 B(  2-C , 22-H ) :   0.8879 B(  2-C , 23-H ) :   0.9196
B(  3-C ,  6-C ) :   0.8205 B(  3-C ,  7-O ) :   0.5093 B(  3-C ,  8-H ) :   0.9633
B(  6-C ,  9-C ) :  -0.1303 B(  6-C , 10-C ) :   0.9854 B(  6-C , 11-O ) :   0.1964
B(  6-C , 13-O ) :   0.2767 B(  6-C , 14-H ) :   0.8326 B(  7-O ,  9-C ) :   0.4683
B(  7-O , 10-C ) :   0.2469 B(  9-C , 10-C ) :   1.0996 B(  9-C , 11-O ) :   0.1514
B(  9-C , 15-N ) :   0.7480 B(  9-C , 16-H ) :   0.7749 B( 10-C , 11-O ) :   0.1774
B( 10-C , 12-H ) :   0.9332 B( 11-O , 18-H ) :   0.7659 B( 13-O , 17-H ) :   0.9012
B( 15-N , 19-H ) :   0.8964 B( 15-N , 20-H ) :   1.0585

MP2 TOTAL ENERGY:     -913.875172792 Eh
FINAL SINGLE POINT ENERGY      -913.875172791864

DIPOLE MOMENT
-------------
                                X             Y             Z
Electronic contribution:     -0.80045      -2.50960      -2.27317
Nuclear contribution   :      1.46582       2.55883       2.56256
                        -----------------------------------------
Total Dipole Moment    :      0.66538       0.04924       0.28939
                        -----------------------------------------
Magnitude (a.u.)       :      0.72726
Magnitude (Debye)      :      1.84854

Rotational constants in cm-1:     0.063664     0.019181     0.016930
Rotational constants in MHz :  1908.585264   575.027705   507.553735

                             ****ORCA TERMINATED NORMALLY****
TOTAL RUN TIME: 0 days 1 hours 20 minutes 26 seconds 947 msec
