                         Program Version 4.2.1 -  RELEASE  -
|  1> %pal
|  2>  nprocs 32
|  3> end
|  4> !RI-MP2 aug-cc-pVQZ aug-cc-pVQZ/C TightSCF
|  5> %maxcore 4500
|  6> *xyzfile 0 1  02_30P.xyz
|  7>
|  8>
|  9>                          ****END OF INPUT****

CARTESIAN COORDINATES (ANGSTROEM)
---------------------------------
  C     -1.202026    1.311085   -0.038045
  C     -1.540554   -1.103359    0.133960
  N     -2.512680   -0.412621   -0.789838
  N     -2.345810    0.790093   -0.874998
  N     -1.708729   -0.364586    1.443002
  N     -1.538663    0.837338    1.356368
  C     -1.949718   -2.540058    0.310500
  C     -1.198137    2.814674   -0.071675
  H     -1.104120    3.177006   -1.095143
  H     -0.384231    3.217235    0.531320
  H     -2.141315    3.179146    0.334781
  H     -1.365178   -3.015280    1.097692
  H     -1.826478   -3.097423   -0.618061
  H     -3.000625   -2.574887    0.596873
  C      3.283055    0.519851    0.495466
  C      2.783142   -0.914194    0.690370
  C      0.025099    0.546488   -0.472782
  C      2.290690   -1.608867   -0.595678
  C     -0.154213   -0.771742   -0.363969
  C      0.791300   -1.908477   -0.631106
  C      2.218229    1.592652    0.271285
  C      1.244062    1.319493   -0.891696
  H      1.992001   -0.926035    1.447162
  H      2.587051   -1.030353   -1.471553
  H      3.606614   -1.496551    1.110216
  H      2.799416   -2.569918   -0.704992
  H      0.537353   -2.365740   -1.594742
  H      0.595162   -2.683702    0.114018
  H      2.729810    2.541865    0.088378
  H      1.640926    1.729004    1.191382
  H      0.919948    2.271641   -1.310684
  H      1.758589    0.806885   -1.703302
  H      3.867616    0.809920    1.373566
  H      3.983055    0.530330   -0.348430

 Total Charge           Charge          ....    0
 Multiplicity           Mult            ....    1
 Number of Electrons    NEL             ....  118
 Basis Dimension        Dim             .... 2108

ORBITAL ENERGIES
----------------

  NO   OCC          E(Eh)            E(eV)
   0   2.0000     -15.631604      -425.3576
   1   2.0000     -15.630909      -425.3387
   2   2.0000     -15.630009      -425.3142
   3   2.0000     -15.629234      -425.2931
   4   2.0000     -11.307175      -307.6839
   5   2.0000     -11.307131      -307.6827
   6   2.0000     -11.246589      -306.0353
   7   2.0000     -11.244682      -305.9834
   8   2.0000     -11.239870      -305.8524
   9   2.0000     -11.236021      -305.7477
  10   2.0000     -11.228805      -305.5513
  11   2.0000     -11.228441      -305.5414
  12   2.0000     -11.227858      -305.5256
  13   2.0000     -11.227619      -305.5190
  14   2.0000     -11.224461      -305.4331
  15   2.0000     -11.223181      -305.3983
  16   2.0000      -1.432721       -38.9863
  17   2.0000      -1.350991       -36.7623
  18   2.0000      -1.148603       -31.2551
  19   2.0000      -1.137468       -30.9521
  20   2.0000      -1.086962       -29.5777
  21   2.0000      -1.056669       -28.7534
  22   2.0000      -1.020297       -27.7637
  23   2.0000      -0.967310       -26.3218
  24   2.0000      -0.929847       -25.3024
  25   2.0000      -0.926424       -25.2093
  26   2.0000      -0.889279       -24.1985
  27   2.0000      -0.864876       -23.5345
  28   2.0000      -0.812484       -22.1088
  29   2.0000      -0.795104       -21.6359
  30   2.0000      -0.761678       -20.7263
  31   2.0000      -0.731238       -19.8980
  32   2.0000      -0.707811       -19.2605
  33   2.0000      -0.670446       -18.2438
  34   2.0000      -0.636166       -17.3110
  35   2.0000      -0.627643       -17.0790
  36   2.0000      -0.620882       -16.8951
  37   2.0000      -0.605966       -16.4892
  38   2.0000      -0.601995       -16.3811
  39   2.0000      -0.587819       -15.9954
  40   2.0000      -0.578781       -15.7494
  41   2.0000      -0.566861       -15.4251
  42   2.0000      -0.562074       -15.2948
  43   2.0000      -0.553839       -15.0707
  44   2.0000      -0.545737       -14.8503
  45   2.0000      -0.543856       -14.7991
  46   2.0000      -0.531317       -14.4579
  47   2.0000      -0.529642       -14.4123
  48   2.0000      -0.516049       -14.0424
  49   2.0000      -0.504475       -13.7275
  50   2.0000      -0.498343       -13.5606
  51   2.0000      -0.490816       -13.3558
  52   2.0000      -0.475452       -12.9377
  53   2.0000      -0.468600       -12.7513
  54   2.0000      -0.459608       -12.5066
  55   2.0000      -0.446983       -12.1630
  56   2.0000      -0.405361       -11.0304
  57   2.0000      -0.357463        -9.7271
  58   2.0000      -0.353803        -9.6275
  59   0.0000       0.020065         0.5460
  60   0.0000       0.023737         0.6459
  61   0.0000       0.027290         0.7426
  62   0.0000       0.029422         0.8006
  63   0.0000       0.036003         0.9797

MULLIKEN ATOMIC CHARGES
-----------------------
   0 C :    1.835020
   1 C :    1.613510
   2 N :   -0.567826
   3 N :   -0.561768
   4 N :   -0.482855
   5 N :   -0.540633
   6 C :   -1.302571
   7 C :   -1.313064
   8 H :    0.190326
   9 H :    0.157529
  10 H :    0.201398
  11 H :    0.158897
  12 H :    0.179768
  13 H :    0.214070
  14 C :   -0.574412
  15 C :   -0.533626
  16 C :    0.054644
  17 C :   -0.504272
  18 C :    0.305918
  19 C :   -0.494818
  20 C :   -0.548446
  21 C :   -0.313902
  22 H :    0.266765
  23 H :    0.314479
  24 H :    0.224009
  25 H :    0.245881
  26 H :    0.243424
  27 H :    0.167359
  28 H :    0.258452
  29 H :    0.183112
  30 H :    0.243978
  31 H :    0.238651
  32 H :    0.203318
  33 H :    0.237684
Sum of atomic charges:    0.0000000

LOEWDIN ATOMIC CHARGES
----------------------
   0 C :   -0.753042
   1 C :   -0.754286
   2 N :    0.378733
   3 N :    0.381380
   4 N :    0.381305
   5 N :    0.379184
   6 C :    0.874143
   7 C :    0.875812
   8 H :   -0.276550
   9 H :   -0.278141
  10 H :   -0.277263
  11 H :   -0.281712
  12 H :   -0.273367
  13 H :   -0.279982
  14 C :    0.555978
  15 C :    0.568227
  16 C :   -0.058325
  17 C :    0.566512
  18 C :   -0.052597
  19 C :    0.544095
  20 C :    0.567410
  21 C :    0.551855
  22 H :   -0.270843
  23 H :   -0.303648
  24 H :   -0.265251
  25 H :   -0.260659
  26 H :   -0.247706
  27 H :   -0.317676
  28 H :   -0.257641
  29 H :   -0.269128
  30 H :   -0.317606
  31 H :   -0.297476
  32 H :   -0.264759
  33 H :   -0.266976

  Mayer bond orders larger than 0.100000
B(  0-C ,  1-C ) :   0.5697 B(  0-C ,  3-N ) :   0.1288 B(  0-C ,  5-N ) :   0.1705
B(  0-C ,  7-C ) :  -0.5165 B(  0-C ,  8-H ) :  -0.3557 B(  0-C ,  9-H ) :  -0.3293
B(  0-C , 10-H ) :  -0.2901 B(  0-C , 16-C ) :   0.7455 B(  0-C , 18-C ) :  -0.5759
B(  0-C , 21-C ) :  -0.1860 B(  1-C ,  2-N ) :   0.2779 B(  1-C ,  3-N ) :  -0.1199
B(  1-C ,  4-N ) :   0.2046 B(  1-C ,  6-C ) :  -0.5223 B(  1-C , 11-H ) :  -0.3615
B(  1-C , 12-H ) :  -0.3474 B(  1-C , 13-H ) :  -0.2436 B(  1-C , 16-C ) :  -0.5388
B(  1-C , 18-C ) :   0.8281 B(  2-N ,  3-N ) :   1.0388 B(  2-N ,  5-N ) :   0.1240
B(  2-N ,  6-C ) :   0.1976 B(  2-N , 16-C ) :   0.1090 B(  3-N ,  4-N ) :   0.1310
B(  3-N ,  7-C ) :   0.2021 B(  3-N , 18-C ) :   0.2570 B(  4-N ,  5-N ) :   1.0108
B(  4-N ,  6-C ) :   0.1893 B(  5-N ,  7-C ) :   0.1910 B(  6-C , 11-H ) :   1.2724
B(  6-C , 12-H ) :   1.2385 B(  6-C , 13-H ) :   1.1517 B(  7-C ,  8-H ) :   1.2285
B(  7-C ,  9-H ) :   1.2315 B(  7-C , 10-H ) :   1.1839 B( 14-C , 15-C ) :   0.7853
B( 14-C , 20-C ) :   0.7663 B( 14-C , 32-H ) :   1.0391 B( 14-C , 33-H ) :   0.9987
B( 15-C , 17-C ) :   0.8340 B( 15-C , 22-H ) :   0.9764 B( 15-C , 24-H ) :   1.0207
B( 16-C , 17-C ) :   0.1017 B( 16-C , 18-C ) :   1.0054 B( 16-C , 19-C ) :  -0.1008
B( 16-C , 20-C ) :  -0.1832 B( 16-C , 21-C ) :   0.3398 B( 16-C , 30-H ) :  -0.1162
B( 16-C , 31-H ) :  -0.1466 B( 17-C , 18-C ) :  -0.1072 B( 17-C , 19-C ) :   0.8869
B( 17-C , 23-H ) :   0.9849 B( 17-C , 25-H ) :   1.0102 B( 18-C , 21-C ) :  -0.2945
B( 18-C , 26-H ) :  -0.2900 B( 18-C , 27-H ) :  -0.1812 B( 19-C , 26-H ) :   1.0793
B( 19-C , 27-H ) :   1.1993 B( 20-C , 21-C ) :   0.7839 B( 20-C , 28-H ) :   0.9487
B( 20-C , 29-H ) :   1.0408 B( 21-C , 30-H ) :   1.0633 B( 21-C , 31-H ) :   1.1278
B( 26-H , 27-H ) :   0.1055

MP2 TOTAL ENERGY:     -685.863727087 Eh
FINAL SINGLE POINT ENERGY      -685.863727086957

DIPOLE MOMENT
-------------
                                X             Y             Z
Electronic contribution:    -15.90872       1.27557       0.56894
Nuclear contribution   :     17.40791      -1.51448      -0.96933
                        -----------------------------------------
Total Dipole Moment    :      1.49919      -0.23890      -0.40039
                        -----------------------------------------
Magnitude (a.u.)       :      1.57002
Magnitude (Debye)      :      3.99068

Rotational constants in cm-1:     0.027824     0.017846     0.013034
Rotational constants in MHz :   834.138739   534.997131   390.746509

                             ****ORCA TERMINATED NORMALLY****
TOTAL RUN TIME: 0 days 6 hours 26 minutes 5 seconds 481 msec
