                         Program Version 4.2.1 -  RELEASE  -
|  1> %pal
|  2>  nprocs 32
|  3> end
|  4> !RI-MP2 aug-cc-pVQZ aug-cc-pVQZ/C TightSCF
|  5> %maxcore 4500
|  6> *xyzfile -1 1  05_11TS.xyz
|  7>
|  8>
|  9>                          ****END OF INPUT****

CARTESIAN COORDINATES (ANGSTROEM)
---------------------------------
  C     -0.451125    0.168968    2.109998
  N     -1.797170    0.554227    1.887366
  C     -2.251430    1.589635    1.110888
  N     -1.269885    2.286576    0.478314
  C      0.113884    1.937286    0.493382
  C      0.519228    0.977465    1.466603
  H      1.555494    0.854504    1.729311
  O     -3.440340    1.858557    1.000785
  C      0.969585    3.124219    0.207080
  H      0.319732    1.339738   -0.672853
  O      0.565014    4.127960   -0.328966
  O      2.247533    2.940535    0.553174
  N      0.506701    0.249867   -1.474467
  C      1.618146   -0.313686   -0.960617
  C      1.665780   -1.527299   -0.210957
  N      0.477863   -2.187460   -0.001030
  C     -0.703370   -1.623920   -0.459197
  C     -0.668327   -0.453584   -1.233581
  C     -1.867010    0.085973   -1.706635
  C     -1.947368   -2.189804   -0.166272
  C     -3.129077   -1.609813   -0.592444
  C     -3.095734   -0.451677   -1.392950
  C      2.883832    0.366169   -1.217409
  N      3.971388   -0.279707   -0.676524
  C      3.966090   -1.492801    0.033874
  N      2.765307   -2.094031    0.238699
  O      5.035776   -1.936758    0.417811
  O      3.003273    1.414361   -1.833213
  C     -4.361658    0.229738   -1.828565
  H     -5.067785   -0.467261   -2.287854
  H     -4.144556    1.017344   -2.550785
  H     -4.850597    0.697388   -0.969459
  C     -4.445581   -2.205624   -0.178587
  H     -5.031846   -2.525133   -1.045168
  H     -5.050020   -1.473367    0.363617
  H     -4.298192   -3.071593    0.467482
  C      0.444631   -3.384723    0.825739
  H     -0.085673   -3.176253    1.755792
  H      1.472082   -3.651044    1.048589
  H     -0.039558   -4.200084    0.282858
  H      4.874584    0.149877   -0.814559
  H     -1.796925    0.990096   -2.300043
  H     -1.996407   -3.068499    0.460253
  H     -2.501348   -0.010800    2.335357
  H     -1.555393    3.067059   -0.092678
  O     -0.250952   -0.798537    2.843162
  H      2.771562    3.613635    0.099511

 Total Charge           Charge          ....   -1
 Multiplicity           Mult            ....    1
 Number of Electrons    NEL             ....  216
 Basis Dimension        Dim             .... 3182

ORBITAL ENERGIES
----------------

  NO   OCC          E(Eh)            E(eV)
   0   2.0000     -20.513058      -558.1887
   1   2.0000     -20.451949      -556.5258
   2   2.0000     -20.417182      -555.5798
   3   2.0000     -20.413469      -555.4787
   4   2.0000     -20.397714      -555.0500
   5   2.0000     -20.392570      -554.9100
   6   2.0000     -15.516680      -422.2303
   7   2.0000     -15.511150      -422.0799
   8   2.0000     -15.491986      -421.5584
   9   2.0000     -15.491185      -421.5366
  10   2.0000     -15.485319      -421.3769
  11   2.0000     -15.423295      -419.6892
  12   2.0000     -11.293353      -307.3077
  13   2.0000     -11.283470      -307.0388
  14   2.0000     -11.261707      -306.4466
  15   2.0000     -11.253606      -306.2262
  16   2.0000     -11.245293      -306.0000
  17   2.0000     -11.234581      -305.7085
  18   2.0000     -11.203570      -304.8646
  19   2.0000     -11.197036      -304.6868
  20   2.0000     -11.179989      -304.2230
  21   2.0000     -11.168684      -303.9153
  22   2.0000     -11.168238      -303.9032
  23   2.0000     -11.158766      -303.6455
  24   2.0000     -11.153743      -303.5088
  25   2.0000     -11.152095      -303.4639
  26   2.0000     -11.150687      -303.4256
  27   2.0000     -11.146525      -303.3124
  28   2.0000     -11.139616      -303.1244
  29   2.0000     -11.100363      -302.0562
  30   2.0000      -1.375113       -37.4187
  31   2.0000      -1.302101       -35.4320
  32   2.0000      -1.295558       -35.2539
  33   2.0000      -1.270502       -34.5721
  34   2.0000      -1.268048       -34.5053
  35   2.0000      -1.254065       -34.1248
  36   2.0000      -1.235148       -33.6101
  37   2.0000      -1.169200       -31.8155
  38   2.0000      -1.156327       -31.4652
  39   2.0000      -1.143097       -31.1052
  40   2.0000      -1.103326       -30.0230
  41   2.0000      -1.092257       -29.7218
  42   2.0000      -1.067676       -29.0529
  43   2.0000      -0.971646       -26.4398
  44   2.0000      -0.960364       -26.1328
  45   2.0000      -0.957040       -26.0424
  46   2.0000      -0.907836       -24.7035
  47   2.0000      -0.879172       -23.9235
  48   2.0000      -0.866200       -23.5705
  49   2.0000      -0.844809       -22.9884
  50   2.0000      -0.815471       -22.1901
  51   2.0000      -0.780570       -21.2404
  52   2.0000      -0.764832       -20.8121
  53   2.0000      -0.740211       -20.1422
  54   2.0000      -0.735735       -20.0204
  55   2.0000      -0.729852       -19.8603
  56   2.0000      -0.693773       -18.8785
  57   2.0000      -0.663533       -18.0556
  58   2.0000      -0.658921       -17.9302
  59   2.0000      -0.639420       -17.3995
  60   2.0000      -0.627331       -17.0706
  61   2.0000      -0.612294       -16.6614
  62   2.0000      -0.608209       -16.5502
  63   2.0000      -0.602081       -16.3835
  64   2.0000      -0.591886       -16.1060
  65   2.0000      -0.581628       -15.8269
  66   2.0000      -0.558799       -15.2057
  67   2.0000      -0.555779       -15.1235
  68   2.0000      -0.540040       -14.6952
  69   2.0000      -0.538901       -14.6643
  70   2.0000      -0.535451       -14.5704
  71   2.0000      -0.531634       -14.4665
  72   2.0000      -0.525055       -14.2875
  73   2.0000      -0.520693       -14.1688
  74   2.0000      -0.516765       -14.0619
  75   2.0000      -0.514350       -13.9962
  76   2.0000      -0.510251       -13.8846
  77   2.0000      -0.500088       -13.6081
  78   2.0000      -0.498645       -13.5688
  79   2.0000      -0.492260       -13.3951
  80   2.0000      -0.477794       -13.0014
  81   2.0000      -0.475655       -12.9432
  82   2.0000      -0.471894       -12.8409
  83   2.0000      -0.464746       -12.6464
  84   2.0000      -0.455760       -12.4019
  85   2.0000      -0.455279       -12.3888
  86   2.0000      -0.444122       -12.0852
  87   2.0000      -0.439718       -11.9653
  88   2.0000      -0.428544       -11.6613
  89   2.0000      -0.421108       -11.4589
  90   2.0000      -0.418163       -11.3788
  91   2.0000      -0.392922       -10.6919
  92   2.0000      -0.391186       -10.6447
  93   2.0000      -0.380753       -10.3608
  94   2.0000      -0.376033       -10.2324
  95   2.0000      -0.356667        -9.7054
  96   2.0000      -0.352716        -9.5979
  97   2.0000      -0.350270        -9.5313
  98   2.0000      -0.323346        -8.7987
  99   2.0000      -0.313308        -8.5255
 100   2.0000      -0.310653        -8.4533
 101   2.0000      -0.309833        -8.4310
 102   2.0000      -0.306927        -8.3519
 103   2.0000      -0.302295        -8.2259
 104   2.0000      -0.264865        -7.2073
 105   2.0000      -0.229097        -6.2341
 106   2.0000      -0.204741        -5.5713
 107   2.0000      -0.146632        -3.9901
 108   0.0000       0.075645         2.0584
 109   0.0000       0.084287         2.2936
 110   0.0000       0.093141         2.5345
 111   0.0000       0.096634         2.6296
 112   0.0000       0.099029         2.6947

MULLIKEN ATOMIC CHARGES
-----------------------
   0 C :    1.952171
   1 N :   -1.018016
   2 C :    2.055650
   3 N :   -0.908270
   4 C :    0.745798
   5 C :   -0.767037
   6 H :    0.188807
   7 O :   -1.189730
   8 C :    1.924921
   9 H :    0.048090
  10 O :   -1.148455
  11 O :   -0.868175
  12 N :   -0.709363
  13 C :   -0.459508
  14 C :    1.295848
  15 N :   -0.454912
  16 C :    1.347587
  17 C :    1.165040
  18 C :   -0.928993
  19 C :   -0.581599
  20 C :    0.746536
  21 C :    0.566791
  22 C :    1.934067
  23 N :   -0.986803
  24 C :    1.191576
  25 N :   -1.032670
  26 O :   -1.062871
  27 O :   -1.142920
  28 C :   -1.251284
  29 H :    0.231556
  30 H :    0.284065
  31 H :    0.112097
  32 C :   -1.181373
  33 H :    0.263191
  34 H :    0.160550
  35 H :    0.246601
  36 C :   -1.358583
  37 H :    0.407089
  38 H :    0.305452
  39 H :    0.320465
  40 H :   -0.086449
  41 H :    0.028898
  42 H :   -0.133344
  43 H :   -0.142780
  44 H :   -0.113462
  45 O :   -1.302119
  46 H :    0.305872
Sum of atomic charges:   -1.0000000

LOEWDIN ATOMIC CHARGES
----------------------
   0 C :   -0.881789
   1 N :    0.777207
   2 C :   -1.026946
   3 N :    0.822354
   4 C :   -0.272158
   5 C :    0.297399
   6 H :   -0.348907
   7 O :    0.697164
   8 C :   -1.020983
   9 H :   -0.693924
  10 O :    0.738610
  11 O :    1.277486
  12 N :    0.733079
  13 C :   -0.330797
  14 C :   -0.505950
  15 N :    0.461927
  16 C :   -0.221802
  17 C :   -0.261154
  18 C :    0.346387
  19 C :    0.368178
  20 C :   -0.042463
  21 C :   -0.059419
  22 C :   -0.900296
  23 N :    0.750939
  24 C :   -1.138093
  25 N :    0.557037
  26 O :    0.616775
  27 O :    0.696982
  28 C :    0.897851
  29 H :   -0.290952
  30 H :   -0.296242
  31 H :   -0.302467
  32 C :    0.914191
  33 H :   -0.280296
  34 H :   -0.277975
  35 H :   -0.299212
  36 C :    0.779959
  37 H :   -0.297467
  38 H :   -0.370959
  39 H :   -0.269742
  40 H :   -0.533741
  41 H :   -0.296822
  42 H :   -0.353506
  43 H :   -0.529280
  44 H :   -0.525034
  45 O :    0.687385
  46 H :   -0.792537

  Mayer bond orders larger than 0.100000
B(  0-C ,  1-N ) :   0.7771 B(  0-C ,  4-C ) :  -0.2534 B(  0-C ,  5-C ) :   1.5240
B(  0-C , 17-C ) :   0.1003 B(  0-C , 43-H ) :  -0.2411 B(  1-N ,  2-C ) :   1.0130
B(  1-N ,  5-C ) :  -0.1145 B(  1-N ,  7-O ) :   0.3931 B(  1-N , 16-C ) :   0.1354
B(  1-N , 43-H ) :   1.3747 B(  1-N , 45-O ) :   0.2873 B(  2-C ,  3-N ) :   1.1183
B(  2-C ,  7-O ) :   0.1079 B(  2-C , 43-H ) :  -0.1368 B(  2-C , 44-H ) :  -0.1567
B(  3-N ,  4-C ) :   0.3880 B(  3-N ,  7-O ) :   0.2791 B(  3-N ,  9-H ) :   0.1753
B(  3-N , 44-H ) :   1.4447 B(  4-C ,  5-C ) :   0.9283 B(  4-C ,  8-C ) :   1.4716
B(  4-C ,  9-H ) :   0.4545 B(  4-C , 10-O ) :   0.5185 B(  4-C , 11-O ) :  -0.1212
B(  4-C , 12-N ) :  -0.1770 B(  4-C , 17-C ) :   0.1526 B(  4-C , 27-O ) :  -0.2316
B(  4-C , 44-H ) :  -0.3116 B(  5-C ,  6-H ) :   1.0358 B(  5-C ,  8-C ) :  -0.3051
B(  5-C ,  9-H ) :   0.1261 B(  5-C , 11-O ) :  -0.1636 B(  5-C , 12-N ) :   0.2173
B(  5-C , 14-C ) :   0.1120 B(  5-C , 45-O ) :   0.3989 B(  7-O , 43-H ) :   0.1028
B(  8-C , 10-O ) :   0.2030 B(  8-C , 11-O ) :   0.7222 B(  9-H , 10-O ) :   0.1579
B(  9-H , 11-O ) :   0.1882 B(  9-H , 12-N ) :  -0.1819 B(  9-H , 17-C ) :   0.2860
B(  9-H , 18-C ) :  -0.1210 B( 10-O , 11-O ) :   0.2661 B( 11-O , 46-H ) :   0.8802
B( 12-N , 13-C ) :   1.3674 B( 12-N , 14-C ) :   0.1386 B( 12-N , 17-C ) :  -0.2752
B( 12-N , 22-C ) :  -0.1199 B( 13-C , 14-C ) :   0.9306 B( 13-C , 15-N ) :  -0.1336
B( 13-C , 16-C ) :  -0.1442 B( 13-C , 17-C ) :  -0.5548 B( 13-C , 22-C ) :   1.8997
B( 13-C , 23-N ) :  -0.2805 B( 13-C , 25-N ) :   0.2111 B( 13-C , 27-O ) :   0.6898
B( 14-C , 15-N ) :   1.3888 B( 14-C , 17-C ) :   0.2514 B( 14-C , 19-C ) :  -0.2317
B( 14-C , 22-C ) :  -0.5494 B( 14-C , 25-N ) :   0.1043 B( 14-C , 45-O ) :  -0.1650
B( 15-N , 16-C ) :   0.3624 B( 15-N , 17-C ) :  -0.1510 B( 15-N , 18-C ) :   0.1259
B( 15-N , 19-C ) :  -0.2389 B( 15-N , 25-N ) :   0.3806 B( 15-N , 36-C ) :   0.9859
B( 15-N , 39-H ) :  -0.1038 B( 16-C , 17-C ) :   1.0747 B( 16-C , 18-C ) :  -0.4317
B( 16-C , 19-C ) :   1.3980 B( 16-C , 20-C ) :  -0.6440 B( 16-C , 21-C ) :   0.2267
B( 16-C , 22-C ) :   0.1261 B( 16-C , 36-C ) :  -0.6013 B( 16-C , 42-H ) :  -0.1607
B( 17-C , 18-C ) :   0.9926 B( 17-C , 19-C ) :  -0.6077 B( 17-C , 20-C ) :   0.3172
B( 17-C , 21-C ) :  -0.4802 B( 17-C , 25-N ) :  -0.1151 B( 17-C , 27-O ) :   0.1545
B( 17-C , 28-C ) :  -0.1011 B( 17-C , 36-C ) :   0.1012 B( 17-C , 41-H ) :  -0.3982
B( 18-C , 19-C ) :   0.3911 B( 18-C , 21-C ) :   1.1050 B( 18-C , 28-C ) :  -0.1348
B( 18-C , 41-H ) :   1.2185 B( 19-C , 20-C ) :   0.6246 B( 19-C , 21-C ) :  -0.3200
B( 19-C , 32-C ) :  -0.2222 B( 19-C , 42-H ) :   1.3609 B( 20-C , 21-C ) :   0.4692
B( 20-C , 28-C ) :  -0.1558 B( 20-C , 31-H ) :   0.1438 B( 20-C , 32-C ) :   0.5437
B( 20-C , 33-H ) :  -0.2664 B( 20-C , 34-H ) :  -0.1985 B( 21-C , 28-C ) :   0.5200
B( 21-C , 29-H ) :  -0.2455 B( 21-C , 31-H ) :  -0.2320 B( 21-C , 34-H ) :   0.1370
B( 22-C , 23-N ) :   0.7820 B( 22-C , 40-H ) :  -0.1982 B( 23-N , 24-C ) :   1.0666
B( 23-N , 26-O ) :   0.1585 B( 23-N , 27-O ) :   0.3468 B( 23-N , 40-H ) :   1.4088
B( 24-C , 25-N ) :   1.5141 B( 24-C , 26-O ) :   0.9172 B( 24-C , 40-H ) :  -0.1397
B( 25-N , 36-C ) :  -0.1535 B( 28-C , 29-H ) :   1.1863 B( 28-C , 30-H ) :   1.0282
B( 28-C , 31-H ) :   1.1708 B( 32-C , 33-H ) :   1.1326 B( 32-C , 34-H ) :   1.1368
B( 32-C , 35-H ) :   1.0617 B( 36-C , 37-H ) :   0.8557 B( 36-C , 38-H ) :   0.9169
B( 36-C , 39-H ) :   1.0356 B( 43-H , 45-O ) :   0.1115

MP2 TOTAL ENERGY:    -1474.041245652 Eh
FINAL SINGLE POINT ENERGY     -1474.041245652425

DIPOLE MOMENT
-------------
                                X             Y             Z
Electronic contribution:     21.93937       9.02093       0.87864
Nuclear contribution   :    -24.69841      -9.57583      -2.09640
                        -----------------------------------------
Total Dipole Moment    :     -2.75904      -0.55490      -1.21776
                        -----------------------------------------
Magnitude (a.u.)       :      3.06645
Magnitude (Debye)      :      7.79430

Rotational constants in cm-1:     0.008230     0.005201     0.004106
Rotational constants in MHz :   246.734347   155.924526   123.089471

                             ****ORCA TERMINATED NORMALLY****
TOTAL RUN TIME: 0 days 22 hours 55 minutes 57 seconds 389 msec
