                         Program Version 4.2.1 -  RELEASE  -
|  1> %pal
|  2>  nprocs 32
|  3> end
|  4> !RI-MP2 aug-cc-pVQZ aug-cc-pVQZ/C TightSCF
|  5> %maxcore 4500
|  6> *xyzfile 1 2  04_6TS.xyz
|  7>
|  8>
|  9>                          ****END OF INPUT****

CARTESIAN COORDINATES (ANGSTROEM)
---------------------------------
  N      0.530440    1.578635    0.320374
  C      0.938365    0.229824    0.742608
  H      0.731307    2.296272    1.018638
  H     -0.501208    1.586211    0.090667
  C      2.160602   -0.157714   -0.051077
  H      0.943083    0.091314    1.819554
  H     -0.049374   -0.562103    0.287143
  O      2.452897    0.539212   -1.008242
  N      2.804039   -1.270742    0.317193
  H      2.574228   -1.784657    1.152571
  C     -1.121393   -1.139482   -0.314612
  C     -2.229528   -0.170252   -0.118743
  H     -0.774496   -1.188770   -1.345581
  H     -1.257997   -2.111507    0.149686
  O     -2.058311    1.037310   -0.083584
  O     -3.409516   -0.729401    0.020970
  H      3.615108   -1.555245   -0.214050
  H     -4.091823   -0.045681    0.127649
  H      1.100986    1.767680   -0.531456

 Total Charge           Charge          ....    1
 Multiplicity           Mult            ....    2
 Number of Electrons    NEL             ....   71
 Basis Dimension        Dim             .... 1180

ORBITAL ENERGIES
----------------
                 SPIN UP ORBITALS
  NO   OCC          E(Eh)            E(eV)
   0   1.0000     -20.770289      -565.1883
   1   1.0000     -20.717306      -563.7466
   2   1.0000     -20.693779      -563.1063
   3   1.0000     -15.838110      -430.9769
   4   1.0000     -15.747037      -428.4986
   5   1.0000     -11.560387      -314.5741
   6   1.0000     -11.527865      -313.6892
   7   1.0000     -11.488199      -312.6098
   8   1.0000     -11.431153      -311.0575
   9   1.0000      -1.638524       -44.5865
  10   1.0000      -1.569146       -42.6986
  11   1.0000      -1.534088       -41.7446
  12   1.0000      -1.467363       -39.9290
  13   1.0000      -1.385140       -37.6916
  14   1.0000      -1.216091       -33.0915
  15   1.0000      -1.167991       -31.7826
  16   1.0000      -1.008183       -27.4340
  17   1.0000      -0.975443       -26.5432
  18   1.0000      -0.953006       -25.9326
  19   1.0000      -0.940716       -25.5982
  20   1.0000      -0.896046       -24.3827
  21   1.0000      -0.875745       -23.8302
  22   1.0000      -0.856989       -23.3198
  23   1.0000      -0.831930       -22.6380
  24   1.0000      -0.824530       -22.4366
  25   1.0000      -0.811557       -22.0836
  26   1.0000      -0.790211       -21.5027
  27   1.0000      -0.754008       -20.5176
  28   1.0000      -0.745994       -20.2995
  29   1.0000      -0.737993       -20.0818
  30   1.0000      -0.725454       -19.7406
  31   1.0000      -0.656172       -17.8553
  32   1.0000      -0.636626       -17.3235
  33   1.0000      -0.618233       -16.8230
  34   1.0000      -0.589405       -16.0385
  35   1.0000      -0.543559       -14.7910
  36   0.0000      -0.089492        -2.4352
  37   0.0000      -0.074837        -2.0364
  38   0.0000      -0.064853        -1.7647
  39   0.0000      -0.061617        -1.6767
  40   0.0000      -0.045688        -1.2432

                 SPIN DOWN ORBITALS
  NO   OCC          E(Eh)            E(eV)
   0   1.0000     -20.769612      -565.1699
   1   1.0000     -20.715714      -563.7032
   2   1.0000     -20.691056      -563.0323
   3   1.0000     -15.839524      -431.0154
   4   1.0000     -15.746772      -428.4914
   5   1.0000     -11.561920      -314.6158
   6   1.0000     -11.529789      -313.7415
   7   1.0000     -11.469575      -312.1030
   8   1.0000     -11.412540      -310.5510
   9   1.0000      -1.636418       -44.5292
  10   1.0000      -1.563822       -42.5538
  11   1.0000      -1.530696       -41.6524
  12   1.0000      -1.462583       -39.7989
  13   1.0000      -1.383163       -37.6378
  14   1.0000      -1.170694       -31.8562
  15   1.0000      -1.131926       -30.8013
  16   1.0000      -0.992534       -27.0082
  17   1.0000      -0.969541       -26.3826
  18   1.0000      -0.949494       -25.8370
  19   1.0000      -0.930267       -25.3138
  20   1.0000      -0.893318       -24.3084
  21   1.0000      -0.868583       -23.6354
  22   1.0000      -0.847216       -23.0539
  23   1.0000      -0.828731       -22.5509
  24   1.0000      -0.813189       -22.1280
  25   1.0000      -0.804117       -21.8811
  26   1.0000      -0.766335       -20.8530
  27   1.0000      -0.745172       -20.2772
  28   1.0000      -0.736255       -20.0345
  29   1.0000      -0.731345       -19.9009
  30   1.0000      -0.683714       -18.6048
  31   1.0000      -0.646369       -17.5886
  32   1.0000      -0.630583       -17.1590
  33   1.0000      -0.609681       -16.5903
  34   1.0000      -0.575867       -15.6701
  35   0.0000      -0.119173        -3.2429
  36   0.0000      -0.088689        -2.4134
  37   0.0000      -0.074398        -2.0245
  38   0.0000      -0.063948        -1.7401
  39   0.0000      -0.061217        -1.6658

MULLIKEN ATOMIC CHARGES AND SPIN POPULATIONS
--------------------------------------------
   0 N :   -0.172917   -0.053190
   1 C :   -0.278655    0.701861
   2 H :    0.225743    0.012814
   3 H :    0.285346    0.017247
   4 C :    0.840492   -0.070732
   5 H :    0.353887   -0.046059
   6 H :    0.288519   -0.288516
   7 O :   -0.866760    0.061085
   8 N :   -0.708657    0.009397
   9 H :    0.347626    0.000536
  10 C :   -0.629054    0.771185
  11 C :    1.174091   -0.068965
  12 H :    0.331010   -0.045935
  13 H :    0.295123   -0.039382
  14 O :   -0.846242    0.031766
  15 O :   -0.715476    0.006517
  16 H :    0.293702   -0.002282
  17 H :    0.394796    0.001730
  18 H :    0.387427    0.000923
Sum of atomic charges         :    1.0000000

LOEWDIN ATOMIC CHARGES AND SPIN POPULATIONS
-------------------------------------------
   0 N :    1.520335    0.036830
   1 C :    0.419082    0.232494
   2 H :   -0.277137    0.006840
   3 H :   -0.685360    0.002999
   4 C :   -0.736464    0.037060
   5 H :   -0.218337    0.054207
   6 H :   -0.570367    0.101603
   7 O :    0.820326    0.039765
   8 N :    1.279869    0.000162
   9 H :   -0.461094    0.000106
  10 C :    0.855264    0.258183
  11 C :   -0.892315    0.059275
  12 H :   -0.248524    0.064873
  13 H :   -0.256235    0.069208
  14 O :    0.899477    0.020618
  15 O :    1.294368    0.010959
  16 H :   -0.460183    0.000227
  17 H :   -0.754170    0.001431
  18 H :   -0.528536    0.003160

  Mayer bond orders larger than 0.100000
B(  0-N ,  1-C ) :   1.0390 B(  0-N ,  2-H ) :   1.0063 B(  0-N ,  3-H ) :   0.9136
B(  0-N , 18-H ) :   0.8225 B(  1-C ,  4-C ) :   1.0498 B(  1-C ,  5-H ) :   0.8980
B(  1-C ,  6-H ) :   0.2829 B(  1-C ,  7-O ) :   0.1179 B(  4-C ,  7-O ) :   1.1831
B(  4-C ,  8-N ) :   1.2376 B(  6-H , 10-C ) :   0.4176 B(  6-H , 11-C ) :  -0.1151
B(  7-O ,  8-N ) :   0.1380 B(  8-N ,  9-H ) :   0.8476 B(  8-N , 16-H ) :   0.9560
B( 10-C , 11-C ) :   1.1305 B( 10-C , 12-H ) :   0.8432 B( 10-C , 13-H ) :   0.9357
B( 11-C , 14-O ) :   1.3746 B( 11-C , 15-O ) :   0.8174 B( 15-O , 17-H ) :   0.8897

MP2 TOTAL ENERGY:     -492.659905679 Eh
FINAL SINGLE POINT ENERGY      -492.659905679184

DIPOLE MOMENT
-------------
                                X             Y             Z
Electronic contribution:     -2.00350       1.35967      -0.99806
Nuclear contribution   :      2.28018      -1.50340       2.56227
                        -----------------------------------------
Total Dipole Moment    :      0.27667      -0.14373       1.56420
                        -----------------------------------------
Magnitude (a.u.)       :      1.59497
Magnitude (Debye)      :      4.05410

Rotational constants in cm-1:     0.103541     0.024697     0.021750
Rotational constants in MHz :  3104.093581   740.399121   652.048435

                             ****ORCA TERMINATED NORMALLY****
TOTAL RUN TIME: 0 days 1 hours 1 minutes 35 seconds 248 msec
