                         Program Version 4.2.1 -  RELEASE  -
|  1> %pal
|  2>  nprocs 32
|  3> end
|  4> !RI-MP2 aug-cc-pVQZ aug-cc-pVQZ/C TightSCF
|  5> %maxcore 4500
|  6> *xyzfile 0 1  06_23R1.xyz
|  7>
|  8>
|  9>                          ****END OF INPUT****

CARTESIAN COORDINATES (ANGSTROEM)
---------------------------------
  C     -5.572372   -0.294702    0.582032
  C     -4.592949   -0.250964   -0.309682
  C     -3.339593    0.557604   -0.177003
  C     -2.075429   -0.304491   -0.177187
  C      0.469788   -0.337531   -0.086075
  C     -0.793620    0.515560   -0.089388
  C      1.752914    0.480807    0.004572
  C      3.016542   -0.371820    0.007972
  C      4.301025    0.445211    0.098797
  C      5.557678   -0.417706    0.101572
  H     -5.528984    0.286316    1.497833
  H     -6.452502   -0.908143    0.431255
  H     -4.676399   -0.852492   -1.213309
  H     -3.279861    1.268373   -1.010183
  H     -3.381989    1.152602    0.740557
  H     -2.121893   -1.006736    0.661861
  H     -2.054238   -0.916127   -1.086551
  H      0.494919   -0.950774   -0.994582
  H      0.429059   -1.041136    0.753671
  H     -0.818061    1.129681    0.818526
  H     -0.754580    1.218176   -0.930237
  H      1.793469    1.184686   -0.835148
  H      1.727579    1.093929    0.913206
  H      2.976577   -1.075975    0.847649
  H      3.042542   -0.985305   -0.900587
  H      4.340219    1.148119   -0.740485
  H      4.274219    1.057594    1.006688
  H      6.462552    0.190211    0.167228
  H      5.558494   -1.107970    0.949463
  H      5.624975   -1.016842   -0.810513

 Total Charge           Charge          ....    0
 Multiplicity           Mult            ....    1
 Number of Electrons    NEL             ....   80
 Basis Dimension        Dim             .... 1720

ORBITAL ENERGIES
----------------

  NO   OCC          E(Eh)            E(eV)
   0   2.0000     -11.227830      -305.5248
   1   2.0000     -11.220804      -305.3336
   2   2.0000     -11.216122      -305.2062
   3   2.0000     -11.214504      -305.1622
   4   2.0000     -11.213615      -305.1380
   5   2.0000     -11.213518      -305.1354
   6   2.0000     -11.212378      -305.1043
   7   2.0000     -11.211713      -305.0862
   8   2.0000     -11.211074      -305.0688
   9   2.0000     -11.208068      -304.9870
  10   2.0000      -1.099463       -29.9179
  11   2.0000      -1.079783       -29.3824
  12   2.0000      -1.046379       -28.4734
  13   2.0000      -1.001124       -27.2420
  14   2.0000      -0.945554       -25.7298
  15   2.0000      -0.881659       -23.9912
  16   2.0000      -0.819437       -22.2980
  17   2.0000      -0.787546       -21.4302
  18   2.0000      -0.784772       -21.3547
  19   2.0000      -0.753190       -20.4953
  20   2.0000      -0.661140       -17.9905
  21   2.0000      -0.644062       -17.5258
  22   2.0000      -0.622097       -16.9281
  23   2.0000      -0.600527       -16.3412
  24   2.0000      -0.588152       -16.0044
  25   2.0000      -0.581493       -15.8232
  26   2.0000      -0.569355       -15.4929
  27   2.0000      -0.543303       -14.7840
  28   2.0000      -0.541267       -14.7286
  29   2.0000      -0.518978       -14.1221
  30   2.0000      -0.502233       -13.6665
  31   2.0000      -0.495691       -13.4884
  32   2.0000      -0.483231       -13.1494
  33   2.0000      -0.473770       -12.8919
  34   2.0000      -0.469125       -12.7655
  35   2.0000      -0.461246       -12.5511
  36   2.0000      -0.458382       -12.4732
  37   2.0000      -0.458211       -12.4686
  38   2.0000      -0.433227       -11.7887
  39   2.0000      -0.358028        -9.7424
  40   0.0000       0.026056         0.7090
  41   0.0000       0.026950         0.7334
  42   0.0000       0.030747         0.8367
  43   0.0000       0.031594         0.8597
  44   0.0000       0.035630         0.9695

MULLIKEN ATOMIC CHARGES
-----------------------
   0 C :   -0.895125
   1 C :   -0.664345
   2 C :   -0.349567
   3 C :   -0.328401
   4 C :   -0.471400
   5 C :   -0.365271
   6 C :   -0.352656
   7 C :   -0.294822
   8 C :   -0.538702
   9 C :   -0.914678
  10 H :    0.297751
  11 H :    0.364660
  12 H :    0.401880
  13 H :    0.290418
  14 H :    0.260583
  15 H :    0.269279
  16 H :    0.223240
  17 H :    0.240948
  18 H :    0.237207
  19 H :    0.248452
  20 H :    0.229731
  21 H :    0.245225
  22 H :    0.248176
  23 H :    0.228550
  24 H :    0.230283
  25 H :    0.222217
  26 H :    0.222815
  27 H :    0.266683
  28 H :    0.223644
  29 H :    0.223226
Sum of atomic charges:    0.0000000

LOEWDIN ATOMIC CHARGES
----------------------
   0 C :    0.796141
   1 C :    0.356705
   2 C :    0.473020
   3 C :    0.510930
   4 C :    0.523618
   5 C :    0.520784
   6 C :    0.520581
   7 C :    0.507214
   8 C :    0.503826
   9 C :    0.923021
  10 H :   -0.354085
  11 H :   -0.358336
  12 H :   -0.320322
  13 H :   -0.275216
  14 H :   -0.298149
  15 H :   -0.262608
  16 H :   -0.267123
  17 H :   -0.261920
  18 H :   -0.261791
  19 H :   -0.261849
  20 H :   -0.262952
  21 H :   -0.262704
  22 H :   -0.262737
  23 H :   -0.265590
  24 H :   -0.265618
  25 H :   -0.271319
  26 H :   -0.271310
  27 H :   -0.283382
  28 H :   -0.284406
  29 H :   -0.284422

  Mayer bond orders larger than 0.100000
B(  0-C ,  1-C ) :   1.9174 B(  0-C ,  2-C ) :  -0.1842 B(  0-C , 10-H ) :   0.9405
B(  0-C , 11-H ) :   0.9422 B(  1-C ,  2-C ) :   1.0543 B(  1-C ,  3-C ) :  -0.2705
B(  1-C , 12-H ) :   0.8253 B(  2-C ,  3-C ) :   1.0839 B(  2-C ,  5-C ) :  -0.1095
B(  2-C , 13-H ) :   0.8311 B(  2-C , 14-H ) :   0.8812 B(  3-C ,  4-C ) :  -0.1228
B(  3-C ,  5-C ) :   1.1346 B(  3-C , 15-H ) :   0.8300 B(  3-C , 16-H ) :   0.8373
B(  4-C ,  5-C ) :   1.2238 B(  4-C ,  6-C ) :   1.2112 B(  4-C ,  7-C ) :  -0.1554
B(  4-C , 17-H ) :   0.8310 B(  4-C , 18-H ) :   0.8283 B(  5-C ,  6-C ) :  -0.1540
B(  5-C , 19-H ) :   0.8275 B(  5-C , 20-H ) :   0.8414 B(  6-C ,  7-C ) :   1.1130
B(  6-C ,  8-C ) :  -0.1284 B(  6-C , 21-H ) :   0.8347 B(  6-C , 22-H ) :   0.8349
B(  7-C ,  8-C ) :   1.0177 B(  7-C ,  9-C ) :  -0.1495 B(  7-C , 23-H ) :   0.8594
B(  7-C , 24-H ) :   0.8542 B(  8-C ,  9-C ) :   1.0563 B(  8-C , 25-H ) :   0.8837
B(  8-C , 26-H ) :   0.8827 B(  8-C , 27-H ) :  -0.1013 B(  9-C , 27-H ) :   1.0291
B(  9-C , 28-H ) :   0.9595 B(  9-C , 29-H ) :   0.9595

MP2 TOTAL ENERGY:     -392.322530956 Eh
FINAL SINGLE POINT ENERGY      -392.322530955559

DIPOLE MOMENT
-------------
                                X             Y             Z
Electronic contribution:     -8.01914       0.18867      -0.33721
Nuclear contribution   :      8.20059      -0.14119       0.28528
                        -----------------------------------------
Total Dipole Moment    :      0.18144       0.04749      -0.05193
                        -----------------------------------------
Magnitude (a.u.)       :      0.19461
Magnitude (Debye)      :      0.49467

Rotational constants in cm-1:     0.264053     0.008972     0.008887
Rotational constants in MHz :  7916.100843   268.988762   266.423163

                             ****ORCA TERMINATED NORMALLY****
TOTAL RUN TIME: 0 days 1 hours 26 minutes 49 seconds 510 msec
