                         Program Version 4.2.1 -  RELEASE  -
|  1> %pal
|  2>  nprocs 32
|  3> end
|  4> !RI-MP2 aug-cc-pVQZ aug-cc-pVQZ/C TightSCF
|  5> %maxcore 4500
|  6> *xyzfile 0 1  06_16R.xyz
|  7>
|  8>
|  9>                          ****END OF INPUT****

CARTESIAN COORDINATES (ANGSTROEM)
---------------------------------
  C     -1.818134    3.190624   -0.333852
  H     -2.043497    3.948716    0.413211
  H     -0.998937    1.968089    1.248595
  C     -1.022616   -0.362533   -0.249253
  H      0.076810   -0.555340   -2.013337
  C      1.369029   -2.661969   -1.590669
  H      2.838868   -1.571949   -0.373255
  H      2.985954   -1.438923   -3.438046
  B     -2.160740   -1.934436    1.232731
  C     -2.782400   -2.764236    0.064969
  H     -3.568306   -3.438596    0.409398
  C     -2.369105   -2.272475    2.747159
  H     -1.794508   -1.633600    3.419889
  C     -2.772552    1.189310   -0.841477
  O     -3.590614    0.396963   -1.202322
  H      0.752646    3.459073    0.098470
  C      1.665014    1.585196    0.495077
  C      2.489723    0.013987    2.134172
  C      4.024868    1.052735    0.617292
  H      3.167099    2.414309   -0.792747
  H      4.604884   -0.360598    2.130746
  H      0.436386    0.536790    1.922314
  H     -1.426329    3.667498   -1.236708
  C     -0.871458    2.101548    0.168991
  N     -1.440596    0.949999   -0.539887
  C     -0.215905   -1.011886   -1.076312
  O      0.259684   -2.244110   -0.791518
  C      2.561409   -1.778412   -1.402749
  C      3.256258   -1.258311   -2.402266
  H      4.124231   -0.636936   -2.220582
  O     -1.383082   -0.818003    0.988234
  H     -1.999065   -3.372897   -0.399319
  H     -3.185601   -2.115435   -0.716805
  H     -2.110358   -3.317373    2.946531
  H     -3.430295   -2.177743    3.003019
  O     -3.028611    2.508799   -0.668663
  C      0.578721    2.408849   -0.166067
  H      0.692116    2.348706   -1.252651
  C      1.437541    0.711414    1.552314
  C      3.786416    0.182386    1.673806
  C      2.972683    1.741418    0.036127
  H      5.032840    1.193687    0.245094
  H      2.286589   -0.669096    2.950224
  H      1.577498   -3.677793   -1.252994
  H      1.072882   -2.703473   -2.644909

 Total Charge           Charge          ....    0
 Multiplicity           Mult            ....    1
 Number of Electrons    NEL             ....  168
 Basis Dimension        Dim             .... 2852

ORBITAL ENERGIES
----------------

  NO   OCC          E(Eh)            E(eV)
   0   2.0000     -20.603552      -560.6512
   1   2.0000     -20.585672      -560.1646
   2   2.0000     -20.570485      -559.7514
   3   2.0000     -20.526691      -558.5597
   4   2.0000     -15.596880      -424.4127
   5   2.0000     -11.398516      -310.1694
   6   2.0000     -11.313440      -307.8544
   7   2.0000     -11.306381      -307.6623
   8   2.0000     -11.296569      -307.3953
   9   2.0000     -11.292005      -307.2711
  10   2.0000     -11.287770      -307.1558
  11   2.0000     -11.251151      -306.1594
  12   2.0000     -11.249920      -306.1259
  13   2.0000     -11.239718      -305.8483
  14   2.0000     -11.239224      -305.8348
  15   2.0000     -11.237670      -305.7926
  16   2.0000     -11.236475      -305.7600
  17   2.0000     -11.235542      -305.7346
  18   2.0000     -11.234487      -305.7059
  19   2.0000     -11.232891      -305.6625
  20   2.0000     -11.179876      -304.2199
  21   2.0000     -11.167232      -303.8758
  22   2.0000      -7.602199      -206.8664
  23   2.0000      -1.476996       -40.1911
  24   2.0000      -1.421879       -38.6913
  25   2.0000      -1.393939       -37.9310
  26   2.0000      -1.369232       -37.2587
  27   2.0000      -1.261042       -34.3147
  28   2.0000      -1.166490       -31.7418
  29   2.0000      -1.092541       -29.7296
  30   2.0000      -1.081991       -29.4425
  31   2.0000      -1.038884       -28.2695
  32   2.0000      -1.022397       -27.8208
  33   2.0000      -1.017589       -27.6900
  34   2.0000      -0.954233       -25.9660
  35   2.0000      -0.948689       -25.8152
  36   2.0000      -0.933626       -25.4053
  37   2.0000      -0.912352       -24.8264
  38   2.0000      -0.867294       -23.6003
  39   2.0000      -0.852030       -23.1849
  40   2.0000      -0.829392       -22.5689
  41   2.0000      -0.805019       -21.9057
  42   2.0000      -0.788833       -21.4652
  43   2.0000      -0.782026       -21.2800
  44   2.0000      -0.741090       -20.1661
  45   2.0000      -0.727636       -19.8000
  46   2.0000      -0.721457       -19.6318
  47   2.0000      -0.704100       -19.1595
  48   2.0000      -0.684999       -18.6398
  49   2.0000      -0.666698       -18.1418
  50   2.0000      -0.653421       -17.7805
  51   2.0000      -0.643172       -17.5016
  52   2.0000      -0.642102       -17.4725
  53   2.0000      -0.630140       -17.1470
  54   2.0000      -0.628636       -17.1061
  55   2.0000      -0.625534       -17.0217
  56   2.0000      -0.605246       -16.4696
  57   2.0000      -0.597697       -16.2642
  58   2.0000      -0.591627       -16.0990
  59   2.0000      -0.590413       -16.0660
  60   2.0000      -0.581882       -15.8338
  61   2.0000      -0.574373       -15.6295
  62   2.0000      -0.569118       -15.4865
  63   2.0000      -0.557931       -15.1821
  64   2.0000      -0.549058       -14.9406
  65   2.0000      -0.547897       -14.9090
  66   2.0000      -0.531545       -14.4641
  67   2.0000      -0.518886       -14.1196
  68   2.0000      -0.516689       -14.0598
  69   2.0000      -0.511628       -13.9221
  70   2.0000      -0.505869       -13.7654
  71   2.0000      -0.504044       -13.7157
  72   2.0000      -0.496799       -13.5186
  73   2.0000      -0.494121       -13.4457
  74   2.0000      -0.486892       -13.2490
  75   2.0000      -0.485763       -13.2183
  76   2.0000      -0.461670       -12.5627
  77   2.0000      -0.455846       -12.4042
  78   2.0000      -0.433638       -11.7999
  79   2.0000      -0.410928       -11.1819
  80   2.0000      -0.383540       -10.4367
  81   2.0000      -0.349539        -9.5114
  82   2.0000      -0.341753        -9.2996
  83   2.0000      -0.324478        -8.8295
  84   0.0000       0.016418         0.4467
  85   0.0000       0.022236         0.6051
  86   0.0000       0.023925         0.6510
  87   0.0000       0.026657         0.7254
  88   0.0000       0.034180         0.9301

MULLIKEN ATOMIC CHARGES
-----------------------
   0 C :   -0.077749
   1 H :    0.378083
   2 H :    0.218798
   3 C :    1.838668
   4 H :    0.203638
   5 C :   -0.323886
   6 H :    0.776855
   7 H :    0.342203
   8 B :    0.928193
   9 C :   -1.213289
  10 H :    0.281069
  11 C :   -1.243819
  12 H :    0.371935
  13 C :    1.495800
  14 O :   -1.015140
  15 H :    0.318607
  16 C :    1.087941
  17 C :   -0.396771
  18 C :   -0.411589
  19 H :    0.148366
  20 H :    0.301389
  21 H :    0.378238
  22 H :    0.184609
  23 C :   -0.542887
  24 N :   -0.295769
  25 C :    0.178355
  26 O :   -1.025984
  27 C :   -0.729648
  28 C :   -0.972931
  29 H :    0.377203
  30 O :   -1.257135
  31 H :    0.325839
  32 H :    0.382350
  33 H :    0.331178
  34 H :    0.319694
  35 O :   -1.086080
  36 C :   -0.116100
  37 H :    0.101414
  38 C :   -0.691696
  39 C :   -0.208173
  40 C :   -0.765502
  41 H :    0.195614
  42 H :    0.154021
  43 H :    0.470852
  44 H :    0.283236
Sum of atomic charges:    0.0000000

LOEWDIN ATOMIC CHARGES
----------------------
   0 C :    0.212916
   1 H :   -0.270967
   2 H :   -0.278313
   3 C :   -0.660094
   4 H :   -0.325835
   5 C :    0.164307
   6 H :   -0.351427
   7 H :   -0.340512
   8 B :   -0.887015
   9 C :    1.058422
  10 H :   -0.296696
  11 C :    1.054219
  12 H :   -0.312713
  13 C :   -1.229092
  14 O :    0.698985
  15 H :   -0.261901
  16 C :   -0.038688
  17 C :    0.357583
  18 C :    0.329621
  19 H :   -0.305319
  20 H :   -0.315318
  21 H :   -0.372217
  22 H :   -0.283058
  23 C :   -0.038043
  24 N :    0.389777
  25 C :   -0.034310
  26 O :    0.891843
  27 C :    0.338149
  28 C :    0.804890
  29 H :   -0.347493
  30 O :    0.998478
  31 H :   -0.313281
  32 H :   -0.333221
  33 H :   -0.300748
  34 H :   -0.299636
  35 O :    0.882582
  36 C :    0.523329
  37 H :   -0.278525
  38 C :    0.345178
  39 C :    0.331991
  40 C :    0.335692
  41 H :   -0.313221
  42 H :   -0.307834
  43 H :   -0.307635
  44 H :   -0.314849

  Mayer bond orders larger than 0.100000
B(  0-C ,  1-H ) :   0.8853 B(  0-C , 22-H ) :   1.2009 B(  0-C , 23-C ) :   0.4465
B(  0-C , 24-N ) :  -0.1061 B(  0-C , 35-O ) :   0.3482 B(  2-H , 23-C ) :   1.1766
B(  3-C ,  4-H ) :  -0.2246 B(  3-C , 14-O ) :  -0.1623 B(  3-C , 24-N ) :   0.7266
B(  3-C , 25-C ) :   1.1900 B(  3-C , 26-O ) :   0.1665 B(  3-C , 30-O ) :  -0.7216
B(  4-H , 25-C ) :   1.2887 B(  5-C , 25-C ) :  -0.1530 B(  5-C , 26-O ) :   1.0483
B(  5-C , 27-C ) :   1.0153 B(  5-C , 43-H ) :   0.7717 B(  5-C , 44-H ) :   0.9422
B(  6-H , 27-C ) :   0.4706 B(  7-H , 28-C ) :   0.9427 B(  8-B ,  9-C ) :   0.9952
B(  8-B , 11-C ) :   1.0406 B(  8-B , 12-H ) :   0.1002 B(  8-B , 30-O ) :   0.1415
B(  8-B , 33-H ) :   0.1041 B(  9-C , 10-H ) :   0.9849 B(  9-C , 31-H ) :   0.8691
B(  9-C , 32-H ) :   0.8492 B( 11-C , 12-H ) :   0.8373 B( 11-C , 30-O ) :  -0.2574
B( 11-C , 33-H ) :   0.8858 B( 11-C , 34-H ) :   0.9228 B( 13-C , 14-O ) :   0.9957
B( 13-C , 24-N ) :   1.4982 B( 13-C , 35-O ) :   0.6292 B( 14-O , 24-N ) :   0.3902
B( 14-O , 25-C ) :   0.1253 B( 15-H , 16-C ) :  -0.1590 B( 15-H , 36-C ) :   0.9934
B( 16-C , 17-C ) :  -0.4591 B( 16-C , 18-C ) :  -0.3774 B( 16-C , 23-C ) :  -0.1348
B( 16-C , 36-C ) :   0.2505 B( 16-C , 37-H ) :  -0.1302 B( 16-C , 38-C ) :   0.7369
B( 16-C , 40-C ) :   0.9841 B( 17-C , 20-H ) :  -0.1293 B( 17-C , 21-H ) :  -0.1967
B( 17-C , 38-C ) :   1.3409 B( 17-C , 39-C ) :   1.2637 B( 17-C , 40-C ) :   0.2000
B( 17-C , 42-H ) :   1.1858 B( 18-C , 38-C ) :   0.1424 B( 18-C , 39-C ) :   1.1532
B( 18-C , 40-C ) :   1.4295 B( 18-C , 41-H ) :   1.2073 B( 19-H , 40-C ) :   1.1329
B( 20-H , 39-C ) :   1.0932 B( 21-H , 38-C ) :   0.9590 B( 22-H , 23-C ) :  -0.3488
B( 23-C , 24-N ) :   0.8039 B( 23-C , 35-O ) :   0.3760 B( 23-C , 36-C ) :   0.5301
B( 24-N , 30-O ) :   0.1618 B( 24-N , 35-O ) :  -0.2550 B( 25-C , 30-O ) :   0.5702
B( 27-C , 28-C ) :   1.7247 B( 28-C , 29-H ) :   0.9210 B( 36-C , 37-H ) :   1.1551
B( 36-C , 38-C ) :  -0.3310 B( 36-C , 40-C ) :  -0.5810 B( 38-C , 39-C ) :  -0.1248
B( 40-C , 41-H ) :  -0.1572

MP2 TOTAL ENERGY:    -1039.899384155 Eh
FINAL SINGLE POINT ENERGY     -1039.899384155147

DIPOLE MOMENT
-------------
                                X             Y             Z
Electronic contribution:     -8.53069       7.22694      -1.46470
Nuclear contribution   :     10.71408      -6.57809       1.42477
                        -----------------------------------------
Total Dipole Moment    :      2.18339       0.64885      -0.03993
                        -----------------------------------------
Magnitude (a.u.)       :      2.27811
Magnitude (Debye)      :      5.79050

Rotational constants in cm-1:     0.010809     0.007342     0.005999
Rotational constants in MHz :   324.044992   220.120842   179.832366

                             ****ORCA TERMINATED NORMALLY****
TOTAL RUN TIME: 0 days 11 hours 15 minutes 32 seconds 688 msec
