                         Program Version 4.2.1 -  RELEASE  -
|  1> %pal
|  2>  nprocs 32
|  3> end
|  4> !RI-MP2 aug-cc-pVQZ aug-cc-pVQZ/C TightSCF
|  5> %maxcore 4500
|  6> *xyzfile 0 1  10_58P.xyz
|  7>
|  8>
|  9>                          ****END OF INPUT****

CARTESIAN COORDINATES (ANGSTROEM)
---------------------------------
  C     -1.174394   -0.637350    0.220763
  C     -0.462037    0.178453    1.275538
  C     -0.488548   -1.634153   -0.587228
  C      0.395739   -0.661199    2.189995
  C      0.801307   -1.983132   -0.544694
  C      1.450751   -1.342358    1.778473
  C      1.885477   -1.430569    0.335353
  H      0.133229   -0.654766    3.241985
  H      2.045982   -1.886595    2.503484
  C      1.054240    1.622015   -1.555342
  C      0.358336    1.336716    0.635280
  H     -1.223061    0.658225    1.889109
  C      1.343164    0.925892   -0.444120
  C     -0.504680    2.356440   -0.053974
  H      0.895957    1.818519    1.460466
  C     -0.085888    2.510346   -1.313487
  H      1.573678    1.555119   -2.500647
  H     -1.330823    2.860237    0.427554
  H     -0.505824    3.182113   -2.049738
  C      2.450445   -0.077739   -0.247766
  C      3.138445   -0.388888   -1.580637
  C      3.504717    0.478042    0.722339
  H      3.073208    0.738501    1.688236
  H      3.962446    1.374497    0.300536
  H      4.294141   -0.259589    0.892238
  H      2.434816   -0.772174   -2.321304
  H      3.924345   -1.133490   -1.434908
  H      3.605697    0.507336   -1.991724
  C     -2.499313   -0.416243   -0.000173
  C     -3.247013    0.546346    0.745077
  N     -3.847604    1.321190    1.344555
  C     -3.235193   -1.119696   -1.004004
  N     -3.826845   -1.684957   -1.810336
  H      2.723903   -2.128649    0.290803
  H      1.111895   -2.743653   -1.253546
  H     -1.111764   -2.146789   -1.310430

 Total Charge           Charge          ....    0
 Multiplicity           Mult            ....    1
 Number of Electrons    NEL             ....  138
 Basis Dimension        Dim             .... 2336

ORBITAL ENERGIES
----------------

  NO   OCC          E(Eh)            E(eV)
   0   2.0000     -15.578267      -423.9062
   1   2.0000     -15.576339      -423.8537
   2   2.0000     -11.321188      -308.0652
   3   2.0000     -11.311075      -307.7900
   4   2.0000     -11.286388      -307.1182
   5   2.0000     -11.283568      -307.0415
   6   2.0000     -11.276666      -306.8537
   7   2.0000     -11.276110      -306.8385
   8   2.0000     -11.270343      -306.6816
   9   2.0000     -11.266206      -306.5690
  10   2.0000     -11.260162      -306.4046
  11   2.0000     -11.257263      -306.3257
  12   2.0000     -11.252780      -306.2037
  13   2.0000     -11.250138      -306.1318
  14   2.0000     -11.243939      -305.9631
  15   2.0000     -11.238010      -305.8018
  16   2.0000     -11.236251      -305.7539
  17   2.0000     -11.231896      -305.6354
  18   2.0000     -11.231745      -305.6313
  19   2.0000     -11.231425      -305.6226
  20   2.0000      -1.246467       -33.9181
  21   2.0000      -1.227529       -33.4028
  22   2.0000      -1.207689       -32.8629
  23   2.0000      -1.162262       -31.6268
  24   2.0000      -1.144257       -31.1368
  25   2.0000      -1.098829       -29.9007
  26   2.0000      -1.074605       -29.2415
  27   2.0000      -1.029028       -28.0013
  28   2.0000      -0.982152       -26.7257
  29   2.0000      -0.966247       -26.2929
  30   2.0000      -0.956060       -26.0157
  31   2.0000      -0.918243       -24.9867
  32   2.0000      -0.894851       -24.3501
  33   2.0000      -0.832290       -22.6478
  34   2.0000      -0.805073       -21.9071
  35   2.0000      -0.770893       -20.9771
  36   2.0000      -0.750432       -20.4203
  37   2.0000      -0.743215       -20.2239
  38   2.0000      -0.729505       -19.8508
  39   2.0000      -0.709622       -19.3098
  40   2.0000      -0.680496       -18.5172
  41   2.0000      -0.660350       -17.9690
  42   2.0000      -0.648283       -17.6407
  43   2.0000      -0.638544       -17.3757
  44   2.0000      -0.616909       -16.7870
  45   2.0000      -0.610382       -16.6093
  46   2.0000      -0.596508       -16.2318
  47   2.0000      -0.580300       -15.7908
  48   2.0000      -0.573829       -15.6147
  49   2.0000      -0.570077       -15.5126
  50   2.0000      -0.564713       -15.3666
  51   2.0000      -0.557233       -15.1631
  52   2.0000      -0.554333       -15.0842
  53   2.0000      -0.546454       -14.8698
  54   2.0000      -0.542722       -14.7682
  55   2.0000      -0.524377       -14.2690
  56   2.0000      -0.515826       -14.0363
  57   2.0000      -0.510217       -13.8837
  58   2.0000      -0.495878       -13.4935
  59   2.0000      -0.492223       -13.3941
  60   2.0000      -0.487792       -13.2735
  61   2.0000      -0.482797       -13.1376
  62   2.0000      -0.475215       -12.9313
  63   2.0000      -0.462342       -12.5810
  64   2.0000      -0.439492       -11.9592
  65   2.0000      -0.431107       -11.7310
  66   2.0000      -0.377810       -10.2807
  67   2.0000      -0.347899        -9.4668
  68   2.0000      -0.316623        -8.6158
  69   0.0000       0.013195         0.3591
  70   0.0000       0.020831         0.5668
  71   0.0000       0.022477         0.6116
  72   0.0000       0.026319         0.7162
  73   0.0000       0.028106         0.7648

MULLIKEN ATOMIC CHARGES
-----------------------
   0 C :    0.934092
   1 C :    0.209730
   2 C :   -0.391938
   3 C :   -0.636404
   4 C :   -0.396871
   5 C :   -0.399618
   6 C :    0.229327
   7 H :    0.131427
   8 H :    0.111645
   9 C :   -1.075255
  10 C :    0.675073
  11 H :    0.375024
  12 C :    0.770686
  13 C :   -0.845328
  14 H :    0.482710
  15 C :   -0.498390
  16 H :    0.137886
  17 H :    0.246139
  18 H :    0.284704
  19 C :    1.748791
  20 C :   -1.380813
  21 C :   -1.217481
  22 H :    0.238855
  23 H :    0.205068
  24 H :    0.170683
  25 H :    0.182648
  26 H :    0.214683
  27 H :    0.210675
  28 C :   -0.633153
  29 C :    0.598466
  30 N :   -0.960246
  31 C :    0.596297
  32 N :   -0.934818
  33 H :    0.185370
  34 H :    0.133163
  35 H :    0.297175
Sum of atomic charges:    0.0000000

LOEWDIN ATOMIC CHARGES
----------------------
   0 C :   -0.063767
   1 C :    0.113335
   2 C :    0.415225
   3 C :    0.439732
   4 C :    0.434902
   5 C :    0.407843
   6 C :    0.109836
   7 H :   -0.284002
   8 H :   -0.283450
   9 C :    0.399212
  10 C :    0.089949
  11 H :   -0.377768
  12 C :   -0.055082
  13 C :    0.384143
  14 H :   -0.257892
  15 C :    0.411362
  16 H :   -0.303927
  17 H :   -0.289356
  18 H :   -0.298871
  19 C :   -0.255550
  20 C :    0.900550
  21 C :    0.933451
  22 H :   -0.284073
  23 H :   -0.254553
  24 H :   -0.254927
  25 H :   -0.270777
  26 H :   -0.258117
  27 H :   -0.269271
  28 C :   -0.218456
  29 C :   -0.358972
  30 N :    0.472934
  31 C :   -0.355490
  32 N :    0.455585
  33 H :   -0.315401
  34 H :   -0.279050
  35 H :   -0.379311

  Mayer bond orders larger than 0.100000
B(  0-C ,  1-C ) :   0.2327 B(  0-C ,  2-C ) :   0.9015 B(  0-C ,  3-C ) :   0.5071
B(  0-C ,  4-C ) :  -0.3410 B(  0-C , 10-C ) :   0.1268 B(  0-C , 11-H ) :  -0.3483
B(  0-C , 14-H ) :   0.1653 B(  0-C , 19-C ) :   0.1081 B(  0-C , 28-C ) :   0.8722
B(  0-C , 29-C ) :  -0.5883 B(  0-C , 31-C ) :  -0.5191 B(  0-C , 32-N ) :   0.1046
B(  1-C ,  2-C ) :  -0.2196 B(  1-C ,  3-C ) :   0.9009 B(  1-C ,  5-C ) :  -0.2001
B(  1-C ,  6-C ) :   0.1516 B(  1-C , 10-C ) :   0.9990 B(  1-C , 11-H ) :   1.1643
B(  1-C , 14-H ) :  -0.1453 B(  1-C , 28-C ) :  -0.2054 B(  1-C , 29-C ) :   0.2053
B(  1-C , 30-N ) :   0.1063 B(  2-C ,  3-C ) :  -0.1638 B(  2-C ,  4-C ) :   1.4131
B(  2-C ,  5-C ) :  -0.1821 B(  2-C , 19-C ) :   0.1334 B(  2-C , 28-C ) :  -0.2838
B(  2-C , 31-C ) :   0.1260 B(  2-C , 34-H ) :  -0.2828 B(  2-C , 35-H ) :   0.9720
B(  3-C ,  5-C ) :   1.3783 B(  3-C ,  6-C ) :  -0.3699 B(  3-C ,  7-H ) :   1.2625
B(  3-C ,  8-H ) :  -0.2201 B(  3-C , 10-C ) :   0.1209 B(  3-C , 11-H ) :  -0.2545
B(  3-C , 12-C ) :  -0.1187 B(  3-C , 19-C ) :   0.1635 B(  4-C ,  5-C ) :   0.4406
B(  4-C ,  6-C ) :   0.9424 B(  4-C , 33-H ) :  -0.2114 B(  4-C , 34-H ) :   1.2503
B(  5-C ,  6-C ) :   0.6984 B(  5-C ,  7-H ) :  -0.2082 B(  5-C ,  8-H ) :   1.2814
B(  5-C , 33-H ) :  -0.1733 B(  6-C ,  8-H ) :  -0.1497 B(  6-C , 19-C ) :   0.4252
B(  6-C , 20-C ) :   0.1562 B(  6-C , 33-H ) :   1.2085 B(  9-C , 10-C ) :  -0.8025
B(  9-C , 12-C ) :   1.0593 B(  9-C , 13-C ) :   0.2078 B(  9-C , 15-C ) :   1.2840
B(  9-C , 16-H ) :   1.2298 B(  9-C , 19-C ) :  -0.3518 B( 10-C , 11-H ) :  -0.1403
B( 10-C , 12-C ) :   0.1606 B( 10-C , 13-C ) :   0.4371 B( 10-C , 14-H ) :   0.7537
B( 10-C , 15-C ) :  -0.3965 B( 12-C , 13-C ) :  -0.2372 B( 12-C , 15-C ) :  -0.5071
B( 12-C , 19-C ) :   0.2091 B( 13-C , 14-H ) :  -0.1032 B( 13-C , 15-C ) :   2.0055
B( 13-C , 17-H ) :   1.1674 B( 15-C , 18-H ) :   1.1289 B( 19-C , 20-C ) :  -0.2814
B( 19-C , 22-H ) :  -0.2241 B( 19-C , 23-H ) :  -0.1846 B( 19-C , 24-H ) :  -0.1939
B( 19-C , 25-H ) :  -0.3697 B( 19-C , 26-H ) :  -0.1997 B( 19-C , 27-H ) :  -0.2266
B( 20-C , 21-C ) :   0.1505 B( 20-C , 25-H ) :   1.2668 B( 20-C , 26-H ) :   1.1358
B( 20-C , 27-H ) :   1.1850 B( 21-C , 22-H ) :   1.1268 B( 21-C , 23-H ) :   1.1413
B( 21-C , 24-H ) :   1.1875 B( 28-C , 29-C ) :   1.5105 B( 28-C , 31-C ) :   1.5819
B( 29-C , 30-N ) :   2.0710 B( 31-C , 32-N ) :   2.0676

MP2 TOTAL ENERGY:     -803.528723037 Eh
FINAL SINGLE POINT ENERGY      -803.528723037296

DIPOLE MOMENT
-------------
                                X             Y             Z
Electronic contribution:    -22.26870      -1.26521       0.54133
Nuclear contribution   :     25.44829       0.96238      -0.16986
                        -----------------------------------------
Total Dipole Moment    :      3.17959      -0.30283       0.37148
                        -----------------------------------------
Magnitude (a.u.)       :      3.21551
Magnitude (Debye)      :      8.17317

Rotational constants in cm-1:     0.020015     0.010063     0.009387
Rotational constants in MHz :   600.046877   301.687461   281.416280

                             ****ORCA TERMINATED NORMALLY****
TOTAL RUN TIME: 0 days 9 hours 20 minutes 32 seconds 176 msec
