                         Program Version 4.2.1 -  RELEASE  -
|  1> %pal
|  2>  nprocs 32
|  3> end
|  4> !RI-MP2 aug-cc-pVQZ aug-cc-pVQZ/C TightSCF
|  5> %maxcore 4500
|  6> *xyzfile 0 1  04_10P2.xyz
|  7>
|  8>
|  9>                          ****END OF INPUT****

CARTESIAN COORDINATES (ANGSTROEM)
---------------------------------
  N      0.095468   -1.118930    0.000000
  N     -0.249057    1.206146    0.000000
  N      0.000000    0.112115    0.000000
  H      1.075123   -1.395321    0.000000

 Total Charge           Charge          ....    0
 Multiplicity           Mult            ....    1
 Number of Electrons    NEL             ....   22
 Basis Dimension        Dim             ....  286

ORBITAL ENERGIES
----------------

  NO   OCC          E(Eh)            E(eV)
   0   2.0000     -15.791676      -429.7133
   1   2.0000     -15.673646      -426.5016
   2   2.0000     -15.609439      -424.7544
   3   2.0000      -1.517842       -41.3026
   4   2.0000      -1.292085       -35.1594
   5   2.0000      -0.827585       -22.5197
   6   2.0000      -0.712118       -19.3777
   7   2.0000      -0.708665       -19.2838
   8   2.0000      -0.672916       -18.3110
   9   2.0000      -0.471551       -12.8315
  10   2.0000      -0.404453       -11.0057
  11   0.0000       0.025721         0.6999
  12   0.0000       0.068302         1.8586
  13   0.0000       0.077582         2.1111
  14   0.0000       0.090013         2.4494
  15   0.0000       0.097543         2.6543

MULLIKEN ATOMIC CHARGES
-----------------------
   0 N :   -0.347712
   1 N :   -0.154072
   2 N :    0.190411
   3 H :    0.311373
Sum of atomic charges:    0.0000000

LOEWDIN ATOMIC CHARGES
----------------------
   0 N :    0.694697
   1 N :    0.342080
   2 N :   -0.300319
   3 H :   -0.736458

  Mayer bond orders larger than 0.100000
B(  0-N ,  1-N ) :   0.2462 B(  0-N ,  2-N ) :   1.4974 B(  0-N ,  3-H ) :   0.8701
B(  1-N ,  2-N ) :   2.4036

MP2 TOTAL ENERGY:     -164.572836578 Eh
FINAL SINGLE POINT ENERGY      -164.572836577744

DIPOLE MOMENT
-------------
                                X             Y             Z
Electronic contribution:     -0.37585       1.28229      -0.00000
Nuclear contribution   :      1.03150      -1.33870       0.00000
                        -----------------------------------------
Total Dipole Moment    :      0.65564      -0.05641      -0.00000
                        -----------------------------------------
Magnitude (a.u.)       :      0.65806
Magnitude (Debye)      :      1.67267

Rotational constants in cm-1:    20.582074     0.407937     0.400009
Rotational constants in MHz : 617035.044166 12229.655017 11991.973701

                             ****ORCA TERMINATED NORMALLY****
TOTAL RUN TIME: 0 days 0 hours 0 minutes 31 seconds 653 msec
