                         Program Version 4.2.1 -  RELEASE  -
|  1> %pal
|  2>  nprocs 32
|  3> end
|  4> !RI-MP2 aug-cc-pVQZ aug-cc-pVQZ/C TightSCF
|  5> %maxcore 4500
|  6> *xyzfile 0 1  04_83R1.xyz
|  7>
|  8>
|  9>                          ****END OF INPUT****

CARTESIAN COORDINATES (ANGSTROEM)
---------------------------------
  O      1.721031   -0.796577   -1.184470
  C      2.226198   -0.236070   -0.250395
  O      3.394365   -0.630293    0.287484
  C      1.671852    0.976218    0.446260
  C      0.283448    1.331805   -0.053713
  C     -0.743526    0.296641    0.359179
  H      0.269978    1.441116   -1.138981
  H     -0.034891    2.287269    0.372905
  S     -2.235112    0.336709   -0.601925
  C     -3.167186   -0.954423    0.255071
  H     -3.334389   -0.677955    1.293494
  H     -2.624839   -1.895888    0.210445
  H     -4.119658   -1.047820   -0.263610
  O     -0.583594   -0.466858    1.274929
  H      3.692402   -1.407551   -0.205557
  H      1.665175    0.776685    1.518531
  H      2.368887    1.801591    0.281619

 Total Charge           Charge          ....    0
 Multiplicity           Mult            ....    1
 Number of Electrons    NEL             ....   78
 Basis Dimension        Dim             .... 1092

ORBITAL ENERGIES
----------------

  NO   OCC          E(Eh)            E(eV)
   0   2.0000     -91.966433     -2502.5339
   1   2.0000     -20.613125      -560.9117
   2   2.0000     -20.555108      -559.3329
   3   2.0000     -20.550329      -559.2029
   4   2.0000     -11.388013      -309.8836
   5   2.0000     -11.360680      -309.1398
   6   2.0000     -11.256409      -306.3025
   7   2.0000     -11.256373      -306.3015
   8   2.0000     -11.255560      -306.2794
   9   2.0000      -8.969487      -244.0721
  10   2.0000      -6.650990      -180.9826
  11   2.0000      -6.649917      -180.9534
  12   2.0000      -6.649303      -180.9367
  13   2.0000      -1.472128       -40.0586
  14   2.0000      -1.408182       -38.3186
  15   2.0000      -1.368014       -37.2256
  16   2.0000      -1.099459       -29.9178
  17   2.0000      -1.059513       -28.8308
  18   2.0000      -0.970428       -26.4067
  19   2.0000      -0.890097       -24.2208
  20   2.0000      -0.812014       -22.0960
  21   2.0000      -0.735757       -20.0210
  22   2.0000      -0.712006       -19.3747
  23   2.0000      -0.701699       -19.0942
  24   2.0000      -0.681612       -18.5476
  25   2.0000      -0.642103       -17.4725
  26   2.0000      -0.630054       -17.1446
  27   2.0000      -0.624559       -16.9951
  28   2.0000      -0.595962       -16.2169
  29   2.0000      -0.581766       -15.8306
  30   2.0000      -0.568006       -15.4562
  31   2.0000      -0.546975       -14.8839
  32   2.0000      -0.531874       -14.4730
  33   2.0000      -0.518859       -14.1189
  34   2.0000      -0.488172       -13.2838
  35   2.0000      -0.480705       -13.0807
  36   2.0000      -0.459008       -12.4903
  37   2.0000      -0.409728       -11.1493
  38   2.0000      -0.369491       -10.0544
  39   0.0000       0.023623         0.6428
  40   0.0000       0.028443         0.7740
  41   0.0000       0.031019         0.8441
  42   0.0000       0.037972         1.0333
  43   0.0000       0.045133         1.2281

MULLIKEN ATOMIC CHARGES
-----------------------
   0 O :   -0.811200
   1 C :    1.090188
   2 O :   -0.740983
   3 C :   -0.553985
   4 C :   -0.278918
   5 C :    0.484752
   6 H :    0.245639
   7 H :    0.346601
   8 S :    0.156489
   9 C :   -1.034851
  10 H :    0.283037
  11 H :    0.303242
  12 H :    0.445663
  13 O :   -0.847944
  14 H :    0.356185
  15 H :    0.231699
  16 H :    0.324388
Sum of atomic charges:    0.0000000

LOEWDIN ATOMIC CHARGES
----------------------
   0 O :    0.735109
   1 C :   -1.032115
   2 O :    1.264534
   3 C :    0.422477
   4 C :    0.337934
   5 C :   -1.107876
   6 H :   -0.332774
   7 H :   -0.285780
   8 S :    1.317318
   9 C :    0.530942
  10 H :   -0.372127
  11 H :   -0.374825
  12 H :   -0.389337
  13 O :    0.678446
  14 H :   -0.809458
  15 H :   -0.307329
  16 H :   -0.275139

  Mayer bond orders larger than 0.100000
B(  0-O ,  1-C ) :   1.4424 B(  0-O ,  3-C ) :   0.1033 B(  1-C ,  2-O ) :   0.7711
B(  1-C ,  3-C ) :   1.0692 B(  1-C ,  4-C ) :  -0.1041 B(  2-O , 14-H ) :   0.9121
B(  3-C ,  4-C ) :   1.1163 B(  3-C ,  5-C ) :  -0.1075 B(  3-C , 15-H ) :   0.8925
B(  3-C , 16-H ) :   0.8918 B(  4-C ,  5-C ) :   0.7418 B(  4-C ,  6-H ) :   0.9326
B(  4-C ,  7-H ) :   0.8282 B(  4-C , 13-O ) :   0.1162 B(  5-C ,  8-S ) :   1.0285
B(  5-C , 13-O ) :   1.2810 B(  8-S ,  9-C ) :   1.0241 B(  9-C , 10-H ) :   0.9131
B(  9-C , 11-H ) :   0.8956 B(  9-C , 12-H ) :   0.8044

MP2 TOTAL ENERGY:     -818.195067962 Eh
FINAL SINGLE POINT ENERGY      -818.195067962181

DIPOLE MOMENT
-------------
                                X             Y             Z
Electronic contribution:      2.06136      -0.61745      -1.95871
Nuclear contribution   :     -1.95443       1.22313       2.06955
                        -----------------------------------------
Total Dipole Moment    :      0.10693       0.60568       0.11084
                        -----------------------------------------
Magnitude (a.u.)       :      0.62495
Magnitude (Debye)      :      1.58850

Rotational constants in cm-1:     0.105501     0.022512     0.022079
Rotational constants in MHz :  3162.829928   674.884641   661.919601

                             ****ORCA TERMINATED NORMALLY****
TOTAL RUN TIME: 0 days 0 hours 29 minutes 8 seconds 505 msec
