                         Program Version 4.2.1 -  RELEASE  -
|  1> %pal
|  2>  nprocs 32
|  3> end
|  4> !RI-MP2 aug-cc-pVQZ aug-cc-pVQZ/C TightSCF
|  5> %maxcore 4500
|  6> *xyzfile 0 1  07_10R1.xyz
|  7>
|  8>
|  9>                          ****END OF INPUT****

CARTESIAN COORDINATES (ANGSTROEM)
---------------------------------
  C     -1.849055   -1.365107    0.000046
  C     -1.347750   -0.063062    0.000043
  C      0.017520    0.207004   -0.000054
  C      0.919007   -0.849233   -0.000140
  C      0.441957   -2.157686   -0.000133
  C     -0.920109   -2.398862   -0.000044
  H      0.375163    1.225301   -0.000059
  H     -1.274241   -3.423032   -0.000044
  N      2.314180   -0.665950   -0.000246
  C      2.998624    0.507333   -0.000180
  O      2.541482    1.622790   -0.000049
  N     -2.270673    0.987744    0.000133
  C     -2.311341    2.184745    0.000309
  O     -2.469785    3.338184    0.000469
  O      4.329608    0.254298   -0.000288
  H      4.773866    1.110914   -0.000243
  H      2.882318   -1.498527   -0.000344
  C     -3.327078   -1.622804    0.000160
  H     -3.804271   -1.180996    0.877709
  H     -3.804479   -1.180588   -0.877067
  H     -3.532612   -2.693325   -0.000059
  H      1.138614   -2.988445   -0.000201

 Total Charge           Charge          ....    0
 Multiplicity           Mult            ....    1
 Number of Electrons    NEL             ....  100
 Basis Dimension        Dim             .... 1488

ORBITAL ENERGIES
----------------

  NO   OCC          E(Eh)            E(eV)
   0   2.0000     -20.621367      -561.1359
   1   2.0000     -20.608957      -560.7982
   2   2.0000     -20.544260      -559.0377
   3   2.0000     -15.618605      -425.0039
   4   2.0000     -15.593067      -424.3089
   5   2.0000     -11.423456      -310.8481
   6   2.0000     -11.403281      -310.2990
   7   2.0000     -11.304795      -307.6191
   8   2.0000     -11.301832      -307.5385
   9   2.0000     -11.248468      -306.0864
  10   2.0000     -11.246223      -306.0253
  11   2.0000     -11.244025      -305.9655
  12   2.0000     -11.239750      -305.8492
  13   2.0000     -11.227208      -305.5079
  14   2.0000      -1.485614       -40.4256
  15   2.0000      -1.466419       -39.9033
  16   2.0000      -1.374165       -37.3929
  17   2.0000      -1.293968       -35.2107
  18   2.0000      -1.279245       -34.8100
  19   2.0000      -1.163608       -31.6634
  20   2.0000      -1.062064       -28.9002
  21   2.0000      -1.039243       -28.2793
  22   2.0000      -0.958110       -26.0715
  23   2.0000      -0.904838       -24.6219
  24   2.0000      -0.866199       -23.5705
  25   2.0000      -0.815044       -22.1785
  26   2.0000      -0.791229       -21.5304
  27   2.0000      -0.750222       -20.4146
  28   2.0000      -0.727638       -19.8000
  29   2.0000      -0.713665       -19.4198
  30   2.0000      -0.676456       -18.4073
  31   2.0000      -0.672988       -18.3129
  32   2.0000      -0.670596       -18.2478
  33   2.0000      -0.659855       -17.9556
  34   2.0000      -0.641817       -17.4647
  35   2.0000      -0.633926       -17.2500
  36   2.0000      -0.617974       -16.8159
  37   2.0000      -0.604555       -16.4508
  38   2.0000      -0.588645       -16.0178
  39   2.0000      -0.556811       -15.1516
  40   2.0000      -0.554013       -15.0755
  41   2.0000      -0.531074       -14.4513
  42   2.0000      -0.521491       -14.1905
  43   2.0000      -0.513166       -13.9639
  44   2.0000      -0.488403       -13.2901
  45   2.0000      -0.470689       -12.8081
  46   2.0000      -0.455857       -12.4045
  47   2.0000      -0.440855       -11.9963
  48   2.0000      -0.341229        -9.2853
  49   2.0000      -0.312841        -8.5128
  50   0.0000       0.018370         0.4999
  51   0.0000       0.024041         0.6542
  52   0.0000       0.029204         0.7947
  53   0.0000       0.038482         1.0472
  54   0.0000       0.042598         1.1592

MULLIKEN ATOMIC CHARGES
-----------------------
   0 C :    0.520488
   1 C :    0.493388
   2 C :   -0.466971
   3 C :    0.527322
   4 C :   -0.361766
   5 C :   -0.486554
   6 H :    0.424078
   7 H :    0.108611
   8 N :   -0.721639
   9 C :    1.453751
  10 O :   -0.849925
  11 N :   -1.029370
  12 C :    1.330908
  13 O :   -0.688118
  14 O :   -0.750298
  15 H :    0.355102
  16 H :    0.167139
  17 C :   -0.899863
  18 H :    0.233573
  19 H :    0.233487
  20 H :    0.277023
  21 H :    0.129635
Sum of atomic charges:    0.0000000

LOEWDIN ATOMIC CHARGES
----------------------
   0 C :   -0.096034
   1 C :   -0.351269
   2 C :    0.333009
   3 C :   -0.210407
   4 C :    0.357349
   5 C :    0.354786
   6 H :   -0.418939
   7 H :   -0.314524
   8 N :    0.796227
   9 C :   -1.174112
  10 O :    0.728481
  11 N :    0.483458
  12 C :   -0.711395
  13 O :    0.612198
  14 O :    1.257108
  15 H :   -0.814597
  16 H :   -0.542187
  17 C :    0.896554
  18 H :   -0.282913
  19 H :   -0.282935
  20 H :   -0.304176
  21 H :   -0.315682

  Mayer bond orders larger than 0.100000
B(  0-C ,  1-C ) :   1.1204 B(  0-C ,  2-C ) :  -0.1052 B(  0-C ,  4-C ) :  -0.2571
B(  0-C ,  5-C ) :   0.9685 B(  0-C ,  7-H ) :  -0.1181 B(  0-C , 17-C ) :   0.4779
B(  0-C , 18-H ) :  -0.1408 B(  0-C , 19-H ) :  -0.1409 B(  0-C , 20-H ) :  -0.1366
B(  1-C ,  2-C ) :   1.4050 B(  1-C ,  3-C ) :  -0.4569 B(  1-C ,  4-C ) :   0.1291
B(  1-C ,  5-C ) :  -0.1879 B(  1-C , 12-C ) :  -0.2097 B(  2-C ,  3-C ) :   1.3462
B(  2-C ,  5-C ) :   0.1532 B(  2-C ,  6-H ) :   0.7858 B(  2-C ,  8-N ) :  -0.1378
B(  3-C ,  4-C ) :   1.1181 B(  3-C ,  5-C ) :  -0.2323 B(  3-C ,  6-H ) :  -0.1085
B(  3-C ,  8-N ) :   0.5485 B(  3-C ,  9-C ) :   0.1240 B(  3-C , 10-O ) :   0.2660
B(  3-C , 16-H ) :  -0.1953 B(  3-C , 21-H ) :  -0.2103 B(  4-C ,  5-C ) :   1.2026
B(  4-C ,  7-H ) :  -0.2426 B(  4-C , 21-H ) :   1.1287 B(  5-C ,  7-H ) :   1.2273
B(  5-C , 17-C ) :  -0.1032 B(  5-C , 21-H ) :  -0.1595 B(  8-N ,  9-C ) :   1.2763
B(  8-N , 10-O ) :   0.1574 B(  8-N , 16-H ) :   1.0842 B(  9-C , 10-O ) :   1.2396
B(  9-C , 14-O ) :   0.7528 B( 11-N , 12-C ) :   2.4753 B( 11-N , 13-O ) :   0.3918
B( 12-C , 13-O ) :   1.3163 B( 14-O , 15-H ) :   0.9204 B( 17-C , 18-H ) :   1.0368
B( 17-C , 19-H ) :   1.0369 B( 17-C , 20-H ) :   1.0363

MP2 TOTAL ENERGY:     -681.991506875 Eh
FINAL SINGLE POINT ENERGY      -681.991506874964

DIPOLE MOMENT
-------------
                                X             Y             Z
Electronic contribution:      3.86870       8.61034       0.00014
Nuclear contribution   :     -3.10384     -10.30499      -0.00030
                        -----------------------------------------
Total Dipole Moment    :      0.76487      -1.69465      -0.00016
                        -----------------------------------------
Magnitude (a.u.)       :      1.85927
Magnitude (Debye)      :      4.72588

Rotational constants in cm-1:     0.032035     0.015090     0.010277
Rotational constants in MHz :   960.388085   452.375829   308.104180

                             ****ORCA TERMINATED NORMALLY****
TOTAL RUN TIME: 0 days 1 hours 34 minutes 59 seconds 793 msec
