                         Program Version 4.2.1 -  RELEASE  -
|  1> %pal
|  2>  nprocs 32
|  3> end
|  4> !RI-MP2 aug-cc-pVQZ aug-cc-pVQZ/C TightSCF
|  5> %maxcore 4500
|  6> *xyzfile 0 1  03_20R1.xyz
|  7>
|  8>
|  9>                          ****END OF INPUT****

CARTESIAN COORDINATES (ANGSTROEM)
---------------------------------
  C     -2.414060   -0.066162    0.803693
  C     -0.954872    0.052425    0.523914
  C     -0.145172   -1.072174    0.480287
  C     -0.371240    1.299392    0.292479
  H     -0.579262   -2.050844    0.652400
  C      1.215739   -0.975597    0.214845
  C      0.976768    1.414784    0.027967
  C      1.779867    0.274597   -0.013579
  H     -0.987872    2.190968    0.316417
  H      1.816472   -1.873371    0.190562
  H      1.437454    2.377787   -0.150528
  O      3.092792    0.485170   -0.279737
  C      3.953599   -0.633752   -0.345960
  H      4.941057   -0.239906   -0.574642
  H      3.647197   -1.324643   -1.137062
  H      3.988654   -1.165854    0.609488
  H     -2.802056    0.807264    1.321088
  H     -2.645999   -0.958768    1.378308
  Cl    -3.400103   -0.200298   -0.721766

 Total Charge           Charge          ....    0
 Multiplicity           Mult            ....    1
 Number of Electrons    NEL             ....   82
 Basis Dimension        Dim             .... 1218

ORBITAL ENERGIES
----------------

  NO   OCC          E(Eh)            E(eV)
   0   2.0000    -104.814493     -2852.1474
   1   2.0000     -20.588795      -560.2496
   2   2.0000     -11.306298      -307.6600
   3   2.0000     -11.296184      -307.3848
   4   2.0000     -11.288493      -307.1755
   5   2.0000     -11.246330      -306.0282
   6   2.0000     -11.244549      -305.9797
   7   2.0000     -11.240297      -305.8640
   8   2.0000     -11.235609      -305.7365
   9   2.0000     -11.231650      -305.6287
  10   2.0000     -10.540029      -286.8088
  11   2.0000      -8.007009      -217.8818
  12   2.0000      -8.005390      -217.8378
  13   2.0000      -8.005360      -217.8369
  14   2.0000      -1.419854       -38.6362
  15   2.0000      -1.171399       -31.8754
  16   2.0000      -1.117951       -30.4210
  17   2.0000      -1.036086       -28.1933
  18   2.0000      -1.028324       -27.9821
  19   2.0000      -0.961272       -26.1575
  20   2.0000      -0.898479       -24.4488
  21   2.0000      -0.846309       -23.0292
  22   2.0000      -0.800246       -21.7758
  23   2.0000      -0.727295       -19.7907
  24   2.0000      -0.687016       -18.6947
  25   2.0000      -0.663437       -18.0530
  26   2.0000      -0.661004       -17.9868
  27   2.0000      -0.625711       -17.0265
  28   2.0000      -0.616573       -16.7778
  29   2.0000      -0.597999       -16.2724
  30   2.0000      -0.573114       -15.5952
  31   2.0000      -0.565812       -15.3965
  32   2.0000      -0.535891       -14.5823
  33   2.0000      -0.527605       -14.3568
  34   2.0000      -0.522652       -14.2221
  35   2.0000      -0.488618       -13.2960
  36   2.0000      -0.469918       -12.7871
  37   2.0000      -0.430643       -11.7184
  38   2.0000      -0.429246       -11.6804
  39   2.0000      -0.350399        -9.5348
  40   2.0000      -0.316391        -8.6094
  41   0.0000       0.022159         0.6030
  42   0.0000       0.027647         0.7523
  43   0.0000       0.028703         0.7810
  44   0.0000       0.038366         1.0440
  45   0.0000       0.040144         1.0924

MULLIKEN ATOMIC CHARGES
-----------------------
   0 C :   -0.224783
   1 C :    0.245021
   2 C :   -0.323475
   3 C :   -0.342373
   4 H :    0.218438
   5 C :   -0.444937
   6 C :   -0.526942
   7 C :    1.088900
   8 H :    0.243943
   9 H :    0.181294
  10 H :    0.230936
  11 O :   -0.794572
  12 C :   -0.670025
  13 H :    0.502552
  14 H :    0.246550
  15 H :    0.238504
  16 H :    0.250436
  17 H :    0.250048
  18 Cl:   -0.369514
Sum of atomic charges:    0.0000000

LOEWDIN ATOMIC CHARGES
----------------------
   0 C :   -0.145557
   1 C :   -0.215080
   2 C :    0.328227
   3 C :    0.318988
   4 H :   -0.311197
   5 C :    0.339887
   6 C :    0.333906
   7 C :   -0.459335
   8 H :   -0.312168
   9 H :   -0.356537
  10 H :   -0.323198
  11 O :    0.879503
  12 C :    0.574019
  13 H :   -0.316528
  14 H :   -0.305050
  15 H :   -0.305312
  16 H :   -0.409376
  17 H :   -0.412721
  18 Cl:    1.097528

  Mayer bond orders larger than 0.100000
B(  0-C ,  1-C ) :   0.8536 B(  0-C ,  2-C ) :  -0.1285 B(  0-C ,  3-C ) :  -0.1560
B(  0-C , 16-H ) :   0.9636 B(  0-C , 17-H ) :   0.9696 B(  0-C , 18-Cl) :   0.7756
B(  1-C ,  2-C ) :   1.1105 B(  1-C ,  3-C ) :   1.0661 B(  1-C ,  5-C ) :  -0.3373
B(  1-C ,  6-C ) :  -0.1680 B(  1-C ,  8-H ) :  -0.1097 B(  2-C ,  4-H ) :   1.0404
B(  2-C ,  5-C ) :   1.0281 B(  2-C ,  6-C ) :   0.1821 B(  2-C ,  9-H ) :  -0.1394
B(  3-C ,  6-C ) :   1.3953 B(  3-C ,  7-C ) :  -0.2116 B(  3-C ,  8-H ) :   1.0573
B(  4-H ,  5-C ) :  -0.1628 B(  5-C ,  7-C ) :   1.2948 B(  5-C ,  9-H ) :   1.1580
B(  5-C , 11-O ) :   0.1691 B(  5-C , 12-C ) :   0.1478 B(  6-C ,  7-C ) :   1.0717
B(  6-C ,  8-H ) :  -0.1528 B(  6-C , 10-H ) :   1.0399 B(  6-C , 11-O ) :   0.2429
B(  7-C ,  9-H ) :  -0.1057 B(  7-C , 10-H ) :  -0.1321 B(  7-C , 12-C ) :  -0.1386
B( 11-O , 12-C ) :   0.9169 B( 12-C , 13-H ) :   0.7425 B( 12-C , 14-H ) :   0.9253
B( 12-C , 15-H ) :   0.9341

MP2 TOTAL ENERGY:     -844.562857964 Eh
FINAL SINGLE POINT ENERGY      -844.562857964464

DIPOLE MOMENT
-------------
                                X             Y             Z
Electronic contribution:    -12.58338       1.50556      -2.92239
Nuclear contribution   :     13.49998      -1.91078       3.57365
                        -----------------------------------------
Total Dipole Moment    :      0.91659      -0.40522       0.65127
                        -----------------------------------------
Magnitude (a.u.)       :      1.19520
Magnitude (Debye)      :      3.03795

Rotational constants in cm-1:     0.115489     0.016555     0.015620
Rotational constants in MHz :  3462.274780   496.314835   468.277216

                             ****ORCA TERMINATED NORMALLY****
TOTAL RUN TIME: 0 days 0 hours 43 minutes 9 seconds 675 msec
