                         Program Version 4.2.1 -  RELEASE  -
|  1> %pal
|  2>  nprocs 32
|  3> end
|  4> !RI-MP2 aug-cc-pVQZ aug-cc-pVQZ/C TightSCF
|  5> %maxcore 4500
|  6> *xyzfile 0 1  10_80R.xyz
|  7>
|  8>
|  9>                          ****END OF INPUT****

CARTESIAN COORDINATES (ANGSTROEM)
---------------------------------
  C      3.168561    0.395477    0.033340
  C      2.445938    0.395671    1.377930
  C      0.968391    0.175449    1.240116
  C      0.387792   -0.232247    0.118457
  C      1.161414   -0.544447   -1.138073
  C      2.649029   -0.732436   -0.851065
  H      4.246069    0.304505    0.185664
  H      2.998120    1.352650   -0.470547
  H      2.617252    1.337172    1.907328
  H      2.852582   -0.387746    2.028978
  H      0.757007   -1.444432   -1.611230
  H      1.027069    0.272095   -1.857179
  H      3.202438   -0.775914   -1.791432
  H      2.801022   -1.691944   -0.346303
  C     -1.130453   -0.410216    0.016645
  C     -1.816498   -0.028888    1.259402
  C     -1.434502   -1.828151   -0.254955
  N     -2.367934    0.281686    2.214056
  N     -1.651660   -2.924107   -0.509870
  C     -1.731628    0.427867   -1.160917
  C     -1.430478    1.844529   -1.040279
  C     -1.176255    3.006986   -0.931303
  H     -1.327073    0.033547   -2.094163
  H     -2.811354    0.269421   -1.185326
  H      0.365073    0.367149    2.120949
  H     -0.958912    4.042871   -0.831831

 Total Charge           Charge          ....    0
 Multiplicity           Mult            ....    1
 Number of Electrons    NEL             ....   98
 Basis Dimension        Dim             .... 1672

ORBITAL ENERGIES
----------------

  NO   OCC          E(Eh)            E(eV)
   0   2.0000     -15.590775      -424.2465
   1   2.0000     -15.588314      -424.1796
   2   2.0000     -11.356832      -309.0351
   3   2.0000     -11.302144      -307.5470
   4   2.0000     -11.293658      -307.3161
   5   2.0000     -11.291285      -307.2515
   6   2.0000     -11.266809      -306.5855
   7   2.0000     -11.254481      -306.2500
   8   2.0000     -11.250876      -306.1519
   9   2.0000     -11.246539      -306.0339
  10   2.0000     -11.245650      -306.0097
  11   2.0000     -11.240617      -305.8727
  12   2.0000     -11.235090      -305.7223
  13   2.0000     -11.232974      -305.6647
  14   2.0000      -1.260520       -34.3005
  15   2.0000      -1.239530       -33.7293
  16   2.0000      -1.180648       -32.1271
  17   2.0000      -1.130503       -30.7625
  18   2.0000      -1.066971       -29.0338
  19   2.0000      -1.031803       -28.0768
  20   2.0000      -1.017982       -27.7007
  21   2.0000      -0.961293       -26.1581
  22   2.0000      -0.877732       -23.8843
  23   2.0000      -0.843252       -22.9461
  24   2.0000      -0.790760       -21.5177
  25   2.0000      -0.747415       -20.3382
  26   2.0000      -0.734250       -19.9800
  27   2.0000      -0.710234       -19.3264
  28   2.0000      -0.669873       -18.2282
  29   2.0000      -0.654516       -17.8103
  30   2.0000      -0.634408       -17.2631
  31   2.0000      -0.625944       -17.0328
  32   2.0000      -0.606893       -16.5144
  33   2.0000      -0.595282       -16.1985
  34   2.0000      -0.584181       -15.8964
  35   2.0000      -0.577866       -15.7245
  36   2.0000      -0.564134       -15.3509
  37   2.0000      -0.557267       -15.1640
  38   2.0000      -0.544145       -14.8069
  39   2.0000      -0.500465       -13.6183
  40   2.0000      -0.497065       -13.5258
  41   2.0000      -0.488338       -13.2883
  42   2.0000      -0.484693       -13.1892
  43   2.0000      -0.480381       -13.0718
  44   2.0000      -0.469920       -12.7872
  45   2.0000      -0.462728       -12.5915
  46   2.0000      -0.414493       -11.2789
  47   2.0000      -0.413803       -11.2602
  48   2.0000      -0.374934       -10.2025
  49   0.0000       0.017213         0.4684
  50   0.0000       0.023807         0.6478
  51   0.0000       0.025234         0.6867
  52   0.0000       0.031358         0.8533
  53   0.0000       0.037815         1.0290

MULLIKEN ATOMIC CHARGES
-----------------------
   0 C :   -0.558739
   1 C :   -0.421889
   2 C :   -0.441837
   3 C :    0.361970
   4 C :   -0.019316
   5 C :   -0.654810
   6 H :    0.296994
   7 H :    0.118239
   8 H :    0.247739
   9 H :    0.182431
  10 H :    0.310705
  11 H :    0.227716
  12 H :    0.233520
  13 H :    0.202814
  14 C :    0.158078
  15 C :    0.906520
  16 C :    0.688943
  17 N :   -0.994701
  18 N :   -0.967144
  19 C :   -0.040040
  20 C :    0.214552
  21 C :   -1.169290
  22 H :    0.294534
  23 H :    0.423864
  24 H :    0.205664
  25 H :    0.193482
Sum of atomic charges:    0.0000000

LOEWDIN ATOMIC CHARGES
----------------------
   0 C :    0.530441
   1 C :    0.536952
   2 C :    0.424745
   3 C :   -0.053978
   4 C :    0.502495
   5 C :    0.543366
   6 H :   -0.254972
   7 H :   -0.260180
   8 H :   -0.267819
   9 H :   -0.262715
  10 H :   -0.282588
  11 H :   -0.265953
  12 H :   -0.251210
  13 H :   -0.253689
  14 C :   -0.464848
  15 C :   -0.346033
  16 C :   -0.310049
  17 N :    0.508183
  18 N :    0.486728
  19 C :    0.395753
  20 C :    0.108949
  21 C :    0.610766
  22 H :   -0.306983
  23 H :   -0.281841
  24 H :   -0.344719
  25 H :   -0.440802

  Mayer bond orders larger than 0.100000
B(  0-C ,  1-C ) :   0.9636 B(  0-C ,  5-C ) :   0.9317 B(  0-C ,  6-H ) :   0.9247
B(  0-C ,  7-H ) :   1.0538 B(  1-C ,  2-C ) :   0.6041 B(  1-C ,  3-C ) :  -0.2886
B(  1-C ,  8-H ) :   1.0371 B(  1-C ,  9-H ) :   1.0293 B(  2-C ,  3-C ) :   1.4980
B(  2-C ,  4-C ) :  -0.1012 B(  2-C ,  8-H ) :  -0.1537 B(  2-C , 14-C ) :  -0.2892
B(  2-C , 15-C ) :   0.1102 B(  2-C , 24-H ) :   1.0362 B(  3-C ,  4-C ) :   0.3885
B(  3-C ,  5-C ) :  -0.1190 B(  3-C , 14-C ) :   0.3467 B(  3-C , 15-C ) :  -0.1743
B(  3-C , 16-C ) :  -0.2081 B(  3-C , 24-H ) :  -0.1171 B(  4-C ,  5-C ) :   0.8168
B(  4-C , 10-H ) :   0.9137 B(  4-C , 11-H ) :   0.9176 B(  4-C , 12-H ) :  -0.1008
B(  5-C , 12-H ) :   1.0408 B(  5-C , 13-H ) :   1.0119 B( 14-C , 15-C ) :   1.2557
B( 14-C , 16-C ) :   1.3510 B( 14-C , 17-N ) :   0.3146 B( 14-C , 18-N ) :   0.2315
B( 14-C , 19-C ) :   0.7823 B( 15-C , 16-C ) :  -0.1343 B( 15-C , 17-N ) :   1.7725
B( 16-C , 18-N ) :   1.8961 B( 19-C , 20-C ) :   0.6191 B( 19-C , 21-C ) :  -0.5284
B( 19-C , 22-H ) :   0.9351 B( 19-C , 23-H ) :   0.8810 B( 20-C , 21-C ) :   2.0655
B( 20-C , 23-H ) :  -0.1061 B( 20-C , 25-H ) :  -0.4048 B( 21-C , 25-H ) :   1.5347

MP2 TOTAL ENERGY:     -572.887293840 Eh
FINAL SINGLE POINT ENERGY      -572.887293839879

DIPOLE MOMENT
-------------
                                X             Y             Z
Electronic contribution:    -14.22050      -2.51398       2.99754
Nuclear contribution   :     15.72939       3.66007      -3.93101
                        -----------------------------------------
Total Dipole Moment    :      1.50889       1.14609      -0.93347
                        -----------------------------------------
Magnitude (a.u.)       :      2.11226
Magnitude (Debye)      :      5.36893

Rotational constants in cm-1:     0.028993     0.019214     0.016737
Rotational constants in MHz :   869.192811   576.015125   501.767802

                             ****ORCA TERMINATED NORMALLY****
TOTAL RUN TIME: 0 days 2 hours 38 minutes 53 seconds 97 msec
