                         Program Version 4.2.1 -  RELEASE  -
|  1> %pal
|  2>  nprocs 32
|  3> end
|  4> !RI-MP2 aug-cc-pVQZ aug-cc-pVQZ/C TightSCF
|  5> %maxcore 4500
|  6> *xyzfile 0 1  08_7R1.xyz
|  7>
|  8>
|  9>                          ****END OF INPUT****

CARTESIAN COORDINATES (ANGSTROEM)
---------------------------------
  C      3.481212   -1.162615    0.003102
  O      2.102188   -1.528328    0.005671
  H      4.024940   -2.103792   -0.001182
  H      3.727106   -0.581664    0.892173
  H      3.722144   -0.575284   -0.882989
  C      1.204710   -0.551364   -0.000197
  C     -0.160643   -0.867915   -0.002886
  N      1.593951    0.708344   -0.001209
  C      0.656622    1.681067   -0.007073
  C     -1.011662    0.234584   -0.001846
  N     -0.661262    1.520171   -0.000440
  N     -0.885364   -2.043270   -0.002419
  C     -2.123674   -1.654594   -0.001301
  N     -2.276892   -0.281727   -0.001946
  H     -2.984287   -2.307958   -0.002122
  C     -3.507433    0.479742    0.008207
  H     -3.607138    1.036535    0.940688
  H     -4.346104   -0.207535   -0.091281
  H     -3.518836    1.183931   -0.823493
  N      1.134736    2.958597   -0.049322
  H      2.106901    3.094429    0.166797
  H      0.486814    3.699728    0.155359

 Total Charge           Charge          ....    0
 Multiplicity           Mult            ....    1
 Number of Electrons    NEL             ....   94
 Basis Dimension        Dim             .... 1454

ORBITAL ENERGIES
----------------

  NO   OCC          E(Eh)            E(eV)
   0   2.0000     -20.593447      -560.3762
   1   2.0000     -15.617151      -424.9643
   2   2.0000     -15.569025      -423.6547
   3   2.0000     -15.550824      -423.1594
   4   2.0000     -15.542831      -422.9419
   5   2.0000     -15.542779      -422.9405
   6   2.0000     -11.351659      -308.8943
   7   2.0000     -11.349818      -308.8443
   8   2.0000     -11.306085      -307.6542
   9   2.0000     -11.302626      -307.5601
  10   2.0000     -11.279495      -306.9307
  11   2.0000     -11.277783      -306.8841
  12   2.0000     -11.235026      -305.7206
  13   2.0000      -1.437190       -39.1079
  14   2.0000      -1.362896       -37.0863
  15   2.0000      -1.310961       -35.6731
  16   2.0000      -1.206000       -32.8169
  17   2.0000      -1.193613       -32.4799
  18   2.0000      -1.170915       -31.8622
  19   2.0000      -1.029481       -28.0136
  20   2.0000      -0.987980       -26.8843
  21   2.0000      -0.953179       -25.9373
  22   2.0000      -0.873888       -23.7797
  23   2.0000      -0.862967       -23.4825
  24   2.0000      -0.801331       -21.8053
  25   2.0000      -0.758322       -20.6350
  26   2.0000      -0.730269       -19.8716
  27   2.0000      -0.703573       -19.1452
  28   2.0000      -0.672727       -18.3058
  29   2.0000      -0.662321       -18.0227
  30   2.0000      -0.653147       -17.7730
  31   2.0000      -0.650561       -17.7027
  32   2.0000      -0.633577       -17.2405
  33   2.0000      -0.608154       -16.5487
  34   2.0000      -0.591599       -16.0982
  35   2.0000      -0.582401       -15.8479
  36   2.0000      -0.566260       -15.4087
  37   2.0000      -0.546752       -14.8779
  38   2.0000      -0.524212       -14.2645
  39   2.0000      -0.513564       -13.9748
  40   2.0000      -0.496748       -13.5172
  41   2.0000      -0.446529       -12.1507
  42   2.0000      -0.433667       -11.8007
  43   2.0000      -0.421083       -11.4583
  44   2.0000      -0.405256       -11.0276
  45   2.0000      -0.371529       -10.1098
  46   2.0000      -0.292520        -7.9599
  47   0.0000       0.021213         0.5772
  48   0.0000       0.025011         0.6806
  49   0.0000       0.031016         0.8440
  50   0.0000       0.038540         1.0487
  51   0.0000       0.039124         1.0646

MULLIKEN ATOMIC CHARGES
-----------------------
   0 C :   -0.811870
   1 O :   -0.759296
   2 H :    0.468625
   3 H :    0.309280
   4 H :    0.314218
   5 C :    1.665400
   6 C :   -0.285066
   7 N :   -0.881294
   8 C :    0.919213
   9 C :    1.183134
  10 N :   -0.826779
  11 N :   -0.929737
  12 C :   -0.156382
  13 N :   -0.438128
  14 H :    0.521940
  15 C :   -1.010393
  16 H :    0.333156
  17 H :    0.343940
  18 H :    0.339090
  19 N :   -0.853947
  20 H :    0.284998
  21 H :    0.269897
Sum of atomic charges:    0.0000000

LOEWDIN ATOMIC CHARGES
----------------------
   0 C :    0.588040
   1 O :    0.875571
   2 H :   -0.320749
   3 H :   -0.313238
   4 H :   -0.313815
   5 C :   -0.740816
   6 C :   -0.436736
   7 N :    0.577698
   8 C :   -0.761157
   9 C :   -0.618032
  10 N :    0.628662
  11 N :    0.605486
  12 C :   -0.047978
  13 N :    0.408827
  14 H :   -0.314065
  15 C :    0.818157
  16 H :   -0.273534
  17 H :   -0.297418
  18 H :   -0.278961
  19 N :    1.228863
  20 H :   -0.508269
  21 H :   -0.506538

  Mayer bond orders larger than 0.100000
B(  0-C ,  1-O ) :   0.9205 B(  0-C ,  2-H ) :   0.8051 B(  0-C ,  3-H ) :   0.9069
B(  0-C ,  4-H ) :   0.8983 B(  0-C ,  5-C ) :  -0.1674 B(  1-O ,  5-C ) :   0.2350
B(  1-O ,  6-C ) :   0.4698 B(  1-O ,  7-N ) :   0.2290 B(  5-C ,  6-C ) :   1.1492
B(  5-C ,  7-N ) :   1.1207 B(  5-C ,  9-C ) :  -0.4924 B(  6-C ,  7-N ) :   0.2096
B(  6-C ,  8-C ) :   0.1113 B(  6-C ,  9-C ) :   1.3567 B(  7-N ,  8-C ) :   1.2539
B(  8-C ,  9-C ) :   0.1022 B(  8-C , 10-N ) :   1.3465 B(  8-C , 19-N ) :   1.0245
B(  9-C , 10-N ) :   0.8242 B(  9-C , 11-N ) :   0.1924 B(  9-C , 12-C ) :   0.1007
B(  9-C , 13-N ) :   0.8749 B(  9-C , 15-C ) :  -0.1672 B( 10-N , 13-N ) :   0.1426
B( 11-N , 12-C ) :   1.6986 B( 12-C , 13-N ) :   1.4358 B( 12-C , 14-H ) :   0.6994
B( 13-N , 15-C ) :   0.6975 B( 15-C , 16-H ) :   0.9681 B( 15-C , 17-H ) :   0.8806
B( 15-C , 18-H ) :   0.9530 B( 19-N , 20-H ) :   0.9402 B( 19-N , 21-H ) :   0.9639

MP2 TOTAL ENERGY:     -620.226907476 Eh
FINAL SINGLE POINT ENERGY      -620.226907476208

DIPOLE MOMENT
-------------
                                X             Y             Z
Electronic contribution:     -0.15492      -2.22055      -0.10324
Nuclear contribution   :     -0.35641       3.18342       0.34849
                        -----------------------------------------
Total Dipole Moment    :     -0.51133       0.96286       0.24526
                        -----------------------------------------
Magnitude (a.u.)       :      1.11746
Magnitude (Debye)      :      2.84036

Rotational constants in cm-1:     0.042380     0.023990     0.015410
Rotational constants in MHz :  1270.506804   719.199024   461.971901

                             ****ORCA TERMINATED NORMALLY****
TOTAL RUN TIME: 0 days 1 hours 22 minutes 52 seconds 261 msec
