                         Program Version 4.2.1 -  RELEASE  -
|  1> %pal
|  2>  nprocs 32
|  3> end
|  4> !RI-MP2 aug-cc-pVQZ aug-cc-pVQZ/C TightSCF
|  5> %maxcore 4500
|  6> *xyzfile 0 2  03_27R2.xyz
|  7>
|  8>
|  9>                          ****END OF INPUT****

CARTESIAN COORDINATES (ANGSTROEM)
---------------------------------
  N      0.000195   -0.001434    0.826415
  C      1.162893    0.306209    0.090878
  C     -1.163138   -0.306688    0.090820
  O     -1.363450   -1.441189   -0.257657
  O      1.361204    1.441238   -0.257095
  C     -2.069390    0.862728   -0.138086
  C      2.071224   -0.861465   -0.138585
  H     -1.505866    1.685844   -0.583330
  H     -2.456450    1.212614    0.820912
  H     -2.890598    0.560891   -0.785118
  H      2.891943   -0.557873   -0.785414
  H      1.509207   -1.685333   -0.584352
  H      2.458820   -1.211198    0.820251

 Total Charge           Charge          ....    0
 Multiplicity           Mult            ....    2
 Number of Electrons    NEL             ....   53
 Basis Dimension        Dim             ....  836

ORBITAL ENERGIES
----------------
                 SPIN UP ORBITALS
  NO   OCC          E(Eh)            E(eV)
   0   1.0000     -20.568383      -559.6941
   1   1.0000     -20.568344      -559.6931
   2   1.0000     -15.639866      -425.5824
   3   1.0000     -11.385320      -309.8103
   4   1.0000     -11.385287      -309.8094
   5   1.0000     -11.254438      -306.2488
   6   1.0000     -11.254385      -306.2474
   7   1.0000      -1.445848       -39.3435
   8   1.0000      -1.422477       -38.7076
   9   1.0000      -1.266504       -34.4633
  10   1.0000      -1.052592       -28.6425
  11   1.0000      -1.017270       -27.6813
  12   1.0000      -0.855940       -23.2913
  13   1.0000      -0.736679       -20.0460
  14   1.0000      -0.710670       -19.3383
  15   1.0000      -0.698189       -18.9987
  16   1.0000      -0.674370       -18.3505
  17   1.0000      -0.648362       -17.6428
  18   1.0000      -0.613508       -16.6944
  19   1.0000      -0.603970       -16.4349
  20   1.0000      -0.588573       -16.0159
  21   1.0000      -0.563664       -15.3381
  22   1.0000      -0.531334       -14.4583
  23   1.0000      -0.514379       -13.9970
  24   1.0000      -0.510185       -13.8828
  25   1.0000      -0.455688       -12.3999
  26   1.0000      -0.454818       -12.3762
  27   0.0000       0.025140         0.6841
  28   0.0000       0.029800         0.8109
  29   0.0000       0.036394         0.9903
  30   0.0000       0.042968         1.1692
  31   0.0000       0.047282         1.2866

                 SPIN DOWN ORBITALS
  NO   OCC          E(Eh)            E(eV)
   0   1.0000     -20.566772      -559.6503
   1   1.0000     -20.566744      -559.6496
   2   1.0000     -15.606102      -424.6636
   3   1.0000     -11.387513      -309.8700
   4   1.0000     -11.387478      -309.8690
   5   1.0000     -11.253838      -306.2325
   6   1.0000     -11.253783      -306.2310
   7   1.0000      -1.431513       -38.9534
   8   1.0000      -1.417112       -38.5616
   9   1.0000      -1.180184       -32.1144
  10   1.0000      -1.046702       -28.4822
  11   1.0000      -1.004834       -27.3429
  12   1.0000      -0.846782       -23.0421
  13   1.0000      -0.727624       -19.7997
  14   1.0000      -0.696751       -18.9596
  15   1.0000      -0.662756       -18.0345
  16   1.0000      -0.656259       -17.8577
  17   1.0000      -0.640803       -17.4371
  18   1.0000      -0.613179       -16.6854
  19   1.0000      -0.595678       -16.2092
  20   1.0000      -0.580221       -15.7886
  21   1.0000      -0.553145       -15.0518
  22   1.0000      -0.530544       -14.4368
  23   1.0000      -0.501050       -13.6343
  24   1.0000      -0.444839       -12.1047
  25   1.0000      -0.435710       -11.8563
  26   0.0000       0.025251         0.6871
  27   0.0000       0.029236         0.7955
  28   0.0000       0.036354         0.9892
  29   0.0000       0.042421         1.1543
  30   0.0000       0.047280         1.2866

MULLIKEN ATOMIC CHARGES AND SPIN POPULATIONS
--------------------------------------------
   0 N :   -0.397508    1.137635
   1 C :    0.894236   -0.127999
   2 C :    0.894233   -0.127945
   3 O :   -0.770386    0.024406
   4 O :   -0.770430    0.024637
   5 C :   -0.826539    0.023939
   6 C :   -0.826203    0.023894
   7 H :    0.277200    0.004813
   8 H :    0.309546    0.000542
   9 H :    0.314715    0.005381
  10 H :    0.314612    0.005373
  11 H :    0.277004    0.004793
  12 H :    0.309521    0.000533
Sum of atomic charges         :    0.0000000

LOEWDIN ATOMIC CHARGES AND SPIN POPULATIONS
-------------------------------------------
   0 N :    0.550900    0.627513
   1 C :   -0.949434    0.136143
   2 C :   -0.949453    0.136156
   3 O :    0.698312    0.021208
   4 O :    0.698466    0.021352
   5 C :    0.878155    0.017099
   6 C :    0.878208    0.017065
   7 H :   -0.303448    0.004757
   8 H :   -0.290107    0.002861
   9 H :   -0.309126    0.004123
  10 H :   -0.309139    0.004109
  11 H :   -0.303199    0.004768
  12 H :   -0.290135    0.002847

  Mayer bond orders larger than 0.100000
B(  0-N ,  1-C ) :   0.9470 B(  0-N ,  2-C ) :   0.9467 B(  1-C ,  4-O ) :   1.3123
B(  1-C ,  6-C ) :   0.9343 B(  2-C ,  3-O ) :   1.3125 B(  2-C ,  5-C ) :   0.9345
B(  5-C ,  7-H ) :   0.9269 B(  5-C ,  8-H ) :   0.8921 B(  5-C ,  9-H ) :   0.9509
B(  6-C , 10-H ) :   0.9510 B(  6-C , 11-H ) :   0.9270 B(  6-C , 12-H ) :   0.8922

MP2 TOTAL ENERGY:     -360.646990065 Eh
FINAL SINGLE POINT ENERGY      -360.646990065067

DIPOLE MOMENT
-------------
                                X             Y             Z
Electronic contribution:     -0.00463      -0.00431       1.17943
Nuclear contribution   :      0.00698       0.00491      -1.09417
                        -----------------------------------------
Total Dipole Moment    :      0.00236       0.00060       0.08526
                        -----------------------------------------
Magnitude (a.u.)       :      0.08530
Magnitude (Debye)      :      0.21681

Rotational constants in cm-1:     0.153219     0.068650     0.051975
Rotational constants in MHz :  4593.379816  2058.070907  1558.159841

                             ****ORCA TERMINATED NORMALLY****
TOTAL RUN TIME: 0 days 0 hours 16 minutes 33 seconds 966 msec
