                         Program Version 4.2.1 -  RELEASE  -
|  1> %pal
|  2>  nprocs 32
|  3> end
|  4> !RI-MP2 aug-cc-pVQZ aug-cc-pVQZ/C TightSCF
|  5> %maxcore 4500
|  6> *xyzfile -1 1  09_22P.xyz
|  7>
|  8>
|  9>                          ****END OF INPUT****

CARTESIAN COORDINATES (ANGSTROEM)
---------------------------------
  C     -5.757048    0.295350   -0.289933
  N     -4.518649    0.064312    0.414157
  H     -5.776703   -0.141149   -1.306459
  H     -5.949282    1.369049   -0.395380
  H     -6.592118   -0.126810    0.276832
  C     -3.333630    0.476864   -0.323049
  C     -2.986758    1.933573   -0.041015
  H     -3.828579    2.583689   -0.302951
  H     -2.122079    2.267859   -0.621688
  H     -2.759366    2.056200    1.016786
  C     -2.212797   -0.558188   -0.014442
  H     -3.508007    0.356828   -1.407453
  N     -1.099009   -0.416066   -1.008608
  O     -2.614760   -1.761468    0.151280
  C      0.040255   -0.964729   -0.309046
  C     -0.273504   -0.734108    1.233447
  O     -1.456810   -0.019639    1.237237
  H      0.512485   -0.161178    1.737447
  H     -0.370416   -1.714751    1.714064
  C      1.312421   -0.280841   -0.667311
  H      0.141896   -2.032732   -0.497250
  O      1.450607    0.812657   -1.155408
  O      2.396123   -1.024634   -0.309053
  C      3.678124   -0.428331   -0.525594
  C      3.826853    0.908118    0.196821
  O      4.444214    1.840725   -0.229139
  O      3.254267    0.883952    1.410452
  N      4.698650   -1.312263   -0.057038
  H      3.813147   -0.222289   -1.586480
  H      3.364846    1.761450    1.801074
  H      4.717302   -2.157541   -0.613777
  H      4.520152   -1.570549    0.907312
  H     -4.368358   -0.932765    0.582595
  H     -0.914490    0.573808   -1.146461

 Total Charge           Charge          ....   -1
 Multiplicity           Mult            ....    1
 Number of Electrons    NEL             ....  140
 Basis Dimension        Dim             .... 2176

ORBITAL ENERGIES
----------------

  NO   OCC          E(Eh)            E(eV)
   0   2.0000     -20.534946      -558.7843
   1   2.0000     -20.511532      -558.1472
   2   2.0000     -20.469146      -556.9938
   3   2.0000     -20.445545      -556.3516
   4   2.0000     -20.371080      -554.3253
   5   2.0000     -20.276736      -551.7580
   6   2.0000     -15.492086      -421.5611
   7   2.0000     -15.391327      -418.8193
   8   2.0000     -15.381915      -418.5632
   9   2.0000     -11.307894      -307.7034
  10   2.0000     -11.275766      -306.8292
  11   2.0000     -11.260220      -306.4062
  12   2.0000     -11.175107      -304.0901
  13   2.0000     -11.133742      -302.9645
  14   2.0000     -11.132867      -302.9407
  15   2.0000     -11.115461      -302.4671
  16   2.0000     -11.096362      -301.9474
  17   2.0000     -11.072798      -301.3061
  18   2.0000      -1.398530       -38.0559
  19   2.0000      -1.370536       -37.2942
  20   2.0000      -1.289369       -35.0855
  21   2.0000      -1.270970       -34.5848
  22   2.0000      -1.221630       -33.2423
  23   2.0000      -1.133834       -30.8532
  24   2.0000      -1.112796       -30.2807
  25   2.0000      -1.053697       -28.6725
  26   2.0000      -1.038101       -28.2482
  27   2.0000      -0.911590       -24.8056
  28   2.0000      -0.880253       -23.9529
  29   2.0000      -0.845792       -23.0152
  30   2.0000      -0.774353       -21.0712
  31   2.0000      -0.768855       -20.9216
  32   2.0000      -0.732372       -19.9289
  33   2.0000      -0.693483       -18.8706
  34   2.0000      -0.675157       -18.3720
  35   2.0000      -0.647964       -17.6320
  36   2.0000      -0.622949       -16.9513
  37   2.0000      -0.620935       -16.8965
  38   2.0000      -0.598857       -16.2957
  39   2.0000      -0.591209       -16.0876
  40   2.0000      -0.581053       -15.8112
  41   2.0000      -0.554615       -15.0918
  42   2.0000      -0.549864       -14.9625
  43   2.0000      -0.522125       -14.2078
  44   2.0000      -0.515195       -14.0192
  45   2.0000      -0.503679       -13.7058
  46   2.0000      -0.494438       -13.4543
  47   2.0000      -0.480464       -13.0741
  48   2.0000      -0.474452       -12.9105
  49   2.0000      -0.461083       -12.5467
  50   2.0000      -0.452045       -12.3008
  51   2.0000      -0.446233       -12.1426
  52   2.0000      -0.424262       -11.5448
  53   2.0000      -0.415003       -11.2928
  54   2.0000      -0.411108       -11.1868
  55   2.0000      -0.407493       -11.0885
  56   2.0000      -0.397605       -10.8194
  57   2.0000      -0.388225       -10.5641
  58   2.0000      -0.380485       -10.3535
  59   2.0000      -0.373167       -10.1544
  60   2.0000      -0.363253        -9.8846
  61   2.0000      -0.348455        -9.4819
  62   2.0000      -0.338825        -9.2199
  63   2.0000      -0.331092        -9.0095
  64   2.0000      -0.321024        -8.7355
  65   2.0000      -0.271981        -7.4010
  66   2.0000      -0.248898        -6.7728
  67   2.0000      -0.223922        -6.0932
  68   2.0000      -0.208325        -5.6688
  69   2.0000      -0.198145        -5.3918
  70   0.0000       0.084289         2.2936
  71   0.0000       0.094029         2.5587
  72   0.0000       0.099865         2.7175
  73   0.0000       0.101040         2.7494
  74   0.0000       0.109172         2.9707

MULLIKEN ATOMIC CHARGES
-----------------------
   0 C :   -0.985381
   1 N :   -0.725203
   2 H :    0.291378
   3 H :    0.234356
   4 H :    0.365434
   5 C :    0.348477
   6 C :   -1.117305
   7 H :    0.264678
   8 H :    0.206096
   9 H :    0.247777
  10 C :    2.523147
  11 H :    0.180432
  12 N :   -1.069409
  13 O :   -1.415009
  14 C :    0.090446
  15 C :   -0.510310
  16 O :   -1.137661
  17 H :    0.428184
  18 H :    0.345655
  19 C :    1.277988
  20 H :    0.323634
  21 O :   -1.043926
  22 O :   -1.034719
  23 C :    0.566046
  24 C :    1.229675
  25 O :   -0.928022
  26 O :   -0.801583
  27 N :   -0.918554
  28 H :    0.379661
  29 H :    0.315411
  30 H :    0.257403
  31 H :    0.297452
  32 H :    0.221554
  33 H :    0.292197
Sum of atomic charges:   -1.0000000

LOEWDIN ATOMIC CHARGES
----------------------
   0 C :    0.730370
   1 N :    0.866802
   2 H :   -0.284263
   3 H :   -0.313943
   4 H :   -0.304579
   5 C :   -0.133479
   6 C :    0.898241
   7 H :   -0.292393
   8 H :   -0.289088
   9 H :   -0.309593
  10 C :   -1.360150
  11 H :   -0.307502
  12 N :    0.857523
  13 O :    0.691570
  14 C :   -0.145370
  15 C :    0.082805
  16 O :    0.838221
  17 H :   -0.330756
  18 H :   -0.304944
  19 C :   -1.062665
  20 H :   -0.314730
  21 O :    0.770605
  22 O :    0.876834
  23 C :   -0.495609
  24 C :   -1.111939
  25 O :    0.714880
  26 O :    1.263637
  27 N :    1.264643
  28 H :   -0.351338
  29 H :   -0.796202
  30 H :   -0.498496
  31 H :   -0.511741
  32 H :   -0.696191
  33 H :   -0.641161

  Mayer bond orders larger than 0.100000
B(  0-C ,  1-N ) :   0.9991 B(  0-C ,  2-H ) :   0.9387 B(  0-C ,  3-H ) :   0.9722
B(  0-C ,  4-H ) :   0.9326 B(  0-C ,  5-C ) :  -0.1812 B(  1-N ,  5-C ) :   0.1676
B(  1-N ,  6-C ) :   0.1434 B(  1-N , 32-H ) :   0.9207 B(  5-C ,  6-C ) :   0.5245
B(  5-C ,  7-H ) :  -0.1243 B(  5-C , 10-C ) :   0.8140 B(  5-C , 11-H ) :   1.0016
B(  5-C , 12-N ) :   0.1132 B(  5-C , 13-O ) :   0.2217 B(  6-C ,  7-H ) :   1.0600
B(  6-C ,  8-H ) :   1.0479 B(  6-C ,  9-H ) :   0.9757 B( 10-C , 12-N ) :   0.5031
B( 10-C , 13-O ) :  -0.2842 B( 10-C , 16-O ) :   0.1251 B( 12-N , 13-O ) :   0.1405
B( 12-N , 14-C ) :   0.7534 B( 12-N , 33-H ) :   0.7649 B( 13-O , 14-C ) :   0.2106
B( 13-O , 15-C ) :   0.1506 B( 13-O , 16-O ) :   0.1269 B( 14-C , 15-C ) :   0.9881
B( 14-C , 16-O ) :   0.1295 B( 14-C , 19-C ) :   0.9733 B( 14-C , 20-H ) :   0.8605
B( 15-C , 16-O ) :   1.0690 B( 15-C , 17-H ) :   0.7786 B( 15-C , 18-H ) :   0.8654
B( 16-O , 33-H ) :   0.1389 B( 19-C , 21-O ) :   0.8439 B( 19-C , 22-O ) :   0.8171
B( 19-C , 23-C ) :  -0.1666 B( 21-O , 22-O ) :   0.1797 B( 21-O , 23-C ) :   0.1579
B( 22-O , 23-C ) :   0.7830 B( 22-O , 27-N ) :   0.1505 B( 23-C , 24-C ) :   0.9816
B( 23-C , 25-O ) :   0.1052 B( 23-C , 27-N ) :   0.6026 B( 23-C , 28-H ) :   0.8916
B( 24-C , 25-O ) :   1.0255 B( 24-C , 26-O ) :   0.8714 B( 25-O , 26-O ) :   0.1476
B( 26-O , 29-H ) :   0.9343 B( 27-N , 30-H ) :   0.9213 B( 27-N , 31-H ) :   0.8616

MP2 TOTAL ENERGY:     -966.915297188 Eh
FINAL SINGLE POINT ENERGY      -966.915297188360

DIPOLE MOMENT
-------------
                                X             Y             Z
Electronic contribution:     22.43485      -1.68783      -0.01151
Nuclear contribution   :    -18.92091       1.90222       0.17103
                        -----------------------------------------
Total Dipole Moment    :      3.51395       0.21438       0.15952
                        -----------------------------------------
Magnitude (a.u.)       :      3.52409
Magnitude (Debye)      :      8.95753

Rotational constants in cm-1:     0.038476     0.005991     0.005704
Rotational constants in MHz :  1153.468809   179.619044   171.014779

                             ****ORCA TERMINATED NORMALLY****
TOTAL RUN TIME: 0 days 3 hours 50 minutes 11 seconds 859 msec
