                         Program Version 4.2.1 -  RELEASE  -
|  1> %pal
|  2>  nprocs 32
|  3> end
|  4> !RI-MP2 aug-cc-pVQZ aug-cc-pVQZ/C TightSCF
|  5> %maxcore 4500
|  6> *xyzfile -1 1  09_23TS.xyz
|  7>
|  8>
|  9>                          ****END OF INPUT****

CARTESIAN COORDINATES (ANGSTROEM)
---------------------------------
  C      3.415369   -0.625664   -1.249144
  C      2.594564   -0.084837   -0.074413
  H      4.045881   -1.469069   -0.945939
  H      4.067947    0.155316   -1.655399
  H      2.758074   -0.966526   -2.053575
  C      3.542988    0.201285    1.093123
  H      3.987824   -0.724508    1.475542
  H      3.005241    0.682620    1.913866
  H      4.356329    0.867095    0.784261
  C      1.857273    1.217953   -0.490997
  C      0.550388    1.291932    0.225800
  H      1.653901    1.172287   -1.571944
  H      2.564905    2.069652   -0.372210
  C     -0.519618    2.231897   -0.302477
  C     -1.835317    1.552846   -0.020490
  H     -0.400085    2.340200   -1.387338
  H     -0.491911    3.258423    0.120402
  C     -2.237297    1.531197    1.426153
  H     -1.489423    0.994177    2.014977
  H     -3.207262    1.061087    1.589502
  H     -2.283609    2.555718    1.813870
  C     -2.407860    0.803797   -0.961827
  C     -3.171803   -0.462978   -0.734973
  C     -2.147744   -1.626269   -0.899243
  H     -3.990563   -0.595834   -1.455907
  H     -3.612472   -0.499997    0.264428
  C     -0.953316   -1.616466    0.025277
  H     -1.796525   -1.591528   -1.939648
  H     -2.695799   -2.577198   -0.793516
  C      0.183814   -0.899191   -0.292425
  C     -1.207591   -2.126886    1.416377
  H     -1.770093   -1.418963    2.054330
  H     -0.280266   -2.348361    1.951718
  H     -1.797908   -3.054419    1.401281
  C      1.528132   -1.114010    0.368873
  H      1.898889   -2.129515    0.158895
  H      1.403056   -1.055215    1.452608
  H      0.255764   -0.619028   -1.343944
  H      0.662569    1.352150    1.313376
  H     -1.996343    0.893804   -1.967313

 Total Charge           Charge          ....   -1
 Multiplicity           Mult            ....    1
 Number of Electrons    NEL             ....  116
 Basis Dimension        Dim             .... 2350

ORBITAL ENERGIES
----------------

  NO   OCC          E(Eh)            E(eV)
   0   2.0000     -11.088947      -301.7456
   1   2.0000     -11.087901      -301.7171
   2   2.0000     -11.086534      -301.6799
   3   2.0000     -11.080934      -301.5276
   4   2.0000     -11.080064      -301.5039
   5   2.0000     -11.079156      -301.4792
   6   2.0000     -11.078274      -301.4552
   7   2.0000     -11.070768      -301.2509
   8   2.0000     -11.068528      -301.1900
   9   2.0000     -11.064740      -301.0869
  10   2.0000     -11.061677      -301.0035
  11   2.0000     -11.059130      -300.9342
  12   2.0000     -11.057899      -300.9007
  13   2.0000     -11.014699      -299.7252
  14   2.0000     -10.993560      -299.1500
  15   2.0000      -0.981059       -26.6960
  16   2.0000      -0.960685       -26.1416
  17   2.0000      -0.918067       -24.9819
  18   2.0000      -0.872923       -23.7534
  19   2.0000      -0.835216       -22.7274
  20   2.0000      -0.814730       -22.1699
  21   2.0000      -0.806166       -21.9369
  22   2.0000      -0.785647       -21.3785
  23   2.0000      -0.762901       -20.7596
  24   2.0000      -0.724873       -19.7248
  25   2.0000      -0.682456       -18.5706
  26   2.0000      -0.612822       -16.6757
  27   2.0000      -0.575088       -15.6489
  28   2.0000      -0.560696       -15.2573
  29   2.0000      -0.551715       -15.0129
  30   2.0000      -0.506237       -13.7754
  31   2.0000      -0.479680       -13.0528
  32   2.0000      -0.475382       -12.9358
  33   2.0000      -0.459485       -12.5032
  34   2.0000      -0.458060       -12.4644
  35   2.0000      -0.452570       -12.3151
  36   2.0000      -0.439032       -11.9467
  37   2.0000      -0.432588       -11.7713
  38   2.0000      -0.416935       -11.3454
  39   2.0000      -0.409523       -11.1437
  40   2.0000      -0.406166       -11.0523
  41   2.0000      -0.397015       -10.8033
  42   2.0000      -0.382433       -10.4065
  43   2.0000      -0.378001       -10.2859
  44   2.0000      -0.369604       -10.0574
  45   2.0000      -0.367437        -9.9985
  46   2.0000      -0.357869        -9.7381
  47   2.0000      -0.346765        -9.4360
  48   2.0000      -0.339812        -9.2468
  49   2.0000      -0.325307        -8.8520
  50   2.0000      -0.315480        -8.5847
  51   2.0000      -0.308592        -8.3972
  52   2.0000      -0.291207        -7.9242
  53   2.0000      -0.284136        -7.7317
  54   2.0000      -0.280386        -7.6297
  55   2.0000      -0.188711        -5.1351
  56   2.0000      -0.168728        -4.5913
  57   2.0000      -0.030585        -0.8323
  58   0.0000       0.092938         2.5290
  59   0.0000       0.097838         2.6623
  60   0.0000       0.099354         2.7036
  61   0.0000       0.101518         2.7624
  62   0.0000       0.104832         2.8526

MULLIKEN ATOMIC CHARGES
-----------------------
   0 C :   -1.278717
   1 C :    1.442334
   2 H :    0.192744
   3 H :    0.199528
   4 H :    0.191870
   5 C :   -1.234701
   6 H :    0.184354
   7 H :    0.172932
   8 H :    0.172957
   9 C :   -0.793074
  10 C :    0.498976
  11 H :    0.032922
  12 H :    0.244270
  13 C :   -0.887378
  14 C :    0.785545
  15 H :    0.071903
  16 H :    0.179186
  17 C :   -1.036545
  18 H :    0.141733
  19 H :    0.211965
  20 H :    0.239211
  21 C :   -0.413235
  22 C :   -0.518594
  23 C :   -0.925882
  24 H :    0.237500
  25 H :    0.161039
  26 C :    0.166437
  27 H :    0.132391
  28 H :    0.126733
  29 C :    0.844365
  30 C :   -1.196838
  31 H :    0.124151
  32 H :    0.178896
  33 H :    0.282136
  34 C :   -0.558263
  35 H :    0.316926
  36 H :   -0.077874
  37 H :    0.278417
  38 H :    0.037652
  39 H :    0.072028
Sum of atomic charges:   -1.0000000

LOEWDIN ATOMIC CHARGES
----------------------
   0 C :    0.897526
   1 C :   -0.292813
   2 H :   -0.275413
   3 H :   -0.273009
   4 H :   -0.273502
   5 C :    0.895122
   6 H :   -0.269697
   7 H :   -0.277685
   8 H :   -0.276557
   9 C :    0.424105
  10 C :    0.291882
  11 H :   -0.310031
  12 H :   -0.258401
  13 C :    0.440733
  14 C :   -0.052247
  15 H :   -0.330488
  16 H :   -0.272704
  17 C :    0.896916
  18 H :   -0.307129
  19 H :   -0.312621
  20 H :   -0.277799
  21 C :    0.358733
  22 C :    0.493008
  23 C :    0.453535
  24 H :   -0.278436
  25 H :   -0.324088
  26 C :   -0.015837
  27 H :   -0.307947
  28 H :   -0.293351
  29 C :    0.303988
  30 C :    0.847323
  31 H :   -0.293822
  32 H :   -0.326604
  33 H :   -0.302239
  34 C :    0.467205
  35 H :   -0.258798
  36 H :   -0.315618
  37 H :   -0.335173
  38 H :   -0.328485
  39 H :   -0.329580

  Mayer bond orders larger than 0.100000
B(  0-C ,  2-H ) :   1.1309 B(  0-C ,  3-H ) :   1.1464 B(  0-C ,  4-H ) :   1.1532
B(  0-C ,  5-C ) :   0.1563 B(  1-C ,  2-H ) :  -0.2247 B(  1-C ,  3-H ) :  -0.2012
B(  1-C ,  4-H ) :  -0.2297 B(  1-C ,  6-H ) :  -0.2051 B(  1-C ,  7-H ) :  -0.2245
B(  1-C ,  8-H ) :  -0.2097 B(  1-C ,  9-C ) :   0.7793 B(  1-C , 10-C ) :  -0.1623
B(  1-C , 34-C ) :   0.8350 B(  5-C ,  6-H ) :   1.1646 B(  5-C ,  7-H ) :   1.1724
B(  5-C ,  8-H ) :   1.1479 B(  9-C , 10-C ) :   0.6244 B(  9-C , 11-H ) :   1.1786
B(  9-C , 12-H ) :   1.0625 B( 10-C , 12-H ) :  -0.1536 B( 10-C , 13-C ) :   0.2600
B( 10-C , 14-C ) :  -0.2034 B( 10-C , 16-H ) :  -0.1718 B( 10-C , 21-C ) :  -0.1194
B( 10-C , 26-C ) :   0.1235 B( 10-C , 38-H ) :   1.2301 B( 13-C , 14-C ) :   0.7128
B( 13-C , 15-H ) :   1.3522 B( 13-C , 16-H ) :   1.2148 B( 13-C , 21-C ) :  -0.1038
B( 14-C , 15-H ) :  -0.1444 B( 14-C , 16-H ) :  -0.1181 B( 14-C , 17-C ) :   0.4436
B( 14-C , 19-H ) :  -0.1921 B( 14-C , 20-H ) :  -0.1172 B( 14-C , 21-C ) :   1.2328
B( 14-C , 22-C ) :  -0.2318 B( 14-C , 29-C ) :   0.1316 B( 14-C , 39-H ) :  -0.1834
B( 17-C , 18-H ) :   1.0466 B( 17-C , 19-H ) :   1.1571 B( 17-C , 20-H ) :   1.0792
B( 21-C , 22-C ) :   0.6755 B( 21-C , 24-H ) :  -0.2391 B( 21-C , 39-H ) :   1.3667
B( 22-C , 23-C ) :   0.8976 B( 22-C , 24-H ) :   1.0743 B( 22-C , 25-H ) :   1.0721
B( 23-C , 26-C ) :   0.8427 B( 23-C , 27-H ) :   1.1874 B( 23-C , 28-H ) :   1.1788
B( 23-C , 29-C ) :  -0.3389 B( 26-C , 28-H ) :  -0.2056 B( 26-C , 29-C ) :   0.6152
B( 26-C , 30-C ) :   0.3670 B( 26-C , 32-H ) :  -0.1224 B( 26-C , 33-H ) :  -0.2430
B( 26-C , 37-H ) :  -0.2208 B( 27-H , 29-C ) :  -0.1063 B( 29-C , 30-C ) :  -0.1813
B( 29-C , 34-C ) :   0.5472 B( 29-C , 35-H ) :  -0.1480 B( 29-C , 36-H ) :  -0.1548
B( 29-C , 37-H ) :   1.0889 B( 30-C , 31-H ) :   1.0676 B( 30-C , 32-H ) :   1.2156
B( 30-C , 33-H ) :   1.1120 B( 34-C , 35-H ) :   0.9378 B( 34-C , 36-H ) :   1.2972

MP2 TOTAL ENERGY:     -585.435007133 Eh
FINAL SINGLE POINT ENERGY      -585.435007132689

DIPOLE MOMENT
-------------
                                X             Y             Z
Electronic contribution:     -4.63699       1.56103      -2.86702
Nuclear contribution   :      5.09867      -1.73278       2.96818
                        -----------------------------------------
Total Dipole Moment    :      0.46168      -0.17176       0.10116
                        -----------------------------------------
Magnitude (a.u.)       :      0.50288
Magnitude (Debye)      :      1.27821

Rotational constants in cm-1:     0.030370     0.014482     0.012250
Rotational constants in MHz :   910.469381   434.164506   367.244409

                             ****ORCA TERMINATED NORMALLY****
TOTAL RUN TIME: 0 days 7 hours 29 minutes 5 seconds 415 msec
