                         Program Version 4.2.1 -  RELEASE  -
|  1> %pal
|  2>  nprocs 32
|  3> end
|  4> !RI-MP2 aug-cc-pVQZ aug-cc-pVQZ/C TightSCF
|  5> %maxcore 4500
|  6> *xyzfile 0 1  02_37P.xyz
|  7>
|  8>
|  9>                          ****END OF INPUT****

CARTESIAN COORDINATES (ANGSTROEM)
---------------------------------
  C      0.342742    0.090939    2.160585
  C     -1.592826   -0.299647    0.757385
  C      0.831975    1.159858    1.226104
  C     -1.348289    0.862489    0.066196
  C     -2.272855    1.337658   -1.021948
  C     -0.759966   -0.605231    1.906230
  C     -0.041150    2.903986   -0.302695
  C     -2.652366   -1.218886    0.378301
  C      2.113707    0.771005    0.445505
  C      3.272233    0.599590    1.439905
  H      3.163097   -0.305926    2.040662
  H      3.325217    1.446234    2.132652
  H      2.365060    1.635041   -0.185877
  H      4.232926    0.539249    0.927736
  N     -0.259693    1.619971    0.343451
  Si     2.063821   -0.690851   -0.784196
  C      0.812315   -0.413598   -2.160028
  C      3.770382   -0.737873   -1.581049
  C      1.733684   -2.344370    0.033090
  H      0.850275    3.357344    0.125167
  H     -0.874074    3.588708   -0.132753
  H      0.117411    2.806238   -1.380126
  H      4.047435    0.232061   -2.003542
  H      3.785944   -1.466873   -2.395578
  H      4.548603   -1.026734   -0.871351
  H      0.861958    0.600852   -2.564236
  H     -0.204532   -0.601949   -1.816467
  H      1.014726   -1.103379   -2.983681
  H      0.701950   -2.428645    0.374995
  H      2.383762   -2.508235    0.895668
  H      1.922264   -3.153115   -0.678680
  C     -3.479305   -0.855622   -0.838218
  C     -3.632127    0.651018   -0.973616
  H     -4.439649   -1.364284   -0.753590
  H     -2.972520   -1.267019   -1.719812
  H     -4.195388    1.032828   -0.117016
  H     -4.202258    0.906087   -1.869558
  H     -1.788579    1.153769   -1.989063
  H     -2.406113    2.417541   -0.951773
  O     -2.857857   -2.260931    0.981366
  H      0.941877   -0.104225    3.040786
  H     -1.089280   -1.408498    2.553176
  H      1.108171    2.034593    1.831449

 Total Charge           Charge          ....    0
 Multiplicity           Mult            ....    1
 Number of Electrons    NEL             ....  144
 Basis Dimension        Dim             .... 2594

ORBITAL ENERGIES
----------------

  NO   OCC          E(Eh)            E(eV)
   0   2.0000     -68.743337     -1870.6013
   1   2.0000     -20.503482      -557.9281
   2   2.0000     -15.595564      -424.3769
   3   2.0000     -11.307730      -307.6990
   4   2.0000     -11.302675      -307.5614
   5   2.0000     -11.278438      -306.9019
   6   2.0000     -11.274899      -306.8056
   7   2.0000     -11.248711      -306.0930
   8   2.0000     -11.235616      -305.7367
   9   2.0000     -11.223045      -305.3946
  10   2.0000     -11.220307      -305.3201
  11   2.0000     -11.220099      -305.3144
  12   2.0000     -11.212956      -305.1200
  13   2.0000     -11.212080      -305.0962
  14   2.0000     -11.202003      -304.8220
  15   2.0000     -11.195616      -304.6482
  16   2.0000     -11.192588      -304.5658
  17   2.0000     -11.185069      -304.3612
  18   2.0000      -6.092542      -165.7865
  19   2.0000      -4.199037      -114.2616
  20   2.0000      -4.198863      -114.2569
  21   2.0000      -4.198836      -114.2561
  22   2.0000      -1.350472       -36.7482
  23   2.0000      -1.290034       -35.1036
  24   2.0000      -1.126482       -30.6531
  25   2.0000      -1.095123       -29.7998
  26   2.0000      -1.059018       -28.8173
  27   2.0000      -1.006944       -27.4003
  28   2.0000      -0.981230       -26.7006
  29   2.0000      -0.965827       -26.2815
  30   2.0000      -0.959076       -26.0978
  31   2.0000      -0.922990       -25.1158
  32   2.0000      -0.916262       -24.9327
  33   2.0000      -0.900907       -24.5149
  34   2.0000      -0.856695       -23.3119
  35   2.0000      -0.818787       -22.2803
  36   2.0000      -0.797916       -21.7124
  37   2.0000      -0.745026       -20.2732
  38   2.0000      -0.695613       -18.9286
  39   2.0000      -0.688225       -18.7276
  40   2.0000      -0.672972       -18.3125
  41   2.0000      -0.649628       -17.6773
  42   2.0000      -0.634382       -17.2624
  43   2.0000      -0.619034       -16.8448
  44   2.0000      -0.609220       -16.5777
  45   2.0000      -0.603930       -16.4338
  46   2.0000      -0.597284       -16.2529
  47   2.0000      -0.588204       -16.0058
  48   2.0000      -0.581002       -15.8099
  49   2.0000      -0.576383       -15.6842
  50   2.0000      -0.569938       -15.5088
  51   2.0000      -0.564421       -15.3587
  52   2.0000      -0.560324       -15.2472
  53   2.0000      -0.550567       -14.9817
  54   2.0000      -0.546595       -14.8736
  55   2.0000      -0.537226       -14.6187
  56   2.0000      -0.532718       -14.4960
  57   2.0000      -0.530776       -14.4431
  58   2.0000      -0.527955       -14.3664
  59   2.0000      -0.518794       -14.1171
  60   2.0000      -0.513982       -13.9862
  61   2.0000      -0.497176       -13.5289
  62   2.0000      -0.484746       -13.1906
  63   2.0000      -0.475902       -12.9499
  64   2.0000      -0.466743       -12.7007
  65   2.0000      -0.445843       -12.1320
  66   2.0000      -0.425576       -11.5805
  67   2.0000      -0.420706       -11.4480
  68   2.0000      -0.400873       -10.9083
  69   2.0000      -0.390898       -10.6369
  70   2.0000      -0.386102       -10.5064
  71   2.0000      -0.272569        -7.4170
  72   0.0000       0.014482         0.3941
  73   0.0000       0.022184         0.6036
  74   0.0000       0.023972         0.6523
  75   0.0000       0.028426         0.7735
  76   0.0000       0.033947         0.9237

MULLIKEN ATOMIC CHARGES
-----------------------
   0 C :   -0.644996
   1 C :   -0.325215
   2 C :    0.718204
   3 C :    1.604801
   4 C :   -0.351109
   5 C :   -0.447778
   6 C :   -1.353098
   7 C :    1.314968
   8 C :   -0.166829
   9 C :   -1.274520
  10 H :    0.197717
  11 H :    0.232833
  12 H :    0.025490
  13 H :    0.225915
  14 N :   -0.292251
  15 Si:    1.413686
  16 C :   -1.153786
  17 C :   -1.220552
  18 C :   -1.256038
  19 H :    0.236375
  20 H :    0.221231
  21 H :    0.348297
  22 H :    0.287917
  23 H :    0.315234
  24 H :    0.257878
  25 H :    0.270795
  26 H :    0.253710
  27 H :    0.182398
  28 H :    0.396415
  29 H :    0.241015
  30 H :    0.266196
  31 C :   -0.691683
  32 C :   -0.792289
  33 H :    0.266776
  34 H :    0.180208
  35 H :    0.218167
  36 H :    0.232025
  37 H :    0.244613
  38 H :    0.246622
  39 O :   -1.112166
  40 H :   -0.051834
  41 H :    0.090712
  42 H :    0.643949
Sum of atomic charges:    0.0000000

LOEWDIN ATOMIC CHARGES
----------------------
   0 C :    0.393519
   1 C :   -0.113251
   2 C :   -0.059758
   3 C :   -0.200228
   4 C :    0.525010
   5 C :    0.332062
   6 C :    0.802435
   7 C :   -0.682762
   8 C :    0.226307
   9 C :    0.887033
  10 H :   -0.286451
  11 H :   -0.261759
  12 H :   -0.343143
  13 H :   -0.289475
  14 N :    0.522344
  15 Si:    0.185600
  16 C :    1.011174
  17 C :    0.996046
  18 C :    1.013648
  19 H :   -0.297554
  20 H :   -0.268036
  21 H :   -0.258617
  22 H :   -0.325768
  23 H :   -0.334042
  24 H :   -0.339321
  25 H :   -0.323663
  26 H :   -0.380309
  27 H :   -0.320047
  28 H :   -0.352449
  29 H :   -0.327371
  30 H :   -0.325682
  31 C :    0.489180
  32 C :    0.538972
  33 H :   -0.289517
  34 H :   -0.265683
  35 H :   -0.254486
  36 H :   -0.251476
  37 H :   -0.264436
  38 H :   -0.300885
  39 O :    0.731180
  40 H :   -0.300911
  41 H :   -0.325082
  42 H :   -0.312349

  Mayer bond orders larger than 0.100000
B(  0-C ,  1-C ) :  -0.2036 B(  0-C ,  2-C ) :   0.5845 B(  0-C ,  3-C ) :   0.1974
B(  0-C ,  5-C ) :   1.5612 B(  0-C , 40-H ) :   1.5441 B(  0-C , 41-H ) :  -0.1711
B(  0-C , 42-H ) :  -0.3182 B(  1-C ,  3-C ) :   0.9577 B(  1-C ,  4-C ) :  -0.3101
B(  1-C ,  5-C ) :   1.0016 B(  1-C ,  7-C ) :   1.1358 B(  1-C , 31-C ) :  -0.3028
B(  1-C , 32-C ) :   0.1796 B(  1-C , 39-O ) :   0.4679 B(  2-C ,  3-C ) :  -0.1156
B(  2-C ,  5-C ) :  -0.1967 B(  2-C ,  8-C ) :   0.8044 B(  2-C , 14-N ) :   0.8718
B(  2-C , 40-H ) :  -0.1725 B(  2-C , 42-H ) :   0.7894 B(  3-C ,  4-C ) :   0.4291
B(  3-C ,  5-C ) :  -0.1327 B(  3-C ,  6-C ) :  -0.5062 B(  3-C ,  7-C ) :  -0.3051
B(  3-C , 14-N ) :   1.0842 B(  3-C , 21-H ) :  -0.1057 B(  3-C , 32-C ) :  -0.2815
B(  3-C , 37-H ) :  -0.1151 B(  3-C , 38-H ) :  -0.1112 B(  3-C , 39-O ) :   0.1254
B(  4-C , 32-C ) :   0.8290 B(  4-C , 37-H ) :   0.9221 B(  4-C , 38-H ) :   1.0031
B(  5-C ,  7-C ) :  -0.2101 B(  5-C ,  8-C ) :   0.1031 B(  5-C , 40-H ) :  -0.3057
B(  5-C , 41-H ) :   1.1403 B(  6-C , 14-N ) :   0.6768 B(  6-C , 19-H ) :   1.0527
B(  6-C , 20-H ) :   1.1887 B(  6-C , 21-H ) :   1.0026 B(  7-C , 31-C ) :   1.1054
B(  7-C , 39-O ) :  -0.1341 B(  8-C ,  9-C ) :   0.1538 B(  8-C , 10-H ) :  -0.2732
B(  8-C , 11-H ) :  -0.1343 B(  8-C , 12-H ) :   1.1852 B(  8-C , 13-H ) :  -0.1834
B(  8-C , 15-Si) :   0.3678 B(  8-C , 16-C ) :   0.1007 B(  8-C , 18-C ) :   0.1774
B(  9-C , 10-H ) :   1.1337 B(  9-C , 11-H ) :   1.1171 B(  9-C , 13-H ) :   1.1458
B( 14-N , 20-H ) :  -0.1672 B( 14-N , 21-H ) :  -0.1179 B( 14-N , 42-H ) :  -0.1951
B( 15-Si, 16-C ) :   0.5854 B( 15-Si, 17-C ) :   0.9728 B( 15-Si, 18-C ) :   0.4479
B( 15-Si, 22-H ) :  -0.1129 B( 15-Si, 23-H ) :  -0.1557 B( 15-Si, 24-H ) :  -0.1022
B( 16-C , 25-H ) :   0.9244 B( 16-C , 26-H ) :   0.9745 B( 16-C , 27-H ) :   1.1019
B( 17-C , 22-H ) :   0.9800 B( 17-C , 23-H ) :   0.9533 B( 17-C , 24-H ) :   0.9827
B( 18-C , 28-H ) :   0.9123 B( 18-C , 29-H ) :   1.0079 B( 18-C , 30-H ) :   1.0254
B( 31-C , 32-C ) :   1.0715 B( 31-C , 33-H ) :   0.9768 B( 31-C , 34-H ) :   0.9525
B( 31-C , 39-O ) :   0.2631 B( 32-C , 35-H ) :   1.0300 B( 32-C , 36-H ) :   1.0239
B( 39-O , 41-H ) :   0.1446

MP2 TOTAL ENERGY:    -1004.450764779 Eh
FINAL SINGLE POINT ENERGY     -1004.450764778547

DIPOLE MOMENT
-------------
                                X             Y             Z
Electronic contribution:    -12.59805      -2.97528       7.60177
Nuclear contribution   :     13.37181       5.16077      -8.64913
                        -----------------------------------------
Total Dipole Moment    :      0.77376       2.18550      -1.04735
                        -----------------------------------------
Magnitude (a.u.)       :      2.54402
Magnitude (Debye)      :      6.46639

Rotational constants in cm-1:     0.019431     0.009715     0.009157
Rotational constants in MHz :   582.535180   291.247659   274.513992

                             ****ORCA TERMINATED NORMALLY****
TOTAL RUN TIME: 0 days 10 hours 10 minutes 32 seconds 594 msec
