                         Program Version 4.2.1 -  RELEASE  -
|  1> %pal
|  2>  nprocs 32
|  3> end
|  4> !RI-MP2 aug-cc-pVQZ aug-cc-pVQZ/C TightSCF
|  5> %maxcore 4500
|  6> *xyzfile -1 1  08_4P.xyz
|  7>
|  8>
|  9>                          ****END OF INPUT****

CARTESIAN COORDINATES (ANGSTROEM)
---------------------------------
  C     -1.079662    1.410849   -0.676999
  S     -1.821360    1.202703    0.977643
  S     -1.929649   -1.902803   -1.163788
  C     -3.134912   -0.022225    0.616118
  C     -2.707857   -1.477757    0.439678
  H     -3.681156    0.319086   -0.265626
  H     -3.801638    0.076047    1.480111
  H     -3.614694   -2.082244    0.554186
  H     -2.052446   -1.749917    1.275123
  S      0.480943    2.318760   -0.663222
  C      1.619915    1.239585    0.257605
  C      1.697426   -0.224188   -0.174866
  H      1.391928    1.292038    1.324689
  H      2.591910    1.706463    0.098773
  C      3.122684   -0.755301    0.099026
  O      4.126986   -0.193750   -0.262145
  O      3.111223   -1.896629    0.764916
  H      2.122676   -2.036915    0.915545
  N      0.750043   -1.109336    0.494846
  H      1.563921   -0.286528   -1.259634
  H      0.224531   -0.611038    1.205368
  H      0.040141   -1.500482   -0.153737
  H     -1.740718    2.013158   -1.300962
  H     -0.984932    0.424372   -1.133414

 Total Charge           Charge          ....   -1
 Multiplicity           Mult            ....    1
 Number of Electrons    NEL             ....  120
 Basis Dimension        Dim             .... 1524

ORBITAL ENERGIES
----------------

  NO   OCC          E(Eh)            E(eV)
   0   2.0000     -91.849013     -2499.3387
   1   2.0000     -91.834781     -2498.9514
   2   2.0000     -91.711845     -2495.6062
   3   2.0000     -20.479044      -557.2631
   4   2.0000     -20.424977      -555.7919
   5   2.0000     -15.434312      -419.9890
   6   2.0000     -11.261626      -306.4444
   7   2.0000     -11.174198      -304.0654
   8   2.0000     -11.164139      -303.7917
   9   2.0000     -11.161424      -303.7178
  10   2.0000     -11.139394      -303.1183
  11   2.0000     -11.108733      -302.2840
  12   2.0000      -8.850762      -240.8415
  13   2.0000      -8.836838      -240.4626
  14   2.0000      -8.714513      -237.1340
  15   2.0000      -6.532428      -177.7564
  16   2.0000      -6.531375      -177.7277
  17   2.0000      -6.530640      -177.7078
  18   2.0000      -6.518420      -177.3752
  19   2.0000      -6.517505      -177.3503
  20   2.0000      -6.516751      -177.3298
  21   2.0000      -6.396393      -174.0547
  22   2.0000      -6.394782      -174.0109
  23   2.0000      -6.394751      -174.0100
  24   2.0000      -1.343782       -36.5662
  25   2.0000      -1.246088       -33.9078
  26   2.0000      -1.092331       -29.7238
  27   2.0000      -0.982549       -26.7365
  28   2.0000      -0.947082       -25.7714
  29   2.0000      -0.894236       -24.3334
  30   2.0000      -0.831961       -22.6388
  31   2.0000      -0.785223       -21.3670
  32   2.0000      -0.725676       -19.7466
  33   2.0000      -0.688209       -18.7271
  34   2.0000      -0.665101       -18.0983
  35   2.0000      -0.629567       -17.1314
  36   2.0000      -0.619749       -16.8642
  37   2.0000      -0.572410       -15.5761
  38   2.0000      -0.554870       -15.0988
  39   2.0000      -0.517402       -14.0792
  40   2.0000      -0.511211       -13.9107
  41   2.0000      -0.504253       -13.7214
  42   2.0000      -0.490703       -13.3527
  43   2.0000      -0.473081       -12.8732
  44   2.0000      -0.461260       -12.5515
  45   2.0000      -0.452597       -12.3158
  46   2.0000      -0.422893       -11.5075
  47   2.0000      -0.412900       -11.2356
  48   2.0000      -0.395267       -10.7558
  49   2.0000      -0.383952       -10.4479
  50   2.0000      -0.359674        -9.7872
  51   2.0000      -0.352034        -9.5793
  52   2.0000      -0.340499        -9.2655
  53   2.0000      -0.318662        -8.6712
  54   2.0000      -0.292958        -7.9718
  55   2.0000      -0.281859        -7.6698
  56   2.0000      -0.240533        -6.5452
  57   2.0000      -0.233939        -6.3658
  58   2.0000      -0.147392        -4.0107
  59   2.0000      -0.143861        -3.9147
  60   0.0000       0.097421         2.6510
  61   0.0000       0.104097         2.8326
  62   0.0000       0.105579         2.8729
  63   0.0000       0.113944         3.1006
  64   0.0000       0.115420         3.1407

MULLIKEN ATOMIC CHARGES
-----------------------
   0 C :   -0.643975
   1 S :   -0.129584
   2 S :   -0.882055
   3 C :   -0.619210
   4 C :   -0.557833
   5 H :    0.294349
   6 H :    0.356783
   7 H :    0.330387
   8 H :    0.187076
   9 S :   -0.279987
  10 C :   -0.563789
  11 C :   -0.049038
  12 H :    0.183802
  13 H :    0.342125
  14 C :    1.389866
  15 O :   -0.877648
  16 O :   -1.012280
  17 H :    0.368803
  18 N :   -0.617670
  19 H :    0.297171
  20 H :    0.335197
  21 H :    0.348910
  22 H :    0.363730
  23 H :    0.434867
Sum of atomic charges:   -1.0000000

LOEWDIN ATOMIC CHARGES
----------------------
   0 C :   -0.270651
   1 S :    1.251464
   2 S :    0.900479
   3 C :    0.042231
   4 C :   -0.179306
   5 H :   -0.393845
   6 H :   -0.400884
   7 H :   -0.427456
   8 H :   -0.427894
   9 S :    1.292807
  10 C :    0.128791
  11 C :   -0.121138
  12 H :   -0.362162
  13 H :   -0.431552
  14 C :   -1.046269
  15 O :    0.658758
  16 O :    1.230896
  17 H :   -1.002816
  18 N :    1.247520
  19 H :   -0.306981
  20 H :   -0.557491
  21 H :   -0.740052
  22 H :   -0.466587
  23 H :   -0.617863

  Mayer bond orders larger than 0.100000
B(  0-C ,  1-S ) :   0.9283 B(  0-C ,  9-S ) :   0.7604 B(  0-C , 22-H ) :   0.8910
B(  0-C , 23-H ) :   0.7248 B(  1-S ,  3-C ) :   0.9073 B(  1-S , 23-H ) :   0.1208
B(  2-S ,  4-C ) :   0.9603 B(  2-S , 21-H ) :   0.1086 B(  3-C ,  4-C ) :   0.9996
B(  3-C ,  5-H ) :   0.8794 B(  3-C ,  6-H ) :   0.8184 B(  4-C ,  7-H ) :   0.8446
B(  4-C ,  8-H ) :   0.9487 B(  9-S , 10-C ) :   0.8032 B( 10-C , 11-C ) :   0.8776
B( 10-C , 12-H ) :   0.9986 B( 10-C , 13-H ) :   0.8729 B( 11-C , 14-C ) :   1.0695
B( 11-C , 15-O ) :   0.3532 B( 11-C , 16-O ) :   0.1332 B( 11-C , 18-N ) :   0.7298
B( 11-C , 19-H ) :   0.8625 B( 14-C , 15-O ) :   1.1470 B( 14-C , 16-O ) :   0.6707
B( 15-O , 16-O ) :   0.1573 B( 16-O , 17-H ) :   0.6265 B( 17-H , 18-N ) :   0.3191
B( 18-N , 20-H ) :   0.9048 B( 18-N , 21-H ) :   0.8234

MP2 TOTAL ENERGY:    -1633.694855336 Eh
FINAL SINGLE POINT ENERGY     -1633.694855336031

DIPOLE MOMENT
-------------
                                X             Y             Z
Electronic contribution:      7.41284       4.33625      -1.33079
Nuclear contribution   :     -7.62363      -2.49350       2.74241
                        -----------------------------------------
Total Dipole Moment    :     -0.21079       1.84275       1.41162
                        -----------------------------------------
Magnitude (a.u.)       :      2.33084
Magnitude (Debye)      :      5.92453

Rotational constants in cm-1:     0.026416     0.013321     0.010237
Rotational constants in MHz :   791.943778   399.340703   306.907815

                             ****ORCA TERMINATED NORMALLY****
TOTAL RUN TIME: 0 days 1 hours 33 minutes 58 seconds 459 msec
