                         Program Version 4.2.1 -  RELEASE  -
|  1> %pal
|  2>  nprocs 32
|  3> end
|  4> !RI-MP2 aug-cc-pVQZ aug-cc-pVQZ/C TightSCF
|  5> %maxcore 4500
|  6> *xyzfile 0 2  01_5P.xyz
|  7>
|  8>
|  9>                          ****END OF INPUT****

CARTESIAN COORDINATES (ANGSTROEM)
---------------------------------
  C     -0.949581    0.008529    0.435914
  C     -0.015128    1.258404    0.191175
  C      1.390080    0.683562   -0.055039
  H     -0.068028    1.926351    1.050348
  H     -0.383764    1.810096   -0.674585
  C      1.157193   -0.777441   -0.444935
  H      1.973706    0.726118    0.868839
  H      1.936523    1.247647   -0.811973
  C      0.006603   -1.192276    0.467358
  H      2.046289   -1.399076   -0.328729
  H      0.838175   -0.841868   -1.488399
  O     -1.777000   -0.006398   -0.649540
  H      0.364147   -1.333262    1.492895
  H     -0.501236   -2.107162    0.159238
  H     -1.524822    0.137675    1.361851

 Total Charge           Charge          ....    0
 Multiplicity           Mult            ....    2
 Number of Electrons    NEL             ....   47
 Basis Dimension        Dim             ....  894

ORBITAL ENERGIES
----------------
                 SPIN UP ORBITALS
  NO   OCC          E(Eh)            E(eV)
   0   1.0000     -20.606603      -560.7342
   1   1.0000     -11.276101      -306.8383
   2   1.0000     -11.231903      -305.6356
   3   1.0000     -11.222315      -305.3747
   4   1.0000     -11.220911      -305.3365
   5   1.0000     -11.218541      -305.2720
   6   1.0000      -1.405109       -38.2350
   7   1.0000      -1.115993       -30.3677
   8   1.0000      -0.976408       -26.5694
   9   1.0000      -0.947429       -25.7809
  10   1.0000      -0.796112       -21.6633
  11   1.0000      -0.775536       -21.1034
  12   1.0000      -0.692834       -18.8530
  13   1.0000      -0.668715       -18.1967
  14   1.0000      -0.652403       -17.7528
  15   1.0000      -0.609108       -16.5747
  16   1.0000      -0.577838       -15.7238
  17   1.0000      -0.559257       -15.2182
  18   1.0000      -0.506141       -13.7728
  19   1.0000      -0.488985       -13.3059
  20   1.0000      -0.478876       -13.0309
  21   1.0000      -0.472285       -12.8515
  22   1.0000      -0.450531       -12.2596
  23   1.0000      -0.443645       -12.0722
  24   0.0000       0.025724         0.7000
  25   0.0000       0.032011         0.8711
  26   0.0000       0.033687         0.9167
  27   0.0000       0.036899         1.0041
  28   0.0000       0.048979         1.3328

                 SPIN DOWN ORBITALS
  NO   OCC          E(Eh)            E(eV)
   0   1.0000     -20.566901      -559.6538
   1   1.0000     -11.279063      -306.9189
   2   1.0000     -11.228367      -305.5394
   3   1.0000     -11.222351      -305.3757
   4   1.0000     -11.220213      -305.3175
   5   1.0000     -11.218562      -305.2726
   6   1.0000      -1.281693       -34.8767
   7   1.0000      -1.102499       -30.0005
   8   1.0000      -0.970711       -26.4144
   9   1.0000      -0.930607       -25.3231
  10   1.0000      -0.787360       -21.4251
  11   1.0000      -0.762630       -20.7522
  12   1.0000      -0.678139       -18.4531
  13   1.0000      -0.649471       -17.6730
  14   1.0000      -0.594695       -16.1825
  15   1.0000      -0.587539       -15.9878
  16   1.0000      -0.542332       -14.7576
  17   1.0000      -0.498657       -13.5691
  18   1.0000      -0.487759       -13.2726
  19   1.0000      -0.484008       -13.1705
  20   1.0000      -0.478078       -13.0092
  21   1.0000      -0.469530       -12.7766
  22   1.0000      -0.421363       -11.4659
  23   0.0000       0.025776         0.7014
  24   0.0000       0.031945         0.8693
  25   0.0000       0.033227         0.9041
  26   0.0000       0.036993         1.0066
  27   0.0000       0.048867         1.3298

MULLIKEN ATOMIC CHARGES AND SPIN POPULATIONS
--------------------------------------------
   0 C :    0.475202   -0.213780
   1 C :   -0.634996    0.112147
   2 C :   -0.579549   -0.002552
   3 H :    0.318499    0.002960
   4 H :    0.223267   -0.009152
   5 C :   -0.476542   -0.002894
   6 H :    0.194819    0.001507
   7 H :    0.333727    0.002596
   8 C :   -0.691436    0.036387
   9 H :    0.353422   -0.001120
  10 H :    0.226261    0.002428
  11 O :   -0.670667    1.057203
  12 H :    0.223634   -0.001939
  13 H :    0.344660   -0.004385
  14 H :    0.359699    0.020594
Sum of atomic charges         :    0.0000000

LOEWDIN ATOMIC CHARGES AND SPIN POPULATIONS
-------------------------------------------
   0 C :   -0.387123    0.143681
   1 C :    0.507673    0.042589
   2 C :    0.527750    0.006463
   3 H :   -0.265624    0.009787
   4 H :   -0.295888    0.020076
   5 C :    0.513158   -0.000437
   6 H :   -0.267630    0.001347
   7 H :   -0.258246    0.001072
   8 C :    0.486873    0.005488
   9 H :   -0.254283    0.000203
  10 H :   -0.266608   -0.000713
  11 O :    0.810343    0.764287
  12 H :   -0.267651    0.001628
  13 H :   -0.267628    0.002818
  14 H :   -0.315116    0.001712

  Mayer bond orders larger than 0.100000
B(  0-C ,  1-C ) :   0.8770 B(  0-C ,  8-C ) :   0.9588 B(  0-C , 11-O ) :   0.2771
B(  0-C , 14-H ) :   0.8429 B(  1-C ,  2-C ) :   0.9719 B(  1-C ,  3-H ) :   0.8586
B(  1-C ,  4-H ) :   0.9678 B(  1-C , 11-O ) :   0.2654 B(  2-C ,  5-C ) :   0.9747
B(  2-C ,  6-H ) :   0.9717 B(  2-C ,  7-H ) :   0.8426 B(  5-C ,  8-C ) :   0.9453
B(  5-C ,  9-H ) :   0.8049 B(  5-C , 10-H ) :   0.9394 B(  8-C , 11-O ) :   0.1466
B(  8-C , 12-H ) :   0.9707 B(  8-C , 13-H ) :   0.8285

MP2 TOTAL ENERGY:     -270.631106549 Eh
FINAL SINGLE POINT ENERGY      -270.631106548738

DIPOLE MOMENT
-------------
                                X             Y             Z
Electronic contribution:     -4.24135      -0.13056      -1.17960
Nuclear contribution   :      4.82480       0.17256       1.67904
                        -----------------------------------------
Total Dipole Moment    :      0.58345       0.04200       0.49944
                        -----------------------------------------
Magnitude (a.u.)       :      0.76917
Magnitude (Debye)      :      1.95506

Rotational constants in cm-1:     0.185371     0.120520     0.092066
Rotational constants in MHz :  5557.285269  3613.094086  2760.076656

                             ****ORCA TERMINATED NORMALLY****
TOTAL RUN TIME: 0 days 1 hours 9 minutes 9 seconds 979 msec
