                         Program Version 4.2.1 -  RELEASE  -
|  1> %pal
|  2>  nprocs 32
|  3> end
|  4> !RI-MP2 aug-cc-pVQZ aug-cc-pVQZ/C TightSCF
|  5> %maxcore 4500
|  6> *xyzfile 0 1  04_70R1.xyz
|  7>
|  8>
|  9>                          ****END OF INPUT****

CARTESIAN COORDINATES (ANGSTROEM)
---------------------------------
  C     -3.399985   -1.252621   -0.000137
  H     -3.173227   -1.852276   -0.887500
  H     -4.466861   -1.043790   -0.000301
  N     -2.671396    0.000000   -0.000017
  C     -1.305559    0.000000   -0.000009
  C     -0.576286   -1.208731   -0.000022
  C     -0.576286    1.208730    0.000013
  C      0.800991   -1.205486   -0.000015
  H     -1.091283   -2.157351   -0.000026
  C      0.800991    1.205486    0.000018
  H     -1.091283    2.157351    0.000016
  C      1.486844    0.000000    0.000004
  H      1.358055   -2.131769   -0.000019
  H      1.358055    2.131769    0.000028
  H     -3.173494   -1.852316    0.887270
  C     -3.399985    1.252621    0.000129
  N      2.941848    0.000000    0.000011
  O      3.513507   -1.077405    0.000038
  O      3.513506    1.077405   -0.000016
  H     -4.466861    1.043791    0.000260
  H     -3.173474    1.852343   -0.887255
  H     -3.173246    1.852249    0.887514

 Total Charge           Charge          ....    0
 Multiplicity           Mult            ....    1
 Number of Electrons    NEL             ....   88
 Basis Dimension        Dim             .... 1420

ORBITAL ENERGIES
----------------

  NO   OCC          E(Eh)            E(eV)
   0   2.0000     -20.580059      -560.0119
   1   2.0000     -20.580008      -560.0105
   2   2.0000     -15.835594      -430.9084
   3   2.0000     -15.596541      -424.4035
   4   2.0000     -11.311379      -307.7983
   5   2.0000     -11.279334      -306.9263
   6   2.0000     -11.278021      -306.8906
   7   2.0000     -11.278001      -306.8900
   8   2.0000     -11.265155      -306.5405
   9   2.0000     -11.265084      -306.5385
  10   2.0000     -11.242672      -305.9287
  11   2.0000     -11.242656      -305.9282
  12   2.0000      -1.593234       -43.3541
  13   2.0000      -1.383651       -37.6511
  14   2.0000      -1.290263       -35.1098
  15   2.0000      -1.180683       -32.1280
  16   2.0000      -1.075495       -29.2657
  17   2.0000      -1.047472       -28.5032
  18   2.0000      -0.995540       -27.0900
  19   2.0000      -0.971434       -26.4341
  20   2.0000      -0.886158       -24.1136
  21   2.0000      -0.854488       -23.2518
  22   2.0000      -0.800369       -21.7792
  23   2.0000      -0.770653       -20.9705
  24   2.0000      -0.719499       -19.5786
  25   2.0000      -0.716625       -19.5004
  26   2.0000      -0.707380       -19.2488
  27   2.0000      -0.676210       -18.4006
  28   2.0000      -0.664452       -18.0807
  29   2.0000      -0.648504       -17.6467
  30   2.0000      -0.616619       -16.7791
  31   2.0000      -0.603949       -16.4343
  32   2.0000      -0.598223       -16.2785
  33   2.0000      -0.586139       -15.9496
  34   2.0000      -0.563864       -15.3435
  35   2.0000      -0.555738       -15.1224
  36   2.0000      -0.532450       -14.4887
  37   2.0000      -0.508154       -13.8276
  38   2.0000      -0.481585       -13.1046
  39   2.0000      -0.477010       -12.9801
  40   2.0000      -0.441651       -12.0179
  41   2.0000      -0.438776       -11.9397
  42   2.0000      -0.366192        -9.9646
  43   2.0000      -0.310014        -8.4359
  44   0.0000       0.014399         0.3918
  45   0.0000       0.022766         0.6195
  46   0.0000       0.028964         0.7882
  47   0.0000       0.031177         0.8484
  48   0.0000       0.038929         1.0593

MULLIKEN ATOMIC CHARGES
-----------------------
   0 C :   -0.871248
   1 H :    0.273180
   2 H :    0.324694
   3 N :   -0.043449
   4 C :    0.648509
   5 C :   -0.158068
   6 C :   -0.158200
   7 C :   -0.291441
   8 H :    0.160304
   9 C :   -0.291320
  10 H :    0.160429
  11 C :   -0.107178
  12 H :    0.290180
  13 H :    0.290156
  14 H :    0.273218
  15 C :   -0.871285
  16 N :    0.773804
  17 O :   -0.636762
  18 O :   -0.636755
  19 H :    0.324788
  20 H :    0.273221
  21 H :    0.273222
Sum of atomic charges:   -0.0000000

LOEWDIN ATOMIC CHARGES
----------------------
   0 C :    0.777489
   1 H :   -0.271679
   2 H :   -0.306136
   3 N :    0.471352
   4 C :   -0.218518
   5 C :    0.369089
   6 C :    0.369088
   7 C :    0.328261
   8 H :   -0.359815
   9 C :    0.328261
  10 H :   -0.359814
  11 C :   -0.316004
  12 H :   -0.341518
  13 H :   -0.341518
  14 H :   -0.271653
  15 C :    0.777490
  16 N :   -0.859735
  17 O :    0.537414
  18 O :    0.537415
  19 H :   -0.306136
  20 H :   -0.271656
  21 H :   -0.271677

  Mayer bond orders larger than 0.100000
B(  0-C ,  1-H ) :   0.9765 B(  0-C ,  2-H ) :   0.9061 B(  0-C ,  3-N ) :   0.7763
B(  0-C , 14-H ) :   0.9765 B(  3-N ,  4-C ) :   0.7742 B(  3-N ,  5-C ) :  -0.1431
B(  3-N ,  6-C ) :  -0.1429 B(  3-N , 15-C ) :   0.7763 B(  4-C ,  5-C ) :   1.2999
B(  4-C ,  6-C ) :   1.3000 B(  4-C ,  7-C ) :  -0.3330 B(  4-C ,  9-C ) :  -0.3329
B(  5-C ,  7-C ) :   1.0410 B(  5-C ,  8-H ) :   1.1159 B(  5-C , 11-C ) :  -0.3362
B(  5-C , 12-H ) :  -0.1370 B(  6-C ,  9-C ) :   1.0410 B(  6-C , 10-H ) :   1.1158
B(  6-C , 11-C ) :  -0.3362 B(  6-C , 13-H ) :  -0.1369 B(  7-C ,  8-H ) :  -0.1485
B(  7-C , 11-C ) :   1.2514 B(  7-C , 12-H ) :   0.9971 B(  9-C , 10-H ) :  -0.1486
B(  9-C , 11-C ) :   1.2514 B(  9-C , 13-H ) :   0.9971 B( 11-C , 12-H ) :  -0.1179
B( 11-C , 13-H ) :  -0.1179 B( 11-C , 16-N ) :   0.8346 B( 11-C , 17-O ) :   0.3586
B( 11-C , 18-O ) :   0.3587 B( 15-C , 19-H ) :   0.9060 B( 15-C , 20-H ) :   0.9765
B( 15-C , 21-H ) :   0.9765 B( 16-N , 17-O ) :   1.1302 B( 16-N , 18-O ) :   1.1301

MP2 TOTAL ENERGY:     -569.843904803 Eh
FINAL SINGLE POINT ENERGY      -569.843904803342

DIPOLE MOMENT
-------------
                                X             Y             Z
Electronic contribution:     17.66157      -0.00000       0.00001
Nuclear contribution   :    -20.86642       0.00000      -0.00001
                        -----------------------------------------
Total Dipole Moment    :     -3.20485       0.00000      -0.00000
                        -----------------------------------------
Magnitude (a.u.)       :      3.20485
Magnitude (Debye)      :      8.14607

Rotational constants in cm-1:     0.092325     0.016027     0.013727
Rotational constants in MHz :  2767.831329   480.489386   411.532748

                             ****ORCA TERMINATED NORMALLY****
TOTAL RUN TIME: 0 days 1 hours 24 minutes 56 seconds 128 msec
