                         Program Version 4.2.1 -  RELEASE  -
|  1> %pal
|  2>  nprocs 32
|  3> end
|  4> !RI-MP2 aug-cc-pVQZ aug-cc-pVQZ/C TightSCF
|  5> %maxcore 4500
|  6> *xyzfile 0 1  03_9R1.xyz
|  7>
|  8>
|  9>                          ****END OF INPUT****

CARTESIAN COORDINATES (ANGSTROEM)
---------------------------------
  S      1.890726    0.000000   -0.542786
  C      0.154917    0.000000   -0.242244
  C     -0.532581    1.208642   -0.134014
  C     -1.901143    1.205659    0.083679
  C     -2.582590    0.000000    0.192611
  C     -1.901143   -1.205660    0.083678
  C     -0.532580   -1.208641   -0.134015
  H     -2.437001    2.142895    0.168165
  H     -3.652707    0.000000    0.361736
  H      0.013077    2.139375   -0.221273
  H      0.013078   -2.139375   -0.221274
  H     -2.437000   -2.142895    0.168164
  F      2.446629   -0.000001    1.036765

 Total Charge           Charge          ....    0
 Multiplicity           Mult            ....    1
 Number of Electrons    NEL             ....   66
 Basis Dimension        Dim             ....  874

ORBITAL ENERGIES
----------------

  NO   OCC          E(Eh)            E(eV)
   0   2.0000     -92.027423     -2504.1935
   1   2.0000     -26.285661      -715.2692
   2   2.0000     -11.275709      -306.8276
   3   2.0000     -11.261400      -306.4383
   4   2.0000     -11.261339      -306.4366
   5   2.0000     -11.261003      -306.4275
   6   2.0000     -11.251344      -306.1646
   7   2.0000     -11.251254      -306.1622
   8   2.0000      -9.021210      -245.4796
   9   2.0000      -6.702656      -182.3885
  10   2.0000      -6.700894      -182.3406
  11   2.0000      -6.699682      -182.3076
  12   2.0000      -1.571952       -42.7750
  13   2.0000      -1.182458       -32.1763
  14   2.0000      -1.066630       -29.0245
  15   2.0000      -1.040942       -28.3255
  16   2.0000      -0.945791       -25.7363
  17   2.0000      -0.851535       -23.1715
  18   2.0000      -0.821578       -22.3563
  19   2.0000      -0.724556       -19.7162
  20   2.0000      -0.673134       -18.3169
  21   2.0000      -0.666701       -18.1419
  22   2.0000      -0.652468       -17.7546
  23   2.0000      -0.645933       -17.5767
  24   2.0000      -0.632104       -17.2004
  25   2.0000      -0.611439       -16.6381
  26   2.0000      -0.557940       -15.1823
  27   2.0000      -0.527157       -14.3447
  28   2.0000      -0.519256       -14.1297
  29   2.0000      -0.479166       -13.0388
  30   2.0000      -0.374420       -10.1885
  31   2.0000      -0.367156        -9.9908
  32   2.0000      -0.358997        -9.7688
  33   0.0000       0.021460         0.5840
  34   0.0000       0.027300         0.7429
  35   0.0000       0.032940         0.8963
  36   0.0000       0.043457         1.1825
  37   0.0000       0.046364         1.2616

MULLIKEN ATOMIC CHARGES
-----------------------
   0 S :    0.426629
   1 C :   -0.503472
   2 C :   -0.128999
   3 C :   -0.300163
   4 C :   -0.216009
   5 C :   -0.300125
   6 C :   -0.128938
   7 H :    0.269707
   8 H :    0.328544
   9 H :    0.458035
  10 H :    0.458037
  11 H :    0.269688
  12 F :   -0.632935
Sum of atomic charges:    0.0000000

LOEWDIN ATOMIC CHARGES
----------------------
   0 S :    0.743820
   1 C :   -0.596435
   2 C :    0.216734
   3 C :    0.340373
   4 C :    0.340364
   5 C :    0.340375
   6 C :    0.216733
   7 H :   -0.320762
   8 H :   -0.314347
   9 H :   -0.349486
  10 H :   -0.349485
  11 H :   -0.320763
  12 F :    0.052880

  Mayer bond orders larger than 0.100000
B(  0-S ,  1-C ) :   1.3370 B(  0-S ,  2-C ) :  -0.2758 B(  0-S ,  6-C ) :  -0.2758
B(  0-S , 12-F ) :   0.6042 B(  1-C ,  2-C ) :   1.0834 B(  1-C ,  3-C ) :  -0.1022
B(  1-C ,  5-C ) :  -0.1022 B(  1-C ,  6-C ) :   1.0834 B(  2-C ,  3-C ) :   1.3072
B(  2-C ,  5-C ) :   0.1354 B(  2-C ,  7-H ) :  -0.1102 B(  2-C ,  9-H ) :   0.8343
B(  3-C ,  4-C ) :   1.1078 B(  3-C ,  5-C ) :  -0.1142 B(  3-C ,  6-C ) :   0.1354
B(  3-C ,  7-H ) :   1.0742 B(  4-C ,  5-C ) :   1.1077 B(  4-C ,  7-H ) :  -0.1039
B(  4-C ,  8-H ) :   0.9926 B(  4-C , 11-H ) :  -0.1039 B(  5-C ,  6-C ) :   1.3072
B(  5-C , 11-H ) :   1.0742 B(  6-C , 10-H ) :   0.8343 B(  6-C , 11-H ) :  -0.1102

MP2 TOTAL ENERGY:     -728.690194321 Eh
FINAL SINGLE POINT ENERGY      -728.690194320917

DIPOLE MOMENT
-------------
                                X             Y             Z
Electronic contribution:      9.30018      -0.00000       0.36357
Nuclear contribution   :    -10.61454       0.00000      -0.72693
                        -----------------------------------------
Total Dipole Moment    :     -1.31437      -0.00000      -0.36337
                        -----------------------------------------
Magnitude (a.u.)       :      1.36367
Magnitude (Debye)      :      3.46617

Rotational constants in cm-1:     0.140081     0.036746     0.032707
Rotational constants in MHz :  4199.513034  1101.617967   980.541336

                             ****ORCA TERMINATED NORMALLY****
TOTAL RUN TIME: 0 days 0 hours 19 minutes 18 seconds 510 msec
