                         Program Version 4.2.1 -  RELEASE  -
|  1> %pal
|  2>  nprocs 32
|  3> end
|  4> !RI-MP2 aug-cc-pVQZ aug-cc-pVQZ/C TightSCF
|  5> %maxcore 4500
|  6> *xyzfile 0 2  01_35R.xyz
|  7>
|  8>
|  9>                          ****END OF INPUT****

CARTESIAN COORDINATES (ANGSTROEM)
---------------------------------
  C      3.311503   -0.839728    0.716715
  C      3.763021    0.289278   -0.217667
  C      2.714045    1.395879   -0.281273
  C      1.358708    0.855171   -0.732215
  C      0.850846   -0.268690    0.186230
  C      1.921825   -1.284194    0.417917
  C     -0.434243   -0.922852   -0.328258
  C     -1.634885    0.013261   -0.453112
  C     -2.894585   -0.676232   -0.921462
  C     -3.966166   -0.289495   -0.242171
  C     -2.086231    0.648836    0.881118
  H     -1.389231    0.801201   -1.176859
  C     -3.623215    0.740045    0.803979
  H     -1.612670    1.611956    1.076682
  H     -1.807483   -0.022932    1.698669
  H     -3.955158    1.733729    0.480482
  H     -4.104113    0.549415    1.766531
  H     -0.226650   -1.379900   -1.302641
  H     -0.706306   -1.742601    0.346609
  H      4.005750   -1.682258    0.668695
  H      3.362062   -0.464881    1.754110
  H      3.917253   -0.117205   -1.222957
  H      4.724364    0.689633    0.115294
  H      0.628713    1.667543   -0.767887
  H      1.446589    0.461942   -1.752277
  H      2.609549    1.854254    0.709910
  H      3.042409    2.189531   -0.957870
  H      1.635767   -2.314293    0.602544
  H      0.622787    0.202409    1.159967
  H     -2.899051   -1.378008   -1.747846
  H     -4.978320   -0.627203   -0.429956

 Total Charge           Charge          ....    0
 Multiplicity           Mult            ....    2
 Number of Electrons    NEL             ....   91
 Basis Dimension        Dim             .... 1834

ORBITAL ENERGIES
----------------
                 SPIN UP ORBITALS
  NO   OCC          E(Eh)            E(eV)
   0   1.0000     -11.220558      -305.3269
   1   1.0000     -11.218446      -305.2694
   2   1.0000     -11.218159      -305.2616
   3   1.0000     -11.217707      -305.2493
   4   1.0000     -11.216288      -305.2107
   5   1.0000     -11.214051      -305.1498
   6   1.0000     -11.214024      -305.1491
   7   1.0000     -11.213662      -305.1393
   8   1.0000     -11.213140      -305.1250
   9   1.0000     -11.212429      -305.1057
  10   1.0000     -11.211823      -305.0892
  11   1.0000     -11.211685      -305.0854
  12   1.0000      -1.141199       -31.0536
  13   1.0000      -1.120775       -30.4978
  14   1.0000      -1.042615       -28.3710
  15   1.0000      -1.005132       -27.3510
  16   1.0000      -0.973384       -26.4871
  17   1.0000      -0.961533       -26.1646
  18   1.0000      -0.883983       -24.0544
  19   1.0000      -0.830200       -22.5909
  20   1.0000      -0.809789       -22.0355
  21   1.0000      -0.765760       -20.8374
  22   1.0000      -0.737467       -20.0675
  23   1.0000      -0.719280       -19.5726
  24   1.0000      -0.668249       -18.1840
  25   1.0000      -0.648944       -17.6587
  26   1.0000      -0.636325       -17.3153
  27   1.0000      -0.606326       -16.4990
  28   1.0000      -0.594539       -16.1782
  29   1.0000      -0.586605       -15.9623
  30   1.0000      -0.556802       -15.1513
  31   1.0000      -0.549135       -14.9427
  32   1.0000      -0.537833       -14.6352
  33   1.0000      -0.529090       -14.3973
  34   1.0000      -0.515013       -14.0142
  35   1.0000      -0.495950       -13.4955
  36   1.0000      -0.489378       -13.3167
  37   1.0000      -0.478482       -13.0202
  38   1.0000      -0.474698       -12.9172
  39   1.0000      -0.471138       -12.8203
  40   1.0000      -0.464511       -12.6400
  41   1.0000      -0.447988       -12.1904
  42   1.0000      -0.432898       -11.7798
  43   1.0000      -0.427258       -11.6263
  44   1.0000      -0.339454        -9.2370
  45   1.0000      -0.321307        -8.7432
  46   0.0000       0.024399         0.6639
  47   0.0000       0.026552         0.7225
  48   0.0000       0.028709         0.7812
  49   0.0000       0.029598         0.8054
  50   0.0000       0.036830         1.0022

                 SPIN DOWN ORBITALS
  NO   OCC          E(Eh)            E(eV)
   0   1.0000     -11.221188      -305.3440
   1   1.0000     -11.220636      -305.3290
   2   1.0000     -11.218133      -305.2609
   3   1.0000     -11.217047      -305.2314
   4   1.0000     -11.216292      -305.2108
   5   1.0000     -11.214023      -305.1491
   6   1.0000     -11.213659      -305.1392
   7   1.0000     -11.212729      -305.1139
   8   1.0000     -11.211946      -305.0926
   9   1.0000     -11.211266      -305.0741
  10   1.0000     -11.210984      -305.0664
  11   1.0000     -11.194161      -304.6086
  12   1.0000      -1.139027       -30.9945
  13   1.0000      -1.109391       -30.1881
  14   1.0000      -1.041815       -28.3492
  15   1.0000      -0.987792       -26.8792
  16   1.0000      -0.964445       -26.2439
  17   1.0000      -0.961454       -26.1625
  18   1.0000      -0.879318       -23.9275
  19   1.0000      -0.817667       -22.2498
  20   1.0000      -0.800262       -21.7762
  21   1.0000      -0.762672       -20.7534
  22   1.0000      -0.724073       -19.7030
  23   1.0000      -0.710802       -19.3419
  24   1.0000      -0.667606       -18.1665
  25   1.0000      -0.644250       -17.5309
  26   1.0000      -0.632698       -17.2166
  27   1.0000      -0.602344       -16.3906
  28   1.0000      -0.592373       -16.1193
  29   1.0000      -0.575475       -15.6595
  30   1.0000      -0.551973       -15.0200
  31   1.0000      -0.541700       -14.7404
  32   1.0000      -0.535365       -14.5680
  33   1.0000      -0.517904       -14.0929
  34   1.0000      -0.513830       -13.9820
  35   1.0000      -0.493685       -13.4338
  36   1.0000      -0.487012       -13.2523
  37   1.0000      -0.477577       -12.9955
  38   1.0000      -0.472027       -12.8445
  39   1.0000      -0.469001       -12.7622
  40   1.0000      -0.459439       -12.5020
  41   1.0000      -0.444526       -12.0962
  42   1.0000      -0.428744       -11.6667
  43   1.0000      -0.424388       -11.5482
  44   1.0000      -0.339215        -9.2305
  45   0.0000       0.024215         0.6589
  46   0.0000       0.026496         0.7210
  47   0.0000       0.028820         0.7842
  48   0.0000       0.029629         0.8062
  49   0.0000       0.036876         1.0034

MULLIKEN ATOMIC CHARGES AND SPIN POPULATIONS
--------------------------------------------
   0 C :   -0.415764   -0.195521
   1 C :   -0.606990    0.057081
   2 C :   -0.451970   -0.026572
   3 C :   -0.344544    0.053312
   4 C :    0.748238   -0.269421
   5 C :   -0.714552    1.270797
   6 C :   -0.424373    0.049475
   7 C :    0.703469   -0.012641
   8 C :   -1.014127    0.001321
   9 C :   -0.440111   -0.000213
  10 C :   -0.417341    0.000530
  11 H :    0.183248   -0.000922
  12 C :   -0.610281    0.000899
  13 H :    0.245171   -0.003552
  14 H :    0.168636   -0.000164
  15 H :    0.179547   -0.000111
  16 H :    0.282047    0.000047
  17 H :    0.205704   -0.004725
  18 H :    0.213438   -0.000356
  19 H :    0.258972    0.004637
  20 H :    0.148363    0.104369
  21 H :    0.102171   -0.001568
  22 H :    0.264835   -0.001789
  23 H :    0.229576   -0.000040
  24 H :    0.175768    0.005396
  25 H :    0.156504    0.000191
  26 H :    0.222490   -0.000743
  27 H :    0.192028   -0.136008
  28 H :    0.176463    0.106243
  29 H :    0.230419    0.000127
  30 H :    0.352967   -0.000080
Sum of atomic charges         :    0.0000000

LOEWDIN ATOMIC CHARGES AND SPIN POPULATIONS
-------------------------------------------
   0 C :    0.512718    0.128902
   1 C :    0.523101    0.017880
   2 C :    0.537695    0.003246
   3 C :    0.525719    0.017629
   4 C :    0.108090    0.125910
   5 C :    0.481778    0.450083
   6 C :    0.511111    0.013788
   7 C :    0.097433    0.001045
   8 C :    0.405315   -0.000055
   9 C :    0.410315   -0.000031
  10 C :    0.510895    0.001502
  11 H :   -0.279032    0.000105
  12 C :    0.511829    0.000270
  13 H :   -0.244569    0.001036
  14 H :   -0.271977    0.000993
  15 H :   -0.268975    0.000051
  16 H :   -0.271594    0.000055
  17 H :   -0.257214    0.005647
  18 H :   -0.270329    0.000538
  19 H :   -0.282327    0.010661
  20 H :   -0.268845    0.030211
  21 H :   -0.264803    0.006330
  22 H :   -0.260880    0.003179
  23 H :   -0.271925    0.002947
  24 H :   -0.251780    0.006385
  25 H :   -0.259023    0.000916
  26 H :   -0.257184    0.000622
  27 H :   -0.285967    0.142431
  28 H :   -0.279100    0.027715
  29 H :   -0.289533    0.000044
  30 H :   -0.300942   -0.000034

  Mayer bond orders larger than 0.100000
B(  0-C ,  1-C ) :   0.9762 B(  0-C ,  4-C ) :  -0.1117 B(  0-C ,  5-C ) :   0.8158
B(  0-C , 19-H ) :   1.0210 B(  0-C , 20-H ) :   0.9575 B(  1-C ,  2-C ) :   0.9080
B(  1-C ,  3-C ) :  -0.1446 B(  1-C , 21-H ) :   1.0700 B(  1-C , 22-H ) :   0.9492
B(  2-C ,  3-C ) :   0.6417 B(  2-C , 25-H ) :   1.0344 B(  2-C , 26-H ) :   1.0262
B(  3-C ,  4-C ) :   0.6919 B(  3-C , 23-H ) :   0.9690 B(  3-C , 24-H ) :   1.0129
B(  3-C , 26-H ) :  -0.1165 B(  4-C ,  5-C ) :   0.5005 B(  4-C ,  6-C ) :   0.6152
B(  4-C ,  7-C ) :  -0.1152 B(  4-C , 28-H ) :   0.9042 B(  5-C , 19-H ) :  -0.1630
B(  5-C , 27-H ) :   1.1286 B(  6-C ,  7-C ) :   0.8635 B(  6-C ,  8-C ) :  -0.1884
B(  6-C , 17-H ) :   0.9658 B(  6-C , 18-H ) :   0.9782 B(  7-C ,  8-C ) :   0.1878
B(  7-C ,  9-C ) :  -0.5402 B(  7-C , 10-C ) :   0.7130 B(  7-C , 11-H ) :   0.9975
B(  8-C ,  9-C ) :   1.8021 B(  8-C , 29-H ) :   1.2147 B(  9-C , 12-C ) :   1.0210
B(  9-C , 30-H ) :   0.9682 B( 10-C , 12-C ) :   0.8556 B( 10-C , 13-H ) :   0.9231
B( 10-C , 14-H ) :   0.9859 B( 12-C , 15-H ) :   1.0369 B( 12-C , 16-H ) :   0.9767

MP2 TOTAL ENERGY:     -467.746663614 Eh
FINAL SINGLE POINT ENERGY      -467.746663614035

DIPOLE MOMENT
-------------
                                X             Y             Z
Electronic contribution:     -4.44371      -1.98259      -1.00110
Nuclear contribution   :      4.51771       2.12718       1.06886
                        -----------------------------------------
Total Dipole Moment    :      0.07399       0.14460       0.06775
                        -----------------------------------------
Magnitude (a.u.)       :      0.17599
Magnitude (Debye)      :      0.44734

Rotational constants in cm-1:     0.084654     0.013645     0.013107
Rotational constants in MHz :  2537.874621   409.060160   392.947120

                             ****ORCA TERMINATED NORMALLY****
TOTAL RUN TIME: 0 days 3 hours 43 minutes 4 seconds 835 msec
