                         Program Version 4.2.1 -  RELEASE  -
|  1> %pal
|  2>  nprocs 32
|  3> end
|  4> !RI-MP2 aug-cc-pVQZ aug-cc-pVQZ/C TightSCF
|  5> %maxcore 4500
|  6> *xyzfile 1 1  05_23TS.xyz
|  7>
|  8>
|  9>                          ****END OF INPUT****

CARTESIAN COORDINATES (ANGSTROEM)
---------------------------------
  C      1.523049   -1.809286   -0.535382
  C      0.920126   -0.527359    1.708369
  C      2.079999    0.423544    1.407451
  C      3.196348   -0.177355    0.550293
  C      2.653791   -0.798989   -0.738508
  H      1.697472    1.304603    0.893618
  H      2.496918    0.758789    2.359312
  H      3.718409   -0.944141    1.126545
  H      2.303628    0.007148   -1.382426
  H      3.466093   -1.304136   -1.264995
  N      0.531763   -1.212176    0.425430
  O     -0.675817   -1.562324    0.305284
  C      0.826377   -2.080939   -1.865271
  H      0.069425   -2.858471   -1.771335
  H      0.362966   -1.189098   -2.282448
  H      1.580220   -2.426950   -2.572561
  C      2.029461   -3.148236    0.025459
  H      1.195750   -3.781289    0.331575
  H      2.572195   -3.664899   -0.766985
  H      2.707836   -3.032780    0.866510
  C     -0.275487    0.265530    2.230206
  H      0.047653    0.812524    3.115940
  H     -0.634223    0.995992    1.508035
  H     -1.101464   -0.383882    2.515260
  C      1.288730   -1.588148    2.757395
  H      1.358382   -1.096099    3.728337
  H      0.516046   -2.355158    2.822615
  H      2.243597   -2.069598    2.564327
  C     -1.858326    0.195917   -1.090456
  H     -1.346325   -0.747194   -0.316104
  C     -3.041811    0.586283   -0.254587
  C     -3.717203   -0.344260    0.533523
  C     -3.482090    1.909760   -0.282624
  C     -4.819172    0.040842    1.279710
  H     -3.374012   -1.370935    0.579660
  C     -4.593463    2.287980    0.454912
  H     -2.971944    2.641804   -0.896220
  C     -5.260015    1.356873    1.239061
  H     -5.333929   -0.686443    1.894637
  H     -4.937538    3.313855    0.417127
  H     -6.122900    1.657149    1.820116
  O     -2.063313   -0.427636   -2.271793
  C     -3.205032   -1.268876   -2.461167
  H     -3.130731   -2.159142   -1.834054
  H     -4.124883   -0.729513   -2.237738
  H     -3.179568   -1.555280   -3.508499
  C     -0.671114    1.092049   -1.160729
  H     -0.416693    1.325079   -2.193334
  H     -0.802614    2.004124   -0.584501
  H      0.216361    0.591066   -0.730132
  N      4.201702    0.834840    0.242822
  C      3.938829    1.967643   -0.470178
  C      5.105104    2.893598   -0.694651
  H      6.033104    2.548188   -0.239321
  H      5.254211    3.009017   -1.768652
  H      4.851454    3.874859   -0.292877
  H      5.141613    0.686533    0.569973
  O      2.824208    2.215736   -0.901753

 Total Charge           Charge          ....    1
 Multiplicity           Mult            ....    1
 Number of Electrons    NEL             ....  190
 Basis Dimension        Dim             .... 3518

ORBITAL ENERGIES
----------------

  NO   OCC          E(Eh)            E(eV)
   0   2.0000     -20.818287      -566.4944
   1   2.0000     -20.716787      -563.7324
   2   2.0000     -20.608967      -560.7985
   3   2.0000     -15.821597      -430.5275
   4   2.0000     -15.685159      -426.8149
   5   2.0000     -11.472315      -312.1776
   6   2.0000     -11.445836      -311.4570
   7   2.0000     -11.412229      -310.5425
   8   2.0000     -11.411427      -310.5207
   9   2.0000     -11.392134      -309.9957
  10   2.0000     -11.387598      -309.8723
  11   2.0000     -11.364718      -309.2497
  12   2.0000     -11.352214      -308.9095
  13   2.0000     -11.351789      -308.8979
  14   2.0000     -11.349683      -308.8406
  15   2.0000     -11.343294      -308.6667
  16   2.0000     -11.341585      -308.6202
  17   2.0000     -11.340549      -308.5920
  18   2.0000     -11.337216      -308.5013
  19   2.0000     -11.337168      -308.5000
  20   2.0000     -11.336902      -308.4928
  21   2.0000     -11.336882      -308.4922
  22   2.0000     -11.334519      -308.4279
  23   2.0000     -11.331846      -308.3552
  24   2.0000     -11.319559      -308.0209
  25   2.0000      -1.658369       -45.1265
  26   2.0000      -1.546111       -42.0718
  27   2.0000      -1.480143       -40.2767
  28   2.0000      -1.342745       -36.5379
  29   2.0000      -1.308366       -35.6024
  30   2.0000      -1.277643       -34.7664
  31   2.0000      -1.233007       -33.5518
  32   2.0000      -1.199132       -32.6300
  33   2.0000      -1.165074       -31.7033
  34   2.0000      -1.133671       -30.8487
  35   2.0000      -1.126350       -30.6495
  36   2.0000      -1.120620       -30.4936
  37   2.0000      -1.083573       -29.4855
  38   2.0000      -1.070119       -29.1194
  39   2.0000      -1.058922       -28.8147
  40   2.0000      -1.056062       -28.7369
  41   2.0000      -1.055529       -28.7224
  42   2.0000      -0.990256       -26.9462
  43   2.0000      -0.970472       -26.4079
  44   2.0000      -0.952651       -25.9230
  45   2.0000      -0.946260       -25.7490
  46   2.0000      -0.917845       -24.9758
  47   2.0000      -0.891039       -24.2464
  48   2.0000      -0.873617       -23.7723
  49   2.0000      -0.852023       -23.1847
  50   2.0000      -0.831198       -22.6181
  51   2.0000      -0.817354       -22.2413
  52   2.0000      -0.814658       -22.1680
  53   2.0000      -0.795693       -21.6519
  54   2.0000      -0.785162       -21.3653
  55   2.0000      -0.784090       -21.3362
  56   2.0000      -0.773456       -21.0468
  57   2.0000      -0.752101       -20.4657
  58   2.0000      -0.742114       -20.1939
  59   2.0000      -0.737938       -20.0803
  60   2.0000      -0.732116       -19.9219
  61   2.0000      -0.729363       -19.8470
  62   2.0000      -0.714252       -19.4358
  63   2.0000      -0.710371       -19.3302
  64   2.0000      -0.705921       -19.2091
  65   2.0000      -0.701639       -19.0926
  66   2.0000      -0.694999       -18.9119
  67   2.0000      -0.692298       -18.8384
  68   2.0000      -0.688292       -18.7294
  69   2.0000      -0.680134       -18.5074
  70   2.0000      -0.678375       -18.4595
  71   2.0000      -0.673549       -18.3282
  72   2.0000      -0.666765       -18.1436
  73   2.0000      -0.659987       -17.9592
  74   2.0000      -0.650327       -17.6963
  75   2.0000      -0.646431       -17.5903
  76   2.0000      -0.645718       -17.5709
  77   2.0000      -0.642078       -17.4718
  78   2.0000      -0.638707       -17.3801
  79   2.0000      -0.637694       -17.3525
  80   2.0000      -0.622460       -16.9380
  81   2.0000      -0.617001       -16.7894
  82   2.0000      -0.614737       -16.7279
  83   2.0000      -0.607249       -16.5241
  84   2.0000      -0.605062       -16.4646
  85   2.0000      -0.603212       -16.4142
  86   2.0000      -0.594193       -16.1688
  87   2.0000      -0.590007       -16.0549
  88   2.0000      -0.579234       -15.7618
  89   2.0000      -0.577092       -15.7035
  90   2.0000      -0.515249       -14.0207
  91   2.0000      -0.494919       -13.4674
  92   2.0000      -0.475268       -12.9327
  93   2.0000      -0.451120       -12.2756
  94   2.0000      -0.444324       -12.0907
  95   0.0000      -0.129339        -3.5195
  96   0.0000      -0.055675        -1.5150
  97   0.0000      -0.049488        -1.3466
  98   0.0000      -0.045722        -1.2442
  99   0.0000      -0.044018        -1.1978

MULLIKEN ATOMIC CHARGES
-----------------------
   0 C :    1.160577
   1 C :    1.092354
   2 C :   -0.714108
   3 C :    1.502908
   4 C :   -0.698380
   5 H :    0.261909
   6 H :   -0.056750
   7 H :    0.392620
   8 H :    0.286262
   9 H :   -0.035822
  10 N :    3.391366
  11 O :   -1.848376
  12 C :   -1.192803
  13 H :    0.165738
  14 H :    0.106134
  15 H :    0.003864
  16 C :   -1.201309
  17 H :    0.145196
  18 H :    0.156001
  19 H :    0.218049
  20 C :   -1.263508
  21 H :   -0.027737
  22 H :    0.262797
  23 H :    0.283874
  24 C :   -1.266240
  25 H :    0.149443
  26 H :    0.153244
  27 H :    0.222288
  28 C :    3.140784
  29 H :    0.095141
  30 C :    0.880825
  31 C :   -0.506394
  32 C :   -0.947615
  33 C :   -0.460520
  34 H :    0.220331
  35 C :   -0.428199
  36 H :    0.170667
  37 C :   -0.433156
  38 H :    0.215960
  39 H :    0.249673
  40 H :    0.357964
  41 O :   -1.144726
  42 C :   -0.917984
  43 H :    0.303915
  44 H :    0.315879
  45 H :    0.297242
  46 C :   -1.284932
  47 H :    0.068138
  48 H :    0.048373
  49 H :    0.404277
  50 N :   -0.993814
  51 C :    1.036945
  52 C :   -0.910101
  53 H :    0.254348
  54 H :    0.278287
  55 H :    0.277324
  56 H :   -0.159876
  57 O :   -1.078350
Sum of atomic charges:    1.0000000

LOEWDIN ATOMIC CHARGES
----------------------
   0 C :   -0.339060
   1 C :   -0.335469
   2 C :    0.535261
   3 C :    0.041391
   4 C :    0.535305
   5 H :   -0.349472
   6 H :   -0.237187
   7 H :   -0.281425
   8 H :   -0.345543
   9 H :   -0.237456
  10 N :    0.192881
  11 O :    1.110058
  12 C :    0.925684
  13 H :   -0.260478
  14 H :   -0.312396
  15 H :   -0.251093
  16 C :    0.958655
  17 H :   -0.247874
  18 H :   -0.255408
  19 H :   -0.305132
  20 C :    0.928207
  21 H :   -0.248636
  22 H :   -0.303291
  23 H :   -0.263076
  24 C :    0.959457
  25 H :   -0.255554
  26 H :   -0.247512
  27 H :   -0.304609
  28 C :   -0.340889
  29 H :   -0.939155
  30 C :   -0.077554
  31 C :    0.335582
  32 C :    0.370229
  33 C :    0.382317
  34 H :   -0.314298
  35 C :    0.383014
  36 H :   -0.306162
  37 C :    0.371862
  38 H :   -0.305549
  39 H :   -0.305396
  40 H :   -0.304810
  41 O :    0.973184
  42 C :    0.667485
  43 H :   -0.289313
  44 H :   -0.303187
  45 H :   -0.296611
  46 C :    0.941360
  47 H :   -0.229219
  48 H :   -0.263952
  49 H :   -0.394000
  50 N :    0.893409
  51 C :   -0.788286
  52 C :    0.919465
  53 H :   -0.302662
  54 H :   -0.287340
  55 H :   -0.288334
  56 H :   -0.477640
  57 O :    0.770223

  Mayer bond orders larger than 0.100000
B(  0-C ,  1-C ) :   0.5191 B(  0-C ,  4-C ) :   0.3857 B(  0-C ,  8-H ) :  -0.1236
B(  0-C , 10-N ) :   0.7679 B(  0-C , 11-O ) :   0.1532 B(  0-C , 12-C ) :  -0.3058
B(  0-C , 13-H ) :  -0.4079 B(  0-C , 14-H ) :  -0.2312 B(  0-C , 15-H ) :  -0.2428
B(  0-C , 16-C ) :  -0.2473 B(  0-C , 17-H ) :  -0.3273 B(  0-C , 18-H ) :  -0.1980
B(  0-C , 19-H ) :  -0.1676 B(  0-C , 29-H ) :  -0.1076 B(  1-C ,  2-C ) :   0.2905
B(  1-C ,  5-H ) :  -0.2175 B(  1-C , 10-N ) :   0.8217 B(  1-C , 11-O ) :   0.2957
B(  1-C , 22-H ) :  -0.2276 B(  1-C , 23-H ) :  -0.3428 B(  1-C , 24-C ) :  -0.2881
B(  1-C , 25-H ) :  -0.2051 B(  1-C , 26-H ) :  -0.2985 B(  1-C , 27-H ) :  -0.1969
B(  1-C , 46-C ) :  -0.1083 B(  2-C ,  3-C ) :   0.6624 B(  2-C ,  5-H ) :   1.2884
B(  2-C ,  6-H ) :   1.1508 B(  2-C , 46-C ) :   0.1044 B(  3-C ,  4-C ) :   0.6745
B(  3-C ,  6-H ) :  -0.2242 B(  3-C ,  7-H ) :   0.8539 B(  3-C ,  9-H ) :  -0.2037
B(  3-C , 50-N ) :  -0.8785 B(  3-C , 51-C ) :  -0.1405 B(  3-C , 56-H ) :  -0.4243
B(  3-C , 57-O ) :   0.1450 B(  4-C ,  8-H ) :   1.2467 B(  4-C ,  9-H ) :   1.1285
B(  4-C , 46-C ) :   0.1006 B(  5-H , 50-N ) :   0.1042 B(  5-H , 57-O ) :  -0.1096
B(  8-H , 50-N ) :   0.1122 B(  8-H , 57-O ) :  -0.1019 B(  9-H , 50-N ) :   0.1016
B( 10-N , 11-O ) :  -0.9361 B( 10-N , 12-C ) :  -0.5632 B( 10-N , 16-C ) :  -0.2151
B( 10-N , 20-C ) :  -0.5202 B( 10-N , 24-C ) :  -0.1735 B( 10-N , 28-C ) :   0.1795
B( 10-N , 30-C ) :   0.1494 B( 10-N , 57-O ) :   0.1331 B( 11-O , 29-H ) :   0.4357
B( 11-O , 49-H ) :   0.2627 B( 12-C , 13-H ) :   1.3555 B( 12-C , 14-H ) :   1.1204
B( 12-C , 15-H ) :   1.4384 B( 13-H , 14-H ) :   0.1257 B( 16-C , 17-H ) :   1.3823
B( 16-C , 18-H ) :   1.1689 B( 16-C , 19-H ) :   1.1796 B( 20-C , 21-H ) :   1.3868
B( 20-C , 22-H ) :   1.0314 B( 20-C , 23-H ) :   1.1969 B( 20-C , 31-C ) :   0.1171
B( 22-H , 23-H ) :   0.1408 B( 24-C , 25-H ) :   1.1820 B( 24-C , 26-H ) :   1.3588
B( 24-C , 27-H ) :   1.1934 B( 28-C , 29-H ) :   0.1774 B( 28-C , 30-C ) :   0.1117
B( 28-C , 31-C ) :  -0.2424 B( 28-C , 32-C ) :  -0.2918 B( 28-C , 41-O ) :  -0.9375
B( 28-C , 42-C ) :  -0.5194 B( 28-C , 46-C ) :   0.6871 B( 28-C , 48-H ) :  -0.2336
B( 28-C , 49-H ) :   0.3673 B( 29-H , 41-O ) :   0.6540 B( 30-C , 31-C ) :   0.4294
B( 30-C , 32-C ) :   0.6530 B( 30-C , 33-C ) :  -0.3508 B( 30-C , 35-C ) :  -0.4206
B( 30-C , 46-C ) :  -0.1390 B( 31-C , 33-C ) :   1.5410 B( 31-C , 34-H ) :   1.1235
B( 31-C , 35-C ) :   0.1438 B( 32-C , 33-C ) :   0.1370 B( 32-C , 35-C ) :   1.4539
B( 32-C , 36-H ) :   1.1119 B( 32-C , 37-C ) :   0.1231 B( 32-C , 39-H ) :  -0.1048
B( 32-C , 49-H ) :   0.1321 B( 33-C , 37-C ) :   1.1595 B( 33-C , 38-H ) :   1.1719
B( 33-C , 40-H ) :  -0.1259 B( 35-C , 37-C ) :   1.0947 B( 35-C , 39-H ) :   1.1437
B( 35-C , 40-H ) :  -0.1052 B( 37-C , 40-H ) :   1.0304 B( 41-O , 42-C ) :   1.1687
B( 42-C , 43-H ) :   0.9187 B( 42-C , 44-H ) :   0.8873 B( 42-C , 45-H ) :   1.0143
B( 46-C , 47-H ) :   1.4478 B( 46-C , 48-H ) :   1.4207 B( 46-C , 49-H ) :   0.1475
B( 46-C , 57-O ) :   0.2348 B( 47-H , 48-H ) :   0.1266 B( 47-H , 49-H ) :  -0.3536
B( 48-H , 49-H ) :  -0.2372 B( 49-H , 57-O ) :  -0.2507 B( 50-N , 51-C ) :   1.0741
B( 50-N , 52-C ) :  -0.1000 B( 50-N , 56-H ) :   1.6414 B( 51-C , 52-C ) :   0.5312
B( 51-C , 53-H ) :  -0.1652 B( 51-C , 54-H ) :  -0.1093 B( 51-C , 55-H ) :  -0.1098
B( 51-C , 57-O ) :   0.9594 B( 52-C , 53-H ) :   1.0408 B( 52-C , 54-H ) :   1.0025
B( 52-C , 55-H ) :   1.0055

MP2 TOTAL ENERGY:    -1115.020485486 Eh
FINAL SINGLE POINT ENERGY     -1115.020485485931

DIPOLE MOMENT
-------------
                                X             Y             Z
Electronic contribution:    -10.26961       6.01156      -1.83944
Nuclear contribution   :     10.65953      -7.00287       2.49419
                        -----------------------------------------
Total Dipole Moment    :      0.38991      -0.99131       0.65475
                        -----------------------------------------
Magnitude (a.u.)       :      1.25037
Magnitude (Debye)      :      3.17818

Rotational constants in cm-1:     0.011256     0.004487     0.004234
Rotational constants in MHz :   337.458616   134.506398   126.926206

                             ****ORCA TERMINATED NORMALLY****
TOTAL RUN TIME: 1 days 10 hours 12 minutes 17 seconds 179 msec
