                         Program Version 4.2.1 -  RELEASE  -
|  1> %pal
|  2>  nprocs 32
|  3> end
|  4> !RI-MP2 aug-cc-pVQZ aug-cc-pVQZ/C TightSCF
|  5> %maxcore 4500
|  6> *xyzfile 1 1  05_37P1.xyz
|  7>
|  8>
|  9>                          ****END OF INPUT****

CARTESIAN COORDINATES (ANGSTROEM)
---------------------------------
  C      2.375570    1.210930   -0.159060
  C      3.756400    1.200310   -0.157600
  C      4.442600    0.000550   -0.000310
  C      3.758800   -1.200550    0.157090
  C      2.377980   -1.213880    0.158760
  C      1.692670   -0.002170   -0.000120
  H      1.828110    2.136660   -0.280430
  H      4.301200    2.127190   -0.279050
  H      5.525550    0.001620   -0.000390
  H      4.305450   -2.126340    0.278470
  H      1.832430   -2.140700    0.280220
  C      0.283390   -0.003350   -0.000100
  N     -0.865280   -0.003740   -0.000100
  Si    -2.728630   -0.000000   -0.000120
  C     -3.146890   -1.016810   -1.487300
  H     -2.765420   -2.036150   -1.403680
  H     -4.233640   -1.081900   -1.589430
  H     -2.757390   -0.573510   -2.405530
  C     -3.144390   -0.776490    1.626180
  H     -2.753870   -0.197360    2.464920
  H     -4.230980   -0.825350    1.738510
  H     -2.762810   -1.796590    1.699490
  C     -3.122620    1.802030   -0.139120
  H     -2.732770    2.233880   -1.062720
  H     -4.207780    1.936060   -0.148410
  H     -2.730820    2.370710    0.706210

 Total Charge           Charge          ....    1
 Multiplicity           Mult            ....    1
 Number of Electrons    NEL             ....   94
 Basis Dimension        Dim             .... 1608

ORBITAL ENERGIES
----------------

  NO   OCC          E(Eh)            E(eV)
   0   2.0000     -68.933895     -1875.7866
   1   2.0000     -15.782927      -429.4753
   2   2.0000     -11.518416      -313.4320
   3   2.0000     -11.427459      -310.9570
   4   2.0000     -11.409216      -310.4606
   5   2.0000     -11.409158      -310.4590
   6   2.0000     -11.394116      -310.0497
   7   2.0000     -11.380612      -309.6822
   8   2.0000     -11.380546      -309.6804
   9   2.0000     -11.333886      -308.4107
  10   2.0000     -11.333115      -308.3897
  11   2.0000     -11.333014      -308.3870
  12   2.0000      -6.280212      -170.8933
  13   2.0000      -4.387999      -119.4035
  14   2.0000      -4.385435      -119.3337
  15   2.0000      -4.385401      -119.3328
  16   2.0000      -1.455983       -39.6193
  17   2.0000      -1.325762       -36.0758
  18   2.0000      -1.208108       -32.8743
  19   2.0000      -1.180336       -32.1186
  20   2.0000      -1.115004       -30.3408
  21   2.0000      -1.064431       -28.9646
  22   2.0000      -1.063847       -28.9487
  23   2.0000      -1.039698       -28.2916
  24   2.0000      -0.990368       -26.9493
  25   2.0000      -0.944174       -25.6923
  26   2.0000      -0.894905       -24.3516
  27   2.0000      -0.829618       -22.5750
  28   2.0000      -0.800380       -21.7794
  29   2.0000      -0.760221       -20.6867
  30   2.0000      -0.750150       -20.4126
  31   2.0000      -0.749638       -20.3987
  32   2.0000      -0.728930       -19.8352
  33   2.0000      -0.718001       -19.5378
  34   2.0000      -0.699250       -19.0276
  35   2.0000      -0.694680       -18.9032
  36   2.0000      -0.676977       -18.4215
  37   2.0000      -0.676902       -18.4195
  38   2.0000      -0.672261       -18.2932
  39   2.0000      -0.667890       -18.1742
  40   2.0000      -0.666228       -18.1290
  41   2.0000      -0.653250       -17.7758
  42   2.0000      -0.650297       -17.6955
  43   2.0000      -0.580720       -15.8022
  44   2.0000      -0.579790       -15.7769
  45   2.0000      -0.502153       -13.6643
  46   2.0000      -0.494466       -13.4551
  47   0.0000      -0.091014        -2.4766
  48   0.0000      -0.071697        -1.9510
  49   0.0000      -0.057323        -1.5598
  50   0.0000      -0.052767        -1.4359
  51   0.0000      -0.051288        -1.3956

MULLIKEN ATOMIC CHARGES
-----------------------
   0 C :   -0.350681
   1 C :   -0.291656
   2 C :   -0.331806
   3 C :   -0.301402
   4 C :   -0.363817
   5 C :   -0.137679
   6 H :    0.318441
   7 H :    0.288162
   8 H :    0.351475
   9 H :    0.288554
  10 H :    0.322082
  11 C :    2.136986
  12 N :   -1.319164
  13 Si:    1.104977
  14 C :   -1.174917
  15 H :    0.293293
  16 H :    0.353510
  17 H :    0.287834
  18 C :   -1.174393
  19 H :    0.289444
  20 H :    0.354793
  21 H :    0.292342
  22 C :   -1.171378
  23 H :    0.288479
  24 H :    0.357177
  25 H :    0.289344
Sum of atomic charges:    1.0000000

LOEWDIN ATOMIC CHARGES
----------------------
   0 C :    0.350586
   1 C :    0.389684
   2 C :    0.390475
   3 C :    0.389679
   4 C :    0.350602
   5 C :   -0.121860
   6 H :   -0.293804
   7 H :   -0.302591
   8 H :   -0.291301
   9 H :   -0.302596
  10 H :   -0.293961
  11 C :   -0.027001
  12 N :    0.599161
  13 Si:    0.111254
  14 C :    1.003548
  15 H :   -0.330413
  16 H :   -0.325695
  17 H :   -0.330189
  18 C :    1.003483
  19 H :   -0.330143
  20 H :   -0.325663
  21 H :   -0.330435
  22 C :    1.003058
  23 H :   -0.330243
  24 H :   -0.325418
  25 H :   -0.330217

  Mayer bond orders larger than 0.100000
B(  0-C ,  1-C ) :   1.3081 B(  0-C ,  3-C ) :   0.1406 B(  0-C ,  4-C ) :   0.1643
B(  0-C ,  5-C ) :   1.2017 B(  0-C ,  6-H ) :   0.9156 B(  0-C ,  7-H ) :  -0.1159
B(  0-C , 11-C ) :  -0.6789 B(  1-C ,  2-C ) :   1.1854 B(  1-C ,  4-C ) :   0.1446
B(  1-C ,  5-C ) :  -0.4004 B(  1-C ,  7-H ) :   1.0854 B(  1-C , 11-C ) :   0.1615
B(  2-C ,  3-C ) :   1.1905 B(  2-C ,  5-C ) :   0.1689 B(  2-C ,  8-H ) :   0.9757
B(  2-C , 11-C ) :  -0.1447 B(  3-C ,  4-C ) :   1.2986 B(  3-C ,  5-C ) :  -0.3909
B(  3-C ,  9-H ) :   1.0823 B(  3-C , 11-C ) :   0.1464 B(  4-C ,  5-C ) :   1.1995
B(  4-C ,  9-H ) :  -0.1160 B(  4-C , 10-H ) :   0.9142 B(  4-C , 11-C ) :  -0.6596
B(  5-C , 11-C ) :  -0.1496 B(  5-C , 12-N ) :   0.5995 B(  6-H , 11-C ) :   0.1311
B( 10-H , 11-C ) :   0.1298 B( 11-C , 12-N ) :   1.9970 B( 11-C , 13-Si) :   0.1045
B( 12-N , 13-Si) :   0.6513 B( 13-Si, 14-C ) :   0.7869 B( 13-Si, 18-C ) :   0.7860
B( 13-Si, 22-C ) :   0.8311 B( 14-C , 15-H ) :   0.9454 B( 14-C , 16-H ) :   0.8766
B( 14-C , 17-H ) :   0.9464 B( 18-C , 19-H ) :   0.9449 B( 18-C , 20-H ) :   0.8772
B( 18-C , 21-H ) :   0.9464 B( 22-C , 23-H ) :   0.9506 B( 22-C , 24-H ) :   0.8729
B( 22-C , 25-H ) :   0.9497

MP2 TOTAL ENERGY:     -732.314135888 Eh
FINAL SINGLE POINT ENERGY      -732.314135887813

DIPOLE MOMENT
-------------
                                X             Y             Z
Electronic contribution:     11.54297      -0.02705      -0.00006
Nuclear contribution   :    -11.35603       0.02772       0.00020
                        -----------------------------------------
Total Dipole Moment    :      0.18694       0.00068       0.00014
                        -----------------------------------------
Magnitude (a.u.)       :      0.18694
Magnitude (Debye)      :      0.47517

Rotational constants in cm-1:     0.066039     0.010681     0.010105
Rotational constants in MHz :  1979.813937   320.209721   302.949581

                             ****ORCA TERMINATED NORMALLY****
TOTAL RUN TIME: 0 days 1 hours 49 minutes 48 seconds 298 msec
