                         Program Version 4.2.1 -  RELEASE  -
|  1> %pal
|  2>  nprocs 32
|  3> end
|  4> !RI-MP2 aug-cc-pVQZ aug-cc-pVQZ/C TightSCF
|  5> %maxcore 4500
|  6> *xyzfile 1 1  05_42P1.xyz
|  7>
|  8>
|  9>                          ****END OF INPUT****

CARTESIAN COORDINATES (ANGSTROEM)
---------------------------------
  C      0.163818    4.221662   -0.000254
  C     -0.854858    3.571371    0.689540
  C     -0.922775    2.193466    0.678161
  C      0.055826    1.439130    0.000021
  C      1.089938    2.115224   -0.678271
  C      1.129027    3.494246   -0.689905
  H      0.205811    5.304052   -0.000368
  H     -1.591124    4.144475    1.237894
  H     -1.698317    1.684691    1.234817
  H      1.823734    1.547781   -1.234808
  H      1.907487    4.008466   -1.238361
  C     -0.000006   -0.000037    0.000074
  C     -1.274287   -0.671263    0.000141
  C     -2.376915   -0.113864   -0.678130
  C     -1.438202   -1.895775    0.678559
  C     -3.590749   -0.769491   -0.689462
  H     -2.252399    0.805226   -1.234875
  C     -2.665488   -2.525862    0.690247
  H     -0.609751   -2.312950    1.235176
  C     -3.738070   -1.968927    0.000487
  H     -4.425363   -0.352527   -1.237903
  H     -2.793633   -3.449919    1.238814
  H     -4.696470   -2.473704    0.000627
  C      1.218450   -0.767974    0.000005
  C      2.360966   -0.297671    0.678249
  C      1.286952   -2.001518   -0.678390
  C      3.520366   -1.045355    0.689520
  H      2.308046    0.628290    1.235020
  C      2.461731   -2.724798   -0.690113
  H      0.428609   -2.353225   -1.234932
  C      3.574271   -2.252604   -0.000431
  H      4.384799   -0.694308    1.237927
  H      2.517903   -3.656004   -1.238683
  H      4.490690   -2.830106   -0.000637

 Total Charge           Charge          ....    1
 Multiplicity           Mult            ....    1
 Number of Electrons    NEL             ....  128
 Basis Dimension        Dim             .... 2210

ORBITAL ENERGIES
----------------

  NO   OCC          E(Eh)            E(eV)
   0   2.0000     -11.468118      -312.0634
   1   2.0000     -11.388684      -309.9019
   2   2.0000     -11.388681      -309.9018
   3   2.0000     -11.388652      -309.9010
   4   2.0000     -11.386003      -309.8289
   5   2.0000     -11.385997      -309.8287
   6   2.0000     -11.385996      -309.8287
   7   2.0000     -11.385750      -309.8220
   8   2.0000     -11.385744      -309.8219
   9   2.0000     -11.385743      -309.8218
  10   2.0000     -11.381341      -309.7020
  11   2.0000     -11.381332      -309.7018
  12   2.0000     -11.381331      -309.7018
  13   2.0000     -11.363633      -309.2202
  14   2.0000     -11.363630      -309.2201
  15   2.0000     -11.363630      -309.2201
  16   2.0000     -11.363580      -309.2187
  17   2.0000     -11.363577      -309.2187
  18   2.0000     -11.363576      -309.2186
  19   2.0000      -1.339039       -36.4371
  20   2.0000      -1.295570       -35.2543
  21   2.0000      -1.295569       -35.2542
  22   2.0000      -1.237309       -33.6689
  23   2.0000      -1.169107       -31.8130
  24   2.0000      -1.169104       -31.8129
  25   2.0000      -1.157166       -31.4881
  26   2.0000      -1.152795       -31.3692
  27   2.0000      -1.152794       -31.3691
  28   2.0000      -1.066543       -29.0221
  29   2.0000      -0.987305       -26.8659
  30   2.0000      -0.987304       -26.8659
  31   2.0000      -0.960363       -26.1328
  32   2.0000      -0.960362       -26.1328
  33   2.0000      -0.959513       -26.1097
  34   2.0000      -0.904919       -24.6241
  35   2.0000      -0.852385       -23.1946
  36   2.0000      -0.852382       -23.1945
  37   2.0000      -0.828516       -22.5451
  38   2.0000      -0.794940       -21.6314
  39   2.0000      -0.794939       -21.6314
  40   2.0000      -0.769481       -20.9386
  41   2.0000      -0.765504       -20.8304
  42   2.0000      -0.765503       -20.8304
  43   2.0000      -0.747855       -20.3502
  44   2.0000      -0.730927       -19.8895
  45   2.0000      -0.729886       -19.8612
  46   2.0000      -0.729881       -19.8611
  47   2.0000      -0.723311       -19.6823
  48   2.0000      -0.723308       -19.6822
  49   2.0000      -0.660204       -17.9651
  50   2.0000      -0.653796       -17.7907
  51   2.0000      -0.645201       -17.5568
  52   2.0000      -0.645199       -17.5567
  53   2.0000      -0.641037       -17.4435
  54   2.0000      -0.641032       -17.4434
  55   2.0000      -0.633564       -17.2402
  56   2.0000      -0.624201       -16.9854
  57   2.0000      -0.624200       -16.9854
  58   2.0000      -0.530301       -14.4302
  59   2.0000      -0.486315       -13.2333
  60   2.0000      -0.476814       -12.9748
  61   2.0000      -0.476814       -12.9748
  62   2.0000      -0.465290       -12.6612
  63   2.0000      -0.465289       -12.6611
  64   0.0000      -0.144984        -3.9452
  65   0.0000      -0.061469        -1.6727
  66   0.0000      -0.050485        -1.3738
  67   0.0000      -0.050485        -1.3738
  68   0.0000      -0.050098        -1.3632

MULLIKEN ATOMIC CHARGES
-----------------------
   0 C :   -0.365423
   1 C :   -0.491180
   2 C :   -0.543602
   3 C :    0.901408
   4 C :   -0.542732
   5 C :   -0.492072
   6 H :    0.368309
   7 H :    0.248748
   8 H :    0.338850
   9 H :    0.339208
  10 H :    0.248407
  11 C :    0.967539
  12 C :    0.900907
  13 C :   -0.542101
  14 C :   -0.544568
  15 C :   -0.490441
  16 H :    0.338496
  17 C :   -0.491139
  18 H :    0.339592
  19 C :   -0.363996
  20 H :    0.247988
  21 H :    0.247851
  22 H :    0.369202
  23 C :    0.905425
  24 C :   -0.546152
  25 C :   -0.545342
  26 C :   -0.491034
  27 H :    0.337728
  28 C :   -0.489650
  29 H :    0.339075
  30 C :   -0.365657
  31 H :    0.248853
  32 H :    0.248411
  33 H :    0.369091
Sum of atomic charges:    1.0000000

LOEWDIN ATOMIC CHARGES
----------------------
   0 C :    0.392895
   1 C :    0.404192
   2 C :    0.366743
   3 C :   -0.087396
   4 C :    0.366743
   5 C :    0.404194
   6 H :   -0.292374
   7 H :   -0.303119
   8 H :   -0.302903
   9 H :   -0.302915
  10 H :   -0.303119
  11 C :   -0.028741
  12 C :   -0.087433
  13 C :    0.366729
  14 C :    0.366749
  15 C :    0.404183
  16 H :   -0.302895
  17 C :    0.404183
  18 H :   -0.302889
  19 C :    0.392889
  20 H :   -0.303120
  21 H :   -0.303120
  22 H :   -0.292375
  23 C :   -0.087438
  24 C :    0.366727
  25 C :    0.366753
  26 C :    0.404185
  27 H :   -0.302883
  28 C :    0.404185
  29 H :   -0.302897
  30 C :    0.392882
  31 H :   -0.303118
  32 H :   -0.303120
  33 H :   -0.292377

  Mayer bond orders larger than 0.100000
B(  0-C ,  1-C ) :   1.1886 B(  0-C ,  5-C ) :   1.1889 B(  0-C ,  6-H ) :   1.0115
B(  1-C ,  2-C ) :   1.3911 B(  1-C ,  3-C ) :  -0.3900 B(  1-C ,  4-C ) :   0.1007
B(  1-C ,  6-H ) :  -0.1165 B(  1-C ,  7-H ) :   1.1512 B(  2-C ,  3-C ) :   0.9516
B(  2-C ,  4-C ) :   0.1032 B(  2-C ,  5-C ) :   0.1013 B(  2-C ,  7-H ) :  -0.1210
B(  2-C ,  8-H ) :   0.9144 B(  2-C , 11-C ) :  -0.3256 B(  2-C , 12-C ) :  -0.2127
B(  2-C , 13-C ) :   0.1710 B(  3-C ,  4-C ) :   0.9495 B(  3-C ,  5-C ) :  -0.3905
B(  3-C , 11-C ) :   0.6794 B(  3-C , 12-C ) :  -0.5622 B(  3-C , 13-C ) :  -0.2145
B(  3-C , 23-C ) :  -0.5613 B(  3-C , 24-C ) :  -0.2126 B(  4-C ,  5-C ) :   1.3913
B(  4-C ,  9-H ) :   0.9141 B(  4-C , 10-H ) :  -0.1210 B(  4-C , 11-C ) :  -0.3237
B(  4-C , 23-C ) :  -0.2130 B(  4-C , 24-C ) :   0.1704 B(  5-C ,  6-H ) :  -0.1172
B(  5-C , 10-H ) :   1.1515 B( 11-C , 12-C ) :   0.6797 B( 11-C , 13-C ) :  -0.3258
B( 11-C , 14-C ) :  -0.3258 B( 11-C , 23-C ) :   0.6787 B( 11-C , 24-C ) :  -0.3257
B( 11-C , 25-C ) :  -0.3231 B( 12-C , 13-C ) :   0.9489 B( 12-C , 14-C ) :   0.9477
B( 12-C , 15-C ) :  -0.3896 B( 12-C , 17-C ) :  -0.3885 B( 12-C , 23-C ) :  -0.5618
B( 12-C , 25-C ) :  -0.2145 B( 13-C , 14-C ) :   0.1041 B( 13-C , 15-C ) :   1.3888
B( 13-C , 16-H ) :   0.9148 B( 13-C , 17-C ) :   0.1008 B( 13-C , 20-H ) :  -0.1217
B( 14-C , 15-C ) :   0.1011 B( 14-C , 17-C ) :   1.3907 B( 14-C , 18-H ) :   0.9142
B( 14-C , 21-H ) :  -0.1214 B( 14-C , 23-C ) :  -0.2113 B( 14-C , 25-C ) :   0.1709
B( 15-C , 19-C ) :   1.1872 B( 15-C , 20-H ) :   1.1527 B( 15-C , 22-H ) :  -0.1172
B( 17-C , 19-C ) :   1.1873 B( 17-C , 21-H ) :   1.1525 B( 17-C , 22-H ) :  -0.1169
B( 19-C , 22-H ) :   1.0105 B( 23-C , 24-C ) :   0.9505 B( 23-C , 25-C ) :   0.9496
B( 23-C , 26-C ) :  -0.3911 B( 23-C , 28-C ) :  -0.3912 B( 24-C , 25-C ) :   0.1030
B( 24-C , 26-C ) :   1.3944 B( 24-C , 27-H ) :   0.9154 B( 24-C , 28-C ) :   0.1011
B( 24-C , 31-H ) :  -0.1200 B( 25-C , 26-C ) :   0.1014 B( 25-C , 28-C ) :   1.3902
B( 25-C , 29-H ) :   0.9143 B( 25-C , 32-H ) :  -0.1211 B( 26-C , 30-C ) :   1.1888
B( 26-C , 31-H ) :   1.1507 B( 26-C , 33-H ) :  -0.1163 B( 28-C , 30-C ) :   1.1884
B( 28-C , 32-H ) :   1.1517 B( 28-C , 33-H ) :  -0.1169 B( 30-C , 33-H ) :   1.0104

MP2 TOTAL ENERGY:     -731.458520160 Eh
FINAL SINGLE POINT ENERGY      -731.458520159952

DIPOLE MOMENT
-------------
                                X             Y             Z
Electronic contribution:     -0.00003       0.00000       0.00026
Nuclear contribution   :      0.00002       0.00024      -0.00029
                        -----------------------------------------
Total Dipole Moment    :     -0.00000       0.00024      -0.00003
                        -----------------------------------------
Magnitude (a.u.)       :      0.00024
Magnitude (Debye)      :      0.00061

Rotational constants in cm-1:     0.013440     0.013439     0.007214
Rotational constants in MHz :   402.915489   402.888050   216.268905

                             ****ORCA TERMINATED NORMALLY****
TOTAL RUN TIME: 0 days 5 hours 53 minutes 19 seconds 654 msec
