                         Program Version 4.2.1 -  RELEASE  -
|  1> %pal
|  2>  nprocs 320
|  3> end
|  4> !RI-MP2 aug-cc-pVQZ aug-cc-pVQZ/C TightSCF MORead KDIIS NOSOSCF
|  5> %moinp "05_34TS.gbw"
|  6> %scf
|  7> DIISMaxEq 15
|  8> directresetfreq 10
|  9> end
| 10> %maxcore 4500
| 11> *xyzfile 1 1  05_34TS.xyz
| 12>
| 13>
| 14>                          ****END OF INPUT****

CARTESIAN COORDINATES (ANGSTROEM)
---------------------------------
  C      1.959900    0.991755    0.418332
  C      1.812359   -1.658026    0.322677
  C      3.310858   -1.668276    0.643017
  C      4.039718   -0.447601    0.111924
  C      3.440705    0.802876    0.745400
  H      3.438759   -1.718116    1.729702
  H      3.735697   -2.582634    0.223570
  H      3.936612   -0.384123   -0.972451
  H      3.567595    0.741862    1.830695
  H      3.981520    1.682952    0.396607
  N      1.252393   -0.307105    0.622005
  O     -0.012543   -0.243148    0.709680
  C      1.341527    2.013115    1.371693
  H      1.918140    2.937082    1.314872
  H      0.307432    2.236064    1.112296
  H      1.370861    1.651892    2.400392
  C      1.763473    1.457185   -1.033388
  H      2.163487    2.466947   -1.129996
  H      0.704988    1.494850   -1.294550
  H      2.283515    0.829538   -1.753994
  C      1.089948   -2.670097    1.211091
  H      0.035043   -2.751948    0.953812
  H      1.553794   -3.648586    1.079763
  H      1.168506   -2.389469    2.262100
  C      1.553297   -1.993863   -1.154374
  H      0.492771   -1.904212   -1.394212
  H      1.841248   -3.030401   -1.334126
  H      2.121091   -1.364028   -1.836484
  C     -2.850724   -0.529322   -0.603824
  C     -2.668677    0.801478   -0.587624
  C     -1.645923   -0.009655   -1.162026
  H     -0.649265   -0.152494   -0.358866
  H     -1.202934   -0.057439   -2.157153
  C     -3.079488    2.135874   -0.296267
  C     -2.282495    3.206003   -0.720942
  C     -4.260059    2.388584    0.413153
  C     -2.662361    4.505660   -0.442224
  H     -1.371520    3.007675   -1.272282
  C     -4.633754    3.689863    0.688890
  H     -4.875802    1.562954    0.745070
  C     -3.836475    4.747030    0.262139
  H     -2.048479    5.333374   -0.773444
  H     -5.546380    3.886408    1.236645
  H     -4.133343    5.765521    0.479705
  C     -3.608155   -1.710429   -0.346788
  C     -4.824341   -1.651918    0.344547
  C     -3.120672   -2.945611   -0.790468
  C     -5.537960   -2.810709    0.583677
  H     -5.201881   -0.698481    0.690071
  C     -3.839422   -4.101296   -0.547934
  H     -2.180732   -2.986312   -1.327519
  C     -5.046654   -4.033616    0.138418
  H     -6.478802   -2.766659    1.116997
  H     -3.464804   -5.056268   -0.893415
  H     -5.609337   -4.939407    0.327394
  N      5.462322   -0.546010    0.364614
  C      6.341625    0.190068   -0.378196
  C      7.799578    0.040517   -0.033375
  H      7.984020   -0.658757    0.782445
  H      8.333189   -0.296906   -0.922215
  H      8.197670    1.019499    0.234814
  O      5.948918    0.918076   -1.270504
  H      5.798382   -1.095540    1.138843

 Total Charge           Charge          ....    1
 Multiplicity           Mult            ....    1
 Number of Electrons    NEL             ....  218
 Basis Dimension        Dim             .... 3918

ORBITAL ENERGIES
----------------

  NO   OCC          E(Eh)            E(eV)
   0   2.0000     -20.782577      -565.5227
   1   2.0000     -20.590289      -560.2902
   2   2.0000     -15.781613      -429.4395
   3   2.0000     -15.666152      -426.2977
   4   2.0000     -11.425428      -310.9017
   5   2.0000     -11.418895      -310.7239
   6   2.0000     -11.417079      -310.6745
   7   2.0000     -11.415984      -310.6447
   8   2.0000     -11.397959      -310.1542
   9   2.0000     -11.391733      -309.9848
  10   2.0000     -11.369334      -309.3753
  11   2.0000     -11.369149      -309.3703
  12   2.0000     -11.363573      -309.2185
  13   2.0000     -11.358767      -309.0878
  14   2.0000     -11.358453      -309.0792
  15   2.0000     -11.358381      -309.0773
  16   2.0000     -11.358299      -309.0750
  17   2.0000     -11.351163      -308.8809
  18   2.0000     -11.350957      -308.8752
  19   2.0000     -11.342810      -308.6535
  20   2.0000     -11.342341      -308.6408
  21   2.0000     -11.342314      -308.6401
  22   2.0000     -11.342049      -308.6328
  23   2.0000     -11.335990      -308.4680
  24   2.0000     -11.331814      -308.3543
  25   2.0000     -11.325970      -308.1953
  26   2.0000     -11.322343      -308.0966
  27   2.0000     -11.322274      -308.0947
  28   2.0000     -11.317703      -307.9704
  29   2.0000     -11.304983      -307.6242
  30   2.0000      -1.621477       -44.1226
  31   2.0000      -1.461971       -39.7823
  32   2.0000      -1.363483       -37.1023
  33   2.0000      -1.326794       -36.1039
  34   2.0000      -1.286906       -35.0185
  35   2.0000      -1.278530       -34.7906
  36   2.0000      -1.270720       -34.5780
  37   2.0000      -1.219128       -33.1742
  38   2.0000      -1.159217       -31.5439
  39   2.0000      -1.151504       -31.3340
  40   2.0000      -1.145650       -31.1747
  41   2.0000      -1.136326       -30.9210
  42   2.0000      -1.135321       -30.8937
  43   2.0000      -1.104152       -30.0455
  44   2.0000      -1.070197       -29.1216
  45   2.0000      -1.058346       -28.7990
  46   2.0000      -1.047126       -28.4938
  47   2.0000      -1.041708       -28.3463
  48   2.0000      -0.992875       -27.0175
  49   2.0000      -0.992011       -26.9940
  50   2.0000      -0.953829       -25.9550
  51   2.0000      -0.947209       -25.7749
  52   2.0000      -0.944071       -25.6895
  53   2.0000      -0.934649       -25.4331
  54   2.0000      -0.928618       -25.2690
  55   2.0000      -0.882820       -24.0228
  56   2.0000      -0.873777       -23.7767
  57   2.0000      -0.868311       -23.6279
  58   2.0000      -0.847251       -23.0549
  59   2.0000      -0.802900       -21.8480
  60   2.0000      -0.797305       -21.6958
  61   2.0000      -0.791589       -21.5402
  62   2.0000      -0.790748       -21.5173
  63   2.0000      -0.785165       -21.3654
  64   2.0000      -0.768535       -20.9129
  65   2.0000      -0.757830       -20.6216
  66   2.0000      -0.752801       -20.4848
  67   2.0000      -0.749828       -20.4038
  68   2.0000      -0.727666       -19.8008
  69   2.0000      -0.726510       -19.7693
  70   2.0000      -0.723485       -19.6870
  71   2.0000      -0.716326       -19.4922
  72   2.0000      -0.708455       -19.2780
  73   2.0000      -0.708238       -19.2721
  74   2.0000      -0.703834       -19.1523
  75   2.0000      -0.700463       -19.0606
  76   2.0000      -0.691331       -18.8121
  77   2.0000      -0.688958       -18.7475
  78   2.0000      -0.675823       -18.3901
  79   2.0000      -0.673469       -18.3260
  80   2.0000      -0.669512       -18.2184
  81   2.0000      -0.658061       -17.9067
  82   2.0000      -0.648239       -17.6395
  83   2.0000      -0.647247       -17.6125
  84   2.0000      -0.644279       -17.5317
  85   2.0000      -0.640843       -17.4382
  86   2.0000      -0.634331       -17.2610
  87   2.0000      -0.631775       -17.1915
  88   2.0000      -0.627292       -17.0695
  89   2.0000      -0.624387       -16.9904
  90   2.0000      -0.622472       -16.9383
  91   2.0000      -0.616373       -16.7724
  92   2.0000      -0.611747       -16.6465
  93   2.0000      -0.606802       -16.5119
  94   2.0000      -0.604616       -16.4524
  95   2.0000      -0.598161       -16.2768
  96   2.0000      -0.593111       -16.1394
  97   2.0000      -0.587839       -15.9959
  98   2.0000      -0.585913       -15.9435
  99   2.0000      -0.580968       -15.8090
 100   2.0000      -0.563782       -15.3413
 101   2.0000      -0.561230       -15.2718
 102   2.0000      -0.501403       -13.6439
 103   2.0000      -0.481622       -13.1056
 104   2.0000      -0.475825       -12.9479
 105   2.0000      -0.473025       -12.8717
 106   2.0000      -0.454277       -12.3615
 107   2.0000      -0.453244       -12.3334
 108   2.0000      -0.388222       -10.5640
 109   0.0000      -0.127069        -3.4577
 110   0.0000      -0.061823        -1.6823
 111   0.0000      -0.052210        -1.4207
 112   0.0000      -0.045351        -1.2341
 113   0.0000      -0.044930        -1.2226

MULLIKEN ATOMIC CHARGES
-----------------------
   0 C :    1.394583
   1 C :    1.106042
   2 C :   -0.814872
   3 C :    1.799454
   4 C :   -1.098920
   5 H :    0.167931
   6 H :    0.109398
   7 H :    0.148931
   8 H :    0.259005
   9 H :    0.195532
  10 N :    1.655041
  11 O :   -1.526486
  12 C :   -1.433090
  13 H :    0.197542
  14 H :    0.412062
  15 H :    0.216225
  16 C :   -1.486404
  17 H :    0.110646
  18 H :    0.485603
  19 H :    0.279099
  20 C :   -1.359167
  21 H :    0.413473
  22 H :    0.218086
  23 H :    0.212532
  24 C :   -1.368726
  25 H :    0.409955
  26 H :    0.097647
  27 H :    0.297966
  28 C :    0.088148
  29 C :    0.125893
  30 C :    0.176793
  31 H :    0.246508
  32 H :    0.428421
  33 C :    0.880184
  34 C :   -0.615952
  35 C :   -0.741840
  36 C :   -0.399650
  37 H :    0.442901
  38 C :   -0.421458
  39 H :    0.399342
  40 C :   -0.448093
  41 H :    0.257456
  42 H :    0.249360
  43 H :    0.357149
  44 C :    0.845287
  45 C :   -0.721431
  46 C :   -0.589747
  47 C :   -0.413000
  48 H :    0.406718
  49 C :   -0.416823
  50 H :    0.447284
  51 C :   -0.432411
  52 H :    0.257820
  53 H :    0.241985
  54 H :    0.350732
  55 N :   -1.072670
  56 C :    0.998036
  57 C :   -0.910047
  58 H :    0.213130
  59 H :    0.289269
  60 H :    0.289087
  61 O :   -0.935975
  62 H :    0.028505
Sum of atomic charges:    1.0000000

LOEWDIN ATOMIC CHARGES
----------------------
   0 C :   -0.369345
   1 C :   -0.372256
   2 C :    0.534087
   3 C :   -0.020517
   4 C :    0.532645
   5 H :   -0.254756
   6 H :   -0.243411
   7 H :   -0.340602
   8 H :   -0.251343
   9 H :   -0.266556
  10 N :    0.172474
  11 O :    1.049122
  12 C :    0.923811
  13 H :   -0.258160
  14 H :   -0.285638
  15 H :   -0.256003
  16 C :    0.949482
  17 H :   -0.247731
  18 H :   -0.304281
  19 H :   -0.282379
  20 C :    0.922622
  21 H :   -0.282098
  22 H :   -0.259251
  23 H :   -0.256495
  24 C :    0.946926
  25 H :   -0.296095
  26 H :   -0.251351
  27 H :   -0.283485
  28 C :    0.062457
  29 C :    0.061381
  30 C :    0.502939
  31 H :   -0.888879
  32 H :   -0.203291
  33 C :   -0.057430
  34 C :    0.345216
  35 C :    0.360141
  36 C :    0.379626
  37 H :   -0.313031
  38 C :    0.380688
  39 H :   -0.320415
  40 C :    0.373714
  41 H :   -0.308413
  42 H :   -0.308026
  43 H :   -0.302182
  44 C :   -0.058467
  45 C :    0.359618
  46 C :    0.346759
  47 C :    0.380274
  48 H :   -0.320531
  49 C :    0.377399
  50 H :   -0.308110
  51 C :    0.372719
  52 H :   -0.308067
  53 H :   -0.309476
  54 H :   -0.302483
  55 N :    0.877641
  56 C :   -0.808197
  57 C :    0.912570
  58 H :   -0.304874
  59 H :   -0.291065
  60 H :   -0.290270
  61 O :    0.740536
  62 H :   -0.479889

  Mayer bond orders larger than 0.100000
B(  0-C ,  1-C ) :   0.2449 B(  0-C ,  8-H ) :  -0.1172 B(  0-C , 10-N ) :   0.8635
B(  0-C , 11-O ) :   0.1212 B(  0-C , 13-H ) :  -0.2398 B(  0-C , 14-H ) :  -0.2046
B(  0-C , 15-H ) :  -0.2443 B(  0-C , 16-C ) :   0.3890 B(  0-C , 19-H ) :  -0.1355
B(  1-C ,  2-C ) :   0.4491 B(  1-C ,  5-H ) :  -0.1248 B(  1-C ,  6-H ) :  -0.1043
B(  1-C , 10-N ) :   0.8151 B(  1-C , 21-H ) :  -0.1985 B(  1-C , 22-H ) :  -0.2345
B(  1-C , 23-H ) :  -0.2462 B(  1-C , 24-C ) :   0.4786 B(  1-C , 25-H ) :  -0.1410
B(  1-C , 27-H ) :  -0.1253 B(  2-C ,  3-C ) :   0.3412 B(  2-C ,  4-C ) :  -0.1417
B(  2-C ,  5-H ) :   1.2266 B(  2-C ,  6-H ) :   1.1977 B(  3-C ,  4-C ) :   0.8016
B(  3-C ,  5-H ) :  -0.1394 B(  3-C ,  6-H ) :  -0.1283 B(  3-C ,  7-H ) :   1.0553
B(  3-C , 55-N ) :  -1.0741 B(  3-C , 62-H ) :  -0.4051 B(  4-C ,  8-H ) :   1.0838
B(  4-C ,  9-H ) :   1.1546 B(  4-C , 55-N ) :   0.5423 B(  9-H , 61-O ) :  -0.1127
B( 10-N , 11-O ) :  -0.3832 B( 10-N , 24-C ) :  -0.1081 B( 10-N , 30-C ) :   0.2024
B( 11-O , 28-C ) :   0.1187 B( 11-O , 31-H ) :  -0.1778 B( 12-C , 13-H ) :   1.1816
B( 12-C , 14-H ) :   0.9037 B( 12-C , 15-H ) :   1.2432 B( 12-C , 16-C ) :   0.1234
B( 16-C , 17-H ) :   1.1950 B( 16-C , 18-H ) :   0.7183 B( 16-C , 19-H ) :   1.1522
B( 20-C , 21-H ) :   0.8808 B( 20-C , 22-H ) :   1.1596 B( 20-C , 23-H ) :   1.2341
B( 20-C , 24-C ) :   0.1334 B( 24-C , 25-H ) :   0.8249 B( 24-C , 26-H ) :   1.1758
B( 24-C , 27-H ) :   1.1217 B( 28-C , 29-C ) :   1.1800 B( 28-C , 30-C ) :   0.4060
B( 28-C , 31-H ) :   0.1570 B( 28-C , 33-C ) :  -0.4225 B( 28-C , 44-C ) :   0.3123
B( 28-C , 45-C ) :  -0.4630 B( 28-C , 46-C ) :  -0.2892 B( 28-C , 48-H ) :   0.1874
B( 28-C , 50-H ) :   0.1190 B( 28-C , 51-C ) :  -0.1527 B( 29-C , 30-C ) :   0.3669
B( 29-C , 31-H ) :   0.2471 B( 29-C , 33-C ) :   0.3139 B( 29-C , 34-C ) :  -0.3565
B( 29-C , 35-C ) :  -0.5111 B( 29-C , 39-H ) :   0.1958 B( 29-C , 40-C ) :  -0.1556
B( 29-C , 44-C ) :  -0.3405 B( 30-C , 31-H ) :   0.7902 B( 30-C , 32-H ) :   0.8655
B( 30-C , 34-C ) :  -0.1023 B( 30-C , 44-C ) :  -0.1112 B( 30-C , 46-C ) :  -0.1264
B( 33-C , 34-C ) :   0.8739 B( 33-C , 35-C ) :   1.0543 B( 33-C , 36-C ) :  -0.6462
B( 33-C , 38-C ) :  -0.6055 B( 33-C , 39-H ) :  -0.2243 B( 33-C , 44-C ) :   0.1925
B( 34-C , 35-C ) :   0.2604 B( 34-C , 36-C ) :   1.2166 B( 34-C , 37-H ) :   0.7941
B( 34-C , 41-H ) :  -0.1613 B( 35-C , 36-C ) :   0.1277 B( 35-C , 38-C ) :   1.2691
B( 35-C , 39-H ) :   0.8926 B( 35-C , 42-H ) :  -0.1312 B( 35-C , 45-C ) :  -0.1156
B( 36-C , 38-C ) :   0.1071 B( 36-C , 40-C ) :   1.2658 B( 36-C , 41-H ) :   1.1316
B( 36-C , 43-H ) :  -0.1002 B( 38-C , 40-C ) :   1.2791 B( 38-C , 42-H ) :   1.1257
B( 38-C , 43-H ) :  -0.1015 B( 40-C , 43-H ) :   1.0002 B( 44-C , 45-C ) :   1.0582
B( 44-C , 46-C ) :   0.9708 B( 44-C , 47-C ) :  -0.5791 B( 44-C , 48-H ) :  -0.2419
B( 44-C , 49-C ) :  -0.6213 B( 44-C , 50-H ) :  -0.1035 B( 44-C , 51-C ) :   0.1024
B( 45-C , 46-C ) :   0.1931 B( 45-C , 47-C ) :   1.2633 B( 45-C , 48-H ) :   0.8694
B( 45-C , 49-C ) :   0.1245 B( 45-C , 52-H ) :  -0.1383 B( 46-C , 49-C ) :   1.1984
B( 46-C , 50-H ) :   0.7496 B( 46-C , 53-H ) :  -0.1763 B( 47-C , 49-C ) :   0.1092
B( 47-C , 51-C ) :   1.2754 B( 47-C , 52-H ) :   1.1142 B( 47-C , 54-H ) :  -0.1002
B( 49-C , 51-C ) :   1.2502 B( 49-C , 53-H ) :   1.1590 B( 49-C , 54-H ) :  -0.1061
B( 51-C , 54-H ) :   1.0043 B( 55-N , 56-C ) :   1.1087 B( 55-N , 61-O ) :   0.1618
B( 55-N , 62-H ) :   1.4071 B( 56-C , 57-C ) :   0.7340 B( 56-C , 58-H ) :  -0.1613
B( 56-C , 61-O ) :   0.9615 B( 57-C , 58-H ) :   1.0479 B( 57-C , 59-H ) :   0.9773
B( 57-C , 60-H ) :   0.9486

MP2 TOTAL ENERGY:    -1268.060470529 Eh
FINAL SINGLE POINT ENERGY     -1268.060470529318

DIPOLE MOMENT
-------------
                                X             Y             Z
Electronic contribution:    -24.14327       3.03505      -1.92951
Nuclear contribution   :     22.61948      -3.91411       2.66926
                        -----------------------------------------
Total Dipole Moment    :     -1.52379      -0.87907       0.73976
                        -----------------------------------------
Magnitude (a.u.)       :      1.90838
Magnitude (Debye)      :      4.85073

Rotational constants in cm-1:     0.007029     0.002725     0.002081
Rotational constants in MHz :   210.728650    81.708401    62.394348

                             ****ORCA TERMINATED NORMALLY****
TOTAL RUN TIME: 0 days 12 hours 40 minutes 51 seconds 673 msec
