                         Program Version 4.2.1 -  RELEASE  -
|  1> %pal
|  2>  nprocs 32
|  3> end
|  4> !RI-MP2 aug-cc-pVQZ aug-cc-pVQZ/C TightSCF
|  5> %maxcore 4500
|  6> *xyzfile 0 1  02_45P.xyz
|  7>
|  8>
|  9>                          ****END OF INPUT****

CARTESIAN COORDINATES (ANGSTROEM)
---------------------------------
  C      0.440083    0.111272   -1.210761
  C      1.118501    1.328748   -0.667814
  C      0.440075    0.111243    1.210766
  C      1.118496    1.328733    0.667852
  S     -0.968883   -0.011892   -0.000003
  C      1.231892   -1.142445   -0.779397
  C      1.231888   -1.142464    0.779376
  O     -1.849859    1.144357    0.000009
  O     -1.552731   -1.347686   -0.000020
  H      1.511239    2.114284   -1.297720
  H      1.511230    2.114254    1.297780
  H      0.751522   -2.040902   -1.163766
  H      2.241769   -1.087837   -1.183457
  H      0.114104    0.137724   -2.246233
  H      2.241762   -1.087866    1.183444
  H      0.751515   -2.040931    1.163720
  H      0.114091    0.137670    2.246237

 Total Charge           Charge          ....    0
 Multiplicity           Mult            ....    1
 Number of Electrons    NEL             ....   76
 Basis Dimension        Dim             .... 1092

ORBITAL ENERGIES
----------------

  NO   OCC          E(Eh)            E(eV)
   0   2.0000     -92.162106     -2507.8584
   1   2.0000     -20.543441      -559.0154
   2   2.0000     -20.542470      -558.9890
   3   2.0000     -11.287143      -307.1388
   4   2.0000     -11.287116      -307.1380
   5   2.0000     -11.260559      -306.4154
   6   2.0000     -11.258843      -306.3687
   7   2.0000     -11.255060      -306.2658
   8   2.0000     -11.254514      -306.2509
   9   2.0000      -9.133424      -248.5331
  10   2.0000      -6.818258      -185.5342
  11   2.0000      -6.817371      -185.5101
  12   2.0000      -6.817199      -185.5054
  13   2.0000      -1.440038       -39.1854
  14   2.0000      -1.329692       -36.1828
  15   2.0000      -1.203030       -32.7361
  16   2.0000      -1.046549       -28.4780
  17   2.0000      -1.033670       -28.1276
  18   2.0000      -0.943273       -25.6678
  19   2.0000      -0.845124       -22.9970
  20   2.0000      -0.796111       -21.6633
  21   2.0000      -0.753548       -20.5051
  22   2.0000      -0.729754       -19.8576
  23   2.0000      -0.687266       -18.7015
  24   2.0000      -0.651980       -17.7413
  25   2.0000      -0.631029       -17.1712
  26   2.0000      -0.610465       -16.6116
  27   2.0000      -0.599942       -16.3253
  28   2.0000      -0.582957       -15.8631
  29   2.0000      -0.572281       -15.5726
  30   2.0000      -0.538206       -14.6453
  31   2.0000      -0.516696       -14.0600
  32   2.0000      -0.500224       -13.6118
  33   2.0000      -0.491001       -13.3608
  34   2.0000      -0.481484       -13.1018
  35   2.0000      -0.470265       -12.7966
  36   2.0000      -0.405123       -11.0239
  37   2.0000      -0.382066       -10.3965
  38   0.0000       0.018520         0.5040
  39   0.0000       0.024161         0.6575
  40   0.0000       0.029028         0.7899
  41   0.0000       0.033547         0.9129
  42   0.0000       0.040644         1.1060

MULLIKEN ATOMIC CHARGES
-----------------------
   0 C :   -0.214591
   1 C :   -0.518748
   2 C :   -0.214642
   3 C :   -0.518674
   4 S :    2.537464
   5 C :   -0.595362
   6 C :   -0.595283
   7 O :   -1.420462
   8 O :   -1.356662
   9 H :    0.400772
  10 H :    0.400788
  11 H :    0.266928
  12 H :    0.348828
  13 H :    0.431971
  14 H :    0.348826
  15 H :    0.266944
  16 H :    0.431903
Sum of atomic charges:   -0.0000000

LOEWDIN ATOMIC CHARGES
----------------------
   0 C :    0.046421
   1 C :    0.329642
   2 C :    0.046421
   3 C :    0.329642
   4 S :   -0.126885
   5 C :    0.487043
   6 C :    0.487044
   7 O :    0.284990
   8 O :    0.315002
   9 H :   -0.281612
  10 H :   -0.281611
  11 H :   -0.280615
  12 H :   -0.258119
  13 H :   -0.279314
  14 H :   -0.258119
  15 H :   -0.280615
  16 H :   -0.279315

  Mayer bond orders larger than 0.100000
B(  0-C ,  1-C ) :   0.9410 B(  0-C ,  2-C ) :  -0.1143 B(  0-C ,  3-C ) :  -0.1245
B(  0-C ,  4-S ) :   0.9144 B(  0-C ,  5-C ) :   0.8793 B(  0-C , 13-H ) :   0.8364
B(  1-C ,  2-C ) :  -0.1244 B(  1-C ,  3-C ) :   1.5040 B(  1-C ,  9-H ) :   0.9744
B(  2-C ,  3-C ) :   0.9410 B(  2-C ,  4-S ) :   0.9145 B(  2-C ,  6-C ) :   0.8793
B(  2-C , 16-H ) :   0.8365 B(  3-C , 10-H ) :   0.9744 B(  4-S ,  7-O ) :   0.7803
B(  4-S ,  8-O ) :   0.9939 B(  5-C ,  6-C ) :   1.0678 B(  5-C , 11-H ) :   0.9279
B(  5-C , 12-H ) :   0.8177 B(  6-C , 14-H ) :   0.8177 B(  6-C , 15-H ) :   0.9279

MP2 TOTAL ENERGY:     -781.010997196 Eh
FINAL SINGLE POINT ENERGY      -781.010997196302

DIPOLE MOMENT
-------------
                                X             Y             Z
Electronic contribution:     -6.89560       1.85995       0.00000
Nuclear contribution   :      9.12055      -1.73873       0.00000
                        -----------------------------------------
Total Dipole Moment    :      2.22495       0.12122       0.00001
                        -----------------------------------------
Magnitude (a.u.)       :      2.22825
Magnitude (Debye)      :      5.66377

Rotational constants in cm-1:     0.075429     0.058215     0.047649
Rotational constants in MHz :  2261.295707  1745.231079  1428.493278

                             ****ORCA TERMINATED NORMALLY****
TOTAL RUN TIME: 0 days 0 hours 39 minutes 54 seconds 480 msec
