                         Program Version 4.2.1 -  RELEASE  -
|  1> %pal
|  2>  nprocs 32
|  3> end
|  4> !RI-MP2 aug-cc-pVQZ aug-cc-pVQZ/C TightSCF
|  5> %maxcore 4500
|  6> *xyzfile 1 1  10_24P.xyz
|  7>
|  8>
|  9>                          ****END OF INPUT****

CARTESIAN COORDINATES (ANGSTROEM)
---------------------------------
  C     -1.398605   -2.646126   -0.680404
  C     -0.564060   -1.610879    0.081168
  C     -2.634455   -0.963222    0.524561
  C     -2.848852   -2.149074   -0.420125
  H     -1.137349   -2.663288   -1.736143
  H     -1.239665   -3.643619   -0.270716
  H     -3.377831   -1.859339   -1.330536
  H     -3.462883   -2.898984    0.077517
  C     -1.409658   -1.369225    1.336267
  H     -1.030539   -0.594276    2.000894
  H     -1.593279   -2.276292    1.909786
  H      0.482472   -1.858034    0.214953
  H     -3.512765   -0.579632    1.037058
  N     -2.027322    0.152417   -0.316117
  N     -0.686565   -0.342330   -0.683134
  C      0.264183    0.790442   -0.455688
  C      1.669038    0.313755   -0.186384
  C      2.515435    0.106787   -1.272066
  C      2.140639    0.045512    1.096564
  C      3.806299   -0.364785   -1.083915
  H      2.161016    0.318202   -2.274715
  C      3.431572   -0.424760    1.287069
  H      1.510725    0.200184    1.963878
  C      4.266262   -0.632015    0.197332
  H      4.454369   -0.516870   -1.937787
  H      3.788617   -0.623718    2.289760
  H      5.275388   -0.994249    0.348200
  C     -1.875065    1.479792    0.383542
  C     -0.378032    1.719549    0.585656
  C     -0.578584    3.170045    0.087475
  H     -0.673298    3.878032    0.908797
  H      0.160032    3.546419   -0.618147
  C     -1.958991    2.750772   -0.483579
  H     -2.804753    3.407099   -0.291621
  H     -1.921977    2.532454   -1.552879
  H      0.287153    1.324552   -1.408681
  H      0.018999    1.582244    1.587412
  H     -2.505366    1.477972    1.269233
  H     -2.564602    0.271121   -1.176336

 Total Charge           Charge          ....    1
 Multiplicity           Mult            ....    1
 Number of Electrons    NEL             ....  130
 Basis Dimension        Dim             .... 2406

ORBITAL ENERGIES
----------------

  NO   OCC          E(Eh)            E(eV)
   0   2.0000     -15.847088      -431.2212
   1   2.0000     -15.747728      -428.5175
   2   2.0000     -11.437458      -311.2290
   3   2.0000     -11.429337      -311.0081
   4   2.0000     -11.409913      -310.4795
   5   2.0000     -11.402842      -310.2871
   6   2.0000     -11.375811      -309.5516
   7   2.0000     -11.374522      -309.5165
   8   2.0000     -11.372861      -309.4713
   9   2.0000     -11.370556      -309.4086
  10   2.0000     -11.359134      -309.0978
  11   2.0000     -11.355926      -309.0105
  12   2.0000     -11.353682      -308.9494
  13   2.0000     -11.345064      -308.7149
  14   2.0000     -11.342015      -308.6319
  15   2.0000     -11.338043      -308.5238
  16   2.0000     -11.336391      -308.4789
  17   2.0000     -11.335151      -308.4451
  18   2.0000      -1.530829       -41.6560
  19   2.0000      -1.317734       -35.8574
  20   2.0000      -1.308719       -35.6121
  21   2.0000      -1.260245       -34.2930
  22   2.0000      -1.257660       -34.2227
  23   2.0000      -1.159063       -31.5397
  24   2.0000      -1.127119       -30.6705
  25   2.0000      -1.124082       -30.5878
  26   2.0000      -1.101391       -29.9704
  27   2.0000      -1.076790       -29.3009
  28   2.0000      -1.035413       -28.1750
  29   2.0000      -1.003509       -27.3069
  30   2.0000      -0.970361       -26.4049
  31   2.0000      -0.943234       -25.6667
  32   2.0000      -0.926247       -25.2045
  33   2.0000      -0.914534       -24.8857
  34   2.0000      -0.905722       -24.6459
  35   2.0000      -0.865818       -23.5601
  36   2.0000      -0.845684       -23.0122
  37   2.0000      -0.838207       -22.8088
  38   2.0000      -0.803652       -21.8685
  39   2.0000      -0.796366       -21.6702
  40   2.0000      -0.769238       -20.9320
  41   2.0000      -0.758623       -20.6432
  42   2.0000      -0.741496       -20.1771
  43   2.0000      -0.736356       -20.0373
  44   2.0000      -0.728468       -19.8226
  45   2.0000      -0.713652       -19.4195
  46   2.0000      -0.699116       -19.0239
  47   2.0000      -0.695411       -18.9231
  48   2.0000      -0.688387       -18.7320
  49   2.0000      -0.682780       -18.5794
  50   2.0000      -0.667102       -18.1528
  51   2.0000      -0.658291       -17.9130
  52   2.0000      -0.644652       -17.5419
  53   2.0000      -0.634178       -17.2569
  54   2.0000      -0.622624       -16.9425
  55   2.0000      -0.618402       -16.8276
  56   2.0000      -0.609652       -16.5895
  57   2.0000      -0.609608       -16.5883
  58   2.0000      -0.606076       -16.4922
  59   2.0000      -0.597973       -16.2717
  60   2.0000      -0.587785       -15.9944
  61   2.0000      -0.581842       -15.8327
  62   2.0000      -0.532663       -14.4945
  63   2.0000      -0.445989       -12.1360
  64   2.0000      -0.445283       -12.1168
  65   0.0000      -0.071297        -1.9401
  66   0.0000      -0.062827        -1.7096
  67   0.0000      -0.053872        -1.4659
  68   0.0000      -0.053129        -1.4457
  69   0.0000      -0.041710        -1.1350

MULLIKEN ATOMIC CHARGES
-----------------------
   0 C :   -0.868066
   1 C :    0.363540
   2 C :   -0.137205
   3 C :   -0.723495
   4 H :    0.278195
   5 H :    0.200883
   6 H :    0.248024
   7 H :    0.191070
   8 C :   -0.760723
   9 H :    0.244828
  10 H :    0.128348
  11 H :    0.545677
  12 H :    0.409672
  13 N :    0.933579
  14 N :   -0.350584
  15 C :    0.615506
  16 C :    0.838480
  17 C :   -0.861256
  18 C :   -0.187621
  19 C :   -0.475906
  20 H :    0.186383
  21 C :   -0.549800
  22 H :    0.225019
  23 C :   -0.452794
  24 H :    0.239198
  25 H :    0.239880
  26 H :    0.354815
  27 C :   -0.099031
  28 C :    0.031896
  29 C :   -0.823800
  30 H :    0.218947
  31 H :    0.265550
  32 C :   -0.724599
  33 H :    0.307406
  34 H :    0.233387
  35 H :    0.385365
  36 H :    0.243649
  37 H :    0.258093
  38 H :   -0.172508
Sum of atomic charges:    1.0000000

LOEWDIN ATOMIC CHARGES
----------------------
   0 C :    0.596854
   1 C :    0.022858
   2 C :    0.128639
   3 C :    0.607136
   4 H :   -0.245097
   5 H :   -0.239407
   6 H :   -0.238861
   7 H :   -0.236477
   8 C :    0.591456
   9 H :   -0.250016
  10 H :   -0.220554
  11 H :   -0.270245
  12 H :   -0.208969
  13 N :    0.700399
  14 N :    0.583239
  15 C :    0.013230
  16 C :   -0.063551
  17 C :    0.374627
  18 C :    0.352419
  19 C :    0.376467
  20 H :   -0.299460
  21 C :    0.379667
  22 H :   -0.324611
  23 C :    0.366875
  24 H :   -0.307599
  25 H :   -0.306704
  26 H :   -0.307906
  27 C :    0.130716
  28 C :    0.192935
  29 C :    0.631230
  30 H :   -0.239622
  31 H :   -0.233669
  32 C :    0.638598
  33 H :   -0.229579
  34 H :   -0.246469
  35 H :   -0.331986
  36 H :   -0.265693
  37 H :   -0.225310
  38 H :   -0.395561

  Mayer bond orders larger than 0.100000
B(  0-C ,  1-C ) :   0.1536 B(  0-C ,  2-C ) :  -0.2110 B(  0-C ,  3-C ) :   1.2020
B(  0-C ,  4-H ) :   1.0444 B(  0-C ,  5-H ) :   1.1047 B(  0-C , 14-N ) :   0.1012
B(  1-C ,  3-C ) :  -0.3163 B(  1-C ,  5-H ) :  -0.1019 B(  1-C ,  8-C ) :   0.7847
B(  1-C , 11-H ) :   0.7151 B(  1-C , 14-N ) :   0.6164 B(  1-C , 17-C ) :  -0.1713
B(  2-C ,  3-C ) :   0.5973 B(  2-C ,  8-C ) :   0.8980 B(  2-C , 12-H ) :   0.9270
B(  2-C , 13-N ) :   0.9410 B(  3-C ,  6-H ) :   1.0165 B(  3-C ,  7-H ) :   1.0921
B(  8-C ,  9-H ) :   1.0115 B(  8-C , 10-H ) :   1.1107 B(  8-C , 13-N ) :  -0.1274
B( 11-H , 16-C ) :   0.1017 B( 13-N , 14-N ) :   0.5493 B( 13-N , 15-C ) :   0.2488
B( 13-N , 27-C ) :   0.7704 B( 13-N , 38-H ) :   1.1618 B( 14-N , 15-C ) :   0.8809
B( 14-N , 35-H ) :  -0.1104 B( 15-C , 16-C ) :  -0.1187 B( 15-C , 17-C ) :  -0.3962
B( 15-C , 27-C ) :   0.1344 B( 15-C , 28-C ) :   0.8537 B( 15-C , 32-C ) :  -0.2024
B( 15-C , 35-H ) :   0.9370 B( 16-C , 17-C ) :   0.7721 B( 16-C , 18-C ) :   0.8200
B( 16-C , 19-C ) :  -0.4585 B( 16-C , 21-C ) :  -0.3145 B( 16-C , 28-C ) :   0.1133
B( 16-C , 35-H ) :  -0.1651 B( 17-C , 19-C ) :   1.4947 B( 17-C , 20-H ) :   1.1520
B( 17-C , 21-C ) :   0.1764 B( 17-C , 23-C ) :   0.1186 B( 17-C , 24-H ) :  -0.1245
B( 18-C , 19-C ) :   0.1360 B( 18-C , 21-C ) :   1.2543 B( 18-C , 22-H ) :   1.0866
B( 18-C , 25-H ) :  -0.1157 B( 18-C , 28-C ) :  -0.1180 B( 19-C , 23-C ) :   1.1969
B( 19-C , 24-H ) :   1.1517 B( 21-C , 23-C ) :   1.1984 B( 21-C , 25-H ) :   1.1394
B( 21-C , 26-H ) :  -0.1113 B( 23-C , 25-H ) :  -0.1070 B( 23-C , 26-H ) :   1.0157
B( 27-C , 28-C ) :   0.6802 B( 27-C , 29-C ) :  -0.1464 B( 27-C , 32-C ) :   0.6838
B( 27-C , 34-H ) :  -0.1322 B( 27-C , 37-H ) :   1.0587 B( 28-C , 29-C ) :   0.5541
B( 28-C , 30-H ) :  -0.1249 B( 28-C , 32-C ) :  -0.2551 B( 28-C , 36-H ) :   1.0649
B( 29-C , 30-H ) :   1.0665 B( 29-C , 31-H ) :   1.0145 B( 29-C , 32-C ) :   1.2857
B( 32-C , 33-H ) :   0.9855 B( 32-C , 34-H ) :   1.0326

MP2 TOTAL ENERGY:     -730.259046778 Eh
FINAL SINGLE POINT ENERGY      -730.259046777985

DIPOLE MOMENT
-------------
                                X             Y             Z
Electronic contribution:      5.51379       0.06497      -0.78880
Nuclear contribution   :     -7.85047       0.02942       1.02349
                        -----------------------------------------
Total Dipole Moment    :     -2.33668       0.09439       0.23468
                        -----------------------------------------
Magnitude (a.u.)       :      2.35033
Magnitude (Debye)      :      5.97407

Rotational constants in cm-1:     0.022261     0.012122     0.009261
Rotational constants in MHz :   667.369762   363.402202   277.634549

                             ****ORCA TERMINATED NORMALLY****
TOTAL RUN TIME: 0 days 7 hours 24 minutes 57 seconds 141 msec
