                         Program Version 4.2.1 -  RELEASE  -
|  1> %pal
|  2>  nprocs 32
|  3> end
|  4> !RI-MP2 aug-cc-pVQZ aug-cc-pVQZ/C TightSCF
|  5> %maxcore 4500
|  6> *xyzfile 1 1  10_16P.xyz
|  7>
|  8>
|  9>                          ****END OF INPUT****

CARTESIAN COORDINATES (ANGSTROEM)
---------------------------------
  C     -1.718942    1.092835    0.442875
  C     -2.117193    1.399195   -1.009770
  C     -3.310562    0.587608   -1.495575
  C     -3.004781   -0.900337   -1.372920
  C     -2.765537   -1.272824    0.084495
  C     -1.712497   -0.416298    0.787612
  H     -3.532472    0.852468   -2.530402
  H     -1.269089    1.179871   -1.670339
  H     -2.303841    2.471716   -1.097927
  H     -2.125504   -1.146529   -1.979381
  H     -3.827152   -1.500696   -1.764582
  H     -2.479611   -2.321565    0.190085
  H     -3.698419   -1.146260    0.640975
  H     -4.202919    0.834373   -0.910226
  C     -1.761411   -0.675342    2.303776
  H     -0.996145   -0.121162    2.849831
  H     -1.631994   -1.737067    2.513633
  H     -2.738882   -0.367756    2.675283
  C     -0.257463    1.450092    0.666614
  N     -0.356252   -0.840081    0.384347
  N      0.397642    0.135792    0.350824
  C      1.791194    0.005851    0.056827
  C      2.271832   -1.211744   -0.418059
  C      2.629698    1.096098    0.261376
  C      3.620329   -1.328609   -0.692533
  H      1.595344   -2.040732   -0.570881
  C      3.980469    0.957647   -0.012788
  H      2.255004    2.036347    0.640961
  C      4.474060   -0.248258   -0.490000
  H      4.009466   -2.265636   -1.068670
  H      4.646564    1.795023    0.147535
  H      5.529859   -0.348918   -0.707367
  H      0.005574    1.703875    1.694410
  H      0.125249    2.210491   -0.009522
  H     -2.365943    1.626696    1.138807

 Total Charge           Charge          ....    1
 Multiplicity           Mult            ....    1
 Number of Electrons    NEL             ....  116
 Basis Dimension        Dim             .... 2154

ORBITAL ENERGIES
----------------

  NO   OCC          E(Eh)            E(eV)
   0   2.0000     -15.887083      -432.3095
   1   2.0000     -15.831641      -430.8008
   2   2.0000     -11.444630      -311.4242
   3   2.0000     -11.433557      -311.1229
   4   2.0000     -11.431897      -311.0777
   5   2.0000     -11.390803      -309.9595
   6   2.0000     -11.390576      -309.9533
   7   2.0000     -11.383412      -309.7584
   8   2.0000     -11.373351      -309.4846
   9   2.0000     -11.370496      -309.4069
  10   2.0000     -11.369675      -309.3846
  11   2.0000     -11.365006      -309.2575
  12   2.0000     -11.356108      -309.0154
  13   2.0000     -11.355588      -309.0012
  14   2.0000     -11.338858      -308.5460
  15   2.0000     -11.337313      -308.5040
  16   2.0000      -1.621174       -44.1144
  17   2.0000      -1.336183       -36.3594
  18   2.0000      -1.285512       -34.9806
  19   2.0000      -1.261288       -34.3214
  20   2.0000      -1.201413       -32.6921
  21   2.0000      -1.177959       -32.0539
  22   2.0000      -1.165216       -31.7071
  23   2.0000      -1.128116       -30.6976
  24   2.0000      -1.081930       -29.4408
  25   2.0000      -1.041818       -28.3493
  26   2.0000      -0.996418       -27.1139
  27   2.0000      -0.972699       -26.4685
  28   2.0000      -0.963407       -26.2156
  29   2.0000      -0.937019       -25.4976
  30   2.0000      -0.907819       -24.7030
  31   2.0000      -0.892210       -24.2783
  32   2.0000      -0.845489       -23.0069
  33   2.0000      -0.820575       -22.3290
  34   2.0000      -0.801765       -21.8171
  35   2.0000      -0.777782       -21.1645
  36   2.0000      -0.763960       -20.7884
  37   2.0000      -0.759336       -20.6626
  38   2.0000      -0.752101       -20.4657
  39   2.0000      -0.740920       -20.1614
  40   2.0000      -0.734633       -19.9904
  41   2.0000      -0.732309       -19.9271
  42   2.0000      -0.706556       -19.2264
  43   2.0000      -0.693280       -18.8651
  44   2.0000      -0.685546       -18.6546
  45   2.0000      -0.663888       -18.0653
  46   2.0000      -0.659139       -17.9361
  47   2.0000      -0.657173       -17.8826
  48   2.0000      -0.644847       -17.5472
  49   2.0000      -0.640128       -17.4188
  50   2.0000      -0.634499       -17.2656
  51   2.0000      -0.630183       -17.1481
  52   2.0000      -0.623617       -16.9695
  53   2.0000      -0.591764       -16.1027
  54   2.0000      -0.569878       -15.5072
  55   2.0000      -0.568827       -15.4786
  56   2.0000      -0.482937       -13.1414
  57   2.0000      -0.478893       -13.0313
  58   0.0000      -0.108287        -2.9466
  59   0.0000      -0.067754        -1.8437
  60   0.0000      -0.055469        -1.5094
  61   0.0000      -0.054384        -1.4799
  62   0.0000      -0.051877        -1.4116

MULLIKEN ATOMIC CHARGES
-----------------------
   0 C :    0.155896
   1 C :   -0.492442
   2 C :   -0.585346
   3 C :   -0.617475
   4 C :   -0.661595
   5 C :    1.445473
   6 H :    0.219344
   7 H :    0.187483
   8 H :    0.213804
   9 H :    0.179294
  10 H :    0.251643
  11 H :    0.273855
  12 H :    0.132163
  13 H :    0.193311
  14 C :   -1.221158
  15 H :    0.219003
  16 H :    0.248818
  17 H :    0.312769
  18 C :   -0.527789
  19 N :   -0.608028
  20 N :    0.390924
  21 C :    1.114033
  22 C :   -0.495774
  23 C :   -0.247428
  24 C :   -0.358396
  25 H :    0.289804
  26 C :   -0.487724
  27 H :    0.195747
  28 C :   -0.459127
  29 H :    0.238378
  30 H :    0.244115
  31 H :    0.356897
  32 H :    0.304088
  33 H :    0.306944
  34 H :    0.288496
Sum of atomic charges:    1.0000000

LOEWDIN ATOMIC CHARGES
----------------------
   0 C :    0.167166
   1 C :    0.564466
   2 C :    0.568833
   3 C :    0.564601
   4 C :    0.540969
   5 C :   -0.419642
   6 H :   -0.245168
   7 H :   -0.266355
   8 H :   -0.236014
   9 H :   -0.252643
  10 H :   -0.243978
  11 H :   -0.249673
  12 H :   -0.260314
  13 H :   -0.246262
  14 C :    0.955056
  15 H :   -0.264421
  16 H :   -0.248681
  17 H :   -0.251312
  18 C :    0.463684
  19 N :    0.641216
  20 N :    0.294422
  21 C :   -0.190330
  22 C :    0.360836
  23 C :    0.365400
  24 C :    0.386982
  25 H :   -0.321636
  26 C :    0.388176
  27 H :   -0.326973
  28 C :    0.384003
  29 H :   -0.302491
  30 H :   -0.302330
  31 H :   -0.298688
  32 H :   -0.224826
  33 H :   -0.260044
  34 H :   -0.234032

  Mayer bond orders larger than 0.100000
B(  0-C ,  1-C ) :   0.4916 B(  0-C ,  2-C ) :  -0.1256 B(  0-C ,  5-C ) :   0.8146
B(  0-C ,  7-H ) :  -0.1186 B(  0-C , 18-C ) :   1.1104 B(  0-C , 34-H ) :   0.8772
B(  1-C ,  2-C ) :   0.7975 B(  1-C ,  7-H ) :   1.0775 B(  1-C ,  8-H ) :   1.0401
B(  2-C ,  3-C ) :   0.9219 B(  2-C ,  6-H ) :   1.0167 B(  2-C , 13-H ) :   1.0219
B(  3-C ,  4-C ) :   0.8726 B(  3-C ,  9-H ) :   1.0062 B(  3-C , 10-H ) :   0.9985
B(  4-C ,  5-C ) :   0.1386 B(  4-C , 10-H ) :  -0.1007 B(  4-C , 11-H ) :   1.0426
B(  4-C , 12-H ) :   1.2124 B(  4-C , 14-C ) :   0.1069 B(  4-C , 19-N ) :   0.1251
B(  5-C , 11-H ) :  -0.1361 B(  5-C , 12-H ) :  -0.1755 B(  5-C , 15-H ) :  -0.1994
B(  5-C , 16-H ) :  -0.2480 B(  5-C , 18-C ) :  -0.1202 B(  5-C , 19-N ) :   0.8136
B(  5-C , 20-N ) :  -0.1720 B( 14-C , 15-H ) :   1.1261 B( 14-C , 16-H ) :   1.1550
B( 14-C , 17-H ) :   0.9928 B( 18-C , 20-N ) :   0.6740 B( 18-C , 21-C ) :  -0.2260
B( 18-C , 23-C ) :  -0.1043 B( 18-C , 32-H ) :   0.9904 B( 18-C , 33-H ) :   0.9307
B( 19-N , 20-N ) :   0.1645 B( 20-N , 21-C ) :   1.0835 B( 20-N , 22-C ) :   0.1909
B( 20-N , 23-C ) :   0.1654 B( 20-N , 28-C ) :   0.1281 B( 20-N , 33-H ) :  -0.1346
B( 21-C , 22-C ) :   0.5769 B( 21-C , 23-C ) :   0.7359 B( 21-C , 24-C ) :  -0.4436
B( 21-C , 26-C ) :  -0.4295 B( 21-C , 28-C ) :  -0.2356 B( 22-C , 24-C ) :   1.2759
B( 22-C , 25-H ) :   0.9171 B( 22-C , 26-C ) :   0.1395 B( 22-C , 28-C ) :   0.1192
B( 22-C , 29-H ) :  -0.1547 B( 23-C , 26-C ) :   1.2734 B( 23-C , 27-H ) :   1.0426
B( 23-C , 30-H ) :  -0.1384 B( 24-C , 28-C ) :   1.1605 B( 24-C , 29-H ) :   1.1702
B( 26-C , 28-C ) :   1.2067 B( 26-C , 30-H ) :   1.1554 B( 28-C , 30-H ) :  -0.1224
B( 28-C , 31-H ) :   0.9895

MP2 TOTAL ENERGY:     -653.009589044 Eh
FINAL SINGLE POINT ENERGY      -653.009589043505

DIPOLE MOMENT
-------------
                                X             Y             Z
Electronic contribution:     13.34729      -1.11939       0.35392
Nuclear contribution   :    -13.27129       1.74547       0.19036
                        -----------------------------------------
Total Dipole Moment    :      0.07600       0.62608       0.54429
                        -----------------------------------------
Magnitude (a.u.)       :      0.83307
Magnitude (Debye)      :      2.11749

Rotational constants in cm-1:     0.038976     0.010261     0.010102
Rotational constants in MHz :  1168.466137   307.607182   302.851676

                             ****ORCA TERMINATED NORMALLY****
TOTAL RUN TIME: 0 days 6 hours 25 minutes 57 seconds 648 msec
