                         Program Version 4.2.1 -  RELEASE  -
|  1> %pal
|  2>  nprocs 32
|  3> end
|  4> !RI-MP2 aug-cc-pVQZ aug-cc-pVQZ/C TightSCF
|  5> %maxcore 4500
|  6> *xyzfile 0 1  02_31TS.xyz
|  7>
|  8>
|  9>                          ****END OF INPUT****

CARTESIAN COORDINATES (ANGSTROEM)
---------------------------------
  C      1.779759   -0.554911   -0.441837
  C      1.737467   -1.494515    0.604750
  C      2.769641   -2.422134    0.688756
  C      3.805542   -2.435789   -0.235502
  C      3.826483   -1.512204   -1.271318
  C      2.816241   -0.570269   -1.371238
  H      2.760437   -3.149753    1.492871
  H      4.596332   -3.170856   -0.147277
  H      4.627365   -1.526001   -2.000072
  H      2.814720    0.148379   -2.180247
  C      0.645228    0.327167   -0.504595
  C     -0.581779    0.298933   -0.396980
  C     -1.755076   -0.532910   -0.427685
  C     -2.833031   -0.198029   -1.254191
  C     -1.775657   -1.720244    0.322372
  C     -3.950228   -1.003441   -1.328933
  H     -2.768589    0.706505   -1.845611
  C     -2.932018   -2.500911    0.243811
  C     -4.004343   -2.159614   -0.559737
  H     -4.773785   -0.733423   -1.977983
  H     -2.976595   -3.416438    0.824220
  H     -4.877513   -2.799690   -0.594381
  C     -0.658252   -2.303816    1.183048
  H     -1.141871   -2.636343    2.105644
  H     -0.326737   -3.221692    0.686766
  C     -1.175764    2.288194    0.461055
  C      1.296064    2.378195    0.038177
  N      0.896390    2.268829    1.346218
  N     -0.358590    2.226186    1.560174
  N      0.497967    3.066274   -0.831339
  N     -0.761460    3.014672   -0.620533
  C      2.767762    2.434768   -0.204020
  H      3.281006    1.639844    0.332290
  H      3.143683    3.393632    0.159110
  H      2.982412    2.365459   -1.268184
  C     -2.641736    2.233823    0.740631
  H     -2.907369    1.316043    1.262139
  H     -3.213549    2.310238   -0.180043
  H     -2.900508    3.077610    1.383485
  C      0.603553   -1.519781    1.605283
  H      0.979638   -2.021970    2.499238
  H      0.341635   -0.508343    1.915316

 Total Charge           Charge          ....    0
 Multiplicity           Mult            ....    1
 Number of Electrons    NEL             ....  166
 Basis Dimension        Dim             .... 2748

ORBITAL ENERGIES
----------------

  NO   OCC          E(Eh)            E(eV)
   0   2.0000     -15.625200      -425.1833
   1   2.0000     -15.622665      -425.1143
   2   2.0000     -15.621968      -425.0954
   3   2.0000     -15.618584      -425.0033
   4   2.0000     -11.323792      -308.1361
   5   2.0000     -11.323565      -308.1299
   6   2.0000     -11.266051      -306.5648
   7   2.0000     -11.263565      -306.4972
   8   2.0000     -11.259133      -306.3766
   9   2.0000     -11.254291      -306.2448
  10   2.0000     -11.252188      -306.1876
  11   2.0000     -11.249058      -306.1024
  12   2.0000     -11.245506      -306.0058
  13   2.0000     -11.243711      -305.9569
  14   2.0000     -11.243652      -305.9553
  15   2.0000     -11.243641      -305.9550
  16   2.0000     -11.242886      -305.9345
  17   2.0000     -11.240085      -305.8582
  18   2.0000     -11.238946      -305.8273
  19   2.0000     -11.238673      -305.8198
  20   2.0000     -11.238017      -305.8020
  21   2.0000     -11.236134      -305.7508
  22   2.0000     -11.229095      -305.5592
  23   2.0000     -11.228699      -305.5484
  24   2.0000      -1.424583       -38.7649
  25   2.0000      -1.321826       -35.9687
  26   2.0000      -1.186917       -32.2976
  27   2.0000      -1.174817       -31.9684
  28   2.0000      -1.166973       -31.7549
  29   2.0000      -1.100215       -29.9384
  30   2.0000      -1.081376       -29.4257
  31   2.0000      -1.048598       -28.5338
  32   2.0000      -1.039788       -28.2941
  33   2.0000      -1.034500       -28.1502
  34   2.0000      -1.003671       -27.3113
  35   2.0000      -0.973401       -26.4876
  36   2.0000      -0.970605       -26.4115
  37   2.0000      -0.948733       -25.8163
  38   2.0000      -0.902064       -24.5464
  39   2.0000      -0.873093       -23.7581
  40   2.0000      -0.855178       -23.2706
  41   2.0000      -0.836975       -22.7753
  42   2.0000      -0.822297       -22.3758
  43   2.0000      -0.802775       -21.8446
  44   2.0000      -0.766649       -20.8616
  45   2.0000      -0.733887       -19.9701
  46   2.0000      -0.714137       -19.4327
  47   2.0000      -0.674740       -18.3606
  48   2.0000      -0.673082       -18.3155
  49   2.0000      -0.670202       -18.2371
  50   2.0000      -0.661781       -18.0080
  51   2.0000      -0.651844       -17.7376
  52   2.0000      -0.644445       -17.5362
  53   2.0000      -0.622251       -16.9323
  54   2.0000      -0.612916       -16.6783
  55   2.0000      -0.607266       -16.5245
  56   2.0000      -0.605553       -16.4779
  57   2.0000      -0.592981       -16.1358
  58   2.0000      -0.585828       -15.9412
  59   2.0000      -0.571849       -15.5608
  60   2.0000      -0.566801       -15.4234
  61   2.0000      -0.565310       -15.3829
  62   2.0000      -0.554445       -15.0872
  63   2.0000      -0.551435       -15.0053
  64   2.0000      -0.538596       -14.6559
  65   2.0000      -0.531326       -14.4581
  66   2.0000      -0.522763       -14.2251
  67   2.0000      -0.517065       -14.0701
  68   2.0000      -0.511295       -13.9131
  69   2.0000      -0.501706       -13.6521
  70   2.0000      -0.499626       -13.5955
  71   2.0000      -0.492819       -13.4103
  72   2.0000      -0.489979       -13.3330
  73   2.0000      -0.483888       -13.1673
  74   2.0000      -0.479553       -13.0493
  75   2.0000      -0.434565       -11.8251
  76   2.0000      -0.396137       -10.7794
  77   2.0000      -0.374750       -10.1975
  78   2.0000      -0.372193       -10.1279
  79   2.0000      -0.350571        -9.5395
  80   2.0000      -0.341717        -9.2986
  81   2.0000      -0.338628        -9.2145
  82   2.0000      -0.297238        -8.0883
  83   0.0000       0.018308         0.4982
  84   0.0000       0.021750         0.5918
  85   0.0000       0.025267         0.6875
  86   0.0000       0.030786         0.8377
  87   0.0000       0.031672         0.8619

MULLIKEN ATOMIC CHARGES
-----------------------
   0 C :    0.747634
   1 C :    0.524110
   2 C :   -0.628951
   3 C :   -0.380595
   4 C :   -0.452180
   5 C :   -0.710381
   6 H :    0.241167
   7 H :    0.253312
   8 H :    0.206581
   9 H :    0.267361
  10 C :   -0.221220
  11 C :    0.118635
  12 C :    0.769286
  13 C :   -0.810755
  14 C :    0.605287
  15 C :   -0.282120
  16 H :    0.267757
  17 C :   -0.709546
  18 C :   -0.448737
  19 H :    0.241150
  20 H :    0.201833
  21 H :    0.233962
  22 C :   -0.241932
  23 H :    0.139764
  24 H :    0.199561
  25 C :    1.443231
  26 C :    1.626115
  27 N :   -0.547293
  28 N :   -0.595805
  29 N :   -0.649389
  30 N :   -0.578704
  31 C :   -1.113072
  32 H :    0.269563
  33 H :    0.301439
  34 H :    0.273792
  35 C :   -1.041948
  36 H :    0.204220
  37 H :    0.317419
  38 H :    0.292109
  39 C :   -0.850241
  40 H :    0.078047
  41 H :    0.439532
Sum of atomic charges:    0.0000000

LOEWDIN ATOMIC CHARGES
----------------------
   0 C :   -0.136855
   1 C :   -0.045562
   2 C :    0.369930
   3 C :    0.361452
   4 C :    0.362255
   5 C :    0.332233
   6 H :   -0.310204
   7 H :   -0.316113
   8 H :   -0.315962
   9 H :   -0.313122
  10 C :    0.058656
  11 C :    0.059413
  12 C :   -0.122386
  13 C :    0.312854
  14 C :   -0.009727
  15 C :    0.365326
  16 H :   -0.313215
  17 C :    0.349672
  18 C :    0.362423
  19 H :   -0.313421
  20 H :   -0.313353
  21 H :   -0.314981
  22 C :    0.562953
  23 H :   -0.291317
  24 H :   -0.268709
  25 C :   -0.720621
  26 C :   -0.727333
  27 N :    0.366051
  28 N :    0.363805
  29 N :    0.358628
  30 N :    0.360935
  31 C :    0.861005
  32 H :   -0.305941
  33 H :   -0.271086
  34 H :   -0.304788
  35 C :    0.860911
  36 H :   -0.296323
  37 H :   -0.317655
  38 H :   -0.273083
  39 C :    0.537336
  40 H :   -0.293009
  41 H :   -0.311072

  Mayer bond orders larger than 0.100000
B(  0-C ,  1-C ) :   0.6258 B(  0-C ,  2-C ) :  -0.5142 B(  0-C ,  3-C ) :   0.1091
B(  0-C ,  4-C ) :  -0.3391 B(  0-C ,  5-C ) :   1.2801 B(  0-C , 10-C ) :   0.4481
B(  0-C , 11-C ) :  -0.2916 B(  0-C , 39-C ) :  -0.3276 B(  1-C ,  2-C ) :   1.1639
B(  1-C ,  3-C ) :  -0.2669 B(  1-C ,  4-C ) :   0.1080 B(  1-C ,  5-C ) :  -0.3337
B(  1-C , 10-C ) :  -0.1655 B(  1-C , 11-C ) :  -0.1547 B(  1-C , 12-C ) :  -0.1078
B(  1-C , 22-C ) :  -0.2346 B(  1-C , 39-C ) :   0.7753 B(  1-C , 40-H ) :  -0.1063
B(  2-C ,  3-C ) :   1.2451 B(  2-C ,  4-C ) :   0.1188 B(  2-C ,  5-C ) :   0.2420
B(  2-C ,  6-H ) :   1.0469 B(  2-C ,  7-H ) :  -0.2124 B(  2-C , 10-C ) :  -0.1530
B(  3-C ,  4-C ) :   1.1622 B(  3-C ,  7-H ) :   1.1742 B(  4-C ,  5-C ) :   1.4137
B(  4-C ,  7-H ) :  -0.1133 B(  4-C ,  8-H ) :   1.2135 B(  5-C ,  8-H ) :  -0.1574
B(  5-C ,  9-H ) :   1.0262 B(  5-C , 10-C ) :  -0.4297 B( 10-C , 11-C ) :   2.2914
B( 10-C , 12-C ) :  -0.4182 B( 10-C , 14-C ) :  -0.1634 B( 10-C , 22-C ) :   0.1504
B( 10-C , 26-C ) :   0.4486 B( 10-C , 29-N ) :   0.2739 B( 10-C , 30-N ) :   0.3232
B( 10-C , 39-C ) :   0.1088 B( 11-C , 12-C ) :   0.5056 B( 11-C , 13-C ) :  -0.5868
B( 11-C , 14-C ) :  -0.1664 B( 11-C , 15-C ) :  -0.1411 B( 11-C , 18-C ) :  -0.1016
B( 11-C , 25-C ) :   0.5877 B( 11-C , 27-N ) :   0.2190 B( 11-C , 28-N ) :   0.3129
B( 12-C , 13-C ) :   1.4406 B( 12-C , 14-C ) :   1.1502 B( 12-C , 15-C ) :  -0.2116
B( 12-C , 17-C ) :  -0.2151 B( 12-C , 18-C ) :   0.2474 B( 12-C , 22-C ) :  -0.1594
B( 13-C , 14-C ) :  -0.2206 B( 13-C , 15-C ) :   1.3296 B( 13-C , 16-H ) :   1.0353
B( 13-C , 17-C ) :   0.1529 B( 13-C , 19-H ) :  -0.1780 B( 14-C , 17-C ) :   0.8071
B( 14-C , 18-C ) :  -0.3781 B( 14-C , 23-H ) :  -0.1425 B( 14-C , 24-H ) :  -0.1188
B( 15-C , 17-C ) :   0.1207 B( 15-C , 18-C ) :   1.1488 B( 15-C , 19-H ) :   1.1528
B( 15-C , 21-H ) :  -0.1059 B( 17-C , 18-C ) :   1.2821 B( 17-C , 20-H ) :   1.1121
B( 17-C , 21-H ) :  -0.1919 B( 17-C , 22-C ) :  -0.2835 B( 18-C , 21-H ) :   1.1992
B( 22-C , 23-H ) :   1.1501 B( 22-C , 24-H ) :   1.0319 B( 22-C , 39-C ) :   1.0564
B( 22-C , 41-H ) :   0.1188 B( 25-C , 26-C ) :   0.2548 B( 25-C , 27-N ) :  -0.1283
B( 25-C , 28-N ) :   0.4904 B( 25-C , 29-N ) :   0.1006 B( 25-C , 30-N ) :   0.4326
B( 25-C , 35-C ) :   0.2567 B( 25-C , 36-H ) :  -0.1395 B( 25-C , 37-H ) :  -0.1521
B( 25-C , 38-H ) :  -0.1321 B( 26-C , 27-N ) :   0.5420 B( 26-C , 29-N ) :   0.3743
B( 26-C , 31-C ) :   0.2334 B( 26-C , 32-H ) :  -0.1193 B( 26-C , 33-H ) :  -0.1834
B( 26-C , 34-H ) :  -0.1698 B( 27-N , 28-N ) :   0.7205 B( 27-N , 29-N ) :   0.1736
B( 28-N , 30-N ) :   0.1627 B( 29-N , 30-N ) :   0.7553 B( 31-C , 32-H ) :   1.0463
B( 31-C , 33-H ) :   1.0420 B( 31-C , 34-H ) :   1.0591 B( 35-C , 36-H ) :   1.0688
B( 35-C , 37-H ) :   1.0471 B( 35-C , 38-H ) :   1.0289 B( 39-C , 40-H ) :   1.2118
B( 39-C , 41-H ) :   0.6889

MP2 TOTAL ENERGY:     -990.117649534 Eh
FINAL SINGLE POINT ENERGY      -990.117649534030

DIPOLE MOMENT
-------------
                                X             Y             Z
Electronic contribution:      0.31826       6.61089      -2.45960
Nuclear contribution   :     -0.35468      -8.09637       2.45509
                        -----------------------------------------
Total Dipole Moment    :     -0.03643      -1.48548      -0.00451
                        -----------------------------------------
Magnitude (a.u.)       :      1.48593
Magnitude (Debye)      :      3.77694

Rotational constants in cm-1:     0.011062     0.008499     0.005718
Rotational constants in MHz :   331.639759   254.797887   171.425636

                             ****ORCA TERMINATED NORMALLY****
TOTAL RUN TIME: 0 days 14 hours 7 minutes 39 seconds 575 msec
