                         Program Version 4.2.1 -  RELEASE  -
|  1> %pal
|  2>  nprocs 32
|  3> end
|  4> !RI-MP2 aug-cc-pVQZ aug-cc-pVQZ/C TightSCF
|  5> %maxcore 4500
|  6> *xyzfile 0 1  10_86P.xyz
|  7>
|  8>
|  9>                          ****END OF INPUT****

CARTESIAN COORDINATES (ANGSTROEM)
---------------------------------
  O     -2.417453   -0.778002    0.053560
  C     -2.028048    0.334111   -0.182519
  C     -0.592903    0.771521   -0.113440
  C      0.382002   -0.338439    0.265235
  C      1.787574    0.164953    0.384861
  C      2.807028   -0.246025   -0.354955
  H     -2.747607    1.126457   -0.476136
  H      0.060754   -0.776631    1.214887
  H      0.330111   -1.140155   -0.474358
  H     -0.545706    1.607132    0.596990
  H     -0.335744    1.211475   -1.084731
  H      1.959080    0.929997    1.140254
  H      2.680957   -1.007674   -1.117698
  H      3.803871    0.156684   -0.222774

 Total Charge           Charge          ....    0
 Multiplicity           Mult            ....    1
 Number of Electrons    NEL             ....   46
 Basis Dimension        Dim             ....  848

ORBITAL ENERGIES
----------------

  NO   OCC          E(Eh)            E(eV)
   0   2.0000     -20.557948      -559.4102
   1   2.0000     -11.332900      -308.3839
   2   2.0000     -11.246612      -306.0359
   3   2.0000     -11.237550      -305.7893
   4   2.0000     -11.233656      -305.6833
   5   2.0000     -11.224070      -305.4225
   6   2.0000      -1.400284       -38.1037
   7   2.0000      -1.100303       -29.9408
   8   2.0000      -1.026560       -27.9341
   9   2.0000      -0.913134       -24.8476
  10   2.0000      -0.784878       -21.3576
  11   2.0000      -0.763254       -20.7692
  12   2.0000      -0.682253       -18.5650
  13   2.0000      -0.656821       -17.8730
  14   2.0000      -0.636039       -17.3075
  15   2.0000      -0.617489       -16.8027
  16   2.0000      -0.575462       -15.6591
  17   2.0000      -0.536912       -14.6101
  18   2.0000      -0.523009       -14.2318
  19   2.0000      -0.497396       -13.5348
  20   2.0000      -0.492188       -13.3931
  21   2.0000      -0.427738       -11.6394
  22   2.0000      -0.367910       -10.0113
  23   0.0000       0.023172         0.6305
  24   0.0000       0.029349         0.7986
  25   0.0000       0.032264         0.8779
  26   0.0000       0.038881         1.0580
  27   0.0000       0.045423         1.2360

MULLIKEN ATOMIC CHARGES
-----------------------
   0 O :   -0.756826
   1 C :    0.243112
   2 C :   -0.477178
   3 C :   -0.112687
   4 C :   -0.554562
   5 C :   -0.874041
   6 H :    0.382219
   7 H :    0.274720
   8 H :    0.265641
   9 H :    0.226804
  10 H :    0.272575
  11 H :    0.433153
  12 H :    0.315145
  13 H :    0.361926
Sum of atomic charges:   -0.0000000

LOEWDIN ATOMIC CHARGES
----------------------
   0 O :    0.724828
   1 C :   -0.234506
   2 C :    0.457255
   3 C :    0.432739
   4 C :    0.353813
   5 C :    0.798266
   6 H :   -0.340431
   7 H :   -0.285379
   8 H :   -0.304614
   9 H :   -0.288665
  10 H :   -0.284613
  11 H :   -0.321542
  12 H :   -0.351332
  13 H :   -0.355818

  Mayer bond orders larger than 0.100000
B(  0-O ,  1-C ) :   1.5183 B(  0-O ,  2-C ) :   0.1250 B(  1-C ,  2-C ) :   1.0061
B(  1-C ,  3-C ) :  -0.1294 B(  1-C ,  6-H ) :   0.8564 B(  2-C ,  3-C ) :   0.9498
B(  2-C ,  9-H ) :   0.9022 B(  2-C , 10-H ) :   0.8891 B(  3-C ,  4-C ) :   0.9011
B(  3-C ,  5-C ) :  -0.1624 B(  3-C ,  7-H ) :   0.8311 B(  3-C ,  8-H ) :   0.9053
B(  4-C ,  5-C ) :   1.9082 B(  4-C , 11-H ) :   0.7757 B(  5-C , 12-H ) :   0.9189
B(  5-C , 13-H ) :   0.9411

MP2 TOTAL ENERGY:     -270.078962880 Eh
FINAL SINGLE POINT ENERGY      -270.078962880300

DIPOLE MOMENT
-------------
                                X             Y             Z
Electronic contribution:     -4.82839      -1.13656       0.28083
Nuclear contribution   :      5.30726       2.15164      -0.43415
                        -----------------------------------------
Total Dipole Moment    :      0.47888       1.01508      -0.15332
                        -----------------------------------------
Magnitude (a.u.)       :      1.13279
Magnitude (Debye)      :      2.87933

Rotational constants in cm-1:     0.416111     0.051662     0.048833
Rotational constants in MHz : 12474.687140  1548.782934  1463.981697

                             ****ORCA TERMINATED NORMALLY****
TOTAL RUN TIME: 0 days 0 hours 12 minutes 53 seconds 358 msec
