                         Program Version 4.2.1 -  RELEASE  -
|  1> %pal
|  2>  nprocs 32
|  3> end
|  4> !RI-MP2 aug-cc-pVQZ aug-cc-pVQZ/C TightSCF
|  5> %maxcore 4500
|  6> *xyzfile 0 1  04_85R1.xyz
|  7>
|  8>
|  9>                          ****END OF INPUT****

CARTESIAN COORDINATES (ANGSTROEM)
---------------------------------
  O     -1.912991    1.224245   -0.676780
  C     -2.285316    0.265989   -0.052555
  O     -3.559403   -0.169405   -0.104782
  C     -1.445181   -0.585985    0.854932
  C     -0.010743   -0.100630    0.993618
  C      0.807215   -0.287731   -0.296277
  H      0.470397   -0.666644    1.797325
  H      0.008492    0.952713    1.276372
  C      2.208383    0.251433   -0.062347
  O      2.231766    1.592215    0.027868
  N      0.804483   -1.676667   -0.711885
  H     -4.038272    0.414978   -0.709085
  H      0.344432    0.322453   -1.073564
  H      1.481729   -2.205718   -0.171856
  H      1.071701   -1.766467   -1.684099
  H      3.145118    1.858100    0.205544
  O      3.196236   -0.422964    0.057640
  H     -1.943335   -0.619676    1.826917
  H     -1.462649   -1.604254    0.459850

 Total Charge           Charge          ....    0
 Multiplicity           Mult            ....    1
 Number of Electrons    NEL             ....   78
 Basis Dimension        Dim             .... 1214

ORBITAL ENERGIES
----------------

  NO   OCC          E(Eh)            E(eV)
   0   2.0000     -20.613709      -560.9275
   1   2.0000     -20.611849      -560.8769
   2   2.0000     -20.550949      -559.2198
   3   2.0000     -20.549874      -559.1905
   4   2.0000     -15.548931      -423.1079
   5   2.0000     -11.386743      -309.8490
   6   2.0000     -11.382326      -309.7288
   7   2.0000     -11.276910      -306.8603
   8   2.0000     -11.246649      -306.0369
   9   2.0000     -11.241804      -305.9050
  10   2.0000      -1.472284       -40.0629
  11   2.0000      -1.470836       -40.0235
  12   2.0000      -1.367644       -37.2155
  13   2.0000      -1.366248       -37.1775
  14   2.0000      -1.204851       -32.7857
  15   2.0000      -1.079622       -29.3780
  16   2.0000      -0.991350       -26.9760
  17   2.0000      -0.898052       -24.4372
  18   2.0000      -0.813172       -22.1275
  19   2.0000      -0.789308       -21.4782
  20   2.0000      -0.721155       -19.6236
  21   2.0000      -0.710941       -19.3457
  22   2.0000      -0.707737       -19.2585
  23   2.0000      -0.695166       -18.9164
  24   2.0000      -0.680912       -18.5286
  25   2.0000      -0.649351       -17.6697
  26   2.0000      -0.634147       -17.2560
  27   2.0000      -0.612395       -16.6641
  28   2.0000      -0.604199       -16.4411
  29   2.0000      -0.578627       -15.7452
  30   2.0000      -0.567085       -15.4312
  31   2.0000      -0.538673       -14.6580
  32   2.0000      -0.518815       -14.1177
  33   2.0000      -0.507176       -13.8010
  34   2.0000      -0.488812       -13.3013
  35   2.0000      -0.482345       -13.1253
  36   2.0000      -0.463310       -12.6073
  37   2.0000      -0.450917       -12.2701
  38   2.0000      -0.411064       -11.1856
  39   0.0000       0.023664         0.6439
  40   0.0000       0.029374         0.7993
  41   0.0000       0.031220         0.8495
  42   0.0000       0.033469         0.9107
  43   0.0000       0.046192         1.2570

MULLIKEN ATOMIC CHARGES
-----------------------
   0 O :   -0.850400
   1 C :    1.169884
   2 O :   -0.762847
   3 C :   -0.615800
   4 C :   -0.440026
   5 C :    0.231397
   6 H :    0.299509
   7 H :    0.258877
   8 C :    1.118184
   9 O :   -0.746316
  10 N :   -0.812838
  11 H :    0.357433
  12 H :    0.398642
  13 H :    0.252439
  14 H :    0.180623
  15 H :    0.321107
  16 O :   -0.891337
  17 H :    0.300618
  18 H :    0.230852
Sum of atomic charges:    0.0000000

LOEWDIN ATOMIC CHARGES
----------------------
   0 O :    0.745258
   1 C :   -1.003934
   2 O :    1.262396
   3 C :    0.467102
   4 C :    0.479158
   5 C :   -0.114429
   6 H :   -0.259728
   7 H :   -0.285001
   8 C :   -1.020544
   9 O :    1.273366
  10 N :    1.282518
  11 H :   -0.813619
  12 H :   -0.347909
  13 H :   -0.524076
  14 H :   -0.481714
  15 H :   -0.801382
  16 O :    0.725381
  17 H :   -0.277694
  18 H :   -0.305148

  Mayer bond orders larger than 0.100000
B(  0-O ,  1-C ) :   1.3870 B(  0-O ,  3-C ) :   0.1138 B(  1-C ,  2-O ) :   0.7277
B(  1-C ,  3-C ) :   1.1039 B(  1-C ,  4-C ) :  -0.1394 B(  2-O , 11-H ) :   0.9113
B(  3-C ,  4-C ) :   0.9768 B(  3-C , 17-H ) :   0.9170 B(  3-C , 18-H ) :   0.9215
B(  4-C ,  5-C ) :   0.7340 B(  4-C ,  6-H ) :   0.9027 B(  4-C ,  7-H ) :   0.8974
B(  5-C ,  8-C ) :   1.1104 B(  5-C , 10-N ) :   0.6796 B(  5-C , 12-H ) :   0.7987
B(  5-C , 16-O ) :   0.1890 B(  8-C ,  9-O ) :   0.8107 B(  8-C , 10-N ) :   0.1168
B(  8-C , 16-O ) :   1.1294 B(  9-O , 15-H ) :   0.9320 B(  9-O , 16-O ) :   0.1268
B( 10-N , 13-H ) :   0.8943 B( 10-N , 14-H ) :   1.0059

MP2 TOTAL ENERGY:     -550.904269728 Eh
FINAL SINGLE POINT ENERGY      -550.904269727741

DIPOLE MOMENT
-------------
                                X             Y             Z
Electronic contribution:      0.56218       3.28084      -1.67064
Nuclear contribution   :     -0.91437      -3.27498       1.90393
                        -----------------------------------------
Total Dipole Moment    :     -0.35219       0.00586       0.23329
                        -----------------------------------------
Magnitude (a.u.)       :      0.42249
Magnitude (Debye)      :      1.07388

Rotational constants in cm-1:     0.093842     0.022381     0.020215
Rotational constants in MHz :  2813.316207   670.953495   606.018676

                             ****ORCA TERMINATED NORMALLY****
TOTAL RUN TIME: 0 days 0 hours 46 minutes 6 seconds 159 msec
