                         Program Version 4.2.1 -  RELEASE  -
|  1> %pal
|  2>  nprocs 32
|  3> end
|  4> !RI-MP2 aug-cc-pVQZ aug-cc-pVQZ/C TightSCF
|  5> %maxcore 4500
|  6> *xyzfile 0 1  03_21P2.xyz
|  7>
|  8>
|  9>                          ****END OF INPUT****

CARTESIAN COORDINATES (ANGSTROEM)
---------------------------------
  O     -0.097066    1.505757    0.000204
  C      0.078182    0.340956    0.000041
  C     -0.953957   -0.749306   -0.000080
  C     -2.375359   -0.209267    0.000047
  H     -0.753699   -1.379257    0.870677
  H     -0.753759   -1.379002   -0.871036
  H     -2.562777    0.405737    0.880541
  H     -3.087380   -1.035379   -0.000053
  H     -2.562835    0.406001   -0.880251
  Cl     1.764928   -0.315203   -0.000091

 Total Charge           Charge          ....    0
 Multiplicity           Mult            ....    1
 Number of Electrons    NEL             ....   48
 Basis Dimension        Dim             ....  634

ORBITAL ENERGIES
----------------

  NO   OCC          E(Eh)            E(eV)
   0   2.0000    -104.842194     -2852.9011
   1   2.0000     -20.591212      -560.3154
   2   2.0000     -11.405410      -310.3570
   3   2.0000     -11.269079      -306.6472
   4   2.0000     -11.237585      -305.7902
   5   2.0000     -10.568207      -287.5755
   6   2.0000      -8.035060      -218.6451
   7   2.0000      -8.033506      -218.6028
   8   2.0000      -8.033420      -218.6005
   9   2.0000      -1.452945       -39.5366
  10   2.0000      -1.132594       -30.8195
  11   2.0000      -1.072489       -29.1839
  12   2.0000      -0.914274       -24.8787
  13   2.0000      -0.764852       -20.8127
  14   2.0000      -0.689243       -18.7552
  15   2.0000      -0.664355       -18.0780
  16   2.0000      -0.658767       -17.9260
  17   2.0000      -0.577851       -15.7241
  18   2.0000      -0.567338       -15.4380
  19   2.0000      -0.542404       -14.7596
  20   2.0000      -0.519118       -14.1259
  21   2.0000      -0.464802       -12.6479
  22   2.0000      -0.463649       -12.6165
  23   2.0000      -0.448233       -12.1970
  24   0.0000       0.022299         0.6068
  25   0.0000       0.034774         0.9462
  26   0.0000       0.035753         0.9729
  27   0.0000       0.041711         1.1350
  28   0.0000       0.057098         1.5537

MULLIKEN ATOMIC CHARGES
-----------------------
   0 O :   -0.617725
   1 C :    0.574789
   2 C :   -0.334354
   3 C :   -0.751036
   4 H :    0.294577
   5 H :    0.294577
   6 H :    0.225865
   7 H :    0.307085
   8 H :    0.225865
   9 Cl:   -0.219642
Sum of atomic charges:   -0.0000000

LOEWDIN ATOMIC CHARGES
----------------------
   0 O :    0.619331
   1 C :   -1.367667
   2 C :    0.323011
   3 C :    0.892920
   4 H :   -0.323410
   5 H :   -0.323408
   6 H :   -0.288122
   7 H :   -0.281765
   8 H :   -0.288122
   9 Cl:    1.037231

  Mayer bond orders larger than 0.100000
B(  0-O ,  1-C ) :   1.6033 B(  1-C ,  2-C ) :   0.9047 B(  1-C ,  9-Cl) :   0.9370
B(  2-C ,  3-C ) :   0.9564 B(  2-C ,  4-H ) :   0.8700 B(  2-C ,  5-H ) :   0.8700
B(  3-C ,  6-H ) :   0.9522 B(  3-C ,  7-H ) :   0.9294 B(  3-C ,  8-H ) :   0.9522

MP2 TOTAL ENERGY:     -651.997003983 Eh
FINAL SINGLE POINT ENERGY      -651.997003982614

DIPOLE MOMENT
-------------
                                X             Y             Z
Electronic contribution:     11.10226       1.51355      -0.00011
Nuclear contribution   :    -11.93229      -2.44279       0.00001
                        -----------------------------------------
Total Dipole Moment    :     -0.83003      -0.92924      -0.00010
                        -----------------------------------------
Magnitude (a.u.)       :      1.24597
Magnitude (Debye)      :      3.16701

Rotational constants in cm-1:     0.297743     0.078422     0.063519
Rotational constants in MHz :  8926.123463  2351.028817  1904.246861

                             ****ORCA TERMINATED NORMALLY****
TOTAL RUN TIME: 0 days 0 hours 5 minutes 37 seconds 498 msec
