                         Program Version 4.2.1 -  RELEASE  -
|  1> %pal
|  2>  nprocs 32
|  3> end
|  4> !RI-MP2 aug-cc-pVQZ aug-cc-pVQZ/C TightSCF
|  5> %maxcore 4500
|  6> *xyzfile 0 2  01_24P.xyz
|  7>
|  8>
|  9>                          ****END OF INPUT****

CARTESIAN COORDINATES (ANGSTROEM)
---------------------------------
  C     -0.258153   -0.968032    0.255067
  C      1.001766   -0.092862    0.018357
  C      0.429883    1.306718   -0.349133
  C     -1.056485    1.262139    0.002271
  H      0.543173    1.482095   -1.422918
  H      0.962055    2.111999    0.162126
  C     -1.451197   -0.193203   -0.331391
  H     -1.654290    1.998364   -0.537829
  H     -1.209922    1.434785    1.072729
  C      1.852057   -0.020220    1.287474
  H      2.755094    0.573933    1.122420
  H      2.161036   -1.018611    1.609797
  H      1.292865    0.437189    2.108103
  C      1.845146   -0.648777   -1.130035
  H      2.671193    0.026344   -1.370913
  H      1.243060   -0.774916   -2.033889
  H      2.271192   -1.621798   -0.870605
  C     -2.772674   -0.616384    0.186526
  H     -2.917538   -0.745464    1.253579
  H     -3.635571   -0.719819   -0.457750
  H     -0.426242   -1.099400    1.329045
  H     -0.158232   -1.966411   -0.175984
  H     -1.439934   -0.294561   -1.422724

 Total Charge           Charge          ....    0
 Multiplicity           Mult            ....    2
 Number of Electrons    NEL             ....   63
 Basis Dimension        Dim             .... 1330

ORBITAL ENERGIES
----------------
                 SPIN UP ORBITALS
  NO   OCC          E(Eh)            E(eV)
   0   1.0000     -11.225527      -305.4621
   1   1.0000     -11.223304      -305.4016
   2   1.0000     -11.219738      -305.3046
   3   1.0000     -11.213120      -305.1245
   4   1.0000     -11.209346      -305.0218
   5   1.0000     -11.208832      -305.0078
   6   1.0000     -11.206783      -304.9521
   7   1.0000     -11.206725      -304.9505
   8   1.0000      -1.140147       -31.0250
   9   1.0000      -1.049090       -28.5472
  10   1.0000      -0.981488       -26.7077
  11   1.0000      -0.928300       -25.2603
  12   1.0000      -0.921307       -25.0700
  13   1.0000      -0.852783       -23.2054
  14   1.0000      -0.764317       -20.7981
  15   1.0000      -0.725690       -19.7470
  16   1.0000      -0.655066       -17.8253
  17   1.0000      -0.625036       -17.0081
  18   1.0000      -0.598560       -16.2877
  19   1.0000      -0.581410       -15.8210
  20   1.0000      -0.574397       -15.6301
  21   1.0000      -0.567254       -15.4358
  22   1.0000      -0.543320       -14.7845
  23   1.0000      -0.521873       -14.2009
  24   1.0000      -0.499705       -13.5977
  25   1.0000      -0.493561       -13.4305
  26   1.0000      -0.476959       -12.9787
  27   1.0000      -0.463747       -12.6192
  28   1.0000      -0.443765       -12.0755
  29   1.0000      -0.440368       -11.9830
  30   1.0000      -0.436751       -11.8846
  31   1.0000      -0.338238        -9.2039
  32   0.0000       0.025794         0.7019
  33   0.0000       0.030217         0.8222
  34   0.0000       0.030851         0.8395
  35   0.0000       0.031862         0.8670
  36   0.0000       0.043851         1.1932

                 SPIN DOWN ORBITALS
  NO   OCC          E(Eh)            E(eV)
   0   1.0000     -11.225506      -305.4615
   1   1.0000     -11.223045      -305.3946
   2   1.0000     -11.210648      -305.0572
   3   1.0000     -11.208700      -305.0042
   4   1.0000     -11.207954      -304.9839
   5   1.0000     -11.206758      -304.9514
   6   1.0000     -11.206721      -304.9504
   7   1.0000     -11.199930      -304.7656
   8   1.0000      -1.136040       -30.9132
   9   1.0000      -1.036761       -28.2117
  10   1.0000      -0.968493       -26.3540
  11   1.0000      -0.928255       -25.2591
  12   1.0000      -0.893195       -24.3051
  13   1.0000      -0.828341       -22.5403
  14   1.0000      -0.751197       -20.4411
  15   1.0000      -0.723340       -19.6831
  16   1.0000      -0.651886       -17.7387
  17   1.0000      -0.622252       -16.9323
  18   1.0000      -0.593914       -16.1612
  19   1.0000      -0.580163       -15.7870
  20   1.0000      -0.572281       -15.5726
  21   1.0000      -0.563696       -15.3390
  22   1.0000      -0.538744       -14.6600
  23   1.0000      -0.517504       -14.0820
  24   1.0000      -0.498865       -13.5748
  25   1.0000      -0.473313       -12.8795
  26   1.0000      -0.466280       -12.6881
  27   1.0000      -0.458074       -12.4648
  28   1.0000      -0.443252       -12.0615
  29   1.0000      -0.437808       -11.9133
  30   1.0000      -0.434168       -11.8143
  31   0.0000       0.026002         0.7076
  32   0.0000       0.030280         0.8240
  33   0.0000       0.030970         0.8427
  34   0.0000       0.031432         0.8553
  35   0.0000       0.043905         1.1947

MULLIKEN ATOMIC CHARGES AND SPIN POPULATIONS
--------------------------------------------
   0 C :   -0.547350    0.040294
   1 C :    1.424262   -0.008020
   2 C :   -0.694397    0.000950
   3 C :   -0.522473    0.080340
   4 H :    0.193233   -0.000972
   5 H :    0.317698    0.003615
   6 C :    0.191850   -0.268592
   7 H :    0.290263   -0.009970
   8 H :    0.148818    0.002851
   9 C :   -1.153331    0.001162
  10 H :    0.229564    0.000500
  11 H :    0.229486    0.000418
  12 H :    0.181247    0.000053
  13 C :   -1.176993    0.000847
  14 H :    0.238057   -0.000111
  15 H :    0.180488    0.000691
  16 H :    0.216577    0.000075
  17 C :   -1.034423    1.303653
  18 H :    0.278357   -0.075688
  19 H :    0.313525   -0.083361
  20 H :    0.171856    0.005545
  21 H :    0.327414   -0.002253
  22 H :    0.196272    0.007973
Sum of atomic charges         :    0.0000000

LOEWDIN ATOMIC CHARGES AND SPIN POPULATIONS
-------------------------------------------
   0 C :    0.505633    0.022258
   1 C :   -0.262311    0.003088
   2 C :    0.530676    0.006674
   3 C :    0.533263    0.032260
   4 H :   -0.270516    0.000665
   5 H :   -0.254834    0.001780
   6 C :    0.075908    0.133744
   7 H :   -0.244266    0.007819
   8 H :   -0.260648    0.009441
   9 C :    0.916160    0.000676
  10 H :   -0.267716    0.000275
  11 H :   -0.264344    0.000162
  12 H :   -0.268255   -0.000010
  13 C :    0.915648    0.000431
  14 H :   -0.264882    0.000099
  15 H :   -0.268473    0.000044
  16 H :   -0.267608    0.000064
  17 C :    0.878403    0.459103
  18 H :   -0.325565    0.149774
  19 H :   -0.325353    0.153984
  20 H :   -0.281157    0.004502
  21 H :   -0.247726    0.005833
  22 H :   -0.282036    0.007336

  Mayer bond orders larger than 0.100000
B(  0-C ,  1-C ) :   0.6799 B(  0-C ,  6-C ) :   0.8045 B(  0-C , 20-H ) :   1.0498
B(  0-C , 21-H ) :   0.8743 B(  1-C ,  2-C ) :   0.5723 B(  1-C ,  3-C ) :  -0.1182
B(  1-C ,  9-C ) :   0.3070 B(  1-C , 10-H ) :  -0.1401 B(  1-C , 11-H ) :  -0.1273
B(  1-C , 12-H ) :  -0.1564 B(  1-C , 13-C ) :   0.2409 B(  1-C , 14-H ) :  -0.1381
B(  1-C , 15-H ) :  -0.1607 B(  1-C , 16-H ) :  -0.1460 B(  2-C ,  3-C ) :   0.9751
B(  2-C ,  4-H ) :   1.0341 B(  2-C ,  5-H ) :   0.9015 B(  2-C ,  9-C ) :   0.1002
B(  3-C ,  6-C ) :   0.8041 B(  3-C ,  7-H ) :   0.9065 B(  3-C ,  8-H ) :   1.0585
B(  6-C , 17-C ) :   0.4544 B(  6-C , 19-H ) :  -0.1642 B(  6-C , 22-H ) :   1.0186
B(  9-C , 10-H ) :   1.0717 B(  9-C , 11-H ) :   1.0608 B(  9-C , 12-H ) :   1.1169
B(  9-C , 13-C ) :   0.1402 B( 13-C , 14-H ) :   1.0673 B( 13-C , 15-H ) :   1.1234
B( 13-C , 16-H ) :   1.0798 B( 17-C , 18-H ) :   1.0059 B( 17-C , 19-H ) :   1.0538

MP2 TOTAL ENERGY:     -313.214418351 Eh
FINAL SINGLE POINT ENERGY      -313.214418350841

DIPOLE MOMENT
-------------
                                X             Y             Z
Electronic contribution:     -2.56613       0.24752      -0.43107
Nuclear contribution   :      2.61510      -0.18754       0.38854
                        -----------------------------------------
Total Dipole Moment    :      0.04897       0.05997      -0.04253
                        -----------------------------------------
Magnitude (a.u.)       :      0.08834
Magnitude (Debye)      :      0.22454

Rotational constants in cm-1:     0.113457     0.048248     0.045462
Rotational constants in MHz :  3401.341684  1446.432003  1362.904377

                             ****ORCA TERMINATED NORMALLY****
TOTAL RUN TIME: 0 days 1 hours 32 minutes 56 seconds 691 msec
