                         Program Version 4.2.1 -  RELEASE  -
|  1> %pal
|  2>  nprocs 32
|  3> end
|  4> !RI-MP2 aug-cc-pVQZ aug-cc-pVQZ/C TightSCF
|  5> %maxcore 4500
|  6> *xyzfile 0 1  10_40R.xyz
|  7>
|  8>
|  9>                          ****END OF INPUT****

CARTESIAN COORDINATES (ANGSTROEM)
---------------------------------
  C     -0.157586   -2.546173   -0.467342
  H     -0.319940   -3.615974   -0.329647
  H      0.087816   -2.379383   -1.534393
  C      1.011870   -2.096197    0.372738
  C     -0.139043    0.069031    0.728400
  H     -0.479965   -0.191113    1.734766
  H     -0.026149    1.147740    0.682392
  C     -1.218611   -0.397323   -0.259193
  H     -0.854470   -0.172161   -1.280874
  N     -1.376575   -1.839762   -0.103839
  C      2.317671    0.021089    0.212016
  C      1.783659   -2.956183    1.027327
  C      3.580099   -0.616733   -0.170277
  C      4.779620   -0.036885   -0.166067
  C      1.164551   -0.627422    0.439812
  C      6.037696   -0.716200   -0.600158
  H      6.769080   -0.741030    0.213098
  H      5.849599   -1.741592   -0.923148
  H      6.507634   -0.178098   -1.428891
  C     -2.527191    0.348156   -0.075121
  C     -2.542471   -2.352400   -0.798170
  H     -2.519137   -3.443025   -0.753822
  H     -2.536656   -2.067371   -1.866100
  C     -3.792752   -1.825901   -0.119787
  H     -3.867587   -2.274866    0.875172
  C     -3.745941   -0.325596   -0.000562
  H     -4.682821   -2.123995   -0.679879
  C     -4.922321    0.404676    0.157996
  H     -5.866136   -0.127351    0.215491
  C     -2.522296    1.742305   -0.028300
  H     -1.585833    2.278507   -0.124772
  C     -4.905608    1.786230    0.230440
  H     -5.830533    2.336682    0.353108
  C     -3.695414    2.460076    0.126686
  H     -3.666862    3.542385    0.163090
  C      2.357141    1.514401    0.319246
  O      2.896203    2.130174    1.200368
  O      1.742785    2.109786   -0.715844
  C      1.754373    3.541108   -0.704393
  H      2.778391    3.913363   -0.718349
  H      1.252775    3.919236    0.186833
  H      1.223520    3.845016   -1.602573
  H      2.607789   -2.620699    1.644110
  H      1.600850   -4.023561    0.976769
  H      4.879903    0.984260    0.190118
  H      3.498168   -1.648682   -0.493554

 Total Charge           Charge          ....    0
 Multiplicity           Mult            ....    1
 Number of Electrons    NEL             ....  166
 Basis Dimension        Dim             .... 2898

ORBITAL ENERGIES
----------------

  NO   OCC          E(Eh)            E(eV)
   0   2.0000     -20.602071      -560.6108
   1   2.0000     -20.542078      -558.9784
   2   2.0000     -15.550892      -423.1613
   3   2.0000     -11.378684      -309.6297
   4   2.0000     -11.285769      -307.1014
   5   2.0000     -11.265925      -306.5614
   6   2.0000     -11.259081      -306.3752
   7   2.0000     -11.252409      -306.1936
   8   2.0000     -11.250278      -306.1356
   9   2.0000     -11.248050      -306.0750
  10   2.0000     -11.243719      -305.9572
  11   2.0000     -11.237010      -305.7746
  12   2.0000     -11.235746      -305.7402
  13   2.0000     -11.230374      -305.5940
  14   2.0000     -11.230299      -305.5920
  15   2.0000     -11.229763      -305.5774
  16   2.0000     -11.228466      -305.5421
  17   2.0000     -11.228371      -305.5395
  18   2.0000     -11.227769      -305.5231
  19   2.0000     -11.227561      -305.5175
  20   2.0000     -11.225881      -305.4718
  21   2.0000     -11.224501      -305.4342
  22   2.0000     -11.220570      -305.3272
  23   2.0000      -1.465321       -39.8734
  24   2.0000      -1.361425       -37.0463
  25   2.0000      -1.258542       -34.2467
  26   2.0000      -1.159384       -31.5485
  27   2.0000      -1.141768       -31.0691
  28   2.0000      -1.086725       -29.5713
  29   2.0000      -1.068565       -29.0771
  30   2.0000      -1.057626       -28.7795
  31   2.0000      -1.031458       -28.0674
  32   2.0000      -1.003855       -27.3163
  33   2.0000      -0.981949       -26.7202
  34   2.0000      -0.965707       -26.2782
  35   2.0000      -0.935224       -25.4488
  36   2.0000      -0.908287       -24.7157
  37   2.0000      -0.862302       -23.4644
  38   2.0000      -0.846605       -23.0373
  39   2.0000      -0.838093       -22.8057
  40   2.0000      -0.811405       -22.0794
  41   2.0000      -0.783816       -21.3287
  42   2.0000      -0.759986       -20.6803
  43   2.0000      -0.756213       -20.5776
  44   2.0000      -0.731887       -19.9157
  45   2.0000      -0.699346       -19.0302
  46   2.0000      -0.686004       -18.6671
  47   2.0000      -0.677991       -18.4491
  48   2.0000      -0.670649       -18.2493
  49   2.0000      -0.661152       -17.9908
  50   2.0000      -0.654303       -17.8045
  51   2.0000      -0.641447       -17.4547
  52   2.0000      -0.630220       -17.1492
  53   2.0000      -0.623023       -16.9533
  54   2.0000      -0.609766       -16.5926
  55   2.0000      -0.604110       -16.4387
  56   2.0000      -0.595790       -16.2123
  57   2.0000      -0.590225       -16.0608
  58   2.0000      -0.574678       -15.6378
  59   2.0000      -0.571455       -15.5501
  60   2.0000      -0.567824       -15.4513
  61   2.0000      -0.562716       -15.3123
  62   2.0000      -0.551375       -15.0037
  63   2.0000      -0.548536       -14.9264
  64   2.0000      -0.535402       -14.5690
  65   2.0000      -0.534008       -14.5311
  66   2.0000      -0.527220       -14.3464
  67   2.0000      -0.524282       -14.2664
  68   2.0000      -0.516838       -14.0639
  69   2.0000      -0.510373       -13.8880
  70   2.0000      -0.503388       -13.6979
  71   2.0000      -0.488283       -13.2868
  72   2.0000      -0.480181       -13.0664
  73   2.0000      -0.465497       -12.6668
  74   2.0000      -0.462377       -12.5819
  75   2.0000      -0.458854       -12.4861
  76   2.0000      -0.446654       -12.1541
  77   2.0000      -0.420473       -11.4416
  78   2.0000      -0.376190       -10.2366
  79   2.0000      -0.365053        -9.9336
  80   2.0000      -0.330677        -8.9982
  81   2.0000      -0.323964        -8.8155
  82   2.0000      -0.304026        -8.2730
  83   0.0000       0.020166         0.5487
  84   0.0000       0.023613         0.6425
  85   0.0000       0.024115         0.6562
  86   0.0000       0.029904         0.8137
  87   0.0000       0.031179         0.8484

MULLIKEN ATOMIC CHARGES
-----------------------
   0 C :   -0.295122
   1 H :    0.232172
   2 H :    0.264802
   3 C :   -0.117791
   4 C :   -0.514062
   5 H :    0.345065
   6 H :    0.176891
   7 C :    1.791186
   8 H :    0.135452
   9 N :   -0.185440
  10 C :   -0.625125
  11 C :   -1.169598
  12 C :   -0.590806
  13 C :   -0.530794
  14 C :    0.933367
  15 C :   -0.828667
  16 H :    0.271901
  17 H :    0.244997
  18 H :    0.260136
  19 C :    0.377219
  20 C :   -0.771224
  21 H :    0.186058
  22 H :    0.253924
  23 C :   -0.685965
  24 H :    0.203043
  25 C :    0.448309
  26 H :    0.200997
  27 C :   -0.701787
  28 H :    0.231579
  29 C :   -0.871397
  30 H :    0.219013
  31 C :   -0.386452
  32 H :    0.253106
  33 C :   -0.549131
  34 H :    0.183042
  35 C :    2.379008
  36 O :   -1.124951
  37 O :   -0.912562
  38 C :   -1.016775
  39 H :    0.446469
  40 H :    0.362244
  41 H :    0.405374
  42 H :    0.264771
  43 H :    0.208257
  44 H :    0.333718
  45 H :    0.265547
Sum of atomic charges:    0.0000000

LOEWDIN ATOMIC CHARGES
----------------------
   0 C :    0.340739
   1 H :   -0.307970
   2 H :   -0.241032
   3 C :   -0.048302
   4 C :    0.513425
   5 H :   -0.234336
   6 H :   -0.366930
   7 C :   -0.041216
   8 H :   -0.252762
   9 N :    0.537789
  10 C :   -0.103404
  11 C :    0.827063
  12 C :    0.347058
  13 C :    0.392571
  14 C :   -0.039053
  15 C :    0.903144
  16 H :   -0.291139
  17 H :   -0.312084
  18 H :   -0.291754
  19 C :   -0.016919
  20 C :    0.356655
  21 H :   -0.278165
  22 H :   -0.237115
  23 C :    0.525031
  24 H :   -0.255933
  25 C :   -0.036897
  26 H :   -0.273327
  27 C :    0.358349
  28 H :   -0.312275
  29 C :    0.362515
  30 H :   -0.325996
  31 C :    0.350915
  32 H :   -0.319873
  33 C :    0.359951
  34 H :   -0.319032
  35 C :   -1.156307
  36 O :    0.757011
  37 O :    0.867694
  38 C :    0.584729
  39 H :   -0.311537
  40 H :   -0.312690
  41 H :   -0.318224
  42 H :   -0.329055
  43 H :   -0.324384
  44 H :   -0.355589
  45 H :   -0.371339

  Mayer bond orders larger than 0.100000
B(  0-C ,  1-H ) :   1.0655 B(  0-C ,  2-H ) :   0.9251 B(  0-C ,  3-C ) :   0.6615
B(  0-C ,  9-N ) :   0.9945 B(  0-C , 10-C ) :   0.1132 B(  0-C , 11-C ) :  -0.1934
B(  0-C , 14-C ) :  -0.2496 B(  1-H ,  3-C ) :  -0.1088 B(  2-H ,  3-C ) :   0.1258
B(  3-C , 10-C ) :  -0.3884 B(  3-C , 11-C ) :   1.7894 B(  3-C , 14-C ) :   0.3982
B(  3-C , 42-H ) :  -0.1838 B(  3-C , 43-H ) :  -0.1206 B(  4-C ,  5-H ) :   0.8251
B(  4-C ,  6-H ) :   0.9400 B(  4-C ,  7-C ) :   0.8396 B(  4-C , 10-C ) :  -0.1303
B(  4-C , 14-C ) :   0.6356 B(  4-C , 36-O ) :  -0.1016 B(  4-C , 37-O ) :  -0.1421
B(  5-H ,  6-H ) :  -0.1234 B(  5-H ,  9-N ) :  -0.1137 B(  5-H , 14-C ) :   0.1488
B(  6-H , 10-C ) :   0.1172 B(  6-H , 14-C ) :  -0.1226 B(  6-H , 29-C ) :  -0.1243
B(  6-H , 36-O ) :   0.1575 B(  6-H , 37-O ) :   0.1079 B(  7-C ,  8-H ) :   0.9547
B(  7-C ,  9-N ) :   0.4503 B(  7-C , 14-C ) :  -0.1349 B(  7-C , 19-C ) :  -0.2069
B(  7-C , 20-C ) :  -0.2234 B(  7-C , 25-C ) :  -0.3969 B(  7-C , 29-C ) :  -0.7326
B(  9-N , 14-C ) :   0.1280 B(  9-N , 19-C ) :  -0.1096 B(  9-N , 20-C ) :   0.7584
B(  9-N , 22-H ) :  -0.1094 B( 10-C , 11-C ) :   0.2441 B( 10-C , 12-C ) :   1.1127
B( 10-C , 13-C ) :  -0.3302 B( 10-C , 14-C ) :   1.2635 B( 10-C , 35-C ) :   1.1219
B( 10-C , 36-O ) :   0.3253 B( 10-C , 37-O ) :   0.3165 B( 11-C , 14-C ) :  -0.6687
B( 11-C , 42-H ) :   1.1185 B( 11-C , 43-H ) :   1.1575 B( 12-C , 13-C ) :   1.4661
B( 12-C , 14-C ) :  -0.3904 B( 12-C , 15-C ) :  -0.2357 B( 12-C , 17-H ) :   0.1011
B( 12-C , 35-C ) :  -0.1620 B( 12-C , 45-H ) :   0.8867 B( 13-C , 15-C ) :   0.8969
B( 13-C , 16-H ) :  -0.1389 B( 13-C , 44-H ) :   0.8537 B( 15-C , 16-H ) :   1.0126
B( 15-C , 17-H ) :   0.9808 B( 15-C , 18-H ) :   0.9798 B( 19-C , 20-C ) :   0.1367
B( 19-C , 23-C ) :  -0.1135 B( 19-C , 25-C ) :   1.0245 B( 19-C , 27-C ) :  -0.5333
B( 19-C , 29-C ) :   1.0059 B( 19-C , 30-H ) :  -0.1023 B( 19-C , 33-C ) :  -0.3842
B( 20-C , 21-H ) :   1.0402 B( 20-C , 22-H ) :   0.9991 B( 20-C , 23-C ) :   1.1520
B( 23-C , 24-H ) :   1.0587 B( 23-C , 25-C ) :   0.3431 B( 23-C , 26-H ) :   1.1420
B( 25-C , 26-H ) :  -0.1726 B( 25-C , 27-C ) :   1.0138 B( 25-C , 28-H ) :  -0.1058
B( 25-C , 31-C ) :  -0.2939 B( 27-C , 28-H ) :   1.0523 B( 27-C , 29-C ) :   0.1213
B( 27-C , 31-C ) :   1.2891 B( 27-C , 32-H ) :  -0.2123 B( 27-C , 33-C ) :   0.1924
B( 29-C , 30-H ) :   1.0694 B( 29-C , 33-C ) :   1.2149 B( 29-C , 34-H ) :  -0.1782
B( 31-C , 32-H ) :   1.1672 B( 31-C , 33-C ) :   1.2665 B( 32-H , 33-C ) :  -0.1540
B( 33-C , 34-H ) :   1.2101 B( 35-C , 36-O ) :   0.2862 B( 35-C , 37-O ) :   0.5385
B( 35-C , 38-C ) :  -0.2352 B( 36-O , 37-O ) :   0.1724 B( 37-O , 38-C ) :   1.0544
B( 38-C , 39-H ) :   0.8190 B( 38-C , 40-H ) :   0.8580 B( 38-C , 41-H ) :   0.8808

MP2 TOTAL ENERGY:     -979.468256421 Eh
FINAL SINGLE POINT ENERGY      -979.468256421360

DIPOLE MOMENT
-------------
                                X             Y             Z
Electronic contribution:     -5.30936       4.99778       3.61578
Nuclear contribution   :      4.92160      -5.36614      -4.52818
                        -----------------------------------------
Total Dipole Moment    :     -0.38775      -0.36836      -0.91240
                        -----------------------------------------
Magnitude (a.u.)       :      1.05760
Magnitude (Debye)      :      2.68820

Rotational constants in cm-1:     0.014919     0.005502     0.004227
Rotational constants in MHz :   447.272305   164.939219   126.713406

                             ****ORCA TERMINATED NORMALLY****
TOTAL RUN TIME: 0 days 12 hours 51 minutes 4 seconds 597 msec
