                         Program Version 4.2.1 -  RELEASE  -
|  1> %pal
|  2>  nprocs 320
|  3> end
|  4> !RI-MP2 aug-cc-pVQZ aug-cc-pVQZ/C TightSCF MORead Slowconv
|  5> %maxcore 4500
|  6> %moinp "05_19TS.gbw"
|  7> %scf
|  8> DIISMaxEq 15
|  9> directresetfreq 10
| 10> end
| 11> *xyzfile 1 1  05_19TS.xyz
| 12>
| 13>
| 14>                          ****END OF INPUT****

CARTESIAN COORDINATES (ANGSTROEM)
---------------------------------
  C      1.608758   -0.329377   -0.311197
  C      3.148128    1.833182   -0.328583
  C      4.310381    0.898517   -0.683018
  C      4.142307   -0.499353   -0.117071
  C      2.866613   -1.113616   -0.682337
  H      4.393134    0.837364   -1.773361
  H      5.229919    1.356008   -0.312247
  H      4.069862   -0.462657    0.971069
  H      2.953579   -1.165404   -1.771902
  H      2.755802   -2.131694   -0.308322
  N      1.858619    1.119661   -0.564146
  O      0.817432    1.862181   -0.605850
  C      0.444866   -0.765263   -1.200277
  H      0.330309   -1.846809   -1.120161
  H     -0.493895   -0.300088   -0.902494
  H      0.639609   -0.516739   -2.244114
  C      1.240793   -0.539128    1.166405
  H      0.426549    0.120159    1.471833
  H      0.897380   -1.565918    1.295593
  H      2.083320   -0.389916    1.837890
  C      3.181861    3.056534   -1.243400
  H      2.428153    3.791437   -0.965185
  H      4.162098    3.528280   -1.165325
  H      3.019773    2.768524   -2.282718
  C      3.217874    2.283649    1.138565
  H      4.097900    2.914046    1.270754
  H      2.349207    2.888388    1.406247
  H      3.294123    1.450098    1.834042
  C     -1.426157    3.586260    0.484784
  C     -1.907454    2.353500    0.646000
  C     -0.637750    2.673920    1.213692
  H     -1.546407    4.593897    0.125388
  H      0.357149    2.170360    0.427879
  H     -0.183310    2.648165    2.202440
  C     -2.919707    1.364432    0.449226
  C     -4.001037    1.628831   -0.397844
  C     -2.820354    0.130053    1.098098
  C     -4.967694    0.663353   -0.598362
  H     -4.076137    2.587047   -0.896256
  C     -3.791553   -0.832233    0.899914
  H     -1.986808   -0.067754    1.759735
  C     -4.857252   -0.561678    0.050179
  H     -5.810177    0.857208   -1.248642
  H     -3.730905   -1.786874    1.405172
  C     -5.883438   -1.635356   -0.211971
  F     -7.076443   -1.114153   -0.516774
  F     -5.503371   -2.406297   -1.244506
  F     -6.040285   -2.435259    0.849120
  N      5.301593   -1.317724   -0.404216
  C      5.551443   -2.431807    0.346839
  C      6.770288   -3.232748   -0.025170
  H      7.428551   -3.285413    0.842377
  H      6.460846   -4.250855   -0.262724
  H      7.322099   -2.818031   -0.868955
  O      4.817197   -2.739635    1.267137
  H      5.885133   -1.105405   -1.197156

 Total Charge           Charge          ....    1
 Multiplicity           Mult            ....    1
 Number of Electrons    NEL             ....  210
 Basis Dimension        Dim             .... 3528

ORBITAL ENERGIES
----------------

  NO   OCC          E(Eh)            E(eV)
   0   2.0000     -26.425740      -719.0809
   1   2.0000     -26.425586      -719.0768
   2   2.0000     -26.421737      -718.9720
   3   2.0000     -20.790443      -565.7367
   4   2.0000     -20.592919      -560.3618
   5   2.0000     -15.771130      -429.1543
   6   2.0000     -15.668542      -426.3627
   7   2.0000     -11.604579      -315.7766
   8   2.0000     -11.468063      -312.0619
   9   2.0000     -11.464073      -311.9533
  10   2.0000     -11.453306      -311.6603
  11   2.0000     -11.427970      -310.9709
  12   2.0000     -11.401523      -310.2512
  13   2.0000     -11.399375      -310.1928
  14   2.0000     -11.395282      -310.0814
  15   2.0000     -11.393615      -310.0360
  16   2.0000     -11.389025      -309.9111
  17   2.0000     -11.388369      -309.8933
  18   2.0000     -11.375056      -309.5310
  19   2.0000     -11.374505      -309.5160
  20   2.0000     -11.366067      -309.2864
  21   2.0000     -11.337933      -308.5208
  22   2.0000     -11.334637      -308.4312
  23   2.0000     -11.333145      -308.3906
  24   2.0000     -11.325091      -308.1714
  25   2.0000     -11.325016      -308.1694
  26   2.0000     -11.323990      -308.1414
  27   2.0000     -11.307123      -307.6825
  28   2.0000      -1.819445       -49.5096
  29   2.0000      -1.725476       -46.9526
  30   2.0000      -1.720818       -46.8258
  31   2.0000      -1.624491       -44.2046
  32   2.0000      -1.464655       -39.8553
  33   2.0000      -1.403106       -38.1805
  34   2.0000      -1.329476       -36.1769
  35   2.0000      -1.312695       -35.7203
  36   2.0000      -1.291700       -35.1489
  37   2.0000      -1.221788       -33.2466
  38   2.0000      -1.208245       -32.8780
  39   2.0000      -1.168430       -31.7946
  40   2.0000      -1.155163       -31.4336
  41   2.0000      -1.111215       -30.2377
  42   2.0000      -1.088488       -29.6193
  43   2.0000      -1.072787       -29.1920
  44   2.0000      -1.062630       -28.9156
  45   2.0000      -1.052577       -28.6421
  46   2.0000      -1.044682       -28.4273
  47   2.0000      -1.011744       -27.5309
  48   2.0000      -1.000864       -27.2349
  49   2.0000      -0.979543       -26.6547
  50   2.0000      -0.949213       -25.8294
  51   2.0000      -0.936078       -25.4720
  52   2.0000      -0.933377       -25.3985
  53   2.0000      -0.912035       -24.8177
  54   2.0000      -0.909626       -24.7522
  55   2.0000      -0.904942       -24.6247
  56   2.0000      -0.896199       -24.3868
  57   2.0000      -0.880025       -23.9467
  58   2.0000      -0.876676       -23.8556
  59   2.0000      -0.809756       -22.0346
  60   2.0000      -0.806551       -21.9474
  61   2.0000      -0.801429       -21.8080
  62   2.0000      -0.800053       -21.7705
  63   2.0000      -0.797905       -21.7121
  64   2.0000      -0.780259       -21.2319
  65   2.0000      -0.773976       -21.0610
  66   2.0000      -0.771732       -20.9999
  67   2.0000      -0.756287       -20.5796
  68   2.0000      -0.754790       -20.5389
  69   2.0000      -0.751973       -20.4622
  70   2.0000      -0.746050       -20.3010
  71   2.0000      -0.737576       -20.0705
  72   2.0000      -0.731760       -19.9122
  73   2.0000      -0.731083       -19.8938
  74   2.0000      -0.720957       -19.6182
  75   2.0000      -0.717748       -19.5309
  76   2.0000      -0.705566       -19.1994
  77   2.0000      -0.697665       -18.9844
  78   2.0000      -0.693103       -18.8603
  79   2.0000      -0.685988       -18.6667
  80   2.0000      -0.679525       -18.4908
  81   2.0000      -0.678983       -18.4761
  82   2.0000      -0.674597       -18.3567
  83   2.0000      -0.668061       -18.1789
  84   2.0000      -0.660499       -17.9731
  85   2.0000      -0.651427       -17.7262
  86   2.0000      -0.648563       -17.6483
  87   2.0000      -0.643616       -17.5137
  88   2.0000      -0.639465       -17.4007
  89   2.0000      -0.636479       -17.3195
  90   2.0000      -0.634376       -17.2623
  91   2.0000      -0.633030       -17.2256
  92   2.0000      -0.624752       -17.0004
  93   2.0000      -0.615675       -16.7534
  94   2.0000      -0.606942       -16.5157
  95   2.0000      -0.593014       -16.1367
  96   2.0000      -0.592383       -16.1196
  97   2.0000      -0.588405       -16.0113
  98   2.0000      -0.567517       -15.4429
  99   2.0000      -0.564947       -15.3730
 100   2.0000      -0.504329       -13.7235
 101   2.0000      -0.503872       -13.7111
 102   2.0000      -0.482276       -13.1234
 103   2.0000      -0.478239       -13.0135
 104   2.0000      -0.436724       -11.8839
 105   0.0000      -0.137926        -3.7532
 106   0.0000      -0.079313        -2.1582
 107   0.0000      -0.065797        -1.7904
 108   0.0000      -0.055312        -1.5051
 109   0.0000      -0.049166        -1.3379

MULLIKEN ATOMIC CHARGES
-----------------------
   0 C :    1.568391
   1 C :    1.170577
   2 C :   -0.809658
   3 C :    1.731567
   4 C :   -1.093896
   5 H :    0.167163
   6 H :    0.106173
   7 H :    0.183849
   8 H :    0.259496
   9 H :    0.183545
  10 N :    1.492230
  11 O :   -1.516455
  12 C :   -1.418329
  13 H :    0.190128
  14 H :    0.399357
  15 H :    0.243817
  16 C :   -1.467251
  17 H :    0.372464
  18 H :    0.121116
  19 H :    0.306940
  20 C :   -1.148568
  21 H :    0.221588
  22 H :    0.241697
  23 H :    0.237941
  24 C :   -1.204932
  25 H :    0.119882
  26 H :    0.217600
  27 H :    0.273616
  28 C :   -0.810108
  29 C :    0.151054
  30 C :   -0.125374
  31 H :    0.427068
  32 H :    0.307362
  33 H :    0.321632
  34 C :    1.010019
  35 C :   -0.516978
  36 C :   -0.156240
  37 C :   -0.267782
  38 H :    0.251750
  39 C :   -0.139858
  40 H :    0.404573
  41 C :   -0.770435
  42 H :    0.283898
  43 H :    0.279612
  44 C :    2.300773
  45 F :   -0.692597
  46 F :   -0.640828
  47 F :   -0.672784
  48 N :   -1.063726
  49 C :    1.000620
  50 C :   -0.907711
  51 H :    0.288084
  52 H :    0.285193
  53 H :    0.213996
  54 O :   -0.934494
  55 H :    0.023233
Sum of atomic charges:    1.0000000

LOEWDIN ATOMIC CHARGES
----------------------
   0 C :   -0.369274
   1 C :   -0.376673
   2 C :    0.533669
   3 C :   -0.021116
   4 C :    0.532186
   5 H :   -0.254576
   6 H :   -0.243634
   7 H :   -0.342044
   8 H :   -0.250269
   9 H :   -0.268246
  10 N :    0.184829
  11 O :    1.081133
  12 C :    0.923419
  13 H :   -0.257814
  14 H :   -0.293726
  15 H :   -0.254448
  16 C :    0.946864
  17 H :   -0.309994
  18 H :   -0.247407
  19 H :   -0.283058
  20 C :    0.922192
  21 H :   -0.277762
  22 H :   -0.260651
  23 H :   -0.258172
  24 C :    0.945929
  25 H :   -0.252918
  26 H :   -0.285579
  27 H :   -0.286324
  28 C :    0.591799
  29 C :    0.034055
  30 C :    0.492327
  31 H :   -0.238198
  32 H :   -0.939556
  33 H :   -0.202372
  34 C :   -0.060489
  35 C :    0.379474
  36 C :    0.362460
  37 C :    0.366437
  38 H :   -0.291469
  39 C :    0.367345
  40 H :   -0.307754
  41 C :   -0.182623
  42 H :   -0.316182
  43 H :   -0.314558
  44 C :   -2.137687
  45 F :    0.793385
  46 F :    0.774286
  47 F :    0.791715
  48 N :    0.878455
  49 C :   -0.807346
  50 C :    0.913261
  51 H :   -0.290672
  52 H :   -0.290255
  53 H :   -0.304625
  54 O :    0.741279
  55 H :   -0.479026

  Mayer bond orders larger than 0.100000
B(  0-C ,  1-C ) :   0.1549 B(  0-C ,  4-C ) :   0.1531 B(  0-C ,  8-H ) :  -0.1280
B(  0-C , 10-N ) :   0.7989 B(  0-C , 13-H ) :  -0.2409 B(  0-C , 14-H ) :  -0.2198
B(  0-C , 15-H ) :  -0.2440 B(  0-C , 16-C ) :   0.4266 B(  0-C , 17-H ) :  -0.2014
B(  0-C , 19-H ) :  -0.1142 B(  1-C ,  2-C ) :   0.5311 B(  1-C ,  7-H ) :   0.1017
B(  1-C , 10-N ) :   0.7750 B(  1-C , 21-H ) :  -0.2063 B(  1-C , 22-H ) :  -0.2117
B(  1-C , 23-H ) :  -0.2413 B(  1-C , 24-C ) :   0.4148 B(  1-C , 26-H ) :  -0.1839
B(  1-C , 27-H ) :  -0.1656 B(  2-C ,  3-C ) :   0.2882 B(  2-C ,  4-C ) :  -0.1778
B(  2-C ,  5-H ) :   1.2171 B(  2-C ,  6-H ) :   1.1917 B(  2-C , 48-N ) :   0.1164
B(  3-C ,  4-C ) :   0.8156 B(  3-C ,  5-H ) :  -0.1465 B(  3-C ,  6-H ) :  -0.1448
B(  3-C ,  7-H ) :   1.0560 B(  3-C , 48-N ) :  -1.0446 B(  3-C , 54-O ) :   0.1113
B(  3-C , 55-H ) :  -0.4000 B(  4-C ,  8-H ) :   1.1130 B(  4-C ,  9-H ) :   1.1648
B(  4-C , 48-N ) :   0.5343 B(  9-H , 54-O ) :  -0.1017 B( 10-N , 11-O ) :  -0.2952
B( 10-N , 24-C ) :  -0.1206 B( 10-N , 30-C ) :   0.1881 B( 11-O , 12-C ) :  -0.1024
B( 11-O , 28-C ) :   0.1717 B( 11-O , 32-H ) :   0.2101 B( 12-C , 13-H ) :   1.1792
B( 12-C , 14-H ) :   0.9405 B( 12-C , 15-H ) :   1.2098 B( 16-C , 17-H ) :   0.8424
B( 16-C , 18-H ) :   1.1538 B( 16-C , 19-H ) :   1.1031 B( 20-C , 21-H ) :   1.1120
B( 20-C , 22-H ) :   1.1215 B( 20-C , 23-H ) :   1.1653 B( 20-C , 24-C ) :   0.1267
B( 24-C , 25-H ) :   1.1210 B( 24-C , 26-H ) :   1.1004 B( 24-C , 27-H ) :   1.0794
B( 28-C , 29-C ) :   1.7133 B( 28-C , 30-C ) :   1.1572 B( 28-C , 31-H ) :   0.8554
B( 28-C , 34-C ) :  -0.5439 B( 29-C , 30-C ) :   0.2620 B( 29-C , 32-H ) :   0.2534
B( 29-C , 33-H ) :  -0.1068 B( 29-C , 34-C ) :   0.3882 B( 29-C , 35-C ) :  -0.4334
B( 29-C , 36-C ) :  -0.6012 B( 30-C , 32-H ) :   0.4132 B( 30-C , 33-H ) :   1.0535
B( 30-C , 34-C ) :  -0.1022 B( 34-C , 35-C ) :   1.1088 B( 34-C , 36-C ) :   0.7216
B( 34-C , 37-C ) :  -0.3470 B( 34-C , 39-C ) :  -0.4466 B( 34-C , 40-H ) :  -0.1795
B( 34-C , 41-C ) :  -0.1404 B( 35-C , 37-C ) :   1.4428 B( 35-C , 38-H ) :   1.0598
B( 35-C , 39-C ) :   0.1699 B( 36-C , 37-C ) :   0.1397 B( 36-C , 39-C ) :   1.2341
B( 36-C , 40-H ) :   0.8949 B( 36-C , 41-C ) :  -0.1409 B( 37-C , 38-H ) :  -0.1428
B( 37-C , 41-C ) :   0.9347 B( 37-C , 42-H ) :   0.9948 B( 37-C , 44-C ) :  -0.2219
B( 39-C , 40-H ) :  -0.1326 B( 39-C , 41-C ) :   0.8131 B( 39-C , 43-H ) :   1.0085
B( 39-C , 44-C ) :  -0.2955 B( 41-C , 42-H ) :  -0.1405 B( 41-C , 43-H ) :  -0.1322
B( 41-C , 44-C ) :   1.2417 B( 41-C , 45-F ) :   0.1738 B( 41-C , 47-F ) :   0.1518
B( 44-C , 45-F ) :   0.2252 B( 44-C , 46-F ) :   0.3372 B( 44-C , 47-F ) :   0.2400
B( 48-N , 49-C ) :   1.1184 B( 48-N , 54-O ) :   0.1742 B( 48-N , 55-H ) :   1.4059
B( 49-C , 50-C ) :   0.7394 B( 49-C , 53-H ) :  -0.1608 B( 49-C , 54-O ) :   0.9497
B( 50-C , 51-H ) :   0.9769 B( 50-C , 52-H ) :   0.9509 B( 50-C , 53-H ) :   1.0478

MP2 TOTAL ENERGY:    -1374.147763560 Eh
FINAL SINGLE POINT ENERGY     -1374.147763560497

DIPOLE MOMENT
-------------
                                X             Y             Z
Electronic contribution:    -69.87796     -12.71578      -0.57267
Nuclear contribution   :     71.06376      16.63438       0.43513
                        -----------------------------------------
Total Dipole Moment    :      1.18580       3.91860      -0.13754
                        -----------------------------------------
Magnitude (a.u.)       :      4.09639
Magnitude (Debye)      :     10.41220

Rotational constants in cm-1:     0.009602     0.002335     0.002003
Rotational constants in MHz :   287.858058    69.994622    60.057660

                             ****ORCA TERMINATED NORMALLY****
TOTAL RUN TIME: 0 days 5 hours 2 minutes 32 seconds 214 msec
