                         Program Version 4.2.1 -  RELEASE  -
|  1> %pal
|  2>  nprocs 32
|  3> end
|  4> !RI-MP2 aug-cc-pVQZ aug-cc-pVQZ/C TightSCF
|  5> %maxcore 4500
|  6> *xyzfile -1 1  07_8P1.xyz
|  7>
|  8>
|  9>                          ****END OF INPUT****

CARTESIAN COORDINATES (ANGSTROEM)
---------------------------------
  N     -1.400263   -1.037785    1.106694
  C     -1.746027    0.214197    0.428485
  C     -3.223914    0.192393    0.058168
  O     -3.852416    1.165689   -0.264489
  O     -3.757062   -1.034447    0.080238
  C     -0.899965    0.370466   -0.861540
  H     -1.204579   -0.410297   -1.567122
  H     -1.174126    1.329040   -1.309218
  C      0.572106    0.261779   -0.590701
  C      1.287807   -0.907860   -0.874257
  H      0.777625   -1.720890   -1.390032
  C      2.617597   -1.063575   -0.534396
  H      3.145240   -1.979980   -0.778341
  C      3.365932   -0.037287    0.140833
  C      2.603516    1.158259    0.405895
  H      3.125697    1.972736    0.897920
  C      1.277678    1.286246    0.056648
  H      0.759697    2.216329    0.288088
  O      4.575926   -0.164274    0.467259
  H     -1.574419    1.093221    1.054592
  H     -3.026057   -1.601185    0.426814
  H     -1.449645   -0.937110    2.113373
  H     -0.437555   -1.280820    0.878187

 Total Charge           Charge          ....   -1
 Multiplicity           Mult            ....    1
 Number of Electrons    NEL             ....   96
 Basis Dimension        Dim             .... 1500

ORBITAL ENERGIES
----------------

  NO   OCC          E(Eh)            E(eV)
   0   2.0000     -20.496807      -557.7465
   1   2.0000     -20.436627      -556.1089
   2   2.0000     -20.306503      -552.5680
   3   2.0000     -15.466676      -420.8696
   4   2.0000     -11.272450      -306.7390
   5   2.0000     -11.175947      -304.1130
   6   2.0000     -11.127232      -302.7874
   7   2.0000     -11.125228      -302.7328
   8   2.0000     -11.096425      -301.9491
   9   2.0000     -11.095328      -301.9192
  10   2.0000     -11.074887      -301.3630
  11   2.0000     -11.060882      -300.9819
  12   2.0000     -11.058005      -300.9036
  13   2.0000      -1.355851       -36.8946
  14   2.0000      -1.258657       -34.2498
  15   2.0000      -1.143263       -31.1098
  16   2.0000      -1.113195       -30.2916
  17   2.0000      -0.994811       -27.0702
  18   2.0000      -0.918957       -25.0061
  19   2.0000      -0.864049       -23.5120
  20   2.0000      -0.838564       -22.8185
  21   2.0000      -0.756565       -20.5872
  22   2.0000      -0.703659       -19.1475
  23   2.0000      -0.677052       -18.4235
  24   2.0000      -0.635168       -17.2838
  25   2.0000      -0.622169       -16.9301
  26   2.0000      -0.596297       -16.2261
  27   2.0000      -0.570170       -15.5151
  28   2.0000      -0.535306       -14.5664
  29   2.0000      -0.519601       -14.1391
  30   2.0000      -0.508098       -13.8260
  31   2.0000      -0.496627       -13.5139
  32   2.0000      -0.479589       -13.0503
  33   2.0000      -0.462417       -12.5830
  34   2.0000      -0.432607       -11.7718
  35   2.0000      -0.430140       -11.7047
  36   2.0000      -0.415375       -11.3029
  37   2.0000      -0.405566       -11.0360
  38   2.0000      -0.376426       -10.2431
  39   2.0000      -0.371947       -10.1212
  40   2.0000      -0.367556       -10.0017
  41   2.0000      -0.350051        -9.5254
  42   2.0000      -0.342670        -9.3245
  43   2.0000      -0.319711        -8.6998
  44   2.0000      -0.289717        -7.8836
  45   2.0000      -0.217758        -5.9255
  46   2.0000      -0.200699        -5.4613
  47   2.0000      -0.107910        -2.9364
  48   0.0000       0.095936         2.6105
  49   0.0000       0.102186         2.7806
  50   0.0000       0.107700         2.9307
  51   0.0000       0.111627         3.0375
  52   0.0000       0.115854         3.1525

MULLIKEN ATOMIC CHARGES
-----------------------
   0 N :   -0.720569
   1 C :    0.047345
   2 C :    1.245560
   3 O :   -0.884006
   4 O :   -0.983180
   5 C :   -0.548717
   6 H :    0.255251
   7 H :    0.288413
   8 C :    0.704495
   9 C :   -0.553094
  10 H :    0.151772
  11 C :   -0.713201
  12 H :    0.167102
  13 C :    1.337515
  14 C :   -0.710024
  15 H :    0.165413
  16 C :   -0.582162
  17 H :    0.207008
  18 O :   -1.045584
  19 H :    0.428756
  20 H :    0.387055
  21 H :    0.141099
  22 H :    0.213750
Sum of atomic charges:   -1.0000000

LOEWDIN ATOMIC CHARGES
----------------------
   0 N :    1.306861
   1 C :   -0.066189
   2 C :   -1.050653
   3 O :    0.660086
   4 O :    1.244399
   5 C :    0.462742
   6 H :   -0.292275
   7 H :   -0.280510
   8 C :   -0.132825
   9 C :    0.275249
  10 H :   -0.322922
  11 C :    0.262975
  12 H :   -0.369011
  13 C :   -0.842946
  14 C :    0.263923
  15 H :   -0.367736
  16 C :    0.285107
  17 H :   -0.323608
  18 O :    0.537763
  19 H :   -0.292839
  20 H :   -0.973257
  21 H :   -0.441458
  22 H :   -0.542877

  Mayer bond orders larger than 0.100000
B(  0-N ,  1-C ) :   0.6448 B(  0-N , 20-H ) :   0.1668 B(  0-N , 21-H ) :   1.0713
B(  0-N , 22-H ) :   0.9583 B(  1-C ,  2-C ) :   1.1276 B(  1-C ,  3-O ) :   0.2409
B(  1-C ,  5-C ) :   0.8548 B(  1-C , 19-H ) :   0.7428 B(  2-C ,  3-O ) :   1.2237
B(  2-C ,  4-O ) :   0.6533 B(  3-O ,  4-O ) :   0.1541 B(  4-O ,  5-C ) :   0.1029
B(  4-O , 20-H ) :   0.7175 B(  5-C ,  6-H ) :   1.0396 B(  5-C ,  7-H ) :   0.9252
B(  5-C ,  8-C ) :   0.6921 B(  5-C ,  9-C ) :  -0.1591 B(  5-C , 16-C ) :  -0.1570
B(  7-H ,  8-C ) :  -0.1004 B(  8-C ,  9-C ) :   1.0010 B(  8-C , 11-C ) :  -0.2710
B(  8-C , 14-C ) :  -0.3209 B(  8-C , 16-C ) :   0.9880 B(  9-C , 10-H ) :   1.1029
B(  9-C , 11-C ) :   1.3378 B(  9-C , 12-H ) :  -0.1415 B(  9-C , 14-C ) :   0.1679
B( 11-C , 12-H ) :   1.1258 B( 11-C , 13-C ) :   1.1953 B( 11-C , 14-C ) :   0.1178
B( 11-C , 16-C ) :   0.1213 B( 11-C , 18-O ) :   0.4245 B( 12-H , 18-O ) :   0.1026
B( 13-C , 14-C ) :   1.1932 B( 14-C , 15-H ) :   1.1207 B( 14-C , 16-C ) :   1.3388
B( 14-C , 17-H ) :  -0.1013 B( 14-C , 18-O ) :   0.3880 B( 15-H , 16-C ) :  -0.1409
B( 16-C , 17-H ) :   1.0485

MP2 TOTAL ENERGY:     -628.538266847 Eh
FINAL SINGLE POINT ENERGY      -628.538266846646

DIPOLE MOMENT
-------------
                                X             Y             Z
Electronic contribution:     -2.21004       0.81858      -0.17891
Nuclear contribution   :     -1.10324      -1.31258       0.61909
                        -----------------------------------------
Total Dipole Moment    :     -3.31328      -0.49400       0.44018
                        -----------------------------------------
Magnitude (a.u.)       :      3.37870
Magnitude (Debye)      :      8.58797

Rotational constants in cm-1:     0.081157     0.011672     0.011094
Rotational constants in MHz :  2433.018309   349.906057   332.578007

                             ****ORCA TERMINATED NORMALLY****
TOTAL RUN TIME: 0 days 1 hours 32 minutes 33 seconds 55 msec
