                         Program Version 4.2.1 -  RELEASE  -
|  1> %pal
|  2>  nprocs 32
|  3> end
|  4> !RI-MP2 aug-cc-pVQZ aug-cc-pVQZ/C TightSCF
|  5> %maxcore 4500
|  6> *xyzfile 0 2  01_10P.xyz
|  7>
|  8>
|  9>                          ****END OF INPUT****

CARTESIAN COORDINATES (ANGSTROEM)
---------------------------------
  N     -0.254725    0.601302   -0.238062
  C     -1.044349   -0.455355    0.104983
  C     -0.162277   -1.690337    0.158865
  C      1.128822   -1.265313   -0.537360
  H     -0.667428   -2.533086   -0.309893
  H     -0.006642   -1.942967    1.210868
  C      1.161190    0.280141   -0.361715
  H      1.077288   -1.497493   -1.602659
  H      2.022447   -1.735797   -0.130440
  C      1.954023    0.735575    0.813547
  O     -2.233292   -0.402322    0.340484
  C     -0.742158    1.958527   -0.279253
  H     -1.822256    1.929412   -0.147214
  H     -0.507562    2.421962   -1.241218
  H     -0.299954    2.563650    0.517220
  H      3.021961    0.889453    0.726916
  H      1.496820    0.790877    1.793818
  H      1.563221    0.744024   -1.269235

 Total Charge           Charge          ....    0
 Multiplicity           Mult            ....    2
 Number of Electrons    NEL             ....   61
 Basis Dimension        Dim             .... 1100

ORBITAL ENERGIES
----------------
                 SPIN UP ORBITALS
  NO   OCC          E(Eh)            E(eV)
   0   1.0000     -20.507042      -558.0250
   1   1.0000     -15.579827      -423.9486
   2   1.0000     -11.336673      -308.4865
   3   1.0000     -11.281443      -306.9837
   4   1.0000     -11.254199      -306.2423
   5   1.0000     -11.244542      -305.9796
   6   1.0000     -11.241943      -305.9088
   7   1.0000     -11.236040      -305.7482
   8   1.0000      -1.376418       -37.4542
   9   1.0000      -1.264032       -34.3961
  10   1.0000      -1.086298       -29.5597
  11   1.0000      -1.030630       -28.0449
  12   1.0000      -0.942617       -25.6499
  13   1.0000      -0.908645       -24.7255
  14   1.0000      -0.819872       -22.3099
  15   1.0000      -0.732226       -19.9249
  16   1.0000      -0.690920       -18.8009
  17   1.0000      -0.671026       -18.2596
  18   1.0000      -0.643100       -17.4996
  19   1.0000      -0.611473       -16.6390
  20   1.0000      -0.595353       -16.2004
  21   1.0000      -0.574471       -15.6321
  22   1.0000      -0.565793       -15.3960
  23   1.0000      -0.553898       -15.0723
  24   1.0000      -0.536052       -14.5867
  25   1.0000      -0.526847       -14.3362
  26   1.0000      -0.517362       -14.0781
  27   1.0000      -0.482363       -13.1258
  28   1.0000      -0.410290       -11.1646
  29   1.0000      -0.378034       -10.2868
  30   1.0000      -0.368290       -10.0217
  31   0.0000       0.020899         0.5687
  32   0.0000       0.029148         0.7932
  33   0.0000       0.030104         0.8192
  34   0.0000       0.034467         0.9379
  35   0.0000       0.045917         1.2495

                 SPIN DOWN ORBITALS
  NO   OCC          E(Eh)            E(eV)
   0   1.0000     -20.507076      -558.0259
   1   1.0000     -15.579299      -423.9343
   2   1.0000     -11.336699      -308.4873
   3   1.0000     -11.284699      -307.0723
   4   1.0000     -11.254134      -306.2405
   5   1.0000     -11.239396      -305.8395
   6   1.0000     -11.236114      -305.7502
   7   1.0000     -11.220960      -305.3379
   8   1.0000      -1.376338       -37.4521
   9   1.0000      -1.262153       -34.3449
  10   1.0000      -1.080289       -29.3962
  11   1.0000      -1.002572       -27.2814
  12   1.0000      -0.941583       -25.6218
  13   1.0000      -0.869800       -23.6685
  14   1.0000      -0.803736       -21.8708
  15   1.0000      -0.729356       -19.8468
  16   1.0000      -0.686592       -18.6831
  17   1.0000      -0.665410       -18.1067
  18   1.0000      -0.641627       -17.4596
  19   1.0000      -0.607639       -16.5347
  20   1.0000      -0.588988       -16.0272
  21   1.0000      -0.569028       -15.4840
  22   1.0000      -0.562245       -15.2995
  23   1.0000      -0.550455       -14.9787
  24   1.0000      -0.530848       -14.4451
  25   1.0000      -0.524791       -14.2803
  26   1.0000      -0.499895       -13.6028
  27   1.0000      -0.479729       -13.0541
  28   1.0000      -0.409627       -11.1465
  29   1.0000      -0.372727       -10.1424
  30   0.0000       0.021151         0.5755
  31   0.0000       0.028563         0.7772
  32   0.0000       0.029877         0.8130
  33   0.0000       0.034548         0.9401
  34   0.0000       0.045803         1.2464

MULLIKEN ATOMIC CHARGES AND SPIN POPULATIONS
--------------------------------------------
   0 N :   -0.225575    0.022083
   1 C :    1.020630   -0.001412
   2 C :   -0.509053   -0.001266
   3 C :   -0.578785    0.061801
   4 H :    0.321577    0.001815
   5 H :    0.225589    0.000826
   6 C :    0.126113   -0.218375
   7 H :    0.245352    0.000116
   8 H :    0.326835   -0.004774
   9 C :   -0.907809    1.285301
  10 O :   -0.978142   -0.000968
  11 C :   -0.979257    0.003290
  12 H :    0.328859   -0.000300
  13 H :    0.290889   -0.001273
  14 H :    0.308013   -0.008682
  15 H :    0.345240   -0.085127
  16 H :    0.296828   -0.078309
  17 H :    0.342696    0.025253
Sum of atomic charges         :    0.0000000

LOEWDIN ATOMIC CHARGES AND SPIN POPULATIONS
-------------------------------------------
   0 N :    0.410608    0.010327
   1 C :   -0.847626    0.000941
   2 C :    0.506657    0.006993
   3 C :    0.522343    0.034792
   4 H :   -0.272759    0.000929
   5 H :   -0.266029    0.001284
   6 C :   -0.077434    0.132041
   7 H :   -0.261899    0.007488
   8 H :   -0.263228    0.015816
   9 C :    0.871046    0.458727
  10 O :    0.706001   -0.000646
  11 C :    0.785151    0.008489
  12 H :   -0.333386    0.000356
  13 H :   -0.274070    0.000395
  14 H :   -0.278375    0.007246
  15 H :   -0.319262    0.149830
  16 H :   -0.318737    0.151028
  17 H :   -0.289002    0.013966

  Mayer bond orders larger than 0.100000
B(  0-N ,  1-C ) :   1.2653 B(  0-N ,  6-C ) :   0.6411 B(  0-N , 10-O ) :   0.2846
B(  0-N , 11-C ) :   0.7394 B(  1-C ,  2-C ) :   1.0583 B(  1-C , 10-O ) :   0.9101
B(  2-C ,  3-C ) :   1.0465 B(  2-C ,  4-H ) :   0.8789 B(  2-C ,  5-H ) :   0.9301
B(  2-C , 10-O ) :   0.1865 B(  3-C ,  6-C ) :   0.9487 B(  3-C ,  7-H ) :   0.9307
B(  3-C ,  8-H ) :   0.8698 B(  6-C ,  9-C ) :   0.9803 B(  6-C , 11-C ) :  -0.1164
B(  6-C , 17-H ) :   0.7949 B(  9-C , 15-H ) :   0.9205 B(  9-C , 16-H ) :   0.9415
B( 11-C , 12-H ) :   0.9220 B( 11-C , 13-H ) :   0.9817 B( 11-C , 14-H ) :   0.9913

MP2 TOTAL ENERGY:     -363.982545253 Eh
FINAL SINGLE POINT ENERGY      -363.982545253411

DIPOLE MOMENT
-------------
                                X             Y             Z
Electronic contribution:     -4.28072      -1.51415       0.13625
Nuclear contribution   :      5.96674       1.66220      -0.45749
                        -----------------------------------------
Total Dipole Moment    :      1.68602       0.14805      -0.32124
                        -----------------------------------------
Magnitude (a.u.)       :      1.72272
Magnitude (Debye)      :      4.37881

Rotational constants in cm-1:     0.094092     0.073332     0.047862
Rotational constants in MHz :  2820.810135  2198.443852  1434.871498

                             ****ORCA TERMINATED NORMALLY****
TOTAL RUN TIME: 0 days 0 hours 49 minutes 55 seconds 528 msec
