                         Program Version 4.2.1 -  RELEASE  -
|  1> %pal
|  2>  nprocs 32
|  3> end
|  4> !RI-MP2 aug-cc-pVQZ aug-cc-pVQZ/C TightSCF
|  5> %maxcore 4500
|  6> *xyzfile 0 2  01_3P.xyz
|  7>
|  8>
|  9>                          ****END OF INPUT****

CARTESIAN COORDINATES (ANGSTROEM)
---------------------------------
  C      0.446828    1.074331    0.082194
  C      1.552627    0.000025    0.035612
  C      0.446858   -1.074320    0.082031
  C     -0.577438   -0.000004   -0.403613
  C     -1.939868   -0.000071    0.151564
  H      2.294292   -0.000021    0.834463
  H      2.073206    0.000105   -0.923912
  H      0.224763   -1.377941    1.107432
  H      0.560203   -1.967438   -0.533400
  H     -2.821053    0.000848   -0.476345
  H     -2.084226   -0.000759    1.226450
  H      0.560124    1.967532   -0.533123
  H      0.224720    1.377798    1.107636
  H     -0.606074    0.000118   -1.495929

 Total Charge           Charge          ....    0
 Multiplicity           Mult            ....    2
 Number of Electrons    NEL             ....   39
 Basis Dimension        Dim             ....  814

ORBITAL ENERGIES
----------------
                 SPIN UP ORBITALS
  NO   OCC          E(Eh)            E(eV)
   0   1.0000     -11.224473      -305.4334
   1   1.0000     -11.222738      -305.3862
   2   1.0000     -11.217347      -305.2395
   3   1.0000     -11.217309      -305.2385
   4   1.0000     -11.214845      -305.1714
   5   1.0000      -1.134511       -30.8716
   6   1.0000      -0.987044       -26.8588
   7   1.0000      -0.896102       -24.3842
   8   1.0000      -0.837654       -22.7937
   9   1.0000      -0.745154       -20.2767
  10   1.0000      -0.653519       -17.7832
  11   1.0000      -0.626423       -17.0458
  12   1.0000      -0.586242       -15.9525
  13   1.0000      -0.537391       -14.6231
  14   1.0000      -0.518798       -14.1172
  15   1.0000      -0.517003       -14.0684
  16   1.0000      -0.459093       -12.4926
  17   1.0000      -0.445032       -12.1099
  18   1.0000      -0.434462       -11.8223
  19   1.0000      -0.336687        -9.1617
  20   0.0000       0.027732         0.7546
  21   0.0000       0.032726         0.8905
  22   0.0000       0.033684         0.9166
  23   0.0000       0.036562         0.9949
  24   0.0000       0.048596         1.3224

                 SPIN DOWN ORBITALS
  NO   OCC          E(Eh)            E(eV)
   0   1.0000     -11.226768      -305.4959
   1   1.0000     -11.215314      -305.1842
   2   1.0000     -11.214656      -305.1663
   3   1.0000     -11.214407      -305.1595
   4   1.0000     -11.201359      -304.8045
   5   1.0000      -1.127020       -30.6678
   6   1.0000      -0.943733       -25.6803
   7   1.0000      -0.889230       -24.1972
   8   1.0000      -0.804921       -21.9030
   9   1.0000      -0.739885       -20.1333
  10   1.0000      -0.650766       -17.7082
  11   1.0000      -0.620960       -16.8972
  12   1.0000      -0.577006       -15.7011
  13   1.0000      -0.535595       -14.5743
  14   1.0000      -0.513527       -13.9738
  15   1.0000      -0.488696       -13.2981
  16   1.0000      -0.455828       -12.4037
  17   1.0000      -0.433145       -11.7865
  18   1.0000      -0.428878       -11.6704
  19   0.0000       0.028062         0.7636
  20   0.0000       0.032821         0.8931
  21   0.0000       0.034020         0.9257
  22   0.0000       0.034480         0.9382
  23   0.0000       0.048672         1.3244

MULLIKEN ATOMIC CHARGES AND SPIN POPULATIONS
--------------------------------------------
   0 C :   -0.615376    0.085359
   1 C :   -0.582735   -0.004324
   2 C :   -0.615236    0.085199
   3 C :    0.016004   -0.256307
   4 C :   -0.935350    1.248357
   5 H :    0.325998   -0.000902
   6 H :    0.244614    0.000018
   7 H :    0.237254   -0.003058
   8 H :    0.357218   -0.007737
   9 H :    0.337288   -0.073796
  10 H :    0.319445   -0.070787
  11 H :    0.357173   -0.007737
  12 H :    0.237297   -0.003075
  13 H :    0.316407    0.008788
Sum of atomic charges         :    0.0000000

LOEWDIN ATOMIC CHARGES AND SPIN POPULATIONS
-------------------------------------------
   0 C :    0.531380    0.030538
   1 C :    0.541727    0.012439
   2 C :    0.531348    0.030487
   3 C :    0.072740    0.129806
   4 C :    0.870481    0.454821
   5 H :   -0.256900    0.000975
   6 H :   -0.270552    0.000915
   7 H :   -0.276702    0.008498
   8 H :   -0.250203    0.006431
   9 H :   -0.336966    0.155051
  10 H :   -0.336133    0.149701
  11 H :   -0.250209    0.006442
  12 H :   -0.276694    0.008523
  13 H :   -0.293318    0.005373

  Mayer bond orders larger than 0.100000
B(  0-C ,  1-C ) :   1.0686 B(  0-C ,  3-C ) :   0.8904 B(  0-C , 11-H ) :   0.8236
B(  0-C , 12-H ) :   0.9336 B(  1-C ,  2-C ) :   1.0687 B(  1-C ,  3-C ) :  -0.1221
B(  1-C ,  5-H ) :   0.8582 B(  1-C ,  6-H ) :   0.9018 B(  2-C ,  3-C ) :   0.8903
B(  2-C ,  7-H ) :   0.9337 B(  2-C ,  8-H ) :   0.8235 B(  3-C ,  4-C ) :   0.8027
B(  3-C , 13-H ) :   0.8696 B(  4-C ,  9-H ) :   0.9758 B(  4-C , 10-H ) :   0.9107

MP2 TOTAL ENERGY:     -195.467186449 Eh
FINAL SINGLE POINT ENERGY      -195.467186448714

DIPOLE MOMENT
-------------
                                X             Y             Z
Electronic contribution:     -0.39176      -0.00014      -0.37116
Nuclear contribution   :      0.45133       0.00025       0.33193
                        -----------------------------------------
Total Dipole Moment    :      0.05957       0.00011      -0.03923
                        -----------------------------------------
Magnitude (a.u.)       :      0.07133
Magnitude (Debye)      :      0.18130

Rotational constants in cm-1:     0.334658     0.143944     0.115897
Rotational constants in MHz : 10032.794065  4315.318959  3474.495829

                             ****ORCA TERMINATED NORMALLY****
TOTAL RUN TIME: 0 days 0 hours 15 minutes 39 seconds 694 msec
