                         Program Version 4.2.1 -  RELEASE  -
|  1> %pal
|  2>  nprocs 32
|  3> end
|  4> !RI-MP2 aug-cc-pVQZ aug-cc-pVQZ/C TightSCF
|  5> %maxcore 4500
|  6> *xyzfile 0 1  09_18TS.xyz
|  7>
|  8>
|  9>                          ****END OF INPUT****

CARTESIAN COORDINATES (ANGSTROEM)
---------------------------------
  N      0.839211    0.975724   -0.191824
  C      2.174649    0.627446    0.079378
  C      2.344840   -0.711393    0.063140
  S      0.827454   -1.498853   -0.289594
  C     -0.006894   -0.021015   -0.422702
  C      3.185528    1.691568    0.345872
  H      3.218482    2.424034   -0.463675
  H      4.177608    1.254940    0.438732
  H      2.971304    2.227966    1.273661
  C      3.585166   -1.505782    0.311057
  H      4.445274   -0.856056    0.469217
  H      3.810424   -2.157935   -0.535142
  H      3.477147   -2.137180    1.195613
  C      0.386493    2.365220   -0.234471
  H      0.837005    2.927016    0.581526
  H     -0.692064    2.366321   -0.103618
  H      0.657638    2.824752   -1.185856
  C     -1.955028   -0.371632   -0.683283
  O     -2.028606   -1.594966   -0.607580
  C     -2.215150    0.359451   -1.985267
  H     -1.638395   -0.111384   -2.781064
  H     -1.966533    1.419921   -1.925153
  H     -3.278113    0.258397   -2.216196
  S     -2.655929    0.654475    0.740825
  C     -2.392214   -0.540987    2.069225
  H     -2.464472   -1.534814    1.625559
  H     -3.173995   -0.410452    2.815224
  H     -1.415680   -0.413087    2.537184

 Total Charge           Charge          ....    0
 Multiplicity           Mult            ....    1
 Number of Electrons    NEL             ....  116
 Basis Dimension        Dim             .... 1738

ORBITAL ENERGIES
----------------

  NO   OCC          E(Eh)            E(eV)
   0   2.0000     -91.988052     -2503.1222
   1   2.0000     -91.918140     -2501.2198
   2   2.0000     -20.470592      -557.0331
   3   2.0000     -15.647446      -425.7887
   4   2.0000     -11.339822      -308.5723
   5   2.0000     -11.297905      -307.4316
   6   2.0000     -11.297087      -307.4094
   7   2.0000     -11.281789      -306.9931
   8   2.0000     -11.276233      -306.8419
   9   2.0000     -11.258712      -306.3651
  10   2.0000     -11.250321      -306.1368
  11   2.0000     -11.222983      -305.3929
  12   2.0000     -11.211522      -305.0810
  13   2.0000      -8.990497      -244.6439
  14   2.0000      -8.921047      -242.7540
  15   2.0000      -6.671590      -181.5432
  16   2.0000      -6.670665      -181.5180
  17   2.0000      -6.670317      -181.5085
  18   2.0000      -6.602477      -179.6625
  19   2.0000      -6.601626      -179.6394
  20   2.0000      -6.600915      -179.6200
  21   2.0000      -1.340279       -36.4708
  22   2.0000      -1.330422       -36.2026
  23   2.0000      -1.128852       -30.7176
  24   2.0000      -1.073586       -29.2137
  25   2.0000      -1.021318       -27.7915
  26   2.0000      -1.010972       -27.5099
  27   2.0000      -0.980796       -26.6888
  28   2.0000      -0.957575       -26.0570
  29   2.0000      -0.928157       -25.2564
  30   2.0000      -0.843505       -22.9529
  31   2.0000      -0.808902       -22.0113
  32   2.0000      -0.743215       -20.2239
  33   2.0000      -0.705714       -19.2035
  34   2.0000      -0.677373       -18.4322
  35   2.0000      -0.669555       -18.2195
  36   2.0000      -0.622827       -16.9480
  37   2.0000      -0.611527       -16.6405
  38   2.0000      -0.608094       -16.5471
  39   2.0000      -0.606281       -16.4977
  40   2.0000      -0.596038       -16.2190
  41   2.0000      -0.591915       -16.1068
  42   2.0000      -0.580182       -15.7876
  43   2.0000      -0.567947       -15.4546
  44   2.0000      -0.563490       -15.3333
  45   2.0000      -0.560950       -15.2642
  46   2.0000      -0.550769       -14.9872
  47   2.0000      -0.542858       -14.7719
  48   2.0000      -0.535570       -14.5736
  49   2.0000      -0.493761       -13.4359
  50   2.0000      -0.489166       -13.3109
  51   2.0000      -0.474859       -12.9216
  52   2.0000      -0.441639       -12.0176
  53   2.0000      -0.403255       -10.9731
  54   2.0000      -0.363821        -9.9001
  55   2.0000      -0.346737        -9.4352
  56   2.0000      -0.340143        -9.2558
  57   2.0000      -0.317139        -8.6298
  58   0.0000       0.012670         0.3448
  59   0.0000       0.022380         0.6090
  60   0.0000       0.026654         0.7253
  61   0.0000       0.030847         0.8394
  62   0.0000       0.040318         1.0971

MULLIKEN ATOMIC CHARGES
-----------------------
   0 N :   -0.540966
   1 C :    0.378012
   2 C :   -0.447487
   3 S :    0.404264
   4 C :    0.876313
   5 C :   -0.853367
   6 H :    0.205033
   7 H :    0.291433
   8 H :    0.243262
   9 C :   -0.800029
  10 H :    0.279497
  11 H :    0.244160
  12 H :    0.243181
  13 C :   -1.224568
  14 H :    0.341770
  15 H :    0.456865
  16 H :    0.338943
  17 C :    1.301061
  18 O :   -1.195774
  19 C :   -1.173565
  20 H :    0.288887
  21 H :    0.223895
  22 H :    0.348259
  23 S :   -0.229048
  24 C :   -1.116801
  25 H :    0.374278
  26 H :    0.421333
  27 H :    0.321158
Sum of atomic charges:   -0.0000000

LOEWDIN ATOMIC CHARGES
----------------------
   0 N :    0.290510
   1 C :   -0.298002
   2 C :   -0.439480
   3 S :    1.410232
   4 C :   -0.516170
   5 C :    0.926944
   6 H :   -0.274942
   7 H :   -0.314437
   8 H :   -0.272434
   9 C :    0.844657
  10 H :   -0.325085
  11 H :   -0.295467
  12 H :   -0.292589
  13 C :    0.786437
  14 H :   -0.291899
  15 H :   -0.389244
  16 H :   -0.253654
  17 C :   -1.264752
  18 O :    0.610968
  19 C :    0.750403
  20 H :   -0.305896
  21 H :   -0.340235
  22 H :   -0.304695
  23 S :    1.259309
  24 C :    0.512696
  25 H :   -0.455185
  26 H :   -0.388282
  27 H :   -0.369710

  Mayer bond orders larger than 0.100000
B(  0-N ,  1-C ) :   1.1059 B(  0-N ,  4-C ) :   1.1957 B(  0-N , 13-C ) :   0.8428
B(  1-C ,  2-C ) :   1.4387 B(  1-C ,  3-S ) :  -0.1169 B(  1-C ,  4-C ) :  -0.2854
B(  1-C ,  5-C ) :   0.5293 B(  1-C ,  7-H ) :  -0.1193 B(  2-C ,  3-S ) :   0.9692
B(  2-C ,  9-C ) :   0.5595 B(  2-C , 11-H ) :  -0.1216 B(  2-C , 12-H ) :  -0.1258
B(  3-S ,  4-C ) :   0.9714 B(  4-C , 13-C ) :  -0.1266 B(  4-C , 17-C ) :   0.4560
B(  4-C , 18-O ) :   0.1111 B(  5-C ,  6-H ) :   1.0469 B(  5-C ,  7-H ) :   1.0191
B(  5-C ,  8-H ) :   1.0055 B(  9-C , 10-H ) :   0.9998 B(  9-C , 11-H ) :   1.0319
B(  9-C , 12-H ) :   1.0257 B( 13-C , 14-H ) :   0.9524 B( 13-C , 15-H ) :   0.7878
B( 13-C , 16-H ) :   0.9567 B( 17-C , 18-O ) :   0.6568 B( 17-C , 19-C ) :   0.6942
B( 17-C , 21-H ) :  -0.1188 B( 17-C , 23-S ) :   0.8370 B( 18-O , 19-C ) :   0.1300
B( 19-C , 20-H ) :   0.9844 B( 19-C , 21-H ) :   1.0340 B( 19-C , 22-H ) :   0.8981
B( 23-S , 24-C ) :   1.0632 B( 24-C , 25-H ) :   0.8568 B( 24-C , 26-H ) :   0.8422
B( 24-C , 27-H ) :   0.8714

MP2 TOTAL ENERGY:    -1276.569936288 Eh
FINAL SINGLE POINT ENERGY     -1276.569936288079

DIPOLE MOMENT
-------------
                                X             Y             Z
Electronic contribution:     -6.19470      -6.53159      -1.46781
Nuclear contribution   :      9.01617       8.10811       1.70539
                        -----------------------------------------
Total Dipole Moment    :      2.82147       1.57653       0.23758
                        -----------------------------------------
Magnitude (a.u.)       :      3.24077
Magnitude (Debye)      :      8.23737

Rotational constants in cm-1:     0.032963     0.014113     0.012441
Rotational constants in MHz :   988.213549   423.096115   372.960944

                             ****ORCA TERMINATED NORMALLY****
TOTAL RUN TIME: 0 days 2 hours 51 minutes 29 seconds 357 msec
