                         Program Version 4.2.1 -  RELEASE  -
|  1> %pal
|  2>  nprocs 32
|  3> end
|  4> !RI-MP2 aug-cc-pVQZ aug-cc-pVQZ/C TightSCF
|  5> %maxcore 4500
|  6> *xyzfile -1 1  05_1R.xyz
|  7>
|  8>
|  9>                          ****END OF INPUT****

CARTESIAN COORDINATES (ANGSTROEM)
---------------------------------
  O      0.243578   -1.290281   -0.612531
  C      0.487592   -0.297791    0.029442
  C      1.886059    0.257606    0.375550
  O      2.874730   -0.779286    0.173896
  O      2.043802    1.326501   -0.375336
  C     -0.627640    0.675379    0.461560
  C     -1.987816    0.137701    0.191801
  H     -0.431919    1.595840   -0.088127
  H     -0.521073    0.870552    1.529446
  O     -2.702655   -0.430777    0.981571
  O     -2.383779    0.335513   -1.084688
  H      3.093981   -0.682051   -0.759475
  H     -3.224234   -0.131401   -1.179823
  H      1.928663    0.416322    1.484562

 Total Charge           Charge          ....   -1
 Multiplicity           Mult            ....    1
 Number of Electrons    NEL             ....   70
 Basis Dimension        Dim             ....  950

ORBITAL ENERGIES
----------------

  NO   OCC          E(Eh)            E(eV)
   0   2.0000     -20.493523      -557.6571
   1   2.0000     -20.429624      -555.9183
   2   2.0000     -20.395608      -554.9927
   3   2.0000     -20.373336      -554.3867
   4   2.0000     -20.271316      -551.6105
   5   2.0000     -11.266922      -306.5885
   6   2.0000     -11.174588      -304.0760
   7   2.0000     -11.143851      -303.2396
   8   2.0000     -11.110906      -302.3431
   9   2.0000      -1.350576       -36.7510
  10   2.0000      -1.244336       -33.8601
  11   2.0000      -1.242788       -33.8180
  12   2.0000      -1.187510       -32.3138
  13   2.0000      -1.071297       -29.1515
  14   2.0000      -0.917406       -24.9639
  15   2.0000      -0.755252       -20.5515
  16   2.0000      -0.690303       -18.7841
  17   2.0000      -0.601103       -16.3568
  18   2.0000      -0.590466       -16.0674
  19   2.0000      -0.556035       -15.1305
  20   2.0000      -0.538489       -14.6530
  21   2.0000      -0.500789       -13.6272
  22   2.0000      -0.478960       -13.0332
  23   2.0000      -0.467226       -12.7139
  24   2.0000      -0.453694       -12.3456
  25   2.0000      -0.436511       -11.8781
  26   2.0000      -0.420486       -11.4420
  27   2.0000      -0.375663       -10.2223
  28   2.0000      -0.364183        -9.9099
  29   2.0000      -0.339856        -9.2479
  30   2.0000      -0.334046        -9.0898
  31   2.0000      -0.317332        -8.6351
  32   2.0000      -0.272079        -7.4036
  33   2.0000      -0.201197        -5.4749
  34   2.0000      -0.172119        -4.6836
  35   0.0000       0.103198         2.8082
  36   0.0000       0.120790         3.2869
  37   0.0000       0.130868         3.5611
  38   0.0000       0.133200         3.6246
  39   0.0000       0.138912         3.7800

MULLIKEN ATOMIC CHARGES
-----------------------
   0 O :   -0.870664
   1 C :    0.564984
   2 C :    0.804660
   3 O :   -0.892093
   4 O :   -1.137181
   5 C :   -0.688830
   6 C :    1.149250
   7 H :    0.370867
   8 H :    0.312512
   9 O :   -0.858094
  10 O :   -0.693346
  11 H :    0.324563
  12 H :    0.298564
  13 H :    0.314809
Sum of atomic charges:   -1.0000000

LOEWDIN ATOMIC CHARGES
----------------------
   0 O :    0.690647
   1 C :   -0.772245
   2 C :   -1.031771
   3 O :    1.169317
   4 O :    0.534590
   5 C :    0.372288
   6 C :   -1.084964
   7 H :   -0.345006
   8 H :   -0.326558
   9 O :    0.686598
  10 O :    1.250975
  11 H :   -0.900087
  12 H :   -0.837525
  13 H :   -0.406260

  Mayer bond orders larger than 0.100000
B(  0-O ,  1-C ) :   1.2823 B(  0-O ,  5-C ) :   0.1547 B(  1-C ,  2-C ) :   0.8288
B(  1-C ,  4-O ) :   0.1273 B(  1-C ,  5-C ) :   0.8334 B(  2-C ,  3-O ) :   0.5963
B(  2-C ,  4-O ) :   1.0215 B(  2-C , 13-H ) :   0.8960 B(  3-O , 11-H ) :   0.8839
B(  5-C ,  6-C ) :   1.2739 B(  5-C ,  7-H ) :   0.7987 B(  5-C ,  8-H ) :   0.8841
B(  5-C ,  9-O ) :   0.1465 B(  6-C ,  9-O ) :   1.2571 B(  6-C , 10-O ) :   0.7996
B(  9-O , 10-O ) :   0.1100 B( 10-O , 12-H ) :   0.9377

MP2 TOTAL ENERGY:     -530.939357910 Eh
FINAL SINGLE POINT ENERGY      -530.939357910029

DIPOLE MOMENT
-------------
                                X             Y             Z
Electronic contribution:     -3.39108      -2.02868      -0.88413
Nuclear contribution   :      0.82440       2.00210       0.94662
                        -----------------------------------------
Total Dipole Moment    :     -2.56668      -0.02658       0.06249
                        -----------------------------------------
Magnitude (a.u.)       :      2.56758
Magnitude (Debye)      :      6.52627

Rotational constants in cm-1:     0.124857     0.028870     0.027593
Rotational constants in MHz :  3743.108862   865.508196   827.226600

                             ****ORCA TERMINATED NORMALLY****
TOTAL RUN TIME: 0 days 0 hours 19 minutes 33 seconds 340 msec
