                         Program Version 4.2.1 -  RELEASE  -
|  1> %pal
|  2>  nprocs 32
|  3> end
|  4> !RI-MP2 aug-cc-pVQZ aug-cc-pVQZ/C TightSCF
|  5> %maxcore 4500
|  6> *xyzfile 0 2  06_19R2.xyz
|  7>
|  8>
|  9>                          ****END OF INPUT****

CARTESIAN COORDINATES (ANGSTROEM)
---------------------------------
  Si     0.000493   -0.000060   -0.628883
  Si     2.264307   -0.036982   -0.050547
  Si    -1.163942   -1.941579   -0.050597
  Si    -1.100221    1.978538   -0.050564
  C      3.244125    1.163380   -1.119075
  H      4.299302    1.164681   -0.830696
  H      3.184811    0.891472   -2.175272
  H      2.868512    2.183854   -1.017772
  C      2.457264    0.465713    1.758204
  H      3.509365    0.438772    2.057478
  H      2.088540    1.479501    1.931069
  H      1.903195   -0.205595    2.418231
  C      2.961860   -1.772872   -0.271452
  H      4.026186   -1.793692   -0.020189
  H      2.455371   -2.493245    0.375131
  H      2.855349   -2.117560   -1.302481
  C     -0.831415   -2.355435    1.760527
  H     -1.139031   -1.538552    2.417405
  H     -1.381363   -3.252707    2.059964
  H      0.230352   -2.541928    1.938221
  C     -3.015346   -1.678982   -0.278180
  H     -3.257343   -1.417095   -1.310654
  H     -3.566058   -2.589828   -0.026310
  H     -3.388158   -0.878600    0.365166
  C     -0.610008   -3.392292   -1.114077
  H     -0.811429   -3.206936   -2.171462
  H      0.461101   -3.576887   -1.007897
  H     -1.137643   -4.306216   -0.826122
  C     -2.629173    2.226101   -1.119942
  H     -3.324611    1.390047   -1.018818
  H     -3.158567    3.139081   -0.832220
  H     -2.363345    2.310506   -2.175985
  C     -1.632506    1.893871    1.758041
  H     -2.135976    2.818146    2.057095
  H     -2.325416    1.067049    1.930953
  H     -0.774118    1.750550    2.418321
  C      0.054271    3.450658   -0.270700
  H     -0.459349    4.382662   -0.017862
  H      0.931969    3.371107    0.374904
  H      0.405017    3.531743   -1.302001

 Total Charge           Charge          ....    0
 Multiplicity           Mult            ....    2
 Number of Electrons    NEL             ....  137
 Basis Dimension        Dim             .... 2298

ORBITAL ENERGIES
----------------
                 SPIN UP ORBITALS
  NO   OCC          E(Eh)            E(eV)
   0   1.0000     -68.747223     -1870.7071
   1   1.0000     -68.747215     -1870.7068
   2   1.0000     -68.747194     -1870.7063
   3   1.0000     -68.729466     -1870.2238
   4   1.0000     -11.196284      -304.6664
   5   1.0000     -11.196272      -304.6660
   6   1.0000     -11.196271      -304.6660
   7   1.0000     -11.196053      -304.6601
   8   1.0000     -11.196052      -304.6601
   9   1.0000     -11.196029      -304.6595
  10   1.0000     -11.193857      -304.6003
  11   1.0000     -11.193840      -304.5999
  12   1.0000     -11.193837      -304.5998
  13   1.0000      -6.095931      -165.8787
  14   1.0000      -6.095925      -165.8786
  15   1.0000      -6.095906      -165.8780
  16   1.0000      -6.084007      -165.5543
  17   1.0000      -4.202380      -114.3526
  18   1.0000      -4.202374      -114.3524
  19   1.0000      -4.202355      -114.3519
  20   1.0000      -4.202174      -114.3470
  21   1.0000      -4.202168      -114.3468
  22   1.0000      -4.202150      -114.3463
  23   1.0000      -4.202001      -114.3423
  24   1.0000      -4.201995      -114.3421
  25   1.0000      -4.201975      -114.3416
  26   1.0000      -4.196981      -114.2057
  27   1.0000      -4.186764      -113.9277
  28   1.0000      -4.186763      -113.9276
  29   1.0000      -0.968200       -26.3461
  30   1.0000      -0.962427       -26.1890
  31   1.0000      -0.962413       -26.1886
  32   1.0000      -0.923026       -25.1168
  33   1.0000      -0.922590       -25.1049
  34   1.0000      -0.922575       -25.1046
  35   1.0000      -0.920225       -25.0406
  36   1.0000      -0.920207       -25.0401
  37   1.0000      -0.918585       -24.9960
  38   1.0000      -0.714056       -19.4305
  39   1.0000      -0.624130       -16.9834
  40   1.0000      -0.624109       -16.9829
  41   1.0000      -0.587920       -15.9981
  42   1.0000      -0.572202       -15.5704
  43   1.0000      -0.572159       -15.5692
  44   1.0000      -0.563326       -15.3289
  45   1.0000      -0.563272       -15.3274
  46   1.0000      -0.563240       -15.3265
  47   1.0000      -0.555998       -15.1295
  48   1.0000      -0.555351       -15.1119
  49   1.0000      -0.555336       -15.1114
  50   1.0000      -0.543650       -14.7935
  51   1.0000      -0.540509       -14.7080
  52   1.0000      -0.540486       -14.7074
  53   1.0000      -0.536704       -14.6045
  54   1.0000      -0.536658       -14.6032
  55   1.0000      -0.533661       -14.5216
  56   1.0000      -0.528570       -14.3831
  57   1.0000      -0.528181       -14.3725
  58   1.0000      -0.528129       -14.3711
  59   1.0000      -0.525069       -14.2879
  60   1.0000      -0.435714       -11.8564
  61   1.0000      -0.432991       -11.7823
  62   1.0000      -0.432989       -11.7822
  63   1.0000      -0.427787       -11.6407
  64   1.0000      -0.427778       -11.6404
  65   1.0000      -0.424854       -11.5609
  66   1.0000      -0.345608        -9.4045
  67   1.0000      -0.345569        -9.4034
  68   1.0000      -0.286251        -7.7893
  69   0.0000       0.019672         0.5353
  70   0.0000       0.026041         0.7086
  71   0.0000       0.026071         0.7094
  72   0.0000       0.030492         0.8297
  73   0.0000       0.037466         1.0195

                 SPIN DOWN ORBITALS
  NO   OCC          E(Eh)            E(eV)
   0   1.0000     -68.747455     -1870.7134
   1   1.0000     -68.747447     -1870.7131
   2   1.0000     -68.747427     -1870.7126
   3   1.0000     -68.724344     -1870.0845
   4   1.0000     -11.196117      -304.6618
   5   1.0000     -11.196116      -304.6618
   6   1.0000     -11.196094      -304.6612
   7   1.0000     -11.195583      -304.6473
   8   1.0000     -11.195571      -304.6470
   9   1.0000     -11.195569      -304.6469
  10   1.0000     -11.193876      -304.6008
  11   1.0000     -11.193859      -304.6004
  12   1.0000     -11.193857      -304.6003
  13   1.0000      -6.096271      -165.8880
  14   1.0000      -6.096265      -165.8878
  15   1.0000      -6.096246      -165.8873
  16   1.0000      -6.076675      -165.3547
  17   1.0000      -4.203035      -114.3704
  18   1.0000      -4.203027      -114.3702
  19   1.0000      -4.203006      -114.3696
  20   1.0000      -4.202351      -114.3518
  21   1.0000      -4.202346      -114.3516
  22   1.0000      -4.202326      -114.3511
  23   1.0000      -4.202265      -114.3494
  24   1.0000      -4.202259      -114.3493
  25   1.0000      -4.202240      -114.3488
  26   1.0000      -4.183039      -113.8263
  27   1.0000      -4.183038      -113.8263
  28   1.0000      -4.174854      -113.6035
  29   1.0000      -0.966979       -26.3128
  30   1.0000      -0.961874       -26.1739
  31   1.0000      -0.961861       -26.1736
  32   1.0000      -0.922420       -25.1003
  33   1.0000      -0.922415       -25.1002
  34   1.0000      -0.921730       -25.0815
  35   1.0000      -0.919231       -25.0136
  36   1.0000      -0.919206       -25.0129
  37   1.0000      -0.918700       -24.9991
  38   1.0000      -0.683133       -18.5890
  39   1.0000      -0.623888       -16.9768
  40   1.0000      -0.623867       -16.9763
  41   1.0000      -0.584830       -15.9140
  42   1.0000      -0.571654       -15.5555
  43   1.0000      -0.571613       -15.5544
  44   1.0000      -0.563065       -15.3218
  45   1.0000      -0.563040       -15.3211
  46   1.0000      -0.562238       -15.2993
  47   1.0000      -0.555105       -15.1052
  48   1.0000      -0.555087       -15.1047
  49   1.0000      -0.554677       -15.0935
  50   1.0000      -0.541776       -14.7425
  51   1.0000      -0.540189       -14.6993
  52   1.0000      -0.540172       -14.6988
  53   1.0000      -0.535849       -14.5812
  54   1.0000      -0.535796       -14.5797
  55   1.0000      -0.533619       -14.5205
  56   1.0000      -0.528417       -14.3790
  57   1.0000      -0.527948       -14.3662
  58   1.0000      -0.527896       -14.3648
  59   1.0000      -0.499573       -13.5941
  60   1.0000      -0.432643       -11.7728
  61   1.0000      -0.432638       -11.7727
  62   1.0000      -0.429049       -11.6750
  63   1.0000      -0.425143       -11.5687
  64   1.0000      -0.425125       -11.5682
  65   1.0000      -0.424964       -11.5639
  66   1.0000      -0.339865        -9.2482
  67   1.0000      -0.339823        -9.2470
  68   0.0000       0.019638         0.5344
  69   0.0000       0.026055         0.7090
  70   0.0000       0.026085         0.7098
  71   0.0000       0.026779         0.7287
  72   0.0000       0.037503         1.0205

MULLIKEN ATOMIC CHARGES AND SPIN POPULATIONS
--------------------------------------------
   0 Si:   -0.408944    1.067677
   1 Si:    1.161716   -0.023317
   2 Si:    1.163114   -0.023044
   3 Si:    1.162070   -0.022887
   4 C :   -1.351262   -0.009574
   5 H :    0.349058    0.000548
   6 H :    0.285257   -0.003680
   7 H :    0.340780   -0.000845
   8 C :   -1.311952    0.020558
   9 H :    0.309813    0.006490
  10 H :    0.338398    0.003218
  11 H :    0.323116   -0.002107
  12 C :   -1.222938   -0.005699
  13 H :    0.275691   -0.000054
  14 H :    0.342610   -0.002974
  15 H :    0.296295   -0.005308
  16 C :   -1.312462    0.020494
  17 H :    0.323179   -0.001949
  18 H :    0.310020    0.006521
  19 H :    0.338371    0.003080
  20 C :   -1.222967   -0.005818
  21 H :    0.295872   -0.005400
  22 H :    0.275341   -0.000063
  23 H :    0.341852   -0.002874
  24 C :   -1.350816   -0.009463
  25 H :    0.284653   -0.003702
  26 H :    0.341709   -0.000814
  27 H :    0.348999    0.000512
  28 C :   -1.351177   -0.009528
  29 H :    0.340911   -0.000814
  30 H :    0.349114    0.000508
  31 H :    0.284936   -0.003677
  32 C :   -1.312563    0.020449
  33 H :    0.310792    0.006451
  34 H :    0.338112    0.003235
  35 H :    0.323167   -0.002082
  36 C :   -1.222275   -0.005729
  37 H :    0.275091   -0.000013
  38 H :    0.342110   -0.003008
  39 H :    0.295208   -0.005320
Sum of atomic charges         :   -0.0000000

LOEWDIN ATOMIC CHARGES AND SPIN POPULATIONS
-------------------------------------------
   0 Si:    0.627066    0.453132
   1 Si:    0.059163    0.135982
   2 Si:    0.058958    0.135993
   3 Si:    0.059131    0.135925
   4 C :    0.941483    0.006084
   5 H :   -0.335869   -0.000555
   6 H :   -0.343319    0.003417
   7 H :   -0.360325    0.000586
   8 C :    0.945828    0.019388
   9 H :   -0.331783    0.004136
  10 H :   -0.351263    0.003636
  11 H :   -0.344683    0.004951
  12 C :    0.940546    0.003661
  13 H :   -0.332324   -0.000581
  14 H :   -0.354996    0.000494
  15 H :   -0.341349    0.001116
  16 C :    0.945858    0.019419
  17 H :   -0.344835    0.004947
  18 H :   -0.331842    0.004144
  19 H :   -0.350991    0.003650
  20 C :    0.940524    0.003659
  21 H :   -0.341278    0.001132
  22 H :   -0.332289   -0.000586
  23 H :   -0.355151    0.000485
  24 C :    0.941545    0.006053
  25 H :   -0.343261    0.003407
  26 H :   -0.360639    0.000574
  27 H :   -0.335806   -0.000558
  28 C :    0.941503    0.006092
  29 H :   -0.360436    0.000587
  30 H :   -0.335805   -0.000554
  31 H :   -0.343323    0.003424
  32 C :    0.945834    0.019371
  33 H :   -0.331791    0.004132
  34 H :   -0.351245    0.003633
  35 H :   -0.344607    0.004943
  36 C :    0.940566    0.003657
  37 H :   -0.332281   -0.000581
  38 H :   -0.355164    0.000493
  39 H :   -0.341350    0.001114

  Mayer bond orders larger than 0.100000
B(  0-Si,  1-Si) :   0.6233 B(  0-Si,  2-Si) :   0.6233 B(  0-Si,  3-Si) :   0.6228
B(  1-Si,  4-C ) :   0.8608 B(  1-Si,  8-C ) :   0.7933 B(  1-Si, 12-C ) :   0.9573
B(  2-Si, 16-C ) :   0.7938 B(  2-Si, 20-C ) :   0.9556 B(  2-Si, 24-C ) :   0.8625
B(  3-Si, 28-C ) :   0.8604 B(  3-Si, 32-C ) :   0.7959 B(  3-Si, 36-C ) :   0.9557
B(  4-C ,  5-H ) :   0.8953 B(  4-C ,  6-H ) :   0.9679 B(  4-C ,  7-H ) :   0.8842
B(  8-C ,  9-H ) :   0.9614 B(  8-C , 10-H ) :   0.8778 B(  8-C , 11-H ) :   0.8987
B( 12-C , 13-H ) :   0.9995 B( 12-C , 14-H ) :   0.8697 B( 12-C , 15-H ) :   0.9209
B( 16-C , 17-H ) :   0.8982 B( 16-C , 18-H ) :   0.9608 B( 16-C , 19-H ) :   0.8782
B( 20-C , 21-H ) :   0.9216 B( 20-C , 22-H ) :   0.9998 B( 20-C , 23-H ) :   0.8696
B( 24-C , 25-H ) :   0.9688 B( 24-C , 26-H ) :   0.8834 B( 24-C , 27-H ) :   0.8955
B( 28-C , 29-H ) :   0.8842 B( 28-C , 30-H ) :   0.8955 B( 28-C , 31-H ) :   0.9684
B( 32-C , 33-H ) :   0.9601 B( 32-C , 34-H ) :   0.8774 B( 32-C , 35-H ) :   0.8982
B( 36-C , 37-H ) :   1.0002 B( 36-C , 38-H ) :   0.8693 B( 36-C , 39-H ) :   0.9223

MP2 TOTAL ENERGY:    -1514.810878908 Eh
FINAL SINGLE POINT ENERGY     -1514.810878907589

DIPOLE MOMENT
-------------
                                X             Y             Z
Electronic contribution:      0.00363      -0.00008      -4.40480
Nuclear contribution   :     -0.00351       0.00034       4.52507
                        -----------------------------------------
Total Dipole Moment    :      0.00012       0.00027       0.12027
                        -----------------------------------------
Magnitude (a.u.)       :      0.12027
Magnitude (Debye)      :      0.30571

Rotational constants in cm-1:     0.014513     0.014505     0.009116
Rotational constants in MHz :   435.101709   434.837602   273.301774

                             ****ORCA TERMINATED NORMALLY****
TOTAL RUN TIME: 0 days 8 hours 34 minutes 0 seconds 698 msec
