                         Program Version 4.2.1 -  RELEASE  -
|  1> %pal
|  2>  nprocs 32
|  3> end
|  4> !RI-MP2 aug-cc-pVQZ aug-cc-pVQZ/C TightSCF
|  5> %maxcore 4500
|  6> *xyzfile 0 2  03_35P1.xyz
|  7>
|  8>
|  9>                          ****END OF INPUT****

CARTESIAN COORDINATES (ANGSTROEM)
---------------------------------
  C      2.000033    0.047162   -0.047149
  C      1.271372   -1.254827   -0.136436
  C      1.172093    1.291330   -0.069793
  C      3.421279    0.117653   -0.481657
  H      3.505724    0.149790   -1.580341
  H      3.987857   -0.755632   -0.148903
  H      3.917028    1.014690   -0.101639
  C      0.001771   -1.273351    0.716526
  H      1.925160   -2.081957    0.155731
  H      0.980753   -1.447001   -1.183351
  C     -0.095356    1.159355    0.779045
  H      0.869934    1.516977   -1.107714
  H      1.757161    2.150512    0.272408
  N     -0.791725   -0.078079    0.473046
  H      0.268527   -1.298859    1.778636
  H     -0.617030   -2.137580    0.491331
  C     -1.998993   -0.179188   -0.156193
  H     -0.752339    2.010489    0.624193
  H      0.177795    1.145986    1.840148
  O     -2.472326   -1.257129   -0.474896
  C     -2.749449    1.105708   -0.438878
  H     -2.955297    1.662394    0.477261
  H     -3.690449    0.833322   -0.909160
  H     -2.190643    1.757394   -1.113550

 Total Charge           Charge          ....    0
 Multiplicity           Mult            ....    2
 Number of Electrons    NEL             ....   77
 Basis Dimension        Dim             .... 1444

ORBITAL ENERGIES
----------------
                 SPIN UP ORBITALS
  NO   OCC          E(Eh)            E(eV)
   0   1.0000     -20.503483      -557.9281
   1   1.0000     -15.575811      -423.8394
   2   1.0000     -11.340776      -308.5982
   3   1.0000     -11.269418      -306.6565
   4   1.0000     -11.251947      -306.1810
   5   1.0000     -11.234751      -305.7131
   6   1.0000     -11.230794      -305.6055
   7   1.0000     -11.230631      -305.6010
   8   1.0000     -11.222588      -305.3821
   9   1.0000     -11.219796      -305.3062
  10   1.0000      -1.373657       -37.3791
  11   1.0000      -1.250470       -34.0270
  12   1.0000      -1.108913       -30.1751
  13   1.0000      -1.037661       -28.2362
  14   1.0000      -1.008235       -27.4355
  15   1.0000      -0.965963       -26.2852
  16   1.0000      -0.882166       -24.0050
  17   1.0000      -0.867264       -23.5995
  18   1.0000      -0.778210       -21.1762
  19   1.0000      -0.716855       -19.5066
  20   1.0000      -0.682013       -18.5585
  21   1.0000      -0.651667       -17.7328
  22   1.0000      -0.639356       -17.3978
  23   1.0000      -0.627957       -17.0876
  24   1.0000      -0.616565       -16.7776
  25   1.0000      -0.597601       -16.2616
  26   1.0000      -0.580437       -15.7945
  27   1.0000      -0.578268       -15.7355
  28   1.0000      -0.561221       -15.2716
  29   1.0000      -0.546648       -14.8751
  30   1.0000      -0.540046       -14.6954
  31   1.0000      -0.519035       -14.1237
  32   1.0000      -0.508513       -13.8373
  33   1.0000      -0.500137       -13.6094
  34   1.0000      -0.480342       -13.0708
  35   1.0000      -0.468999       -12.7621
  36   1.0000      -0.413315       -11.2469
  37   1.0000      -0.368255       -10.0207
  38   1.0000      -0.320723        -8.7273
  39   0.0000       0.021122         0.5748
  40   0.0000       0.025694         0.6992
  41   0.0000       0.029054         0.7906
  42   0.0000       0.032639         0.8881
  43   0.0000       0.040731         1.1084

                 SPIN DOWN ORBITALS
  NO   OCC          E(Eh)            E(eV)
   0   1.0000     -20.503380      -557.9253
   1   1.0000     -15.576017      -423.8450
   2   1.0000     -11.340774      -308.5981
   3   1.0000     -11.268752      -306.6383
   4   1.0000     -11.251283      -306.1630
   5   1.0000     -11.233717      -305.6850
   6   1.0000     -11.230625      -305.6008
   7   1.0000     -11.225448      -305.4600
   8   1.0000     -11.222772      -305.3872
   9   1.0000     -11.210372      -305.0497
  10   1.0000      -1.373496       -37.3747
  11   1.0000      -1.249588       -34.0030
  12   1.0000      -1.077351       -29.3162
  13   1.0000      -1.036948       -28.2168
  14   1.0000      -1.004313       -27.3287
  15   1.0000      -0.964156       -26.2360
  16   1.0000      -0.877763       -23.8851
  17   1.0000      -0.864480       -23.5237
  18   1.0000      -0.761066       -20.7096
  19   1.0000      -0.697190       -18.9715
  20   1.0000      -0.677984       -18.4489
  21   1.0000      -0.649534       -17.6747
  22   1.0000      -0.635188       -17.2843
  23   1.0000      -0.610467       -16.6116
  24   1.0000      -0.601474       -16.3669
  25   1.0000      -0.593301       -16.1445
  26   1.0000      -0.577180       -15.7059
  27   1.0000      -0.564095       -15.3498
  28   1.0000      -0.560671       -15.2566
  29   1.0000      -0.544900       -14.8275
  30   1.0000      -0.534144       -14.5348
  31   1.0000      -0.517722       -14.0879
  32   1.0000      -0.503709       -13.7066
  33   1.0000      -0.495270       -13.4770
  34   1.0000      -0.474892       -12.9225
  35   1.0000      -0.461992       -12.5714
  36   1.0000      -0.412979       -11.2377
  37   1.0000      -0.364859        -9.9283
  38   0.0000       0.020782         0.5655
  39   0.0000       0.025748         0.7006
  40   0.0000       0.029210         0.7948
  41   0.0000       0.032454         0.8831
  42   0.0000       0.040558         1.1036

MULLIKEN ATOMIC CHARGES AND SPIN POPULATIONS
--------------------------------------------
   0 C :    0.059699    1.208157
   1 C :   -0.401064   -0.218594
   2 C :   -0.303061   -0.226527
   3 C :   -0.882240   -0.136924
   4 H :    0.227590    0.083282
   5 H :    0.208958    0.016279
   6 H :    0.205297    0.016532
   7 C :   -0.588450    0.032553
   8 H :    0.299631    0.002853
   9 H :    0.233542    0.099983
  10 C :   -0.545303    0.035928
  11 H :    0.211140    0.100469
  12 H :    0.314692    0.003897
  13 N :   -0.375402   -0.015087
  14 H :    0.268712   -0.002273
  15 H :    0.352172   -0.002440
  16 C :    1.058014    0.003520
  17 H :    0.283298   -0.003017
  18 H :    0.310438   -0.001806
  19 O :   -0.928982    0.002196
  20 C :   -0.701957    0.001063
  21 H :    0.253418    0.000340
  22 H :    0.224154    0.000179
  23 H :    0.215703   -0.000564
Sum of atomic charges         :    0.0000000

LOEWDIN ATOMIC CHARGES AND SPIN POPULATIONS
-------------------------------------------
   0 C :    0.055101    0.453613
   1 C :    0.521554    0.120047
   2 C :    0.521751    0.120493
   3 C :    0.911230    0.124346
   4 H :   -0.271656    0.028596
   5 H :   -0.298021    0.012398
   6 H :   -0.298337    0.012472
   7 C :    0.368245    0.014438
   8 H :   -0.279621    0.011629
   9 H :   -0.253210    0.027731
  10 C :    0.376399    0.014715
  11 H :   -0.254422    0.027949
  12 H :   -0.278632    0.011955
  13 N :    0.448958    0.000679
  14 H :   -0.259584    0.005169
  15 H :   -0.342104    0.001971
  16 C :   -0.809744    0.001133
  17 H :   -0.331947    0.002018
  18 H :   -0.256926    0.005378
  19 O :    0.729551    0.001832
  20 C :    0.891853    0.000628
  21 H :   -0.285327    0.000112
  22 H :   -0.319660    0.000052
  23 H :   -0.285448    0.000647

  Mayer bond orders larger than 0.100000
B(  0-C ,  1-C ) :   0.7114 B(  0-C ,  2-C ) :   0.7225 B(  0-C ,  3-C ) :   0.5288
B(  0-C ,  5-H ) :  -0.1597 B(  0-C ,  6-H ) :  -0.1675 B(  0-C ,  9-H ) :   0.1028
B(  0-C , 11-H ) :   0.1206 B(  1-C ,  7-C ) :   1.1235 B(  1-C ,  8-H ) :   0.9004
B(  1-C ,  9-H ) :   0.8511 B(  2-C , 10-C ) :   1.0587 B(  2-C , 11-H ) :   0.8343
B(  2-C , 12-H ) :   0.8904 B(  3-C ,  4-H ) :   0.9908 B(  3-C ,  5-H ) :   1.0932
B(  3-C ,  6-H ) :   1.1011 B(  7-C , 13-N ) :   0.9086 B(  7-C , 14-H ) :   0.9104
B(  7-C , 15-H ) :   0.8526 B( 10-C , 13-N ) :   0.8266 B( 10-C , 17-H ) :   0.9258
B( 10-C , 18-H ) :   0.8609 B( 13-N , 16-C ) :   1.2119 B( 13-N , 19-O ) :   0.3483
B( 16-C , 19-O ) :   0.9894 B( 16-C , 20-C ) :   0.8231 B( 19-O , 20-C ) :   0.1008
B( 20-C , 21-H ) :   0.9648 B( 20-C , 22-H ) :   1.0287 B( 20-C , 23-H ) :   0.9715

MP2 TOTAL ENERGY:     -442.464044790 Eh
FINAL SINGLE POINT ENERGY      -442.464044789616

DIPOLE MOMENT
-------------
                                X             Y             Z
Electronic contribution:     -6.37620      -3.39814       0.87464
Nuclear contribution   :      7.36493       4.64166      -0.52567
                        -----------------------------------------
Total Dipole Moment    :      0.98873       1.24352       0.34897
                        -----------------------------------------
Magnitude (a.u.)       :      1.62656
Magnitude (Debye)      :      4.13439

Rotational constants in cm-1:     0.089245     0.028497     0.024115
Rotational constants in MHz :  2675.509268   854.314708   722.938672

                             ****ORCA TERMINATED NORMALLY****
TOTAL RUN TIME: 0 days 2 hours 5 minutes 52 seconds 638 msec
