                         Program Version 4.2.1 -  RELEASE  -
|  1> %pal
|  2>  nprocs 32
|  3> end
|  4> !RI-MP2 aug-cc-pVQZ aug-cc-pVQZ/C TightSCF
|  5> %maxcore 4500
|  6> *xyzfile 0 1  05_31R1.xyz
|  7>
|  8>
|  9>                          ****END OF INPUT****

CARTESIAN COORDINATES (ANGSTROEM)
---------------------------------
  C      0.509312    1.628993   -0.729536
  C      1.556456    0.654242   -0.245156
  C      2.498811    0.152758   -1.136344
  C      1.616384    0.275782    1.090728
  C      3.493490   -0.710553   -0.699194
  H      2.452639    0.434745   -2.183375
  C      2.605985   -0.593139    1.527685
  H      0.876300    0.656256    1.783520
  C      3.548301   -1.086968    0.635769
  H      4.221261   -1.095759   -1.403297
  H      2.640055   -0.887351    2.569844
  O     -0.661189    1.656621    0.065323
  H      4.319194   -1.766411    0.978452
  C     -1.551250    0.627142   -0.030358
  C     -2.716070    0.770674    0.720249
  C     -1.360560   -0.508975   -0.808145
  C     -3.685323   -0.214577    0.687085
  H     -2.838432    1.665670    1.317008
  C     -2.346321   -1.490421   -0.833005
  H     -0.452102   -0.652816   -1.374576
  C     -3.508180   -1.353538   -0.092549
  H     -4.588586   -0.092603    1.272900
  H     -2.190323   -2.375152   -1.438711
  H     -4.267888   -2.124424   -0.117231
  H      0.897248    2.647597   -0.675016
  H      0.253945    1.428752   -1.775489

 Total Charge           Charge          ....    0
 Multiplicity           Mult            ....    1
 Number of Electrons    NEL             ....   98
 Basis Dimension        Dim             .... 1672

ORBITAL ENERGIES
----------------

  NO   OCC          E(Eh)            E(eV)
   0   2.0000     -20.582217      -560.0706
   1   2.0000     -11.296410      -307.3909
   2   2.0000     -11.293513      -307.3121
   3   2.0000     -11.242722      -305.9300
   4   2.0000     -11.237487      -305.7876
   5   2.0000     -11.235654      -305.7377
   6   2.0000     -11.235506      -305.7337
   7   2.0000     -11.234677      -305.7111
   8   2.0000     -11.234085      -305.6950
   9   2.0000     -11.233158      -305.6698
  10   2.0000     -11.230861      -305.6073
  11   2.0000     -11.225754      -305.4683
  12   2.0000     -11.223058      -305.3949
  13   2.0000     -11.221756      -305.3595
  14   2.0000      -1.413804       -38.4716
  15   2.0000      -1.162693       -31.6385
  16   2.0000      -1.148158       -31.2430
  17   2.0000      -1.054477       -28.6938
  18   2.0000      -1.019650       -27.7461
  19   2.0000      -1.017192       -27.6792
  20   2.0000      -1.007580       -27.4176
  21   2.0000      -0.933357       -25.3979
  22   2.0000      -0.836322       -22.7575
  23   2.0000      -0.833116       -22.6702
  24   2.0000      -0.824102       -22.4250
  25   2.0000      -0.791967       -21.5505
  26   2.0000      -0.724995       -19.7281
  27   2.0000      -0.705865       -19.2076
  28   2.0000      -0.669528       -18.2188
  29   2.0000      -0.666839       -18.1456
  30   2.0000      -0.652114       -17.7449
  31   2.0000      -0.627736       -17.0816
  32   2.0000      -0.615802       -16.7568
  33   2.0000      -0.614110       -16.7108
  34   2.0000      -0.591896       -16.1063
  35   2.0000      -0.588876       -16.0241
  36   2.0000      -0.580980       -15.8093
  37   2.0000      -0.545260       -14.8373
  38   2.0000      -0.534226       -14.5370
  39   2.0000      -0.516350       -14.0506
  40   2.0000      -0.501621       -13.6498
  41   2.0000      -0.497366       -13.5340
  42   2.0000      -0.494292       -13.4504
  43   2.0000      -0.477850       -13.0030
  44   2.0000      -0.465726       -12.6730
  45   2.0000      -0.344420        -9.3721
  46   2.0000      -0.340992        -9.2789
  47   2.0000      -0.331703        -9.0261
  48   2.0000      -0.311961        -8.4889
  49   0.0000       0.022659         0.6166
  50   0.0000       0.027080         0.7369
  51   0.0000       0.028366         0.7719
  52   0.0000       0.029262         0.7962
  53   0.0000       0.035989         0.9793

MULLIKEN ATOMIC CHARGES
-----------------------
   0 C :   -0.035546
   1 C :    0.761699
   2 C :   -0.661305
   3 C :   -0.625322
   4 C :   -0.283384
   5 H :    0.240285
   6 C :   -0.328338
   7 H :    0.265943
   8 C :   -0.376689
   9 H :    0.231025
  10 H :    0.240244
  11 O :   -0.930854
  12 H :    0.324271
  13 C :    1.162498
  14 C :   -0.629681
  15 C :   -0.370208
  16 C :   -0.357650
  17 H :    0.293842
  18 C :   -0.416397
  19 H :    0.431793
  20 C :   -0.417236
  21 H :    0.241335
  22 H :    0.213562
  23 H :    0.316622
  24 H :    0.535563
  25 H :    0.173927
Sum of atomic charges:    0.0000000

LOEWDIN ATOMIC CHARGES
----------------------
   0 C :    0.149886
   1 C :   -0.103114
   2 C :    0.340503
   3 C :    0.341808
   4 C :    0.344573
   5 H :   -0.309082
   6 C :    0.352060
   7 H :   -0.321182
   8 C :    0.337941
   9 H :   -0.319433
  10 H :   -0.317188
  11 O :    0.899186
  12 H :   -0.322325
  13 C :   -0.455826
  14 C :    0.318122
  15 C :    0.332585
  16 C :    0.326064
  17 H :   -0.325471
  18 C :    0.341260
  19 H :   -0.357757
  20 C :    0.331292
  21 H :   -0.320457
  22 H :   -0.316464
  23 H :   -0.328450
  24 H :   -0.297281
  25 H :   -0.321251

  Mayer bond orders larger than 0.100000
B(  0-C ,  1-C ) :   0.6265 B(  0-C ,  2-C ) :  -0.1719 B(  0-C ,  3-C ) :  -0.1431
B(  0-C , 11-O ) :   0.7036 B(  0-C , 24-H ) :   0.7668 B(  0-C , 25-H ) :   1.1709
B(  1-C ,  2-C ) :   0.7999 B(  1-C ,  3-C ) :   0.8957 B(  1-C ,  4-C ) :  -0.3560
B(  1-C ,  6-C ) :  -0.4316 B(  1-C , 11-O ) :  -0.1496 B(  1-C , 25-H ) :  -0.1191
B(  2-C ,  4-C ) :   1.3604 B(  2-C ,  5-H ) :   1.0518 B(  2-C ,  6-C ) :   0.1572
B(  2-C ,  8-C ) :   0.1041 B(  2-C ,  9-H ) :  -0.1461 B(  3-C ,  4-C ) :   0.1098
B(  3-C ,  6-C ) :   1.3561 B(  3-C ,  7-H ) :   0.9434 B(  3-C , 10-H ) :  -0.1412
B(  4-C ,  8-C ) :   1.1321 B(  4-C ,  9-H ) :   1.1484 B(  6-C ,  8-C ) :   1.1933
B(  6-C , 10-H ) :   1.1294 B(  8-C ,  9-H ) :  -0.1011 B(  8-C , 12-H ) :   1.0198
B( 11-O , 13-C ) :   0.2399 B( 11-O , 15-C ) :   0.1100 B( 13-C , 14-C ) :   0.9803
B( 13-C , 15-C ) :   1.2306 B( 13-C , 16-C ) :  -0.4458 B( 13-C , 18-C ) :  -0.3330
B( 14-C , 16-C ) :   1.4622 B( 14-C , 17-H ) :   0.9186 B( 14-C , 18-C ) :   0.2168
B( 14-C , 20-C ) :   0.1594 B( 14-C , 21-H ) :  -0.1596 B( 15-C , 18-C ) :   1.0461
B( 15-C , 19-H ) :   0.8435 B( 15-C , 20-C ) :  -0.1099 B( 15-C , 22-H ) :  -0.1250
B( 16-C , 20-C ) :   1.1370 B( 16-C , 21-H ) :   1.1599 B( 18-C , 19-H ) :  -0.1097
B( 18-C , 20-C ) :   1.3150 B( 18-C , 22-H ) :   1.1447 B( 18-C , 23-H ) :  -0.1063
B( 20-C , 23-H ) :   1.0216

MP2 TOTAL ENERGY:     -576.812774410 Eh
FINAL SINGLE POINT ENERGY      -576.812774410408

DIPOLE MOMENT
-------------
                                X             Y             Z
Electronic contribution:     -0.95788       1.94125       0.78409
Nuclear contribution   :      1.31156      -2.13321      -1.04388
                        -----------------------------------------
Total Dipole Moment    :      0.35368      -0.19196      -0.25979
                        -----------------------------------------
Magnitude (a.u.)       :      0.47899
Magnitude (Debye)      :      1.21749

Rotational constants in cm-1:     0.050823     0.013184     0.012532
Rotational constants in MHz :  1523.641480   395.260899   375.690923

                             ****ORCA TERMINATED NORMALLY****
TOTAL RUN TIME: 0 days 1 hours 59 minutes 17 seconds 842 msec
