                         Program Version 4.2.1 -  RELEASE  -
|  1> %pal
|  2>  nprocs 32
|  3> end
|  4> !RI-MP2 aug-cc-pVQZ aug-cc-pVQZ/C TightSCF
|  5> %maxcore 4500
|  6> *xyzfile 0 2  06_7TS.xyz
|  7>
|  8>
|  9>                          ****END OF INPUT****

CARTESIAN COORDINATES (ANGSTROEM)
---------------------------------
  C      1.886660   -1.009108    1.509835
  H      2.921868   -1.004646    1.863424
  H      1.262258   -0.606065    2.310344
  H      1.595697   -2.049343    1.348196
  C      2.752021   -0.741156   -1.447127
  H      2.462796   -1.776159   -1.640956
  H      2.622702   -0.179511   -2.374558
  H      3.815737   -0.730637   -1.192285
  C      2.178009    1.792187    0.238849
  H      2.034826    2.389220   -0.664200
  H      1.560904    2.228043    1.027441
  H      3.224910    1.885355    0.541726
  Si     1.726130   -0.001097   -0.065604
  H      0.225352   -0.030501   -0.541270
  C     -3.392459    0.183883   -0.774890
  C     -2.043300   -0.009384   -0.066927
  H     -3.432296    1.162450   -1.254635
  H     -3.533618   -0.583773   -1.536557
  H     -4.204707    0.112874   -0.047918
  C     -1.984369   -1.390845    0.585263
  C     -1.832630    1.097277    0.967276
  H     -1.019970   -1.541378    1.074379
  H     -2.768309   -1.505499    1.338006
  H     -2.108993   -2.166982   -0.171509
  H     -2.627125    1.090752    1.717387
  H     -0.880246    0.961998    1.484743
  H     -1.820379    2.071666    0.476458
  O     -1.110103    0.093796   -1.114179

 Total Charge           Charge          ....    0
 Multiplicity           Mult            ....    2
 Number of Electrons    NEL             ....   83
 Basis Dimension        Dim             .... 1598

ORBITAL ENERGIES
----------------
                 SPIN UP ORBITALS
  NO   OCC          E(Eh)            E(eV)
   0   1.0000     -68.744679     -1870.6378
   1   1.0000     -20.587217      -560.2067
   2   1.0000     -11.281472      -306.9845
   3   1.0000     -11.217439      -305.2420
   4   1.0000     -11.212908      -305.1188
   5   1.0000     -11.210732      -305.0595
   6   1.0000     -11.197280      -304.6935
   7   1.0000     -11.194422      -304.6157
   8   1.0000     -11.193552      -304.5920
   9   1.0000      -6.094371      -165.8363
  10   1.0000      -4.203241      -114.3760
  11   1.0000      -4.199687      -114.2793
  12   1.0000      -4.199648      -114.2782
  13   1.0000      -1.382591       -37.6222
  14   1.0000      -1.061518       -28.8854
  15   1.0000      -0.965456       -26.2714
  16   1.0000      -0.943578       -25.6761
  17   1.0000      -0.939626       -25.5685
  18   1.0000      -0.923425       -25.1277
  19   1.0000      -0.921302       -25.0699
  20   1.0000      -0.764207       -20.7951
  21   1.0000      -0.700878       -19.0719
  22   1.0000      -0.632749       -17.2180
  23   1.0000      -0.630406       -17.1542
  24   1.0000      -0.626480       -17.0474
  25   1.0000      -0.581725       -15.8295
  26   1.0000      -0.570886       -15.5346
  27   1.0000      -0.564288       -15.3551
  28   1.0000      -0.558598       -15.2002
  29   1.0000      -0.557036       -15.1577
  30   1.0000      -0.541558       -14.7366
  31   1.0000      -0.539643       -14.6844
  32   1.0000      -0.534707       -14.5501
  33   1.0000      -0.529604       -14.4112
  34   1.0000      -0.525950       -14.3118
  35   1.0000      -0.517277       -14.0758
  36   1.0000      -0.512465       -13.9449
  37   1.0000      -0.465982       -12.6800
  38   1.0000      -0.441392       -12.0109
  39   1.0000      -0.432093       -11.7578
  40   1.0000      -0.430890       -11.7251
  41   1.0000      -0.368420       -10.0252
  42   0.0000       0.021211         0.5772
  43   0.0000       0.028455         0.7743
  44   0.0000       0.031428         0.8552
  45   0.0000       0.032056         0.8723
  46   0.0000       0.041930         1.1410

                 SPIN DOWN ORBITALS
  NO   OCC          E(Eh)            E(eV)
   0   1.0000     -68.742719     -1870.5845
   1   1.0000     -20.549427      -559.1783
   2   1.0000     -11.283592      -307.0422
   3   1.0000     -11.215328      -305.1846
   4   1.0000     -11.212566      -305.1094
   5   1.0000     -11.210486      -305.0528
   6   1.0000     -11.196972      -304.6851
   7   1.0000     -11.194181      -304.6091
   8   1.0000     -11.193254      -304.5839
   9   1.0000      -6.091421      -165.7560
  10   1.0000      -4.198456      -114.2458
  11   1.0000      -4.198409      -114.2445
  12   1.0000      -4.195381      -114.1621
  13   1.0000      -1.270844       -34.5814
  14   1.0000      -1.038221       -28.2514
  15   1.0000      -0.962370       -26.1874
  16   1.0000      -0.939059       -25.5531
  17   1.0000      -0.936305       -25.4782
  18   1.0000      -0.922354       -25.0985
  19   1.0000      -0.920275       -25.0419
  20   1.0000      -0.743908       -20.2428
  21   1.0000      -0.637523       -17.3479
  22   1.0000      -0.622528       -16.9398
  23   1.0000      -0.621435       -16.9101
  24   1.0000      -0.602506       -16.3950
  25   1.0000      -0.567912       -15.4537
  26   1.0000      -0.562443       -15.3049
  27   1.0000      -0.558005       -15.1841
  28   1.0000      -0.553722       -15.0675
  29   1.0000      -0.546297       -14.8655
  30   1.0000      -0.539784       -14.6883
  31   1.0000      -0.537956       -14.6385
  32   1.0000      -0.529257       -14.4018
  33   1.0000      -0.516896       -14.0655
  34   1.0000      -0.514797       -14.0084
  35   1.0000      -0.501689       -13.6516
  36   1.0000      -0.478554       -13.0221
  37   1.0000      -0.429587       -11.6897
  38   1.0000      -0.428854       -11.6697
  39   1.0000      -0.419865       -11.4251
  40   1.0000      -0.414920       -11.2905
  41   0.0000       0.020935         0.5697
  42   0.0000       0.028459         0.7744
  43   0.0000       0.031462         0.8561
  44   0.0000       0.031884         0.8676
  45   0.0000       0.041818         1.1379

MULLIKEN ATOMIC CHARGES AND SPIN POPULATIONS
--------------------------------------------
   0 C :   -1.175137    0.012099
   1 H :    0.303149    0.006339
   2 H :    0.253154    0.001305
   3 H :    0.241715    0.001585
   4 C :   -1.271314    0.012407
   5 H :    0.281514    0.000278
   6 H :    0.301807   -0.000495
   7 H :    0.319092    0.004655
   8 C :   -1.252482    0.007010
   9 H :    0.288786    0.000027
  10 H :    0.276247    0.001935
  11 H :    0.335023    0.004745
  12 Si:    1.703809    0.109952
  13 H :   -0.460351   -0.058380
  14 C :   -1.085657    0.066526
  15 C :    1.912658   -0.199697
  16 H :    0.239394    0.000207
  17 H :    0.237090   -0.000366
  18 H :    0.224966    0.008405
  19 C :   -1.206783    0.013938
  20 C :   -1.245708    0.018350
  21 H :    0.404308   -0.000488
  22 H :    0.249351   -0.004863
  23 H :    0.236548   -0.000321
  24 H :    0.295424   -0.005703
  25 H :    0.382332   -0.001208
  26 H :    0.237138   -0.001267
  27 O :   -1.026072    1.003025
Sum of atomic charges         :   -0.0000000

LOEWDIN ATOMIC CHARGES AND SPIN POPULATIONS
-------------------------------------------
   0 C :    0.967789    0.021712
   1 H :   -0.340224    0.004497
   2 H :   -0.347720    0.001558
   3 H :   -0.345484    0.001698
   4 C :    0.972947    0.021086
   5 H :   -0.346358    0.001830
   6 H :   -0.345862    0.001759
   7 H :   -0.344245    0.004529
   8 C :    0.971132    0.019411
   9 H :   -0.343286    0.001434
  10 H :   -0.349906    0.001334
  11 H :   -0.342499    0.004075
  12 Si:    0.482650    0.071072
  13 H :   -0.603174    0.082755
  14 C :    0.870691    0.028828
  15 C :   -0.739494    0.082543
  16 H :   -0.280503    0.006212
  17 H :   -0.280807    0.006818
  18 H :   -0.277193    0.009444
  19 C :    0.883111   -0.004732
  20 C :    0.877981   -0.003716
  21 H :   -0.313790   -0.000911
  22 H :   -0.270090   -0.000586
  23 H :   -0.276923   -0.000963
  24 H :   -0.268904   -0.000319
  25 H :   -0.310403   -0.000327
  26 H :   -0.275340   -0.000875
  27 O :    0.975903    0.639834

  Mayer bond orders larger than 0.100000
B(  0-C ,  1-H ) :   0.9688 B(  0-C ,  2-H ) :   0.9550 B(  0-C ,  3-H ) :   0.9503
B(  0-C , 12-Si) :   0.7246 B(  4-C ,  5-H ) :   0.9403 B(  4-C ,  6-H ) :   0.9185
B(  4-C ,  7-H ) :   0.9236 B(  4-C , 12-Si) :   0.9849 B(  8-C ,  9-H ) :   0.9342
B(  8-C , 10-H ) :   0.9575 B(  8-C , 11-H ) :   0.9164 B(  8-C , 12-Si) :   0.7631
B( 12-Si, 13-H ) :   0.3686 B( 13-H , 27-O ) :   0.2383 B( 14-C , 16-H ) :   1.0665
B( 14-C , 17-H ) :   1.0728 B( 14-C , 18-H ) :   1.0701 B( 14-C , 19-C ) :   0.1176
B( 14-C , 20-C ) :   0.1288 B( 14-C , 27-O ) :   0.1724 B( 15-C , 16-H ) :  -0.1515
B( 15-C , 17-H ) :  -0.1544 B( 15-C , 18-H ) :  -0.1362 B( 15-C , 19-C ) :   0.6569
B( 15-C , 20-C ) :   0.6207 B( 15-C , 27-O ) :  -0.2447 B( 19-C , 21-H ) :   0.8140
B( 19-C , 22-H ) :   1.0260 B( 19-C , 23-H ) :   1.0207 B( 19-C , 27-O ) :   0.1538
B( 20-C , 24-H ) :   0.9819 B( 20-C , 25-H ) :   0.8676 B( 20-C , 26-H ) :   1.0227
B( 20-C , 27-O ) :   0.1693

MP2 TOTAL ENERGY:     -641.771086421 Eh
FINAL SINGLE POINT ENERGY      -641.771086420982

DIPOLE MOMENT
-------------
                                X             Y             Z
Electronic contribution:      0.72116       0.24814      -3.45184
Nuclear contribution   :     -0.83687      -0.28632       3.96238
                        -----------------------------------------
Total Dipole Moment    :     -0.11571      -0.03819       0.51054
                        -----------------------------------------
Magnitude (a.u.)       :      0.52488
Magnitude (Debye)      :      1.33414

Rotational constants in cm-1:     0.062975     0.020430     0.020277
Rotational constants in MHz :  1887.933209   612.484480   607.878170

                             ****ORCA TERMINATED NORMALLY****
TOTAL RUN TIME: 0 days 3 hours 34 minutes 46 seconds 252 msec
