                         Program Version 4.2.1 -  RELEASE  -
|  1> %pal
|  2>  nprocs 32
|  3> end
|  4> !RI-MP2 aug-cc-pVQZ aug-cc-pVQZ/C TightSCF
|  5> %maxcore 4500
|  6> *xyzfile -1 1  07_6P.xyz
|  7>
|  8>
|  9>                          ****END OF INPUT****

CARTESIAN COORDINATES (ANGSTROEM)
---------------------------------
  C     -1.338214    0.951634    0.207348
  C     -2.627850    0.166180    0.096681
  C     -2.371471   -1.258855    0.551374
  H     -2.953904    0.167288   -0.944820
  H     -3.404044    0.641879    0.696003
  C     -1.145265   -1.873864   -0.136652
  C     -0.124080   -1.025923   -0.523983
  O     -0.329921    0.407702   -0.590916
  C     -1.481029    2.391377   -0.303241
  C      1.014977   -1.428364   -1.352937
  H      0.966826   -0.778702    1.167608
  O      2.358363   -1.297361   -0.733946
  H      1.072677   -0.848784   -2.279101
  H      0.927930   -2.488754   -1.571244
  P      2.760906   -0.082397    0.211192
  O      4.170692   -0.064606    0.605792
  O      1.715967   -0.195515    1.439659
  O      2.327753    1.260635   -0.553441
  H      1.362371    1.324929   -0.671367
  O     -1.165120   -3.125155   -0.258923
  O     -3.485561   -2.081009    0.282249
  H     -2.166597   -1.256021    1.629022
  H     -3.065089   -2.931738    0.051813
  O     -2.501104    2.930034   -0.630409
  O     -0.289006    3.015190   -0.311030
  H     -0.429782    3.919349   -0.621233
  O     -0.962793    1.005892    1.566416
  H     -0.000558    1.106930    1.620285

 Total Charge           Charge          ....   -1
 Multiplicity           Mult            ....    1
 Number of Electrons    NEL             ....  148
 Basis Dimension        Dim             .... 1904

ORBITAL ENERGIES
----------------

  NO   OCC          E(Eh)            E(eV)
   0   2.0000     -79.970072     -2176.0963
   1   2.0000     -20.534887      -558.7827
   2   2.0000     -20.481446      -557.3285
   3   2.0000     -20.476130      -557.1838
   4   2.0000     -20.473913      -557.1235
   5   2.0000     -20.468816      -556.9848
   6   2.0000     -20.467293      -556.9433
   7   2.0000     -20.459936      -556.7432
   8   2.0000     -20.431184      -555.9608
   9   2.0000     -20.382974      -554.6489
  10   2.0000     -20.366607      -554.2035
  11   2.0000     -11.303664      -307.5883
  12   2.0000     -11.270302      -306.6805
  13   2.0000     -11.182683      -304.2963
  14   2.0000     -11.176424      -304.1260
  15   2.0000     -11.166045      -303.8435
  16   2.0000     -11.127236      -302.7875
  17   2.0000     -11.125788      -302.7481
  18   2.0000      -7.486288      -203.7123
  19   2.0000      -5.385275      -146.5408
  20   2.0000      -5.385091      -146.5358
  21   2.0000      -5.383697      -146.4978
  22   2.0000      -1.397855       -38.0376
  23   2.0000      -1.338526       -36.4231
  24   2.0000      -1.319810       -35.9139
  25   2.0000      -1.290509       -35.1165
  26   2.0000      -1.258927       -34.2571
  27   2.0000      -1.253306       -34.1042
  28   2.0000      -1.250327       -34.0231
  29   2.0000      -1.243974       -33.8503
  30   2.0000      -1.194278       -32.4980
  31   2.0000      -1.172283       -31.8994
  32   2.0000      -0.966192       -26.2914
  33   2.0000      -0.938740       -25.5444
  34   2.0000      -0.860985       -23.4286
  35   2.0000      -0.799075       -21.7439
  36   2.0000      -0.750860       -20.4319
  37   2.0000      -0.719610       -19.5816
  38   2.0000      -0.693942       -18.8831
  39   2.0000      -0.662594       -18.0301
  40   2.0000      -0.646158       -17.5828
  41   2.0000      -0.631793       -17.1919
  42   2.0000      -0.626236       -17.0407
  43   2.0000      -0.608326       -16.5534
  44   2.0000      -0.588855       -16.0236
  45   2.0000      -0.567684       -15.4475
  46   2.0000      -0.560630       -15.2555
  47   2.0000      -0.548804       -14.9337
  48   2.0000      -0.542403       -14.7595
  49   2.0000      -0.534833       -14.5536
  50   2.0000      -0.528694       -14.3865
  51   2.0000      -0.520237       -14.1564
  52   2.0000      -0.493341       -13.4245
  53   2.0000      -0.484049       -13.1717
  54   2.0000      -0.482196       -13.1212
  55   2.0000      -0.457381       -12.4460
  56   2.0000      -0.455399       -12.3920
  57   2.0000      -0.444916       -12.1068
  58   2.0000      -0.441116       -12.0034
  59   2.0000      -0.436991       -11.8911
  60   2.0000      -0.419892       -11.4258
  61   2.0000      -0.415505       -11.3065
  62   2.0000      -0.412059       -11.2127
  63   2.0000      -0.403554       -10.9813
  64   2.0000      -0.401951       -10.9377
  65   2.0000      -0.387309       -10.5392
  66   2.0000      -0.371486       -10.1087
  67   2.0000      -0.364777        -9.9261
  68   2.0000      -0.354994        -9.6599
  69   2.0000      -0.349378        -9.5071
  70   2.0000      -0.346485        -9.4283
  71   2.0000      -0.327812        -8.9202
  72   2.0000      -0.269564        -7.3352
  73   2.0000      -0.176370        -4.7993
  74   0.0000       0.091038         2.4773
  75   0.0000       0.103933         2.8282
  76   0.0000       0.107116         2.9148
  77   0.0000       0.112717         3.0672
  78   0.0000       0.117148         3.1878

MULLIKEN ATOMIC CHARGES
-----------------------
   0 C :    1.703527
   1 C :   -0.862266
   2 C :    0.718145
   3 H :    0.157491
   4 H :    0.334214
   5 C :    0.927084
   6 C :    0.253213
   7 O :   -1.012284
   8 C :    1.059747
   9 C :   -0.048841
  10 H :    0.450108
  11 O :   -0.976163
  12 H :    0.234067
  13 H :    0.339047
  14 P :    2.686832
  15 O :   -1.390023
  16 O :   -1.105510
  17 O :   -1.014966
  18 H :    0.431228
  19 O :   -1.128642
  20 O :   -1.101063
  21 H :    0.185486
  22 H :    0.394193
  23 O :   -0.939360
  24 O :   -0.775983
  25 H :    0.305837
  26 O :   -1.221249
  27 H :    0.396133
Sum of atomic charges:   -1.0000000

LOEWDIN ATOMIC CHARGES
----------------------
   0 C :   -1.052083
   1 C :    0.430588
   2 C :   -0.287447
   3 H :   -0.278907
   4 H :   -0.269912
   5 C :   -0.716002
   6 C :   -0.433341
   7 O :    0.880093
   8 C :   -1.059576
   9 C :    0.117161
  10 H :   -1.010599
  11 O :    0.669746
  12 H :   -0.320391
  13 H :   -0.362181
  14 P :   -0.953853
  15 O :    0.228937
  16 O :    1.131222
  17 O :    1.105497
  18 H :   -1.102947
  19 O :    0.709310
  20 O :    1.272856
  21 H :   -0.307616
  22 H :   -1.000867
  23 O :    0.720943
  24 O :    1.264072
  25 H :   -0.793146
  26 O :    1.309466
  27 H :   -0.891019

  Mayer bond orders larger than 0.100000
B(  0-C ,  1-C ) :   0.5906 B(  0-C ,  3-H ) :  -0.1375 B(  0-C ,  7-O ) :   0.6446
B(  0-C ,  8-C ) :   1.1378 B(  0-C , 16-O ) :  -0.1684 B(  0-C , 23-O ) :   0.3755
B(  0-C , 26-O ) :  -0.2525 B(  1-C ,  2-C ) :   0.9227 B(  1-C ,  3-H ) :   1.0917
B(  1-C ,  4-H ) :   0.8780 B(  1-C , 20-O ) :   0.2731 B(  1-C , 26-O ) :   0.1508
B(  2-C ,  5-C ) :   1.2003 B(  2-C ,  6-C ) :  -0.2391 B(  2-C , 19-O ) :   0.3322
B(  2-C , 20-O ) :  -0.1022 B(  2-C , 21-H ) :   0.9865 B(  5-C ,  6-C ) :   1.1316
B(  5-C , 19-O ) :  -0.2495 B(  5-C , 20-O ) :   0.2437 B(  6-C ,  7-O ) :   0.4200
B(  6-C ,  9-C ) :   0.5779 B(  6-C , 16-O ) :  -0.1188 B(  6-C , 19-O ) :   0.6054
B(  8-C , 23-O ) :   0.9410 B(  8-C , 24-O ) :   0.7504 B(  8-C , 26-O ) :   0.2222
B(  9-C , 11-O ) :   0.5016 B(  9-C , 12-H ) :   1.0072 B(  9-C , 13-H ) :   0.9211
B( 10-H , 16-O ) :   0.6513 B( 11-O , 14-P ) :   0.7730 B( 11-O , 15-O ) :  -0.2578
B( 14-P , 15-O ) :   1.0957 B( 14-P , 16-O ) :   0.6601 B( 14-P , 17-O ) :   0.6800
B( 15-O , 16-O ) :  -0.1788 B( 15-O , 17-O ) :  -0.1585 B( 17-O , 18-H ) :   0.8016
B( 20-O , 22-H ) :   0.8364 B( 23-O , 24-O ) :   0.1172 B( 24-O , 25-H ) :   0.9557
B( 26-O , 27-H ) :   0.8399

MP2 TOTAL ENERGY:    -1364.900062667 Eh
FINAL SINGLE POINT ENERGY     -1364.900062666818

DIPOLE MOMENT
-------------
                                X             Y             Z
Electronic contribution:      8.86540       3.18543       0.42990
Nuclear contribution   :     -9.96416      -1.00304      -1.07606
                        -----------------------------------------
Total Dipole Moment    :     -1.09876       2.18239      -0.64616
                        -----------------------------------------
Magnitude (a.u.)       :      2.52737
Magnitude (Debye)      :      6.42408

Rotational constants in cm-1:     0.017709     0.011284     0.007904
Rotational constants in MHz :   530.902911   338.299243   236.960073

                             ****ORCA TERMINATED NORMALLY****
TOTAL RUN TIME: 0 days 3 hours 39 minutes 12 seconds 587 msec
