                         Program Version 4.2.1 -  RELEASE  -
|  1> %pal
|  2>  nprocs 32
|  3> end
|  4> !RI-MP2 aug-cc-pVQZ aug-cc-pVQZ/C TightSCF
|  5> %maxcore 4500
|  6> *xyzfile 0 2  01_18R.xyz
|  7>
|  8>
|  9>                          ****END OF INPUT****

CARTESIAN COORDINATES (ANGSTROEM)
---------------------------------
  C      1.919407    0.662812    0.377205
  C      0.575679    1.085021   -0.088017
  C     -0.514457    0.018456    0.103444
  H      0.632914    1.345351   -1.151120
  H      0.292243    1.996329    0.447222
  C     -1.877380    0.474656   -0.420257
  H     -0.599476   -0.232240    1.165399
  H     -0.206556   -0.896346   -0.411045
  C     -2.931648   -0.578685   -0.276631
  H     -1.774737    0.739956   -1.479456
  H     -2.192392    1.383316    0.102601
  C     -4.040452   -0.457539    0.439242
  O      2.492986   -0.321183   -0.362001
  C      3.746773   -0.776860    0.106286
  H      3.664915   -1.152432    1.131936
  H      4.487059    0.027950    0.074162
  H      4.058867   -1.586176   -0.550647
  H      2.197245    0.696426    1.429443
  H     -4.762258   -1.262204    0.511078
  H     -4.267528    0.456371    0.979038
  H     -2.741720   -1.514005   -0.800228

 Total Charge           Charge          ....    0
 Multiplicity           Mult            ....    2
 Number of Electrons    NEL             ....   63
 Basis Dimension        Dim             .... 1238

ORBITAL ENERGIES
----------------
                 SPIN UP ORBITALS
  NO   OCC          E(Eh)            E(eV)
   0   1.0000     -20.572284      -559.8003
   1   1.0000     -11.276055      -306.8370
   2   1.0000     -11.269680      -306.6636
   3   1.0000     -11.227148      -305.5062
   4   1.0000     -11.220855      -305.3350
   5   1.0000     -11.218423      -305.2688
   6   1.0000     -11.217425      -305.2417
   7   1.0000     -11.214252      -305.1553
   8   1.0000      -1.404566       -38.2202
   9   1.0000      -1.093942       -29.7677
  10   1.0000      -1.047909       -28.5151
  11   1.0000      -0.980036       -26.6681
  12   1.0000      -0.922304       -25.0972
  13   1.0000      -0.851406       -23.1679
  14   1.0000      -0.793291       -21.5865
  15   1.0000      -0.753970       -20.5166
  16   1.0000      -0.681863       -18.5544
  17   1.0000      -0.663389       -18.0517
  18   1.0000      -0.650573       -17.7030
  19   1.0000      -0.636900       -17.3309
  20   1.0000      -0.604553       -16.4507
  21   1.0000      -0.584134       -15.8951
  22   1.0000      -0.559153       -15.2153
  23   1.0000      -0.538835       -14.6625
  24   1.0000      -0.517028       -14.0690
  25   1.0000      -0.509272       -13.8580
  26   1.0000      -0.493937       -13.4407
  27   1.0000      -0.481043       -13.0898
  28   1.0000      -0.469325       -12.7710
  29   1.0000      -0.466971       -12.7069
  30   1.0000      -0.360766        -9.8169
  31   1.0000      -0.310880        -8.4595
  32   0.0000       0.025523         0.6945
  33   0.0000       0.029900         0.8136
  34   0.0000       0.031460         0.8561
  35   0.0000       0.034289         0.9330
  36   0.0000       0.042038         1.1439

                 SPIN DOWN ORBITALS
  NO   OCC          E(Eh)            E(eV)
   0   1.0000     -20.566769      -559.6502
   1   1.0000     -11.276307      -306.8439
   2   1.0000     -11.245736      -306.0120
   3   1.0000     -11.227588      -305.5182
   4   1.0000     -11.220954      -305.3377
   5   1.0000     -11.220662      -305.3297
   6   1.0000     -11.215257      -305.1827
   7   1.0000     -11.213722      -305.1409
   8   1.0000      -1.387200       -37.7476
   9   1.0000      -1.090079       -29.6625
  10   1.0000      -1.036972       -28.2174
  11   1.0000      -0.967019       -26.3139
  12   1.0000      -0.920815       -25.0566
  13   1.0000      -0.828802       -22.5528
  14   1.0000      -0.774594       -21.0778
  15   1.0000      -0.753360       -20.5000
  16   1.0000      -0.672936       -18.3115
  17   1.0000      -0.648537       -17.6476
  18   1.0000      -0.634668       -17.2702
  19   1.0000      -0.624487       -16.9931
  20   1.0000      -0.603026       -16.4092
  21   1.0000      -0.581349       -15.8193
  22   1.0000      -0.545805       -14.8521
  23   1.0000      -0.532902       -14.5010
  24   1.0000      -0.511310       -13.9135
  25   1.0000      -0.497455       -13.5364
  26   1.0000      -0.477545       -12.9947
  27   1.0000      -0.475652       -12.9432
  28   1.0000      -0.466612       -12.6972
  29   1.0000      -0.449894       -12.2422
  30   1.0000      -0.357916        -9.7394
  31   0.0000       0.025710         0.6996
  32   0.0000       0.029879         0.8131
  33   0.0000       0.031525         0.8579
  34   0.0000       0.034231         0.9315
  35   0.0000       0.041596         1.1319

MULLIKEN ATOMIC CHARGES AND SPIN POPULATIONS
--------------------------------------------
   0 C :   -0.066540    1.177531
   1 C :   -0.426960   -0.253043
   2 C :   -0.235444    0.064855
   3 H :    0.250564    0.029042
   4 H :    0.307055   -0.003776
   5 C :   -0.236991    0.000981
   6 H :    0.272953   -0.003721
   7 H :    0.251407   -0.007680
   8 C :   -0.622648   -0.025207
   9 H :    0.292963   -0.003074
  10 H :    0.269612   -0.001135
  11 C :   -0.883003    0.028792
  12 O :   -0.796541    0.071286
  13 C :   -0.701326   -0.008504
  14 H :    0.299598    0.006301
  15 H :    0.294763    0.004676
  16 H :    0.386605   -0.002142
  17 H :    0.283052   -0.074008
  18 H :    0.359449   -0.001235
  19 H :    0.296536   -0.001504
  20 H :    0.404897    0.001564
Sum of atomic charges         :   -0.0000000

LOEWDIN ATOMIC CHARGES AND SPIN POPULATIONS
-------------------------------------------
   0 C :    0.054149    0.467257
   1 C :    0.461205    0.116514
   2 C :    0.495761    0.024788
   3 H :   -0.296073    0.013795
   4 H :   -0.296775    0.012183
   5 C :    0.467213    0.003354
   6 H :   -0.266013    0.008131
   7 H :   -0.277726    0.003201
   8 C :    0.356132   -0.003915
   9 H :   -0.276548   -0.000276
  10 H :   -0.299124   -0.000010
  11 C :    0.795703    0.006667
  12 O :    0.835873    0.178789
  13 C :    0.562196    0.018450
  14 H :   -0.315499    0.001149
  15 H :   -0.308484    0.005656
  16 H :   -0.325412   -0.000320
  17 H :   -0.333888    0.140707
  18 H :   -0.358458    0.003077
  19 H :   -0.354321    0.003047
  20 H :   -0.319913   -0.002243

  Mayer bond orders larger than 0.100000
B(  0-C ,  1-C ) :   0.8410 B(  0-C , 12-O ) :   0.8156 B(  0-C , 17-H ) :   0.9336
B(  1-C ,  2-C ) :   0.9118 B(  1-C ,  3-H ) :   0.8983 B(  1-C ,  4-H ) :   0.8780
B(  2-C ,  5-C ) :   0.9643 B(  2-C ,  6-H ) :   0.8467 B(  2-C ,  7-H ) :   0.8468
B(  2-C ,  8-C ) :  -0.1681 B(  5-C ,  8-C ) :   0.9530 B(  5-C ,  9-H ) :   0.8359
B(  5-C , 10-H ) :   0.8827 B(  5-C , 11-C ) :  -0.1985 B(  8-C , 11-C ) :   1.9167
B(  8-C , 20-H ) :   0.8184 B( 11-C , 18-H ) :   0.9430 B( 11-C , 19-H ) :   0.9419
B( 12-O , 13-C ) :   0.9514 B( 13-C , 14-H ) :   0.8958 B( 13-C , 15-H ) :   0.9029
B( 13-C , 16-H ) :   0.8805

MP2 TOTAL ENERGY:     -349.078347450 Eh
FINAL SINGLE POINT ENERGY      -349.078347449529

DIPOLE MOMENT
-------------
                                X             Y             Z
Electronic contribution:      1.64318      -0.02515      -1.17548
Nuclear contribution   :     -1.22534      -0.00289       1.50818
                        -----------------------------------------
Total Dipole Moment    :      0.41784      -0.02804       0.33269
                        -----------------------------------------
Magnitude (a.u.)       :      0.53485
Magnitude (Debye)      :      1.35947

Rotational constants in cm-1:     0.223127     0.021219     0.020326
Rotational constants in MHz :  6689.165681   636.132690   609.365575

                             ****ORCA TERMINATED NORMALLY****
TOTAL RUN TIME: 0 days 1 hours 12 minutes 49 seconds 909 msec
