                         Program Version 4.2.1 -  RELEASE  -
|  1> %pal
|  2>  nprocs 32
|  3> end
|  4> !RI-MP2 aug-cc-pVQZ aug-cc-pVQZ/C TightSCF
|  5> %maxcore 4500
|  6> *xyzfile 0 2  01_16P.xyz
|  7>
|  8>
|  9>                          ****END OF INPUT****

CARTESIAN COORDINATES (ANGSTROEM)
---------------------------------
  C     -2.690988    0.111628   -0.052190
  C     -1.706979   -1.072442    0.060571
  C     -0.567140   -0.068259    0.362618
  C     -1.480747    1.045433   -0.261918
  C      0.777571   -0.300672   -0.196006
  C      1.982109    0.400500    0.327204
  C      3.298656   -0.176011   -0.185959
  H     -3.191362    0.310094    0.897521
  H     -3.443129    0.073877   -0.840450
  H     -1.253081    1.180398   -1.321381
  H     -1.486859    2.020469    0.226758
  H      1.966163    0.380090    1.424215
  H      1.933400    1.470313    0.064282
  H      3.405965   -1.222909    0.106570
  H      4.155292    0.374528    0.207999
  H      3.345503   -0.129448   -1.276866
  H     -1.547232   -1.553382   -0.907620
  H     -1.908224   -1.843358    0.805288
  H      0.851338   -0.810015   -1.154245
  H     -0.502671    0.108271    1.442015

 Total Charge           Charge          ....    0
 Multiplicity           Mult            ....    2
 Number of Electrons    NEL             ....   55
 Basis Dimension        Dim             .... 1158

ORBITAL ENERGIES
----------------
                 SPIN UP ORBITALS
  NO   OCC          E(Eh)            E(eV)
   0   1.0000     -11.219035      -305.2855
   1   1.0000     -11.218141      -305.2611
   2   1.0000     -11.216993      -305.2299
   3   1.0000     -11.216192      -305.2081
   4   1.0000     -11.214137      -305.1522
   5   1.0000     -11.213555      -305.1363
   6   1.0000     -11.209830      -305.0350
   7   1.0000      -1.135300       -30.8931
   8   1.0000      -1.061155       -28.8755
   9   1.0000      -0.958384       -26.0790
  10   1.0000      -0.894877       -24.3509
  11   1.0000      -0.857011       -23.3204
  12   1.0000      -0.788558       -21.4578
  13   1.0000      -0.744554       -20.2603
  14   1.0000      -0.648662       -17.6510
  15   1.0000      -0.635503       -17.2929
  16   1.0000      -0.613685       -16.6992
  17   1.0000      -0.578156       -15.7324
  18   1.0000      -0.543566       -14.7912
  19   1.0000      -0.535484       -14.5713
  20   1.0000      -0.517520       -14.0824
  21   1.0000      -0.510366       -13.8878
  22   1.0000      -0.489848       -13.3295
  23   1.0000      -0.476593       -12.9687
  24   1.0000      -0.452254       -12.3065
  25   1.0000      -0.440677       -11.9914
  26   1.0000      -0.427140       -11.6231
  27   1.0000      -0.316118        -8.6020
  28   0.0000       0.027082         0.7369
  29   0.0000       0.029698         0.8081
  30   0.0000       0.031261         0.8507
  31   0.0000       0.033354         0.9076
  32   0.0000       0.043305         1.1784

                 SPIN DOWN ORBITALS
  NO   OCC          E(Eh)            E(eV)
   0   1.0000     -11.222540      -305.3808
   1   1.0000     -11.220224      -305.3178
   2   1.0000     -11.214140      -305.1523
   3   1.0000     -11.212834      -305.1167
   4   1.0000     -11.212694      -305.1129
   5   1.0000     -11.209370      -305.0225
   6   1.0000     -11.194624      -304.6212
   7   1.0000      -1.126884       -30.6641
   8   1.0000      -1.043089       -28.3839
   9   1.0000      -0.937067       -25.4989
  10   1.0000      -0.889343       -24.2003
  11   1.0000      -0.852035       -23.1850
  12   1.0000      -0.765073       -20.8187
  13   1.0000      -0.735026       -20.0011
  14   1.0000      -0.644812       -17.5462
  15   1.0000      -0.630781       -17.1644
  16   1.0000      -0.598057       -16.2740
  17   1.0000      -0.573476       -15.6051
  18   1.0000      -0.534965       -14.5571
  19   1.0000      -0.532875       -14.5003
  20   1.0000      -0.512192       -13.9374
  21   1.0000      -0.492096       -13.3906
  22   1.0000      -0.483935       -13.1685
  23   1.0000      -0.471041       -12.8177
  24   1.0000      -0.449449       -12.2301
  25   1.0000      -0.430618       -11.7177
  26   1.0000      -0.422467       -11.4959
  27   0.0000       0.027181         0.7396
  28   0.0000       0.029709         0.8084
  29   0.0000       0.031341         0.8528
  30   0.0000       0.033000         0.8980
  31   0.0000       0.043353         1.1797

MULLIKEN ATOMIC CHARGES AND SPIN POPULATIONS
--------------------------------------------
   0 C :   -0.570543   -0.006519
   1 C :   -0.657703    0.029605
   2 C :    0.093577   -0.241838
   3 C :   -0.629165    0.122042
   4 C :   -0.522796    1.265857
   5 C :   -0.296621   -0.212101
   6 C :   -0.910526    0.022303
   7 H :    0.227412    0.000294
   8 H :    0.331693   -0.000414
   9 H :    0.217313   -0.008837
  10 H :    0.325697   -0.001795
  11 H :    0.236814    0.028189
  12 H :    0.275784    0.082942
  13 H :    0.209454   -0.003975
  14 H :    0.270462   -0.002478
  15 H :    0.224053   -0.002585
  16 H :    0.211655   -0.000452
  17 H :    0.346486   -0.003493
  18 H :    0.352569   -0.086543
  19 H :    0.264385    0.019798
Sum of atomic charges         :   -0.0000000

LOEWDIN ATOMIC CHARGES AND SPIN POPULATIONS
-------------------------------------------
   0 C :    0.547455    0.009297
   1 C :    0.538531    0.013978
   2 C :    0.100980    0.116825
   3 C :    0.551696    0.036283
   4 C :    0.460257    0.446117
   5 C :    0.472182    0.133871
   6 C :    0.906757    0.013696
   7 H :   -0.269569    0.000729
   8 H :   -0.256155    0.000661
   9 H :   -0.269418    0.012051
  10 H :   -0.248477    0.008069
  11 H :   -0.292383    0.017278
  12 H :   -0.274205    0.029786
  13 H :   -0.285929    0.005204
  14 H :   -0.285301    0.001032
  15 H :   -0.289926    0.000432
  16 H :   -0.275641    0.002132
  17 H :   -0.246520    0.002570
  18 H :   -0.300119    0.141140
  19 H :   -0.284217    0.008851

  Mayer bond orders larger than 0.100000
B(  0-C ,  1-C ) :   1.1436 B(  0-C ,  2-C ) :  -0.2529 B(  0-C ,  3-C ) :   1.0757
B(  0-C ,  7-H ) :   0.9416 B(  0-C ,  8-H ) :   0.8524 B(  1-C ,  2-C ) :   0.8773
B(  1-C , 16-H ) :   0.9486 B(  1-C , 17-H ) :   0.8369 B(  2-C ,  3-C ) :   0.8627
B(  2-C ,  4-C ) :   0.7279 B(  2-C , 19-H ) :   0.8650 B(  3-C ,  9-H ) :   0.9375
B(  3-C , 10-H ) :   0.8577 B(  4-C ,  5-C ) :   0.7718 B(  4-C ,  6-C ) :  -0.1226
B(  4-C , 18-H ) :   0.8274 B(  5-C ,  6-C ) :   1.0506 B(  5-C , 11-H ) :   0.8770
B(  5-C , 12-H ) :   0.8243 B(  6-C , 13-H ) :   0.9756 B(  6-C , 14-H ) :   1.0175
B(  6-C , 15-H ) :   0.9457

MP2 TOTAL ENERGY:     -273.942769508 Eh
FINAL SINGLE POINT ENERGY      -273.942769507552

DIPOLE MOMENT
-------------
                                X             Y             Z
Electronic contribution:     -2.47622      -0.29234       0.36433
Nuclear contribution   :      2.47136       0.38151      -0.34642
                        -----------------------------------------
Total Dipole Moment    :     -0.00486       0.08917       0.01791
                        -----------------------------------------
Magnitude (a.u.)       :      0.09108
Magnitude (Debye)      :      0.23151

Rotational constants in cm-1:     0.266229     0.038751     0.036245
Rotational constants in MHz :  7981.334412  1161.725678  1086.599547

                             ****ORCA TERMINATED NORMALLY****
TOTAL RUN TIME: 0 days 0 hours 42 minutes 51 seconds 518 msec
