                         Program Version 4.2.1 -  RELEASE  -
|  1> %pal
|  2>  nprocs 32
|  3> end
|  4> !RI-MP2 aug-cc-pVQZ aug-cc-pVQZ/C TightSCF
|  5> %maxcore 4500
|  6> *xyzfile 0 2  04_56R.xyz
|  7>
|  8>
|  9>                          ****END OF INPUT****

CARTESIAN COORDINATES (ANGSTROEM)
---------------------------------
  C      2.007139   -0.491772    0.421179
  C      1.375447   -1.698162   -0.234700
  C      0.236273   -1.333380   -1.220893
  H      0.980895   -2.357001    0.543154
  H      2.141769   -2.260347   -0.778213
  C     -0.861950   -0.528801   -0.608913
  C     -1.719087   -1.149123    0.447266
  C     -0.855577    0.963490   -0.703685
  N      1.863479   -0.186654    1.643998
  C      2.845808    0.388290   -0.471765
  C      3.383178    1.643564    0.195044
  C     -2.261186    1.566434   -0.603644
  H     -0.371867    1.282153   -1.632043
  H     -0.243100    1.378188    0.115300
  C     -3.111593   -0.513751    0.524909
  H     -1.236090   -1.026559    1.432875
  H     -1.799914   -2.229021    0.285785
  H      2.567403    2.273427    0.551881
  H      3.996163    1.394111    1.060973
  H      3.669137   -0.225746   -0.856563
  H      2.250798    0.650888   -1.352523
  C     -3.019618    1.008264    0.597862
  H     -2.818452    1.333841   -1.517625
  H     -2.193097    2.655691   -0.541141
  H     -4.020646    1.444825    0.648945
  H     -2.502371    1.297564    1.520754
  H     -3.652037   -0.907678    1.389753
  H     -3.684908   -0.796054   -0.364730
  H      3.986805    2.221145   -0.508026
  H     -0.165581   -2.277714   -1.606434
  H      0.656867   -0.801007   -2.078079
  H      1.280874   -0.874454    2.122007

 Total Charge           Charge          ....    0
 Multiplicity           Mult            ....    2
 Number of Electrons    NEL             ....   93
 Basis Dimension        Dim             .... 1880

ORBITAL ENERGIES
----------------
                 SPIN UP ORBITALS
  NO   OCC          E(Eh)            E(eV)
   0   1.0000     -15.532058      -422.6488
   1   1.0000     -11.275030      -306.8092
   2   1.0000     -11.234120      -305.6959
   3   1.0000     -11.228239      -305.5359
   4   1.0000     -11.224435      -305.4324
   5   1.0000     -11.223164      -305.3978
   6   1.0000     -11.216939      -305.2284
   7   1.0000     -11.215128      -305.1792
   8   1.0000     -11.213895      -305.1456
   9   1.0000     -11.213276      -305.1287
  10   1.0000     -11.212177      -305.0988
  11   1.0000     -11.203244      -304.8558
  12   1.0000      -1.212007       -32.9804
  13   1.0000      -1.131950       -30.8019
  14   1.0000      -1.063971       -28.9521
  15   1.0000      -1.031738       -28.0750
  16   1.0000      -1.006211       -27.3804
  17   1.0000      -0.990346       -26.9487
  18   1.0000      -0.898516       -24.4499
  19   1.0000      -0.858204       -23.3529
  20   1.0000      -0.837473       -22.7888
  21   1.0000      -0.797901       -21.7120
  22   1.0000      -0.738299       -20.0901
  23   1.0000      -0.721900       -19.6439
  24   1.0000      -0.658640       -17.9225
  25   1.0000      -0.646059       -17.5802
  26   1.0000      -0.628088       -17.0912
  27   1.0000      -0.612843       -16.6763
  28   1.0000      -0.603908       -16.4332
  29   1.0000      -0.600650       -16.3445
  30   1.0000      -0.586370       -15.9559
  31   1.0000      -0.576429       -15.6854
  32   1.0000      -0.555209       -15.1080
  33   1.0000      -0.539394       -14.6777
  34   1.0000      -0.528820       -14.3899
  35   1.0000      -0.516150       -14.0452
  36   1.0000      -0.504504       -13.7282
  37   1.0000      -0.499056       -13.5800
  38   1.0000      -0.489179       -13.3112
  39   1.0000      -0.486109       -13.2277
  40   1.0000      -0.473758       -12.8916
  41   1.0000      -0.464176       -12.6309
  42   1.0000      -0.436942       -11.8898
  43   1.0000      -0.435376       -11.8472
  44   1.0000      -0.413916       -11.2632
  45   1.0000      -0.402439       -10.9509
  46   1.0000      -0.310519        -8.4497
  47   0.0000       0.021752         0.5919
  48   0.0000       0.026338         0.7167
  49   0.0000       0.026997         0.7346
  50   0.0000       0.031096         0.8462
  51   0.0000       0.037979         1.0335

                 SPIN DOWN ORBITALS
  NO   OCC          E(Eh)            E(eV)
   0   1.0000     -15.532001      -422.6472
   1   1.0000     -11.275186      -306.8134
   2   1.0000     -11.231840      -305.6339
   3   1.0000     -11.231218      -305.6170
   4   1.0000     -11.224434      -305.4324
   5   1.0000     -11.219955      -305.3105
   6   1.0000     -11.216552      -305.2179
   7   1.0000     -11.214316      -305.1571
   8   1.0000     -11.212904      -305.1186
   9   1.0000     -11.212222      -305.1001
  10   1.0000     -11.203244      -304.8558
  11   1.0000     -11.198748      -304.7334
  12   1.0000      -1.211434       -32.9648
  13   1.0000      -1.112397       -30.2699
  14   1.0000      -1.057082       -28.7647
  15   1.0000      -1.029774       -28.0216
  16   1.0000      -1.005138       -27.3512
  17   1.0000      -0.973871       -26.5004
  18   1.0000      -0.897758       -24.4292
  19   1.0000      -0.854795       -23.2602
  20   1.0000      -0.835944       -22.7472
  21   1.0000      -0.786778       -21.4093
  22   1.0000      -0.735385       -20.0108
  23   1.0000      -0.698709       -19.0128
  24   1.0000      -0.654671       -17.8145
  25   1.0000      -0.643857       -17.5202
  26   1.0000      -0.620060       -16.8727
  27   1.0000      -0.611581       -16.6420
  28   1.0000      -0.598248       -16.2792
  29   1.0000      -0.592379       -16.1194
  30   1.0000      -0.573090       -15.5946
  31   1.0000      -0.563121       -15.3233
  32   1.0000      -0.550455       -14.9786
  33   1.0000      -0.533050       -14.5050
  34   1.0000      -0.528278       -14.3752
  35   1.0000      -0.509548       -13.8655
  36   1.0000      -0.502134       -13.6638
  37   1.0000      -0.498017       -13.5517
  38   1.0000      -0.487777       -13.2731
  39   1.0000      -0.482533       -13.1304
  40   1.0000      -0.470360       -12.7992
  41   1.0000      -0.460480       -12.5303
  42   1.0000      -0.433153       -11.7867
  43   1.0000      -0.431037       -11.7291
  44   1.0000      -0.410524       -11.1709
  45   1.0000      -0.401241       -10.9183
  46   0.0000       0.021854         0.5947
  47   0.0000       0.025998         0.7074
  48   0.0000       0.026973         0.7340
  49   0.0000       0.031194         0.8488
  50   0.0000       0.037974         1.0333

MULLIKEN ATOMIC CHARGES AND SPIN POPULATIONS
--------------------------------------------
   0 C :    0.776229   -0.003920
   1 C :   -0.403395    0.070171
   2 C :   -0.415715   -0.180750
   3 H :    0.222803   -0.008726
   4 H :    0.197138    0.006263
   5 C :    0.401804    1.279998
   6 C :   -0.338691   -0.242720
   7 C :   -0.240534   -0.252203
   8 N :   -1.085290    0.002301
   9 C :   -0.463094   -0.001643
  10 C :   -0.925567   -0.000051
  11 C :   -0.565977    0.040758
  12 H :    0.297526    0.001225
  13 H :    0.081539    0.107121
  14 C :   -0.542435    0.041797
  15 H :    0.102850    0.114184
  16 H :    0.283803   -0.000142
  17 H :    0.211176   -0.000107
  18 H :    0.235325   -0.000008
  19 H :    0.338586   -0.000764
  20 H :    0.281496   -0.001224
  21 C :   -0.471409   -0.019260
  22 H :    0.142443    0.000693
  23 H :    0.212653   -0.003510
  24 H :    0.268739    0.000392
  25 H :    0.133898    0.001001
  26 H :    0.219148   -0.003139
  27 H :    0.146512   -0.001157
  28 H :    0.270429   -0.000107
  29 H :    0.234750    0.044121
  30 H :    0.189010    0.008842
  31 H :    0.204249    0.000566
Sum of atomic charges         :   -0.0000000

LOEWDIN ATOMIC CHARGES AND SPIN POPULATIONS
-------------------------------------------
   0 C :   -0.286143    0.007095
   1 C :    0.524925    0.026883
   2 C :    0.529720    0.113957
   3 H :   -0.301628    0.005217
   4 H :   -0.263496    0.006951
   5 C :    0.066119    0.447603
   6 C :    0.509652    0.117129
   7 C :    0.513434    0.119545
   8 N :    1.042181    0.001143
   9 C :    0.467715    0.000291
  10 C :    0.901869    0.000171
  11 C :    0.538429    0.016002
  12 H :   -0.277680    0.010198
  13 H :   -0.271811    0.027733
  14 C :    0.535730    0.015925
  15 H :   -0.267375    0.026863
  16 H :   -0.273012    0.009250
  17 H :   -0.288837    0.000356
  18 H :   -0.291345   -0.000006
  19 H :   -0.269223    0.000160
  20 H :   -0.302630    0.000226
  21 C :    0.529702    0.002790
  22 H :   -0.262276    0.005561
  23 H :   -0.257759    0.002519
  24 H :   -0.258589    0.000548
  25 H :   -0.260017    0.000894
  26 H :   -0.258389    0.002568
  27 H :   -0.262148    0.005508
  28 H :   -0.278777   -0.000001
  29 H :   -0.271593    0.018168
  30 H :   -0.299856    0.007886
  31 H :   -0.656889    0.000865

  Mayer bond orders larger than 0.100000
B(  0-C ,  1-C ) :   0.7261 B(  0-C ,  8-N ) :   1.1900 B(  0-C ,  9-C ) :   0.7681
B(  0-C , 10-C ) :  -0.1662 B(  1-C ,  2-C ) :   0.8280 B(  1-C ,  3-H ) :   1.0820
B(  1-C ,  4-H ) :   1.0550 B(  1-C ,  5-C ) :  -0.1234 B(  2-C ,  5-C ) :   0.3612
B(  2-C , 29-H ) :   1.0443 B(  2-C , 30-H ) :   1.0760 B(  5-C ,  6-C ) :   0.6122
B(  5-C ,  7-C ) :   0.7477 B(  5-C , 13-H ) :   0.1362 B(  5-C , 14-C ) :  -0.1260
B(  5-C , 15-H ) :   0.1157 B(  5-C , 29-H ) :  -0.1353 B(  6-C , 14-C ) :   0.8299
B(  6-C , 15-H ) :   0.9438 B(  6-C , 16-H ) :   0.9319 B(  7-C , 11-C ) :   0.7180
B(  7-C , 12-H ) :   0.9244 B(  7-C , 13-H ) :   0.8997 B(  7-C , 21-C ) :  -0.1044
B(  7-C , 22-H ) :  -0.1111 B(  8-N , 31-H ) :   0.9707 B(  9-C , 10-C ) :   0.9065
B(  9-C , 19-H ) :   0.8663 B(  9-C , 20-H ) :   0.8292 B(  9-C , 28-H ) :  -0.1151
B( 10-C , 17-H ) :   0.9605 B( 10-C , 18-H ) :   1.0024 B( 10-C , 28-H ) :   1.0255
B( 11-C , 21-C ) :   0.9151 B( 11-C , 22-H ) :   1.1028 B( 11-C , 23-H ) :   1.0357
B( 14-C , 21-C ) :   0.9189 B( 14-C , 26-H ) :   1.0221 B( 14-C , 27-H ) :   1.0677
B( 21-C , 24-H ) :   0.9425 B( 21-C , 25-H ) :   1.0449

MP2 TOTAL ENERGY:     -485.001991754 Eh
FINAL SINGLE POINT ENERGY      -485.001991754438

DIPOLE MOMENT
-------------
                                X             Y             Z
Electronic contribution:      0.93549      -2.82574       0.94552
Nuclear contribution   :     -1.20414       2.28468      -1.63256
                        -----------------------------------------
Total Dipole Moment    :     -0.26865      -0.54106      -0.68704
                        -----------------------------------------
Magnitude (a.u.)       :      0.91485
Magnitude (Debye)      :      2.32535

Rotational constants in cm-1:     0.049878     0.017861     0.016038
Rotational constants in MHz :  1495.316037   535.466519   480.804698

                             ****ORCA TERMINATED NORMALLY****
TOTAL RUN TIME: 0 days 4 hours 5 minutes 29 seconds 684 msec
