                         Program Version 4.2.1 -  RELEASE  -
|  1> %pal
|  2>  nprocs 32
|  3> end
|  4> !RI-MP2 aug-cc-pVQZ aug-cc-pVQZ/C TightSCF
|  5> %maxcore 4500
|  6> *xyzfile 0 1  03_6P2.xyz
|  7>
|  8>
|  9>                          ****END OF INPUT****

CARTESIAN COORDINATES (ANGSTROEM)
---------------------------------
  C     -0.380747    0.001459    0.045696
  C     -0.844677   -1.218970   -0.725290
  C     -0.887678    1.308391   -0.517167
  O     -0.750123   -0.047966    1.379864
  H     -1.935002   -1.266268   -0.683253
  H     -0.434204   -2.131542   -0.289600
  H     -0.528141   -1.165870   -1.766038
  H     -0.575186    1.428923   -1.553154
  H     -0.504852    2.139214    0.073184
  H     -1.978358    1.312672   -0.466339
  H     -0.467256   -0.885034    1.762377
  Cl     1.476623    0.023903   -0.055031

 Total Charge           Charge          ....    0
 Multiplicity           Mult            ....    1
 Number of Electrons    NEL             ....   50
 Basis Dimension        Dim             ....  726

ORBITAL ENERGIES
----------------

  NO   OCC          E(Eh)            E(eV)
   0   2.0000    -104.810069     -2852.0270
   1   2.0000     -20.584858      -560.1425
   2   2.0000     -11.363512      -309.2169
   3   2.0000     -11.237602      -305.7907
   4   2.0000     -11.230089      -305.5862
   5   2.0000     -10.536388      -286.7097
   6   2.0000      -8.003228      -217.7789
   7   2.0000      -8.001812      -217.7404
   8   2.0000      -8.001768      -217.7392
   9   2.0000      -1.408561       -38.3289
  10   2.0000      -1.119821       -30.4719
  11   2.0000      -1.021085       -27.7851
  12   2.0000      -0.968655       -26.3584
  13   2.0000      -0.810190       -22.0464
  14   2.0000      -0.701150       -19.0792
  15   2.0000      -0.648435       -17.6448
  16   2.0000      -0.644503       -17.5378
  17   2.0000      -0.578387       -15.7387
  18   2.0000      -0.564662       -15.3652
  19   2.0000      -0.557568       -15.1722
  20   2.0000      -0.536822       -14.6077
  21   2.0000      -0.506768       -13.7899
  22   2.0000      -0.458181       -12.4677
  23   2.0000      -0.435943       -11.8626
  24   2.0000      -0.430501       -11.7145
  25   0.0000       0.024260         0.6601
  26   0.0000       0.032992         0.8977
  27   0.0000       0.036928         1.0049
  28   0.0000       0.041460         1.1282
  29   0.0000       0.053883         1.4662

MULLIKEN ATOMIC CHARGES
-----------------------
   0 C :    1.212416
   1 C :   -0.907618
   2 C :   -0.945674
   3 O :   -0.858171
   4 H :    0.266885
   5 H :    0.297037
   6 H :    0.272467
   7 H :    0.256661
   8 H :    0.310884
   9 H :    0.250680
  10 H :    0.331855
  11 Cl:   -0.487422
Sum of atomic charges:    0.0000000

LOEWDIN ATOMIC CHARGES
----------------------
   0 C :   -1.268675
   1 C :    0.779762
   2 C :    0.769880
   3 O :    1.229210
   4 H :   -0.285554
   5 H :   -0.310306
   6 H :   -0.306794
   7 H :   -0.308863
   8 H :   -0.311427
   9 H :   -0.287873
  10 H :   -0.805339
  11 Cl:    1.105979

  Mayer bond orders larger than 0.100000
B(  0-C ,  1-C ) :   0.7693 B(  0-C ,  2-C ) :   0.7432 B(  0-C ,  3-O ) :   0.3984
B(  0-C , 11-Cl) :   0.5929 B(  1-C ,  4-H ) :   0.9014 B(  1-C ,  5-H ) :   0.9441
B(  1-C ,  6-H ) :   0.9601 B(  2-C ,  3-O ) :   0.1053 B(  2-C ,  7-H ) :   1.0005
B(  2-C ,  8-H ) :   0.9361 B(  2-C ,  9-H ) :   0.9235 B(  3-O , 10-H ) :   0.8845

MP2 TOTAL ENERGY:     -653.199307024 Eh
FINAL SINGLE POINT ENERGY      -653.199307023716

DIPOLE MOMENT
-------------
                                X             Y             Z
Electronic contribution:      7.73467       0.12384       2.52416
Nuclear contribution   :     -8.48974      -0.59879      -2.80331
                        -----------------------------------------
Total Dipole Moment    :     -0.75507      -0.47495      -0.27915
                        -----------------------------------------
Magnitude (a.u.)       :      0.93469
Magnitude (Debye)      :      2.37578

Rotational constants in cm-1:     0.161245     0.102935     0.099264
Rotational constants in MHz :  4833.992781  3085.907420  2975.867027

                             ****ORCA TERMINATED NORMALLY****
TOTAL RUN TIME: 0 days 0 hours 7 minutes 53 seconds 27 msec
