                         Program Version 4.2.1 -  RELEASE  -
|  1> %pal
|  2>  nprocs 32
|  3> end
|  4> !RI-MP2 aug-cc-pVQZ aug-cc-pVQZ/C TightSCF
|  5> %maxcore 4500
|  6> *xyzfile -1 1  07_7R.xyz
|  7>
|  8>
|  9>                          ****END OF INPUT****

CARTESIAN COORDINATES (ANGSTROEM)
---------------------------------
  C     -1.175336    0.923045    0.305232
  C     -2.479117    0.133318    0.220054
  C     -2.158359   -1.274306    0.727687
  H     -3.196517    0.604216    0.895221
  C     -0.963366   -1.891896   -0.014587
  C      0.032577   -1.039002   -0.455006
  O     -0.196058    0.389911   -0.529249
  C     -1.325552    2.392456   -0.113964
  C      1.135098   -1.434595   -1.335409
  H      1.182265   -0.788488    1.160750
  O      2.504400   -1.274163   -0.785061
  H      1.137639   -0.864663   -2.269451
  H      1.054510   -2.498709   -1.537873
  P      2.928342   -0.057424    0.149233
  O      4.351362   -0.029190    0.492641
  O      1.927724   -0.188443    1.413142
  O      2.458587    1.284552   -0.593169
  H      1.490099    1.350549   -0.680298
  O     -0.980087   -3.144049   -0.125224
  O     -3.258567   -2.143621    0.588887
  H     -1.879856   -1.202612    1.784362
  H     -2.828009   -2.983354    0.333830
  O     -2.347774    3.019319   -0.131006
  O     -0.130027    2.945871   -0.388587
  H     -0.275683    3.883820   -0.569787
  O     -0.754115    0.955380    1.656111
  H      0.213395    1.019309    1.676066
  C     -3.043143    0.112304   -1.197008
  H     -3.909286   -0.547570   -1.222584
  H     -3.348363    1.109521   -1.514448
  H     -2.305699   -0.273145   -1.904153

 Total Charge           Charge          ....   -1
 Multiplicity           Mult            ....    1
 Number of Electrons    NEL             ....  156
 Basis Dimension        Dim             .... 2076

ORBITAL ENERGIES
----------------

  NO   OCC          E(Eh)            E(eV)
   0   2.0000     -79.970057     -2176.0959
   1   2.0000     -20.534554      -558.7736
   2   2.0000     -20.480131      -557.2927
   3   2.0000     -20.474814      -557.1480
   4   2.0000     -20.471460      -557.0567
   5   2.0000     -20.468646      -556.9802
   6   2.0000     -20.466845      -556.9312
   7   2.0000     -20.460062      -556.7466
   8   2.0000     -20.430109      -555.9315
   9   2.0000     -20.382722      -554.6421
  10   2.0000     -20.368648      -554.2591
  11   2.0000     -11.303297      -307.5783
  12   2.0000     -11.268681      -306.6364
  13   2.0000     -11.183190      -304.3101
  14   2.0000     -11.177383      -304.1521
  15   2.0000     -11.163899      -303.7851
  16   2.0000     -11.133988      -302.9712
  17   2.0000     -11.125285      -302.7344
  18   2.0000     -11.112189      -302.3780
  19   2.0000      -7.486245      -203.7111
  20   2.0000      -5.385243      -146.5399
  21   2.0000      -5.385045      -146.5345
  22   2.0000      -5.383652      -146.4966
  23   2.0000      -1.397379       -38.0246
  24   2.0000      -1.338372       -36.4189
  25   2.0000      -1.319497       -35.9053
  26   2.0000      -1.289472       -35.0883
  27   2.0000      -1.258176       -34.2367
  28   2.0000      -1.253585       -34.1118
  29   2.0000      -1.250299       -34.0224
  30   2.0000      -1.243578       -33.8395
  31   2.0000      -1.195537       -32.5322
  32   2.0000      -1.172031       -31.8926
  33   2.0000      -0.986563       -26.8457
  34   2.0000      -0.940559       -25.5939
  35   2.0000      -0.861022       -23.4296
  36   2.0000      -0.846619       -23.0377
  37   2.0000      -0.781088       -21.2545
  38   2.0000      -0.748164       -20.3586
  39   2.0000      -0.710462       -19.3326
  40   2.0000      -0.689388       -18.7592
  41   2.0000      -0.652153       -17.7460
  42   2.0000      -0.640051       -17.4167
  43   2.0000      -0.628968       -17.1151
  44   2.0000      -0.625437       -17.0190
  45   2.0000      -0.608073       -16.5465
  46   2.0000      -0.589625       -16.0445
  47   2.0000      -0.571395       -15.5485
  48   2.0000      -0.563937       -15.3455
  49   2.0000      -0.548223       -14.9179
  50   2.0000      -0.543299       -14.7839
  51   2.0000      -0.538464       -14.6523
  52   2.0000      -0.532298       -14.4846
  53   2.0000      -0.521948       -14.2029
  54   2.0000      -0.495836       -13.4924
  55   2.0000      -0.490408       -13.3447
  56   2.0000      -0.487806       -13.2739
  57   2.0000      -0.465389       -12.6639
  58   2.0000      -0.455706       -12.4004
  59   2.0000      -0.450102       -12.2479
  60   2.0000      -0.445430       -12.1208
  61   2.0000      -0.434291       -11.8177
  62   2.0000      -0.428226       -11.6526
  63   2.0000      -0.422675       -11.5016
  64   2.0000      -0.413487       -11.2515
  65   2.0000      -0.409288       -11.1373
  66   2.0000      -0.408512       -11.1162
  67   2.0000      -0.398098       -10.8328
  68   2.0000      -0.392794       -10.6885
  69   2.0000      -0.380307       -10.3487
  70   2.0000      -0.372244       -10.1293
  71   2.0000      -0.364639        -9.9223
  72   2.0000      -0.351375        -9.5614
  73   2.0000      -0.348954        -9.4955
  74   2.0000      -0.346198        -9.4205
  75   2.0000      -0.321652        -8.7526
  76   2.0000      -0.270716        -7.3665
  77   2.0000      -0.177145        -4.8204
  78   0.0000       0.090337         2.4582
  79   0.0000       0.100398         2.7320
  80   0.0000       0.103197         2.8081
  81   0.0000       0.108088         2.9412
  82   0.0000       0.114175         3.1069

MULLIKEN ATOMIC CHARGES
-----------------------
   0 C :    2.080667
   1 C :   -0.432054
   2 C :    0.807686
   3 H :    0.215454
   4 C :    1.126449
   5 C :    0.006993
   6 O :   -0.828374
   7 C :    1.173595
   8 C :   -0.050302
   9 H :    0.459999
  10 O :   -1.024276
  11 H :    0.178558
  12 H :    0.326727
  13 P :    2.692318
  14 O :   -1.399027
  15 O :   -1.143593
  16 O :   -1.036002
  17 H :    0.403357
  18 O :   -1.194593
  19 O :   -1.166624
  20 H :    0.354043
  21 H :    0.344512
  22 O :   -0.984231
  23 O :   -0.842302
  24 H :    0.308732
  25 O :   -1.306313
  26 H :    0.379389
  27 C :   -1.054002
  28 H :    0.235641
  29 H :    0.241600
  30 H :    0.125975
Sum of atomic charges:   -1.0000000

LOEWDIN ATOMIC CHARGES
----------------------
   0 C :   -1.045067
   1 C :    0.037280
   2 C :   -0.283713
   3 H :   -0.275528
   4 C :   -0.712484
   5 C :   -0.439538
   6 O :    0.882640
   7 C :   -1.051871
   8 C :    0.122099
   9 H :   -1.015555
  10 O :    0.671400
  11 H :   -0.318767
  12 H :   -0.359067
  13 P :   -0.949068
  14 O :    0.229148
  15 O :    1.136305
  16 O :    1.106337
  17 H :   -1.107946
  18 O :    0.722713
  19 O :    1.281969
  20 H :   -0.317448
  21 H :   -1.000940
  22 O :    0.738457
  23 O :    1.272920
  24 H :   -0.789147
  25 O :    1.317663
  26 H :   -0.898732
  27 C :    0.919252
  28 H :   -0.288440
  29 H :   -0.301870
  30 H :   -0.283003

  Mayer bond orders larger than 0.100000
B(  0-C ,  1-C ) :   0.6839 B(  0-C ,  6-O ) :   0.6048 B(  0-C ,  7-C ) :   1.0106
B(  0-C , 15-O ) :  -0.1343 B(  0-C , 22-O ) :   0.4450 B(  0-C , 23-O ) :  -0.1538
B(  0-C , 25-O ) :  -0.5099 B(  0-C , 26-H ) :  -0.1196 B(  1-C ,  2-C ) :   0.8173
B(  1-C ,  3-H ) :   0.9708 B(  1-C , 19-O ) :   0.3340 B(  1-C , 25-O ) :   0.2668
B(  1-C , 27-C ) :   0.5415 B(  1-C , 28-H ) :  -0.1630 B(  2-C ,  4-C ) :   1.1511
B(  2-C ,  5-C ) :  -0.2082 B(  2-C , 18-O ) :   0.2779 B(  2-C , 19-O ) :  -0.2688
B(  2-C , 20-H ) :   0.9883 B(  4-C ,  5-C ) :   1.2066 B(  4-C , 18-O ) :  -0.4272
B(  4-C , 19-O ) :   0.2818 B(  5-C ,  6-O ) :   0.3718 B(  5-C ,  8-C ) :   0.4824
B(  5-C , 11-H ) :  -0.1233 B(  5-C , 15-O ) :  -0.1283 B(  5-C , 18-O ) :   0.6977
B(  6-O , 17-H ) :   0.1131 B(  7-C , 22-O ) :   0.8194 B(  7-C , 23-O ) :   0.7479
B(  7-C , 25-O ) :   0.2561 B(  8-C , 10-O ) :   0.4490 B(  8-C , 11-H ) :   1.0691
B(  8-C , 12-H ) :   0.9757 B(  9-H , 15-O ) :   0.6246 B( 10-O , 13-P ) :   0.7584
B( 10-O , 14-O ) :  -0.2586 B( 13-P , 14-O ) :   1.0717 B( 13-P , 15-O ) :   0.6837
B( 13-P , 16-O ) :   0.6925 B( 14-O , 15-O ) :  -0.1748 B( 14-O , 16-O ) :  -0.1561
B( 16-O , 17-H ) :   0.7818 B( 18-O , 19-O ) :   0.1083 B( 19-O , 21-H ) :   0.8777
B( 22-O , 23-O ) :   0.1658 B( 23-O , 24-H ) :   0.9567 B( 23-O , 26-H ) :   0.1334
B( 25-O , 26-H ) :   0.8545 B( 27-C , 28-H ) :   1.1010 B( 27-C , 29-H ) :   1.0714
B( 27-C , 30-H ) :   1.0541

MP2 TOTAL ENERGY:    -1404.140322245 Eh
FINAL SINGLE POINT ENERGY     -1404.140322245490

DIPOLE MOMENT
-------------
                                X             Y             Z
Electronic contribution:     13.54047       3.15911       2.98438
Nuclear contribution   :    -14.98383      -1.07802      -3.85863
                        -----------------------------------------
Total Dipole Moment    :     -1.44336       2.08109      -0.87425
                        -----------------------------------------
Magnitude (a.u.)       :      2.67928
Magnitude (Debye)      :      6.81019

Rotational constants in cm-1:     0.017090     0.010183     0.007402
Rotational constants in MHz :   512.334111   305.264811   221.913448

                             ****ORCA TERMINATED NORMALLY****
TOTAL RUN TIME: 0 days 4 hours 49 minutes 7 seconds 305 msec
