                         Program Version 4.2.1 -  RELEASE  -
|  1> %pal
|  2>  nprocs 32
|  3> end
|  4> !RI-MP2 aug-cc-pVQZ aug-cc-pVQZ/C TightSCF
|  5> %maxcore 4500
|  6> *xyzfile 0 1  10_10P.xyz
|  7>
|  8>
|  9>                          ****END OF INPUT****

CARTESIAN COORDINATES (ANGSTROEM)
---------------------------------
  C     -1.321552   -0.615340   -0.189216
  C     -0.406450    0.570783   -0.011840
  N     -0.463747   -1.755218   -0.403949
  N      0.732442   -1.405587   -0.321373
  N      0.870465   -0.061490   -0.193321
  C      2.101561    0.447305    0.358178
  H      2.311120    1.436595   -0.050229
  H      2.061958    0.515563    1.452475
  H      2.905429   -0.228296    0.072480
  C     -1.185603    0.049495    1.161635
  H     -2.035782    0.636518    1.482643
  H     -0.668019   -0.493661    1.943367
  C     -0.583981    1.947043   -0.581669
  H     -0.003980    2.686310   -0.023450
  H     -0.270696    1.974372   -1.627019
  H     -1.632291    2.243840   -0.527384
  H     -2.265709   -0.610886   -0.714915

 Total Charge           Charge          ....    0
 Multiplicity           Mult            ....    1
 Number of Electrons    NEL             ....   60
 Basis Dimension        Dim             .... 1054

ORBITAL ENERGIES
----------------

  NO   OCC          E(Eh)            E(eV)
   0   2.0000     -15.653285      -425.9475
   1   2.0000     -15.601557      -424.5400
   2   2.0000     -15.591752      -424.2731
   3   2.0000     -11.282951      -307.0247
   4   2.0000     -11.265569      -306.5517
   5   2.0000     -11.264787      -306.5304
   6   2.0000     -11.237324      -305.7831
   7   2.0000     -11.235296      -305.7279
   8   2.0000      -1.429057       -38.8866
   9   2.0000      -1.210037       -32.9268
  10   2.0000      -1.161219       -31.5984
  11   2.0000      -0.990972       -26.9657
  12   2.0000      -0.964402       -26.2427
  13   2.0000      -0.898745       -24.4561
  14   2.0000      -0.825187       -22.4545
  15   2.0000      -0.764488       -20.8028
  16   2.0000      -0.703178       -19.1344
  17   2.0000      -0.658767       -17.9260
  18   2.0000      -0.625857       -17.0304
  19   2.0000      -0.618314       -16.8252
  20   2.0000      -0.591908       -16.1066
  21   2.0000      -0.588613       -16.0170
  22   2.0000      -0.557911       -15.1815
  23   2.0000      -0.551554       -15.0086
  24   2.0000      -0.538791       -14.6613
  25   2.0000      -0.516594       -14.0572
  26   2.0000      -0.477642       -12.9973
  27   2.0000      -0.434652       -11.8275
  28   2.0000      -0.391736       -10.6597
  29   2.0000      -0.336889        -9.1672
  30   0.0000       0.021769         0.5924
  31   0.0000       0.029299         0.7973
  32   0.0000       0.030111         0.8194
  33   0.0000       0.035069         0.9543
  34   0.0000       0.046135         1.2554

MULLIKEN ATOMIC CHARGES
-----------------------
   0 C :   -0.150173
   1 C :    0.432398
   2 N :   -0.425600
   3 N :   -0.290004
   4 N :    0.006641
   5 C :   -0.895481
   6 H :    0.342776
   7 H :    0.302386
   8 H :    0.338145
   9 C :   -0.802467
  10 H :    0.291723
  11 H :    0.317733
  12 C :   -0.701549
  13 H :    0.215477
  14 H :    0.204068
  15 H :    0.271747
  16 H :    0.542179
Sum of atomic charges:    0.0000000

LOEWDIN ATOMIC CHARGES
----------------------
   0 C :   -0.098619
   1 C :   -0.479037
   2 N :    0.369801
   3 N :    0.227087
   4 N :    0.198683
   5 C :    0.760522
   6 H :   -0.296761
   7 H :   -0.273079
   8 H :   -0.309120
   9 C :    0.595731
  10 H :   -0.270404
  11 H :   -0.270836
  12 C :    0.951851
  13 H :   -0.277746
  14 H :   -0.271701
  15 H :   -0.284169
  16 H :   -0.272204

  Mayer bond orders larger than 0.100000
B(  0-C ,  1-C ) :   0.7751 B(  0-C ,  2-N ) :   0.7355 B(  0-C ,  9-C ) :   1.0419
B(  0-C , 16-H ) :   0.6862 B(  1-C ,  4-N ) :   0.6573 B(  1-C ,  9-C ) :   0.8084
B(  1-C , 12-C ) :   0.4090 B(  1-C , 14-H ) :  -0.1431 B(  2-N ,  3-N ) :   1.4884
B(  2-N ,  9-C ) :   0.1059 B(  3-N ,  4-N ) :   0.7255 B(  4-N ,  5-C ) :   0.7958
B(  5-C ,  6-H ) :   0.9320 B(  5-C ,  7-H ) :   0.9206 B(  5-C ,  8-H ) :   0.9383
B(  9-C , 10-H ) :   0.9443 B(  9-C , 11-H ) :   0.8913 B( 12-C , 13-H ) :   1.0369
B( 12-C , 14-H ) :   1.0913 B( 12-C , 15-H ) :   0.9920

MP2 TOTAL ENERGY:     -359.518134286 Eh
FINAL SINGLE POINT ENERGY      -359.518134285993

DIPOLE MOMENT
-------------
                                X             Y             Z
Electronic contribution:     -0.52898      -6.74663      -1.63460
Nuclear contribution   :      0.41437       8.25398       2.03026
                        -----------------------------------------
Total Dipole Moment    :     -0.11462       1.50735       0.39566
                        -----------------------------------------
Magnitude (a.u.)       :      1.56262
Magnitude (Debye)      :      3.97186

Rotational constants in cm-1:     0.091376     0.090216     0.057065
Rotational constants in MHz :  2739.389723  2704.620190  1710.752112

                             ****ORCA TERMINATED NORMALLY****
TOTAL RUN TIME: 0 days 0 hours 36 minutes 26 seconds 359 msec
