                         Program Version 4.2.1 -  RELEASE  -
|  1> %pal
|  2>  nprocs 32
|  3> end
|  4> !RI-MP2 aug-cc-pVQZ aug-cc-pVQZ/C TightSCF
|  5> %maxcore 4500
|  6> *xyzfile 0 2  04_89R2.xyz
|  7>
|  8>
|  9>                          ****END OF INPUT****

CARTESIAN COORDINATES (ANGSTROEM)
---------------------------------
  N      0.163773   -0.661448   -0.539311
  C      1.210596    0.178054   -0.262438
  C      2.288424   -0.653894   -0.001681
  N      1.925955   -1.978464   -0.119560
  C      0.664354   -1.940734   -0.446170
  C      3.496960   -0.019241    0.323526
  N      3.532366    1.318017    0.356081
  C      2.420626    1.998644    0.082528
  N      1.222922    1.517896   -0.233401
  N      4.616507   -0.709708    0.601700
  H      5.458443   -0.207751    0.826167
  H      4.608169   -1.715053    0.580704
  H      2.507312    3.079086    0.124924
  H      0.028659   -2.792600   -0.624819
  C     -1.170165   -0.242254   -0.963844
  C     -1.732675    0.878109   -0.077860
  C     -3.206356    0.518882   -0.044996
  C     -3.145245   -1.009196    0.024850
  O     -2.055994   -1.329553   -0.874660
  H     -1.110550    0.094500   -2.002657
  C     -2.912198   -1.545026    1.385942
  H     -4.034654   -1.463397   -0.426040
  H     -2.462067   -2.522475    1.494555
  H     -3.318693   -1.033159    2.246337
  O     -1.529115    2.170777   -0.567844
  H     -1.330734    0.768405    0.936453
  H     -0.568847    2.334317   -0.507196
  O     -3.912394    1.062789    1.040689
  H     -3.660212    0.820326   -0.996508
  H     -3.853400    2.021580    0.984905

 Total Charge           Charge          ....    0
 Multiplicity           Mult            ....    2
 Number of Electrons    NEL             ....  131
 Basis Dimension        Dim             .... 1992

ORBITAL ENERGIES
----------------
                 SPIN UP ORBITALS
  NO   OCC          E(Eh)            E(eV)
   0   1.0000     -20.582851      -560.0878
   1   1.0000     -20.572131      -559.7961
   2   1.0000     -20.555701      -559.3491
   3   1.0000     -15.627761      -425.2530
   4   1.0000     -15.589286      -424.2060
   5   1.0000     -15.567314      -423.6082
   6   1.0000     -15.563677      -423.5092
   7   1.0000     -15.554691      -423.2647
   8   1.0000     -11.343489      -308.6720
   9   1.0000     -11.343013      -308.6591
  10   1.0000     -11.319541      -308.0204
  11   1.0000     -11.318757      -307.9990
  12   1.0000     -11.317196      -307.9566
  13   1.0000     -11.300794      -307.5102
  14   1.0000     -11.294361      -307.3352
  15   1.0000     -11.290355      -307.2262
  16   1.0000     -11.253291      -306.2176
  17   1.0000     -11.239780      -305.8500
  18   1.0000      -1.428120       -38.8611
  19   1.0000      -1.385822       -37.7101
  20   1.0000      -1.372418       -37.3454
  21   1.0000      -1.364818       -37.1386
  22   1.0000      -1.311553       -35.6892
  23   1.0000      -1.258303       -34.2402
  24   1.0000      -1.201266       -32.6881
  25   1.0000      -1.164984       -31.7008
  26   1.0000      -1.073792       -29.2194
  27   1.0000      -1.043659       -28.3994
  28   1.0000      -1.035074       -28.1658
  29   1.0000      -0.949880       -25.8476
  30   1.0000      -0.901990       -24.5444
  31   1.0000      -0.886382       -24.1197
  32   1.0000      -0.856550       -23.3079
  33   1.0000      -0.820271       -22.3207
  34   1.0000      -0.793743       -21.5988
  35   1.0000      -0.770719       -20.9723
  36   1.0000      -0.752943       -20.4886
  37   1.0000      -0.740463       -20.1490
  38   1.0000      -0.713501       -19.4153
  39   1.0000      -0.698246       -19.0003
  40   1.0000      -0.688344       -18.7308
  41   1.0000      -0.672107       -18.2890
  42   1.0000      -0.661158       -17.9910
  43   1.0000      -0.650768       -17.7083
  44   1.0000      -0.642901       -17.4942
  45   1.0000      -0.630967       -17.1695
  46   1.0000      -0.620528       -16.8854
  47   1.0000      -0.609782       -16.5930
  48   1.0000      -0.592320       -16.1179
  49   1.0000      -0.585144       -15.9226
  50   1.0000      -0.577746       -15.7213
  51   1.0000      -0.556309       -15.1379
  52   1.0000      -0.548681       -14.9304
  53   1.0000      -0.539144       -14.6709
  54   1.0000      -0.510591       -13.8939
  55   1.0000      -0.505860       -13.7651
  56   1.0000      -0.494398       -13.4533
  57   1.0000      -0.468466       -12.7476
  58   1.0000      -0.458230       -12.4691
  59   1.0000      -0.457135       -12.4393
  60   1.0000      -0.445222       -12.1151
  61   1.0000      -0.420673       -11.4471
  62   1.0000      -0.411360       -11.1937
  63   1.0000      -0.380278       -10.3479
  64   1.0000      -0.370073       -10.0702
  65   1.0000      -0.316209        -8.6045
  66   0.0000       0.022668         0.6168
  67   0.0000       0.025779         0.7015
  68   0.0000       0.028672         0.7802
  69   0.0000       0.031998         0.8707
  70   0.0000       0.035900         0.9769

                 SPIN DOWN ORBITALS
  NO   OCC          E(Eh)            E(eV)
   0   1.0000     -20.581787      -560.0589
   1   1.0000     -20.572164      -559.7970
   2   1.0000     -20.555675      -559.3483
   3   1.0000     -15.627726      -425.2520
   4   1.0000     -15.589287      -424.2061
   5   1.0000     -15.567304      -423.6079
   6   1.0000     -15.563699      -423.5098
   7   1.0000     -15.554681      -423.2644
   8   1.0000     -11.343495      -308.6722
   9   1.0000     -11.343042      -308.6599
  10   1.0000     -11.319550      -308.0206
  11   1.0000     -11.318766      -307.9993
  12   1.0000     -11.317178      -307.9561
  13   1.0000     -11.303998      -307.5974
  14   1.0000     -11.293649      -307.3158
  15   1.0000     -11.290274      -307.2240
  16   1.0000     -11.253277      -306.2172
  17   1.0000     -11.216302      -305.2111
  18   1.0000      -1.426009       -38.8037
  19   1.0000      -1.385593       -37.7039
  20   1.0000      -1.371838       -37.3296
  21   1.0000      -1.364736       -37.1364
  22   1.0000      -1.311492       -35.6875
  23   1.0000      -1.258302       -34.2401
  24   1.0000      -1.201074       -32.6829
  25   1.0000      -1.164899       -31.6985
  26   1.0000      -1.061900       -28.8958
  27   1.0000      -1.043326       -28.3904
  28   1.0000      -1.024199       -27.8699
  29   1.0000      -0.916059       -24.9272
  30   1.0000      -0.900848       -24.5133
  31   1.0000      -0.885794       -24.1037
  32   1.0000      -0.845187       -22.9987
  33   1.0000      -0.813704       -22.1420
  34   1.0000      -0.783546       -21.3214
  35   1.0000      -0.769574       -20.9412
  36   1.0000      -0.750067       -20.4104
  37   1.0000      -0.739446       -20.1213
  38   1.0000      -0.711495       -19.3608
  39   1.0000      -0.697434       -18.9781
  40   1.0000      -0.687336       -18.7034
  41   1.0000      -0.669157       -18.2087
  42   1.0000      -0.659936       -17.9578
  43   1.0000      -0.646959       -17.6046
  44   1.0000      -0.639741       -17.4082
  45   1.0000      -0.629306       -17.1243
  46   1.0000      -0.619571       -16.8594
  47   1.0000      -0.608386       -16.5550
  48   1.0000      -0.589735       -16.0475
  49   1.0000      -0.576078       -15.6759
  50   1.0000      -0.573267       -15.5994
  51   1.0000      -0.552543       -15.0355
  52   1.0000      -0.543711       -14.7951
  53   1.0000      -0.537665       -14.6306
  54   1.0000      -0.510580       -13.8936
  55   1.0000      -0.504558       -13.7297
  56   1.0000      -0.490752       -13.3540
  57   1.0000      -0.464834       -12.6488
  58   1.0000      -0.455910       -12.4059
  59   1.0000      -0.453556       -12.3419
  60   1.0000      -0.444388       -12.0924
  61   1.0000      -0.420354       -11.4384
  62   1.0000      -0.410949       -11.1825
  63   1.0000      -0.377011       -10.2590
  64   1.0000      -0.316175        -8.6036
  65   0.0000       0.022747         0.6190
  66   0.0000       0.025881         0.7043
  67   0.0000       0.028688         0.7806
  68   0.0000       0.032179         0.8756
  69   0.0000       0.035951         0.9783

MULLIKEN ATOMIC CHARGES AND SPIN POPULATIONS
--------------------------------------------
   0 N :   -0.299374   -0.023728
   1 C :    0.940199    0.008008
   2 C :   -0.223943   -0.004776
   3 N :   -1.026188   -0.000584
   4 C :    0.366510   -0.004331
   5 C :    1.097733    0.000076
   6 N :   -0.935909    0.000299
   7 C :   -0.078190   -0.000050
   8 N :   -0.707566    0.000378
   9 N :   -0.834960   -0.000024
  10 H :    0.269074    0.000015
  11 H :    0.308634   -0.000000
  12 H :    0.577802    0.000071
  13 H :    0.476482    0.000558
  14 C :    0.400063    0.048025
  15 C :    0.700611   -0.027987
  16 C :    0.433890    0.017717
  17 C :    0.333704   -0.231055
  18 O :   -1.253678    0.019825
  19 H :    0.425303    0.001797
  20 C :   -1.109119    1.269289
  21 H :    0.547648    0.098534
  22 H :    0.345912   -0.089040
  23 H :    0.350931   -0.088989
  24 O :   -1.111801    0.001105
  25 H :    0.154828    0.006947
  26 H :    0.234872    0.000007
  27 O :   -1.012355    0.000723
  28 H :    0.312597   -0.003821
  29 H :    0.316289    0.001013
Sum of atomic charges         :   -0.0000000

LOEWDIN ATOMIC CHARGES AND SPIN POPULATIONS
-------------------------------------------
   0 N :    0.439601    0.002157
   1 C :   -0.571441    0.000410
   2 C :   -0.423762    0.000179
   3 N :    0.620513   -0.000142
   4 C :   -0.029209    0.001631
   5 C :   -0.493155    0.000012
   6 N :    0.599002    0.000100
   7 C :   -0.140891   -0.000089
   8 N :    0.651206    0.000103
   9 N :    1.266978   -0.000042
  10 H :   -0.483481   -0.000006
  11 H :   -0.480855   -0.000004
  12 H :   -0.372065   -0.000048
  13 H :   -0.315698    0.000281
  14 C :   -0.353243    0.006043
  15 C :   -0.278470    0.011085
  16 C :   -0.271860    0.014819
  17 C :   -0.244775    0.143867
  18 O :    0.916495    0.015064
  19 H :   -0.283965    0.000236
  20 C :    0.861715    0.456926
  21 H :   -0.299489    0.032697
  22 H :   -0.325283    0.149685
  23 H :   -0.342267    0.150848
  24 O :    1.319771    0.000960
  25 H :   -0.296361    0.009999
  26 H :   -0.940300    0.000175
  27 O :    1.310769    0.001364
  28 H :   -0.278468    0.001534
  29 H :   -0.761012    0.000155

  Mayer bond orders larger than 0.100000
B(  0-N ,  1-C ) :   1.0662 B(  0-N ,  2-C ) :  -0.1355 B(  0-N ,  4-C ) :   1.2851
B(  0-N ,  8-N ) :   0.1074 B(  0-N , 14-C ) :   0.6227 B(  0-N , 18-O ) :  -0.1415
B(  0-N , 19-H ) :  -0.1015 B(  1-C ,  2-C ) :   1.2647 B(  1-C ,  3-N ) :   0.3642
B(  1-C ,  4-C ) :   0.2272 B(  1-C ,  5-C ) :  -0.3603 B(  1-C ,  7-C ) :  -0.1477
B(  1-C ,  8-N ) :   0.9538 B(  1-C , 14-C ) :  -0.1192 B(  2-C ,  3-N ) :   0.3652
B(  2-C ,  4-C ) :   0.1833 B(  2-C ,  5-C ) :   1.4209 B(  2-C ,  6-N ) :   0.2099
B(  2-C ,  7-C ) :   0.1926 B(  3-N ,  4-C ) :   1.1234 B(  4-C , 13-H ) :   0.6850
B(  5-C ,  6-N ) :   0.6822 B(  5-C ,  9-N ) :   0.8698 B(  6-N ,  7-C ) :   1.3034
B(  6-N ,  9-N ) :   0.1441 B(  7-C ,  8-N ) :   1.5920 B(  7-C , 12-H ) :   0.7075
B(  8-N , 26-H ) :   0.1966 B(  9-N , 10-H ) :   0.9889 B(  9-N , 11-H ) :   0.9122
B( 14-C , 15-C ) :   1.0557 B( 14-C , 18-O ) :   0.4302 B( 14-C , 19-H ) :   0.7984
B( 14-C , 20-C ) :   0.1233 B( 14-C , 24-O ) :   0.1959 B( 15-C , 16-C ) :   0.5441
B( 15-C , 18-O ) :   0.1413 B( 15-C , 25-H ) :   0.9908 B( 15-C , 27-O ) :   0.2418
B( 16-C , 17-C ) :   1.0848 B( 16-C , 24-O ) :   0.1364 B( 16-C , 28-H ) :   1.0140
B( 17-C , 18-O ) :   0.6176 B( 17-C , 20-C ) :   0.6115 B( 17-C , 21-H ) :   0.6396
B( 17-C , 27-O ) :   0.1549 B( 18-O , 20-C ) :   0.1038 B( 20-C , 22-H ) :   0.9365
B( 20-C , 23-H ) :   0.9662 B( 24-O , 25-H ) :   0.1147 B( 24-O , 26-H ) :   0.9250
B( 27-O , 29-H ) :   0.9543

MP2 TOTAL ENERGY:     -886.368328162 Eh
FINAL SINGLE POINT ENERGY      -886.368328161971

DIPOLE MOMENT
-------------
                                X             Y             Z
Electronic contribution:      7.79257       0.27579      -2.53225
Nuclear contribution   :     -7.65646      -0.57931       2.58661
                        -----------------------------------------
Total Dipole Moment    :      0.13611      -0.30352       0.05436
                        -----------------------------------------
Magnitude (a.u.)       :      0.33705
Magnitude (Debye)      :      0.85672

Rotational constants in cm-1:     0.031116     0.009259     0.007806
Rotational constants in MHz :   932.834911   277.563315   234.032857

                             ****ORCA TERMINATED NORMALLY****
TOTAL RUN TIME: 0 days 5 hours 15 minutes 33 seconds 427 msec
