                         Program Version 4.2.1 -  RELEASE  -
|  1> %pal
|  2>  nprocs 32
|  3> end
|  4> !RI-MP2 aug-cc-pVQZ aug-cc-pVQZ/C TightSCF
|  5> %maxcore 4500
|  6> *xyzfile 0 1  02_48P.xyz
|  7>
|  8>
|  9>                          ****END OF INPUT****

CARTESIAN COORDINATES (ANGSTROEM)
---------------------------------
  C      3.311522    0.693859   -1.180634
  C      2.262875    1.397528   -0.596839
  C      1.211432    0.696477   -0.033969
  C      1.211432   -0.696477   -0.033969
  C      2.262875   -1.397528   -0.596839
  C      3.311522   -0.693859   -1.180634
  H      4.134006    1.233881   -1.633569
  H      2.273013    2.480138   -0.590213
  C      0.000000    1.279301    0.655385
  C      0.000000   -1.279301    0.655385
  H      2.273013   -2.480138   -0.590213
  H      4.134006   -1.233881   -1.633569
  N      0.000000    0.607795    2.047139
  N      0.000000   -0.607795    2.047139
  C      0.000000   -2.773927    0.860379
  H      0.000000   -3.303406   -0.093729
  H      0.881578   -3.074435    1.427024
  H     -0.881578   -3.074435    1.427024
  C      0.000000    2.773927    0.860379
  H      0.881578    3.074435    1.427024
  H      0.000000    3.303406   -0.093729
  H     -0.881578    3.074435    1.427024
  C     -3.311522    0.693859   -1.180634
  C     -2.262875    1.397528   -0.596839
  C     -1.211432    0.696477   -0.033969
  C     -1.211432   -0.696477   -0.033969
  C     -2.262875   -1.397528   -0.596839
  C     -3.311522   -0.693859   -1.180634
  H     -4.134006    1.233881   -1.633569
  H     -2.273013    2.480138   -0.590213
  H     -4.134006   -1.233881   -1.633569
  H     -2.273013   -2.480138   -0.590213

 Total Charge           Charge          ....    0
 Multiplicity           Mult            ....    1
 Number of Electrons    NEL             ....  124
 Basis Dimension        Dim             .... 2084

ORBITAL ENERGIES
----------------

  NO   OCC          E(Eh)            E(eV)
   0   2.0000     -15.621545      -425.0839
   1   2.0000     -15.619956      -425.0406
   2   2.0000     -11.284880      -307.0772
   3   2.0000     -11.284860      -307.0767
   4   2.0000     -11.245184      -305.9970
   5   2.0000     -11.245168      -305.9966
   6   2.0000     -11.243953      -305.9635
   7   2.0000     -11.243948      -305.9634
   8   2.0000     -11.240128      -305.8594
   9   2.0000     -11.240127      -305.8594
  10   2.0000     -11.240050      -305.8573
  11   2.0000     -11.240049      -305.8573
  12   2.0000     -11.237957      -305.8003
  13   2.0000     -11.237956      -305.8003
  14   2.0000     -11.236757      -305.7677
  15   2.0000     -11.236757      -305.7677
  16   2.0000     -11.226199      -305.4804
  17   2.0000     -11.226199      -305.4804
  18   2.0000      -1.382138       -37.6099
  19   2.0000      -1.192786       -32.4574
  20   2.0000      -1.160079       -31.5674
  21   2.0000      -1.116478       -30.3809
  22   2.0000      -1.094466       -29.7819
  23   2.0000      -1.025641       -27.9091
  24   2.0000      -1.017575       -27.6896
  25   2.0000      -1.007576       -27.4175
  26   2.0000      -0.994117       -27.0513
  27   2.0000      -0.913669       -24.8622
  28   2.0000      -0.900464       -24.5029
  29   2.0000      -0.843526       -22.9535
  30   2.0000      -0.829289       -22.5661
  31   2.0000      -0.829019       -22.5588
  32   2.0000      -0.791384       -21.5347
  33   2.0000      -0.724944       -19.7267
  34   2.0000      -0.720923       -19.6173
  35   2.0000      -0.715217       -19.4621
  36   2.0000      -0.674370       -18.3505
  37   2.0000      -0.644140       -17.5279
  38   2.0000      -0.633971       -17.2512
  39   2.0000      -0.633417       -17.2362
  40   2.0000      -0.616856       -16.7855
  41   2.0000      -0.615180       -16.7399
  42   2.0000      -0.614746       -16.7281
  43   2.0000      -0.595663       -16.2088
  44   2.0000      -0.567662       -15.4469
  45   2.0000      -0.551615       -15.0102
  46   2.0000      -0.547057       -14.8862
  47   2.0000      -0.545485       -14.8434
  48   2.0000      -0.542383       -14.7590
  49   2.0000      -0.532851       -14.4996
  50   2.0000      -0.528017       -14.3681
  51   2.0000      -0.515891       -14.0381
  52   2.0000      -0.513377       -13.9697
  53   2.0000      -0.495562       -13.4849
  54   2.0000      -0.477323       -12.9886
  55   2.0000      -0.469199       -12.7675
  56   2.0000      -0.465332       -12.6623
  57   2.0000      -0.387799       -10.5525
  58   2.0000      -0.355997        -9.6872
  59   2.0000      -0.342031        -9.3071
  60   2.0000      -0.327486        -8.9114
  61   2.0000      -0.315860        -8.5950
  62   0.0000       0.020550         0.5592
  63   0.0000       0.023659         0.6438
  64   0.0000       0.024282         0.6608
  65   0.0000       0.032778         0.8919
  66   0.0000       0.032918         0.8957

MULLIKEN ATOMIC CHARGES
-----------------------
   0 C :   -0.473088
   1 C :   -0.764425
   2 C :    0.517769
   3 C :    0.521457
   4 C :   -0.763303
   5 C :   -0.472295
   6 H :    0.260643
   7 H :    0.176364
   8 C :    1.863019
   9 C :    1.858868
  10 H :    0.176455
  11 H :    0.260632
  12 N :   -0.517006
  13 N :   -0.516611
  14 C :   -1.394516
  15 H :    0.177721
  16 H :    0.216055
  17 H :    0.216602
  18 C :   -1.394655
  19 H :    0.216071
  20 H :    0.177769
  21 H :    0.216393
  22 C :   -0.471922
  23 C :   -0.764107
  24 C :    0.519007
  25 C :    0.518910
  26 C :   -0.762738
  27 C :   -0.472824
  28 H :    0.260627
  29 H :    0.176307
  30 H :    0.260548
  31 H :    0.176275
Sum of atomic charges:    0.0000000

LOEWDIN ATOMIC CHARGES
----------------------
   0 C :    0.363940
   1 C :    0.387166
   2 C :   -0.109049
   3 C :   -0.109049
   4 C :    0.387167
   5 C :    0.363940
   6 H :   -0.318788
   7 H :   -0.321225
   8 C :   -0.486507
   9 C :   -0.486507
  10 H :   -0.321225
  11 H :   -0.318788
  12 N :    0.412103
  13 N :    0.412103
  14 C :    0.884861
  15 H :   -0.273484
  16 H :   -0.270532
  17 H :   -0.270532
  18 C :    0.884861
  19 H :   -0.270532
  20 H :   -0.273484
  21 H :   -0.270532
  22 C :    0.363940
  23 C :    0.387166
  24 C :   -0.109048
  25 C :   -0.109049
  26 C :    0.387167
  27 C :    0.363940
  28 H :   -0.318788
  29 H :   -0.321225
  30 H :   -0.318788
  31 H :   -0.321225

  Mayer bond orders larger than 0.100000
B(  0-C ,  1-C ) :   1.2268 B(  0-C ,  2-C ) :  -0.2881 B(  0-C ,  3-C ) :  -0.1012
B(  0-C ,  4-C ) :   0.1933 B(  0-C ,  5-C ) :   1.2513 B(  0-C ,  6-H ) :   1.1698
B(  1-C ,  2-C ) :   0.7377 B(  1-C ,  3-C ) :  -0.4978 B(  1-C ,  4-C ) :   0.1868
B(  1-C ,  5-C ) :   0.1942 B(  1-C ,  6-H ) :  -0.2071 B(  1-C ,  7-H ) :   1.1510
B(  2-C ,  3-C ) :   0.2307 B(  2-C ,  4-C ) :  -0.4956 B(  2-C ,  5-C ) :  -0.1019
B(  2-C ,  7-H ) :  -0.1037 B(  2-C ,  8-C ) :   0.5826 B(  2-C ,  9-C ) :  -0.5327
B(  2-C , 13-N ) :   0.1138 B(  2-C , 25-C ) :   0.3317 B(  3-C ,  4-C ) :   0.7376
B(  3-C ,  5-C ) :  -0.2871 B(  3-C ,  8-C ) :  -0.5339 B(  3-C ,  9-C ) :   0.5852
B(  3-C , 10-H ) :  -0.1036 B(  3-C , 12-N ) :   0.1136 B(  3-C , 24-C ) :   0.3310
B(  4-C ,  5-C ) :   1.2234 B(  4-C , 10-H ) :   1.1511 B(  4-C , 11-H ) :  -0.2076
B(  5-C , 11-H ) :   1.1701 B(  8-C ,  9-C ) :   0.7415 B(  8-C , 12-N ) :   0.3761
B(  8-C , 13-N ) :  -0.1202 B(  8-C , 18-C ) :  -0.4392 B(  8-C , 19-H ) :  -0.3269
B(  8-C , 20-H ) :  -0.3193 B(  8-C , 21-H ) :  -0.3266 B(  8-C , 24-C ) :   0.5833
B(  8-C , 25-C ) :  -0.5344 B(  9-C , 12-N ) :  -0.1195 B(  9-C , 13-N ) :   0.3766
B(  9-C , 14-C ) :  -0.4391 B(  9-C , 15-H ) :  -0.3196 B(  9-C , 16-H ) :  -0.3269
B(  9-C , 17-H ) :  -0.3262 B(  9-C , 24-C ) :  -0.5338 B(  9-C , 25-C ) :   0.5862
B( 12-N , 13-N ) :   0.9357 B( 12-N , 18-C ) :   0.1743 B( 12-N , 25-C ) :   0.1142
B( 13-N , 14-C ) :   0.1742 B( 13-N , 24-C ) :   0.1156 B( 14-C , 15-H ) :   1.2343
B( 14-C , 16-H ) :   1.2128 B( 14-C , 17-H ) :   1.2119 B( 18-C , 19-H ) :   1.2127
B( 18-C , 20-H ) :   1.2341 B( 18-C , 21-H ) :   1.2122 B( 22-C , 23-C ) :   1.2246
B( 22-C , 24-C ) :  -0.2884 B( 22-C , 25-C ) :  -0.1011 B( 22-C , 26-C ) :   0.1929
B( 22-C , 27-C ) :   1.2502 B( 22-C , 28-H ) :   1.1703 B( 23-C , 24-C ) :   0.7344
B( 23-C , 25-C ) :  -0.4959 B( 23-C , 26-C ) :   0.1873 B( 23-C , 27-C ) :   0.1937
B( 23-C , 28-H ) :  -0.2076 B( 23-C , 29-H ) :   1.1514 B( 24-C , 25-C ) :   0.2341
B( 24-C , 26-C ) :  -0.4960 B( 24-C , 27-C ) :  -0.1015 B( 24-C , 29-H ) :  -0.1039
B( 25-C , 26-C ) :   0.7373 B( 25-C , 27-C ) :  -0.2881 B( 25-C , 31-H ) :  -0.1035
B( 26-C , 27-C ) :   1.2245 B( 26-C , 30-H ) :  -0.2075 B( 26-C , 31-H ) :   1.1512
B( 27-C , 30-H ) :   1.1703

MP2 TOTAL ENERGY:     -726.340341906 Eh
FINAL SINGLE POINT ENERGY      -726.340341905698

DIPOLE MOMENT
-------------
                                X             Y             Z
Electronic contribution:     -0.00000       0.00000       2.22800
Nuclear contribution   :     -0.00000       0.00000      -3.33014
                        -----------------------------------------
Total Dipole Moment    :     -0.00000       0.00000      -1.10214
                        -----------------------------------------
Magnitude (a.u.)       :      1.10214
Magnitude (Debye)      :      2.80141

Rotational constants in cm-1:     0.023550     0.014211     0.012023
Rotational constants in MHz :   706.025742   426.035691   360.450320

                             ****ORCA TERMINATED NORMALLY****
TOTAL RUN TIME: 0 days 5 hours 21 minutes 31 seconds 694 msec
