                         Program Version 4.2.1 -  RELEASE  -
|  1> %pal
|  2>  nprocs 32
|  3> end
|  4> !RI-MP2 aug-cc-pVQZ aug-cc-pVQZ/C TightSCF
|  5> %maxcore 4500
|  6> *xyzfile 0 2  01_7R.xyz
|  7>
|  8>
|  9>                          ****END OF INPUT****

CARTESIAN COORDINATES (ANGSTROEM)
---------------------------------
  C     -3.038518   -0.418864   -0.141486
  C     -1.838551    0.453372   -0.073128
  C     -0.533231   -0.312652    0.131958
  C      0.694385    0.599452    0.158030
  C      1.966116   -0.150488    0.408753
  C      2.997348   -0.203820   -0.421790
  H     -4.031750   -0.012478   -0.000957
  H     -2.953014   -1.453504   -0.450861
  H     -1.961561    1.195916    0.724953
  H     -1.756315    1.046263   -0.999413
  H     -0.415044   -1.051456   -0.667262
  H     -0.590052   -0.877584    1.068232
  H      0.558201    1.350266    0.945920
  H      0.770653    1.146124   -0.787047
  H      3.888982   -0.772145   -0.186050
  H      2.987013    0.323738   -1.370304
  H      2.017592   -0.697137    1.348769

 Total Charge           Charge          ....    0
 Multiplicity           Mult            ....    2
 Number of Electrons    NEL             ....   47
 Basis Dimension        Dim             ....  986

ORBITAL ENERGIES
----------------
                 SPIN UP ORBITALS
  NO   OCC          E(Eh)            E(eV)
   0   1.0000     -11.229396      -305.5674
   1   1.0000     -11.226997      -305.5021
   2   1.0000     -11.223269      -305.4007
   3   1.0000     -11.222046      -305.3674
   4   1.0000     -11.220361      -305.3215
   5   1.0000     -11.216085      -305.2052
   6   1.0000      -1.097443       -29.8629
   7   1.0000      -1.050440       -28.5839
   8   1.0000      -0.971572       -26.4378
   9   1.0000      -0.868327       -23.6284
  10   1.0000      -0.796620       -21.6771
  11   1.0000      -0.755743       -20.5648
  12   1.0000      -0.654958       -17.8223
  13   1.0000      -0.622730       -16.9453
  14   1.0000      -0.605875       -16.4867
  15   1.0000      -0.591956       -16.1079
  16   1.0000      -0.555611       -15.1189
  17   1.0000      -0.534758       -14.5515
  18   1.0000      -0.510802       -13.8996
  19   1.0000      -0.490630       -13.3507
  20   1.0000      -0.477049       -12.9812
  21   1.0000      -0.465898       -12.6777
  22   1.0000      -0.360562        -9.8114
  23   1.0000      -0.348383        -9.4800
  24   0.0000       0.026962         0.7337
  25   0.0000       0.029759         0.8098
  26   0.0000       0.032960         0.8969
  27   0.0000       0.034379         0.9355
  28   0.0000       0.042955         1.1689

                 SPIN DOWN ORBITALS
  NO   OCC          E(Eh)            E(eV)
   0   1.0000     -11.229418      -305.5680
   1   1.0000     -11.225148      -305.4518
   2   1.0000     -11.223311      -305.4018
   3   1.0000     -11.219872      -305.3082
   4   1.0000     -11.216070      -305.2048
   5   1.0000     -11.203458      -304.8616
   6   1.0000      -1.093783       -29.7633
   7   1.0000      -1.037933       -28.2436
   8   1.0000      -0.950229       -25.8570
   9   1.0000      -0.840717       -22.8771
  10   1.0000      -0.773419       -21.0458
  11   1.0000      -0.753916       -20.5151
  12   1.0000      -0.652043       -17.7430
  13   1.0000      -0.616914       -16.7871
  14   1.0000      -0.596347       -16.2274
  15   1.0000      -0.587395       -15.9838
  16   1.0000      -0.546810       -14.8795
  17   1.0000      -0.523375       -14.2417
  18   1.0000      -0.505580       -13.7575
  19   1.0000      -0.485129       -13.2010
  20   1.0000      -0.472298       -12.8519
  21   1.0000      -0.464356       -12.6358
  22   1.0000      -0.360117        -9.7993
  23   0.0000       0.027254         0.7416
  24   0.0000       0.029907         0.8138
  25   0.0000       0.032779         0.8920
  26   0.0000       0.034489         0.9385
  27   0.0000       0.043024         1.1707

MULLIKEN ATOMIC CHARGES AND SPIN POPULATIONS
--------------------------------------------
   0 C :   -1.015718    1.235140
   1 C :   -0.299435   -0.213463
   2 C :   -0.250292    0.030536
   3 C :   -0.212474   -0.005686
   4 C :   -0.609885    0.000283
   5 C :   -0.884195    0.000733
   6 H :    0.363026   -0.074552
   7 H :    0.334524   -0.077830
   8 H :    0.231763    0.029567
   9 H :    0.204968    0.078037
  10 H :    0.242814   -0.003807
  11 H :    0.253093   -0.001615
  12 H :    0.301808    0.000813
  13 H :    0.268802    0.001395
  14 H :    0.356367   -0.000052
  15 H :    0.296332    0.000139
  16 H :    0.418502    0.000363
Sum of atomic charges         :   -0.0000000

LOEWDIN ATOMIC CHARGES AND SPIN POPULATIONS
-------------------------------------------
   0 C :    0.864184    0.467520
   1 C :    0.449891    0.150226
   2 C :    0.476219    0.014912
   3 C :    0.466210    0.002040
   4 C :    0.356202   -0.000112
   5 C :    0.796506    0.000177
   6 H :   -0.337764    0.152666
   7 H :   -0.339904    0.155483
   8 H :   -0.294104    0.017153
   9 H :   -0.285714    0.032607
  10 H :   -0.272425    0.000144
  11 H :   -0.271968    0.006016
  12 H :   -0.275885    0.000312
  13 H :   -0.299705    0.000728
  14 H :   -0.357871    0.000073
  15 H :   -0.353643    0.000098
  16 H :   -0.320230   -0.000042

  Mayer bond orders larger than 0.100000
B(  0-C ,  1-C ) :   0.9201 B(  0-C ,  2-C ) :  -0.1968 B(  0-C ,  6-H ) :   0.9273
B(  0-C ,  7-H ) :   0.9310 B(  1-C ,  2-C ) :   0.8929 B(  1-C ,  8-H ) :   0.9115
B(  1-C ,  9-H ) :   0.8871 B(  2-C ,  3-C ) :   0.9740 B(  2-C ,  4-C ) :  -0.1142
B(  2-C , 10-H ) :   0.8813 B(  2-C , 11-H ) :   0.8470 B(  3-C ,  4-C ) :   0.9318
B(  3-C ,  5-C ) :  -0.1746 B(  3-C , 12-H ) :   0.8231 B(  3-C , 13-H ) :   0.8956
B(  4-C ,  5-C ) :   1.9128 B(  4-C , 16-H ) :   0.8029 B(  5-C , 14-H ) :   0.9458
B(  5-C , 15-H ) :   0.9384

MP2 TOTAL ENERGY:     -234.703819709 Eh
FINAL SINGLE POINT ENERGY      -234.703819709356

DIPOLE MOMENT
-------------
                                X             Y             Z
Electronic contribution:      1.47177      -0.12707       0.41225
Nuclear contribution   :     -1.57667       0.21018      -0.39703
                        -----------------------------------------
Total Dipole Moment    :     -0.10489       0.08312       0.01522
                        -----------------------------------------
Magnitude (a.u.)       :      0.13469
Magnitude (Debye)      :      0.34237

Rotational constants in cm-1:     0.476995     0.043170     0.042275
Rotational constants in MHz : 14299.939220  1294.211698  1267.368368

                             ****ORCA TERMINATED NORMALLY****
TOTAL RUN TIME: 0 days 0 hours 25 minutes 51 seconds 112 msec
