                         Program Version 4.2.1 -  RELEASE  -
|  1> %pal
|  2>  nprocs 32
|  3> end
|  4> !RI-MP2 aug-cc-pVQZ aug-cc-pVQZ/C TightSCF
|  5> %maxcore 4500
|  6> *xyzfile 0 2  03_30R2.xyz
|  7>
|  8>
|  9>                          ****END OF INPUT****

CARTESIAN COORDINATES (ANGSTROEM)
---------------------------------
  S     -1.814164   -0.091051   -0.000114
  C     -0.125264    0.534688    0.000075
  C      0.969256   -0.524014   -0.000045
  C      2.363120    0.095118    0.000156
  H      3.135773   -0.675814    0.000058
  H      2.518977    0.721175    0.882746
  H      2.519085    0.721507   -0.882179
  H      0.842759   -1.167097    0.874696
  H      0.842876   -1.166779   -0.875036
  H     -0.037696    1.194711   -0.870447
  H     -0.037819    1.194371    0.870872

 Total Charge           Charge          ....    0
 Multiplicity           Mult            ....    2
 Number of Electrons    NEL             ....   41
 Basis Dimension        Dim             ....  646

ORBITAL ENERGIES
----------------
                 SPIN UP ORBITALS
  NO   OCC          E(Eh)            E(eV)
   0   1.0000     -91.964823     -2502.4901
   1   1.0000     -11.261734      -306.4474
   2   1.0000     -11.229916      -305.5815
   3   1.0000     -11.220828      -305.3343
   4   1.0000      -8.966759      -243.9979
   5   1.0000      -6.662658      -181.3001
   6   1.0000      -6.644222      -180.7985
   7   1.0000      -6.642805      -180.7599
   8   1.0000      -1.092566       -29.7302
   9   1.0000      -1.000500       -27.2250
  10   1.0000      -0.875667       -23.8281
  11   1.0000      -0.803869       -21.8744
  12   1.0000      -0.653341       -17.7783
  13   1.0000      -0.591978       -16.1085
  14   1.0000      -0.567716       -15.4483
  15   1.0000      -0.561001       -15.2656
  16   1.0000      -0.501263       -13.6401
  17   1.0000      -0.489541       -13.3211
  18   1.0000      -0.466509       -12.6943
  19   1.0000      -0.425360       -11.5746
  20   1.0000      -0.365700        -9.9512
  21   0.0000       0.026221         0.7135
  22   0.0000       0.034302         0.9334
  23   0.0000       0.035232         0.9587
  24   0.0000       0.039198         1.0666
  25   0.0000       0.054748         1.4898

                 SPIN DOWN ORBITALS
  NO   OCC          E(Eh)            E(eV)
   0   1.0000     -91.955746     -2502.2431
   1   1.0000     -11.262766      -306.4754
   2   1.0000     -11.229891      -305.5809
   3   1.0000     -11.220881      -305.3357
   4   1.0000      -8.956768      -243.7261
   5   1.0000      -6.639157      -180.6606
   6   1.0000      -6.637562      -180.6172
   7   1.0000      -6.621690      -180.1854
   8   1.0000      -1.083192       -29.4752
   9   1.0000      -0.974377       -26.5141
  10   1.0000      -0.843244       -22.9458
  11   1.0000      -0.774304       -21.0699
  12   1.0000      -0.644771       -17.5451
  13   1.0000      -0.589694       -16.0464
  14   1.0000      -0.555483       -15.1155
  15   1.0000      -0.553908       -15.0726
  16   1.0000      -0.500614       -13.6224
  17   1.0000      -0.485063       -13.1992
  18   1.0000      -0.456949       -12.4342
  19   1.0000      -0.346917        -9.4401
  20   0.0000       0.020663         0.5623
  21   0.0000       0.026324         0.7163
  22   0.0000       0.034341         0.9345
  23   0.0000       0.038117         1.0372
  24   0.0000       0.039599         1.0775

MULLIKEN ATOMIC CHARGES AND SPIN POPULATIONS
--------------------------------------------
   0 S :   -0.184012    1.115383
   1 C :   -0.404454   -0.191800
   2 C :   -0.337980    0.022190
   3 C :   -0.844013   -0.001714
   4 H :    0.277512   -0.000293
   5 H :    0.232216    0.000649
   6 H :    0.232217    0.000649
   7 H :    0.272828   -0.000718
   8 H :    0.272835   -0.000717
   9 H :    0.241432    0.028183
  10 H :    0.241419    0.028191
Sum of atomic charges         :    0.0000000

LOEWDIN ATOMIC CHARGES AND SPIN POPULATIONS
-------------------------------------------
   0 S :    1.062549    0.749973
   1 C :   -0.086649    0.189863
   2 C :    0.376997    0.010496
   3 C :    0.908557    0.000418
   4 H :   -0.283786   -0.000178
   5 H :   -0.286364    0.000224
   6 H :   -0.286365    0.000224
   7 H :   -0.304820    0.001417
   8 H :   -0.304818    0.001418
   9 H :   -0.397646    0.023069
  10 H :   -0.397654    0.023076

  Mayer bond orders larger than 0.100000
B(  0-S ,  1-C ) :   0.8766 B(  1-C ,  2-C ) :   0.9250 B(  1-C ,  9-H ) :   0.9086
B(  1-C , 10-H ) :   0.9086 B(  2-C ,  3-C ) :   0.9682 B(  2-C ,  7-H ) :   0.8732
B(  2-C ,  8-H ) :   0.8732 B(  3-C ,  4-H ) :   0.9553 B(  3-C ,  5-H ) :   0.9480
B(  3-C ,  6-H ) :   0.9480

MP2 TOTAL ENERGY:     -515.986477110 Eh
FINAL SINGLE POINT ENERGY      -515.986477110373

DIPOLE MOMENT
-------------
                                X             Y             Z
Electronic contribution:     -9.36578      -0.64763      -0.00066
Nuclear contribution   :     10.08243       0.84521       0.00073
                        -----------------------------------------
Total Dipole Moment    :      0.71665       0.19758       0.00007
                        -----------------------------------------
Magnitude (a.u.)       :      0.74339
Magnitude (Debye)      :      1.88954

Rotational constants in cm-1:     0.893405     0.079679     0.076225
Rotational constants in MHz : 26783.593820  2388.708801  2285.164058

                             ****ORCA TERMINATED NORMALLY****
TOTAL RUN TIME: 0 days 0 hours 7 minutes 32 seconds 297 msec
