                         Program Version 4.2.1 -  RELEASE  -
|  1> %pal
|  2>  nprocs 32
|  3> end
|  4> !RI-MP2 aug-cc-pVQZ aug-cc-pVQZ/C TightSCF
|  5> %maxcore 4500
|  6> *xyzfile 0 1  05_5P2.xyz
|  7>
|  8>
|  9>                          ****END OF INPUT****

CARTESIAN COORDINATES (ANGSTROEM)
---------------------------------
  C      0.663575    1.184983   -0.060040
  H      1.233125   -2.090525   -0.207527
  H     -1.233143   -2.090524   -0.207429
  H      2.317885    0.000002   -0.229525
  C     -0.663581    1.184982   -0.059986
  C      0.663575   -1.184982   -0.060061
  N     -1.402417   -0.000002    0.195001
  C     -0.663581   -1.184981   -0.060007
  N      1.402435   -0.000002    0.194891
  H      1.233125    2.090528   -0.207490
  H     -2.317910    0.000002   -0.229320
  H     -1.233143    2.090528   -0.207392

 Total Charge           Charge          ....    0
 Multiplicity           Mult            ....    1
 Number of Electrons    NEL             ....   44
 Basis Dimension        Dim             ....  756

ORBITAL ENERGIES
----------------

  NO   OCC          E(Eh)            E(eV)
   0   2.0000     -15.564815      -423.5401
   1   2.0000     -15.564813      -423.5401
   2   2.0000     -11.250472      -306.1409
   3   2.0000     -11.250452      -306.1404
   4   2.0000     -11.248689      -306.0924
   5   2.0000     -11.248688      -306.0924
   6   2.0000      -1.266967       -34.4759
   7   2.0000      -1.196439       -32.5568
   8   2.0000      -1.033836       -28.1321
   9   2.0000      -0.944289       -25.6954
  10   2.0000      -0.836246       -22.7554
  11   2.0000      -0.742614       -20.2076
  12   2.0000      -0.693740       -18.8776
  13   2.0000      -0.658466       -17.9178
  14   2.0000      -0.635430       -17.2909
  15   2.0000      -0.601665       -16.3721
  16   2.0000      -0.577505       -15.7147
  17   2.0000      -0.532237       -14.4829
  18   2.0000      -0.511230       -13.9113
  19   2.0000      -0.474523       -12.9124
  20   2.0000      -0.370866       -10.0918
  21   2.0000      -0.252860        -6.8807
  22   0.0000       0.024655         0.6709
  23   0.0000       0.028031         0.7628
  24   0.0000       0.033292         0.9059
  25   0.0000       0.041824         1.1381
  26   0.0000       0.049862         1.3568

MULLIKEN ATOMIC CHARGES
-----------------------
   0 C :   -0.200386
   1 H :    0.384249
   2 H :    0.384246
   3 H :    0.262619
   4 C :   -0.200387
   5 C :   -0.200387
   6 N :   -0.630338
   7 C :   -0.200383
   8 N :   -0.630344
   9 H :    0.384252
  10 H :    0.262617
  11 H :    0.384244
Sum of atomic charges:    0.0000000

LOEWDIN ATOMIC CHARGES
----------------------
   0 C :    0.190182
   1 H :   -0.334669
   2 H :   -0.334668
   3 H :   -0.528448
   4 C :    0.190181
   5 C :    0.190182
   6 N :    0.817421
   7 C :    0.190181
   8 N :    0.817422
   9 H :   -0.334670
  10 H :   -0.528446
  11 H :   -0.334668

  Mayer bond orders larger than 0.100000
B(  0-C ,  4-C ) :   1.5038 B(  0-C ,  8-N ) :   0.9039 B(  0-C ,  9-H ) :   0.9480
B(  1-H ,  5-C ) :   0.9480 B(  2-H ,  7-C ) :   0.9480 B(  3-H ,  8-N ) :   0.9389
B(  4-C ,  6-N ) :   0.9039 B(  4-C , 11-H ) :   0.9480 B(  5-C ,  7-C ) :   1.5038
B(  5-C ,  8-N ) :   0.9039 B(  6-N ,  7-C ) :   0.9039 B(  6-N , 10-H ) :   0.9389

MP2 TOTAL ENERGY:     -265.039708990 Eh
FINAL SINGLE POINT ENERGY      -265.039708989764

DIPOLE MOMENT
-------------
                                X             Y             Z
Electronic contribution:      0.00001      -0.00000       0.62224
Nuclear contribution   :     -0.00006       0.00001      -1.29469
                        -----------------------------------------
Total Dipole Moment    :     -0.00005       0.00001      -0.67245
                        -----------------------------------------
Magnitude (a.u.)       :      0.67245
Magnitude (Debye)      :      1.70922

Rotational constants in cm-1:     0.194704     0.177986     0.094547
Rotational constants in MHz :  5837.067207  5335.889175  2834.443384

                             ****ORCA TERMINATED NORMALLY****
TOTAL RUN TIME: 0 days 0 hours 10 minutes 8 seconds 819 msec
