                         Program Version 4.2.1 -  RELEASE  -
|  1> %pal
|  2>  nprocs 32
|  3> end
|  4> !RI-MP2 aug-cc-pVQZ aug-cc-pVQZ/C TightSCF
|  5> %maxcore 4500
|  6> *xyzfile 1 1  05_9TS.xyz
|  7>
|  8>
|  9>                          ****END OF INPUT****

CARTESIAN COORDINATES (ANGSTROEM)
---------------------------------
  C      2.350238   -0.249184    0.104030
  C      1.502895   -0.929896   -0.961935
  C      0.292990   -1.561049   -0.879687
  C     -0.562450   -1.849354    0.306541
  C     -1.993986   -1.398734    0.072215
  C     -2.495173   -0.313185    0.656388
  C     -1.792166    0.604403    1.610392
  C     -1.411072    1.964399    0.993292
  C     -0.645001    1.937386   -0.308210
  C      0.639083    1.525649   -0.436919
  C      1.547805    0.987448    0.634778
  H      0.980474    0.713456    1.522670
  C      3.634560    0.238442   -0.580330
  H      4.287039    0.719851    0.148706
  H      3.424782    0.963254   -1.370951
  H      4.185735   -0.593920   -1.023057
  C      2.722047   -1.195465    1.250766
  H      3.329318   -0.655526    1.979525
  H      3.312623   -2.038831    0.889141
  H      1.851257   -1.589998    1.773431
  C     -2.810243   -2.269530   -0.838931
  H     -3.808539   -1.860163   -0.987342
  H     -2.915204   -3.273676   -0.417923
  H     -2.351206   -2.386894   -1.825311
  H     -0.140291   -1.428814    1.212280
  H     -0.546829   -2.940399    0.425692
  H     -3.529591   -0.060145    0.437357
  H     -2.454041    0.812366    2.454442
  H     -0.911850    0.128515    2.037829
  H      2.269855    1.746019    0.945118
  H      1.122343    1.777972   -1.380753
  C     -1.377003    2.478874   -1.492315
  H     -2.314003    1.932599   -1.633439
  H     -0.791800    2.431511   -2.410060
  H     -1.652206    3.521637   -1.308374
  H     -2.326903    2.534254    0.827774
  H     -0.826449    2.524910    1.728127
  H      1.913698   -0.891606   -1.968716
  H      0.381787    0.005938   -1.008176
  H     -0.105137   -1.913546   -1.828446

 Total Charge           Charge          ....    1
 Multiplicity           Mult            ....    1
 Number of Electrons    NEL             ....  114
 Basis Dimension        Dim             .... 2350

ORBITAL ENERGIES
----------------

  NO   OCC          E(Eh)            E(eV)
   0   2.0000     -11.454529      -311.6936
   1   2.0000     -11.436639      -311.2068
   2   2.0000     -11.408744      -310.4477
   3   2.0000     -11.394812      -310.0686
   4   2.0000     -11.386008      -309.8290
   5   2.0000     -11.368867      -309.3626
   6   2.0000     -11.367823      -309.3342
   7   2.0000     -11.365165      -309.2619
   8   2.0000     -11.360799      -309.1430
   9   2.0000     -11.356942      -309.0381
  10   2.0000     -11.351000      -308.8764
  11   2.0000     -11.350228      -308.8554
  12   2.0000     -11.346775      -308.7614
  13   2.0000     -11.344570      -308.7014
  14   2.0000     -11.338665      -308.5408
  15   2.0000      -1.317404       -35.8484
  16   2.0000      -1.257867       -34.2283
  17   2.0000      -1.253109       -34.0988
  18   2.0000      -1.202081       -32.7103
  19   2.0000      -1.160307       -31.5736
  20   2.0000      -1.122310       -30.5396
  21   2.0000      -1.101672       -29.9780
  22   2.0000      -1.068690       -29.0805
  23   2.0000      -1.063165       -28.9302
  24   2.0000      -1.024682       -27.8830
  25   2.0000      -0.982861       -26.7450
  26   2.0000      -0.964653       -26.2495
  27   2.0000      -0.879892       -23.9431
  28   2.0000      -0.861348       -23.4385
  29   2.0000      -0.854249       -23.2453
  30   2.0000      -0.835219       -22.7275
  31   2.0000      -0.788975       -21.4691
  32   2.0000      -0.783720       -21.3261
  33   2.0000      -0.763938       -20.7878
  34   2.0000      -0.747666       -20.3450
  35   2.0000      -0.742018       -20.1913
  36   2.0000      -0.732927       -19.9440
  37   2.0000      -0.725081       -19.7305
  38   2.0000      -0.714071       -19.4309
  39   2.0000      -0.711870       -19.3710
  40   2.0000      -0.690210       -18.7816
  41   2.0000      -0.688443       -18.7335
  42   2.0000      -0.679246       -18.4832
  43   2.0000      -0.674636       -18.3578
  44   2.0000      -0.668900       -18.2017
  45   2.0000      -0.660863       -17.9830
  46   2.0000      -0.652143       -17.7457
  47   2.0000      -0.645735       -17.5714
  48   2.0000      -0.639318       -17.3967
  49   2.0000      -0.624249       -16.9867
  50   2.0000      -0.618998       -16.8438
  51   2.0000      -0.608377       -16.5548
  52   2.0000      -0.597580       -16.2610
  53   2.0000      -0.594759       -16.1842
  54   2.0000      -0.583741       -15.8844
  55   2.0000      -0.482626       -13.1329
  56   2.0000      -0.473215       -12.8768
  57   0.0000      -0.069184        -1.8826
  58   0.0000      -0.058275        -1.5857
  59   0.0000      -0.056610        -1.5404
  60   0.0000      -0.052306        -1.4233
  61   0.0000      -0.050559        -1.3758

MULLIKEN ATOMIC CHARGES
-----------------------
   0 C :    1.521948
   1 C :   -0.285867
   2 C :   -0.059928
   3 C :   -0.388001
   4 C :    0.473873
   5 C :   -0.480487
   6 C :   -0.559460
   7 C :   -0.405561
   8 C :    0.425242
   9 C :   -0.065325
  10 C :   -0.743099
  11 H :    0.295994
  12 C :   -1.205021
  13 H :    0.246129
  14 H :    0.176310
  15 H :    0.222527
  16 C :   -1.160881
  17 H :    0.171020
  18 H :    0.175050
  19 H :    0.261309
  20 C :   -1.087605
  21 H :    0.215125
  22 H :    0.286291
  23 H :    0.165237
  24 H :    0.484211
  25 H :    0.221807
  26 H :    0.071322
  27 H :    0.250808
  28 H :    0.385917
  29 H :    0.211717
  30 H :    0.262733
  31 C :   -1.118531
  32 H :    0.172524
  33 H :    0.210791
  34 H :    0.296822
  35 H :    0.167912
  36 H :    0.259262
  37 H :    0.232434
  38 H :    0.491322
  39 H :    0.204128
Sum of atomic charges:    1.0000000

LOEWDIN ATOMIC CHARGES
----------------------
   0 C :   -0.200480
   1 C :    0.522147
   2 C :    0.573840
   3 C :    0.571429
   4 C :    0.028370
   5 C :    0.434581
   6 C :    0.555339
   7 C :    0.567107
   8 C :    0.079643
   9 C :    0.430860
  10 C :    0.567678
  11 H :   -0.311110
  12 C :    0.938009
  13 H :   -0.255570
  14 H :   -0.256908
  15 H :   -0.250391
  16 C :    0.962771
  17 H :   -0.250670
  18 H :   -0.246695
  19 H :   -0.287448
  20 C :    0.928551
  21 H :   -0.292574
  22 H :   -0.264684
  23 H :   -0.282237
  24 H :   -0.353978
  25 H :   -0.239560
  26 H :   -0.299446
  27 H :   -0.250452
  28 H :   -0.337503
  29 H :   -0.241623
  30 H :   -0.282398
  31 C :    0.960210
  32 H :   -0.263856
  33 H :   -0.280523
  34 H :   -0.255737
  35 H :   -0.284326
  36 H :   -0.250107
  37 H :   -0.237930
  38 H :   -0.405243
  39 H :   -0.239083

  Mayer bond orders larger than 0.100000
B(  0-C ,  1-C ) :   0.6775 B(  0-C ,  2-C ) :   0.2288 B(  0-C , 10-C ) :   0.7527
B(  0-C , 12-C ) :  -0.1854 B(  0-C , 13-H ) :  -0.2382 B(  0-C , 14-H ) :  -0.2481
B(  0-C , 15-H ) :  -0.2416 B(  0-C , 17-H ) :  -0.2580 B(  0-C , 18-H ) :  -0.2835
B(  0-C , 19-H ) :  -0.1365 B(  0-C , 38-H ) :  -0.1960 B(  1-C ,  2-C ) :   1.0906
B(  1-C , 37-H ) :   1.0948 B(  1-C , 39-H ) :  -0.2356 B(  2-C ,  3-C ) :   0.7665
B(  2-C ,  4-C ) :  -0.1739 B(  2-C , 37-H ) :  -0.1943 B(  2-C , 39-H ) :   1.1494
B(  3-C ,  4-C ) :   0.6460 B(  3-C , 20-C ) :  -0.1099 B(  3-C , 24-H ) :   0.7575
B(  3-C , 25-H ) :   1.0389 B(  4-C ,  5-C ) :   1.0705 B(  4-C ,  6-C ) :  -0.2035
B(  4-C ,  8-C ) :   0.1463 B(  4-C , 20-C ) :   0.6344 B(  4-C , 21-H ) :  -0.1055
B(  4-C , 22-H ) :  -0.1551 B(  4-C , 23-H ) :  -0.1143 B(  4-C , 24-H ) :  -0.1142
B(  4-C , 26-H ) :  -0.1539 B(  5-C ,  6-C ) :   0.9842 B(  5-C ,  7-C ) :  -0.2024
B(  5-C ,  9-C ) :   0.1048 B(  5-C , 26-H ) :   1.2564 B(  5-C , 27-H ) :  -0.1164
B(  6-C ,  7-C ) :   0.9071 B(  6-C , 27-H ) :   1.0483 B(  6-C , 28-H ) :   0.7983
B(  7-C ,  8-C ) :   0.3103 B(  7-C , 10-C ) :  -0.1098 B(  7-C , 35-H ) :   1.1206
B(  7-C , 36-H ) :   1.0237 B(  8-C ,  9-C ) :   0.6039 B(  8-C , 10-C ) :  -0.3299
B(  8-C , 30-H ) :  -0.1265 B(  8-C , 31-C ) :   0.6193 B(  8-C , 32-H ) :  -0.1845
B(  8-C , 35-H ) :  -0.1958 B(  8-C , 36-H ) :  -0.1385 B(  9-C , 10-C ) :   1.0225
B(  9-C , 29-H ) :  -0.1200 B(  9-C , 30-H ) :   1.1153 B(  9-C , 31-C ) :  -0.2730
B(  9-C , 38-H ) :   0.2274 B( 10-C , 11-H ) :   0.9246 B( 10-C , 29-H ) :   1.0424
B( 10-C , 38-H ) :   0.1308 B( 12-C , 13-H ) :   1.1237 B( 12-C , 14-H ) :   1.1983
B( 12-C , 15-H ) :   1.1782 B( 12-C , 16-C ) :   0.1716 B( 16-C , 17-H ) :   1.1843
B( 16-C , 18-H ) :   1.2215 B( 16-C , 19-H ) :   1.0226 B( 20-C , 21-H ) :   1.0992
B( 20-C , 22-H ) :   1.0528 B( 20-C , 23-H ) :   1.0964 B( 31-C , 32-H ) :   1.1337
B( 31-C , 33-H ) :   1.0813 B( 31-C , 34-H ) :   1.0624

MP2 TOTAL ENERGY:     -585.191892568 Eh
FINAL SINGLE POINT ENERGY      -585.191892568283

DIPOLE MOMENT
-------------
                                X             Y             Z
Electronic contribution:     -2.13842      -0.42200       0.17239
Nuclear contribution   :      2.50811       0.18801      -0.82079
                        -----------------------------------------
Total Dipole Moment    :      0.36969      -0.23399      -0.64840
                        -----------------------------------------
Magnitude (a.u.)       :      0.78220
Magnitude (Debye)      :      1.98821

Rotational constants in cm-1:     0.025044     0.016416     0.012792
Rotational constants in MHz :   750.792344   492.146055   383.493203

                             ****ORCA TERMINATED NORMALLY****
TOTAL RUN TIME: 0 days 5 hours 44 minutes 12 seconds 785 msec
