                         Program Version 4.2.1 -  RELEASE  -
|  1> %pal
|  2>  nprocs 32
|  3> end
|  4> !RI-MP2 aug-cc-pVQZ aug-cc-pVQZ/C TightSCF
|  5> %maxcore 4500
|  6> *xyzfile 0 2  04_10P1.xyz
|  7>
|  8>
|  9>                          ****END OF INPUT****

CARTESIAN COORDINATES (ANGSTROEM)
---------------------------------
  N      0.190667   -1.520153   -0.012804
  H     -0.508797   -2.208812   -0.282500
  C     -0.363185   -0.299105    0.289299
  C      0.416262    0.812983    0.874401
  C     -1.791498   -0.247568   -0.015690
  H     -0.228360    1.419925    1.509336
  H      1.242659    0.445937    1.474460
  S      1.102379    1.986437   -0.375030
  O     -2.394560   -1.267321   -0.335745
  H      2.014050    1.124671   -0.857593
  N     -2.414516    0.963153    0.109541
  H     -3.368441    0.984152   -0.217127
  H     -1.882934    1.810142   -0.015756
  C      1.511156   -1.860590   -0.103458
  H      1.644099   -2.923633   -0.353577
  O      2.442084   -1.104015    0.060591

 Total Charge           Charge          ....    0
 Multiplicity           Mult            ....    2
 Number of Electrons    NEL             ....   77
 Basis Dimension        Dim             .... 1046

ORBITAL ENERGIES
----------------
                 SPIN UP ORBITALS
  NO   OCC          E(Eh)            E(eV)
   0   1.0000     -91.960259     -2502.3659
   1   1.0000     -20.553073      -559.2776
   2   1.0000     -20.543049      -559.0048
   3   1.0000     -15.623327      -425.1323
   4   1.0000     -15.594107      -424.3372
   5   1.0000     -11.372800      -309.4696
   6   1.0000     -11.367227      -309.3180
   7   1.0000     -11.310335      -307.7699
   8   1.0000     -11.282873      -307.0226
   9   1.0000      -8.962847      -243.8915
  10   1.0000      -6.645661      -180.8376
  11   1.0000      -6.643474      -180.7781
  12   1.0000      -6.642350      -180.7475
  13   1.0000      -1.420867       -38.6637
  14   1.0000      -1.408459       -38.3261
  15   1.0000      -1.284477       -34.9524
  16   1.0000      -1.229624       -33.4598
  17   1.0000      -1.095595       -29.8127
  18   1.0000      -0.999027       -27.1849
  19   1.0000      -0.894381       -24.3374
  20   1.0000      -0.861291       -23.4369
  21   1.0000      -0.789104       -21.4726
  22   1.0000      -0.770208       -20.9584
  23   1.0000      -0.729217       -19.8430
  24   1.0000      -0.675250       -18.3745
  25   1.0000      -0.665728       -18.1154
  26   1.0000      -0.655520       -17.8376
  27   1.0000      -0.643045       -17.4981
  28   1.0000      -0.612714       -16.6728
  29   1.0000      -0.599117       -16.3028
  30   1.0000      -0.593037       -16.1374
  31   1.0000      -0.553632       -15.0651
  32   1.0000      -0.501538       -13.6475
  33   1.0000      -0.474088       -12.9006
  34   1.0000      -0.469355       -12.7718
  35   1.0000      -0.460040       -12.5183
  36   1.0000      -0.450017       -12.2456
  37   1.0000      -0.374223       -10.1831
  38   1.0000      -0.322351        -8.7716
  39   0.0000       0.021828         0.5940
  40   0.0000       0.027060         0.7363
  41   0.0000       0.034162         0.9296
  42   0.0000       0.041083         1.1179
  43   0.0000       0.048240         1.3127

                 SPIN DOWN ORBITALS
  NO   OCC          E(Eh)            E(eV)
   0   1.0000     -91.959156     -2502.3358
   1   1.0000     -20.547663      -559.1303
   2   1.0000     -20.535132      -558.7894
   3   1.0000     -15.623232      -425.1298
   4   1.0000     -15.593599      -424.3234
   5   1.0000     -11.373656      -309.4929
   6   1.0000     -11.370945      -309.4191
   7   1.0000     -11.290128      -307.2200
   8   1.0000     -11.286299      -307.1158
   9   1.0000      -8.961562      -243.8565
  10   1.0000      -6.643090      -180.7677
  11   1.0000      -6.641823      -180.7332
  12   1.0000      -6.640678      -180.7020
  13   1.0000      -1.409759       -38.3615
  14   1.0000      -1.394908       -37.9574
  15   1.0000      -1.270008       -34.5587
  16   1.0000      -1.224374       -33.3169
  17   1.0000      -1.077899       -29.3311
  18   1.0000      -0.971705       -26.4414
  19   1.0000      -0.889439       -24.2029
  20   1.0000      -0.856674       -23.3113
  21   1.0000      -0.786098       -21.3908
  22   1.0000      -0.762354       -20.7447
  23   1.0000      -0.725932       -19.7536
  24   1.0000      -0.669073       -18.2064
  25   1.0000      -0.656793       -17.8723
  26   1.0000      -0.639634       -17.4053
  27   1.0000      -0.612520       -16.6675
  28   1.0000      -0.605246       -16.4696
  29   1.0000      -0.588012       -16.0006
  30   1.0000      -0.571165       -15.5422
  31   1.0000      -0.538878       -14.6636
  32   1.0000      -0.474815       -12.9204
  33   1.0000      -0.457755       -12.4562
  34   1.0000      -0.452360       -12.3093
  35   1.0000      -0.448518       -12.2048
  36   1.0000      -0.415453       -11.3050
  37   1.0000      -0.368802       -10.0356
  38   0.0000       0.021722         0.5911
  39   0.0000       0.027085         0.7370
  40   0.0000       0.034051         0.9266
  41   0.0000       0.039304         1.0695
  42   0.0000       0.048147         1.3102

MULLIKEN ATOMIC CHARGES AND SPIN POPULATIONS
--------------------------------------------
   0 N :   -0.512962    0.004523
   1 H :    0.217840    0.002469
   2 C :    0.015668    0.951862
   3 C :   -0.223363   -0.175407
   4 C :    1.215989   -0.176685
   5 H :    0.188505    0.018779
   6 H :    0.283295    0.015223
   7 S :   -0.185282    0.110112
   8 O :   -0.884306    0.180011
   9 H :    0.088750   -0.008925
  10 N :   -0.750920    0.017055
  11 H :    0.211092   -0.004286
  12 H :    0.328432   -0.002257
  13 C :    0.292333   -0.050228
  14 H :    0.498780    0.001434
  15 O :   -0.783850    0.116321
Sum of atomic charges         :   -0.0000000

LOEWDIN ATOMIC CHARGES AND SPIN POPULATIONS
-------------------------------------------
   0 N :    0.777391    0.113899
   1 H :   -0.618508    0.012129
   2 C :   -0.293391    0.364693
   3 C :    0.089457    0.087389
   4 C :   -0.843666    0.104278
   5 H :   -0.403142    0.009849
   6 H :   -0.411462    0.003077
   7 S :    1.608597    0.054466
   8 O :    0.738344    0.121857
   9 H :   -0.812966    0.014672
  10 N :    1.240567    0.008305
  11 H :   -0.497137    0.000132
  12 H :   -0.539271    0.002136
  13 C :   -0.388904    0.019548
  14 H :   -0.349391    0.001062
  15 O :    0.703480    0.082508

  Mayer bond orders larger than 0.100000
B(  0-N ,  1-H ) :   1.0908 B(  0-N ,  2-C ) :   0.6819 B(  0-N , 13-C ) :   1.0833
B(  2-C ,  3-C ) :   0.7364 B(  2-C ,  4-C ) :   1.4210 B(  2-C ,  8-O ) :   0.5516
B(  3-C ,  5-H ) :   1.0172 B(  3-C ,  6-H ) :   0.8834 B(  3-C ,  7-S ) :   0.8439
B(  4-C ,  8-O ) :   0.8235 B(  4-C , 10-N ) :   1.0111 B(  7-S ,  9-H ) :   1.0462
B(  8-O , 10-N ) :   0.1290 B( 10-N , 11-H ) :   1.0219 B( 10-N , 12-H ) :   0.8649
B( 13-C , 14-H ) :   0.7646 B( 13-C , 15-O ) :   1.5822

MP2 TOTAL ENERGY:     -813.721785399 Eh
FINAL SINGLE POINT ENERGY      -813.721785398697

DIPOLE MOMENT
-------------
                                X             Y             Z
Electronic contribution:      0.63109      -0.47365      -1.09356
Nuclear contribution   :     -1.11431       0.54086       1.24304
                        -----------------------------------------
Total Dipole Moment    :     -0.48323       0.06721       0.14948
                        -----------------------------------------
Magnitude (a.u.)       :      0.51027
Magnitude (Debye)      :      1.29699

Rotational constants in cm-1:     0.054120     0.039715     0.024383
Rotational constants in MHz :  1622.480454  1190.627201   730.991632

                             ****ORCA TERMINATED NORMALLY****
TOTAL RUN TIME: 0 days 0 hours 55 minutes 40 seconds 106 msec
