                         Program Version 4.2.1 -  RELEASE  -
|  1> %pal
|  2>  nprocs 32
|  3> end
|  4> !RI-MP2 aug-cc-pVQZ aug-cc-pVQZ/C TightSCF
|  5> %maxcore 4500
|  6> *xyzfile 0 1  10_4R2.xyz
|  7>
|  8>
|  9>                          ****END OF INPUT****

CARTESIAN COORDINATES (ANGSTROEM)
---------------------------------
  C      0.000000   -1.254289    0.662297
  C      0.000000   -1.254289   -0.662297
  C      0.000000    0.160820   -1.124884
  C      0.000000    0.160820    1.124884
  O      0.000000    0.598035    2.226294
  O      0.000000    0.964656    0.000000
  O      0.000000    0.598035   -2.226294
  H      0.000000   -2.082089    1.354793
  H      0.000000   -2.082089   -1.354793

 Total Charge           Charge          ....    0
 Multiplicity           Mult            ....    1
 Number of Electrons    NEL             ....   50
 Basis Dimension        Dim             ....  652

ORBITAL ENERGIES
----------------

  NO   OCC          E(Eh)            E(eV)
   0   2.0000     -20.647369      -561.8435
   1   2.0000     -20.588730      -560.2478
   2   2.0000     -20.588730      -560.2478
   3   2.0000     -11.421456      -310.7936
   4   2.0000     -11.421439      -310.7932
   5   2.0000     -11.310832      -307.7834
   6   2.0000     -11.309002      -307.7336
   7   2.0000      -1.525198       -41.5027
   8   2.0000      -1.449879       -39.4532
   9   2.0000      -1.403165       -38.1821
  10   2.0000      -1.157324       -31.4924
  11   2.0000      -0.958624       -26.0855
  12   2.0000      -0.866564       -23.5804
  13   2.0000      -0.832165       -22.6444
  14   2.0000      -0.737262       -20.0619
  15   2.0000      -0.704385       -19.1673
  16   2.0000      -0.695393       -18.9226
  17   2.0000      -0.674686       -18.3591
  18   2.0000      -0.642402       -17.4806
  19   2.0000      -0.621294       -16.9063
  20   2.0000      -0.584575       -15.9071
  21   2.0000      -0.510487       -13.8911
  22   2.0000      -0.510140       -13.8816
  23   2.0000      -0.478102       -13.0098
  24   2.0000      -0.451106       -12.2752
  25   0.0000       0.015541         0.4229
  26   0.0000       0.021426         0.5830
  27   0.0000       0.028967         0.7882
  28   0.0000       0.049130         1.3369
  29   0.0000       0.056960         1.5500

MULLIKEN ATOMIC CHARGES
-----------------------
   0 C :   -0.530233
   1 C :   -0.530233
   2 C :    1.012251
   3 C :    1.012251
   4 O :   -0.689396
   5 O :   -0.548697
   6 O :   -0.689396
   7 H :    0.481726
   8 H :    0.481726
Sum of atomic charges:   -0.0000000

LOEWDIN ATOMIC CHARGES
----------------------
   0 C :    0.332670
   1 C :    0.332670
   2 C :   -1.093384
   3 C :   -1.093384
   4 O :    0.676197
   5 O :    0.788892
   6 O :    0.676197
   7 H :   -0.309929
   8 H :   -0.309929

  Mayer bond orders larger than 0.100000
B(  0-C ,  1-C ) :   1.5561 B(  0-C ,  2-C ) :  -0.2025 B(  0-C ,  3-C ) :   1.2474
B(  0-C ,  4-O ) :   0.1734 B(  0-C ,  7-H ) :   0.7109 B(  1-C ,  2-C ) :   1.2474
B(  1-C ,  3-C ) :  -0.2025 B(  1-C ,  6-O ) :   0.1734 B(  1-C ,  8-H ) :   0.7109
B(  2-C ,  5-O ) :   0.8853 B(  2-C ,  6-O ) :   1.5043 B(  3-C ,  4-O ) :   1.5043
B(  3-C ,  5-O ) :   0.8853

MP2 TOTAL ENERGY:     -378.786463202 Eh
FINAL SINGLE POINT ENERGY      -378.786463202326

DIPOLE MOMENT
-------------
                                X             Y             Z
Electronic contribution:      0.00000       2.09956      -0.00000
Nuclear contribution   :      0.00000      -3.95518       0.00000
                        -----------------------------------------
Total Dipole Moment    :      0.00000      -1.85562      -0.00000
                        -----------------------------------------
Magnitude (a.u.)       :      1.85562
Magnitude (Debye)      :      4.71660

Rotational constants in cm-1:     0.229939     0.082949     0.060959
Rotational constants in MHz :  6893.411455  2486.758359  1827.498745

                             ****ORCA TERMINATED NORMALLY****
TOTAL RUN TIME: 0 days 0 hours 6 minutes 43 seconds 645 msec
