                         Program Version 4.2.1 -  RELEASE  -
|  1> %pal
|  2>  nprocs 32
|  3> end
|  4> !RI-MP2 aug-cc-pVQZ aug-cc-pVQZ/C TightSCF
|  5> %maxcore 4500
|  6> *xyzfile 0 1  04_3R1.xyz
|  7>
|  8>
|  9>                          ****END OF INPUT****

CARTESIAN COORDINATES (ANGSTROEM)
---------------------------------
  S     -1.778498   -0.045127   -0.073963
  C     -0.065708    0.567489    0.077838
  C      1.001740   -0.506897   -0.069665
  C      2.410742    0.072427    0.009394
  H      0.041099    1.097601    1.025515
  H      0.029325    1.310446   -0.716727
  H      0.857714   -1.024763   -1.021155
  H      0.866911   -1.258603    0.714251
  H      2.580635    0.575205    0.965003
  H      2.582274    0.803084   -0.785289
  H      3.164174   -0.710920   -0.092095
  H     -1.746811   -0.868134    0.988497

 Total Charge           Charge          ....    0
 Multiplicity           Mult            ....    1
 Number of Electrons    NEL             ....   42
 Basis Dimension        Dim             ....  692

ORBITAL ENERGIES
----------------

  NO   OCC          E(Eh)            E(eV)
   0   2.0000     -91.946762     -2501.9986
   1   2.0000     -11.258566      -306.3612
   2   2.0000     -11.229259      -305.5637
   3   2.0000     -11.219812      -305.3066
   4   2.0000      -8.949100      -243.5174
   5   2.0000      -6.630716      -180.4309
   6   2.0000      -6.629763      -180.4050
   7   2.0000      -6.628873      -180.3808
   8   2.0000      -1.086396       -29.5623
   9   2.0000      -0.992852       -27.0169
  10   2.0000      -0.878167       -23.8961
  11   2.0000      -0.806670       -21.9506
  12   2.0000      -0.651629       -17.7317
  13   2.0000      -0.596795       -16.2396
  14   2.0000      -0.568186       -15.4611
  15   2.0000      -0.555433       -15.1141
  16   2.0000      -0.515362       -14.0237
  17   2.0000      -0.494119       -13.4457
  18   2.0000      -0.483265       -13.1503
  19   2.0000      -0.442263       -12.0346
  20   2.0000      -0.354288        -9.6407
  21   0.0000       0.026117         0.7107
  22   0.0000       0.033733         0.9179
  23   0.0000       0.034841         0.9481
  24   0.0000       0.037985         1.0336
  25   0.0000       0.052555         1.4301

MULLIKEN ATOMIC CHARGES
-----------------------
   0 S :   -0.198660
   1 C :   -0.447536
   2 C :   -0.342401
   3 C :   -0.851090
   4 H :    0.256244
   5 H :    0.292560
   6 H :    0.273715
   7 H :    0.252436
   8 H :    0.232353
   9 H :    0.228426
  10 H :    0.277150
  11 H :    0.026801
Sum of atomic charges:   -0.0000000

LOEWDIN ATOMIC CHARGES
----------------------
   0 S :    1.579565
   1 C :    0.079989
   2 C :    0.402364
   3 C :    0.913381
   4 H :   -0.359885
   5 H :   -0.381950
   6 H :   -0.299762
   7 H :   -0.298888
   8 H :   -0.285505
   9 H :   -0.285346
  10 H :   -0.283229
  11 H :   -0.780734

  Mayer bond orders larger than 0.100000
B(  0-S ,  1-C ) :   0.8407 B(  0-S , 11-H ) :   1.0603 B(  1-C ,  2-C ) :   0.9059
B(  1-C ,  4-H ) :   0.9080 B(  1-C ,  5-H ) :   0.8836 B(  2-C ,  3-C ) :   0.9539
B(  2-C ,  6-H ) :   0.8640 B(  2-C ,  7-H ) :   0.8796 B(  3-C ,  8-H ) :   0.9489
B(  3-C ,  9-H ) :   0.9537 B(  3-C , 10-H ) :   0.9614

MP2 TOTAL ENERGY:     -516.632341973 Eh
FINAL SINGLE POINT ENERGY      -516.632341973131

DIPOLE MOMENT
-------------
                                X             Y             Z
Electronic contribution:     -8.04937       0.06586      -0.85344
Nuclear contribution   :      8.73152      -0.07736       1.11890
                        -----------------------------------------
Total Dipole Moment    :      0.68215      -0.01150       0.26545
                        -----------------------------------------
Magnitude (a.u.)       :      0.73207
Magnitude (Debye)      :      1.86077

Rotational constants in cm-1:     0.806301     0.077879     0.074763
Rotational constants in MHz : 24172.298801  2334.749372  2241.345514

                             ****ORCA TERMINATED NORMALLY****
TOTAL RUN TIME: 0 days 0 hours 6 minutes 36 seconds 617 msec
