                         Program Version 4.2.1 -  RELEASE  -
|  1> %pal
|  2>  nprocs 32
|  3> end
|  4> !RI-MP2 aug-cc-pVQZ aug-cc-pVQZ/C TightSCF
|  5> %maxcore 4500
|  6> *xyzfile 0 1  05_21R1.xyz
|  7>
|  8>
|  9>                          ****END OF INPUT****

CARTESIAN COORDINATES (ANGSTROEM)
---------------------------------
  C      3.717416    0.539561    0.000068
  C      2.538442    0.011508    0.000042
  C      3.678878   -0.963177    0.000066
  H      4.355242    1.404438    0.000086
  C      1.100760    0.106122    0.000011
  C      0.320657   -1.044024    0.000063
  C      0.454749    1.350065   -0.000069
  C     -1.067403   -0.976095    0.000040
  H      0.810137   -2.010467    0.000121
  C     -0.918795    1.431877   -0.000095
  H      1.049340    2.255727   -0.000113
  C     -1.690494    0.266562   -0.000039
  H     -1.643341   -1.890353    0.000082
  H     -1.428538    2.386811   -0.000158
  O     -3.033836    0.449944   -0.000069
  C     -3.868600   -0.690516   -0.000019
  H     -4.889381   -0.315646   -0.000050
  H     -3.706988   -1.301353   -0.893233
  H     -3.707009   -1.301260    0.893264
  H      3.918774   -1.509370    0.913202
  H      3.918799   -1.509375   -0.913060

 Total Charge           Charge          ....    0
 Multiplicity           Mult            ....    1
 Number of Electrons    NEL             ....   78
 Basis Dimension        Dim             .... 1340

ORBITAL ENERGIES
----------------

  NO   OCC          E(Eh)            E(eV)
   0   2.0000     -20.588627      -560.2450
   1   2.0000     -11.306198      -307.6573
   2   2.0000     -11.287807      -307.1568
   3   2.0000     -11.244126      -305.9682
   4   2.0000     -11.243325      -305.9464
   5   2.0000     -11.241703      -305.9023
   6   2.0000     -11.240278      -305.8635
   7   2.0000     -11.232669      -305.6565
   8   2.0000     -11.229671      -305.5749
   9   2.0000     -11.229312      -305.5651
  10   2.0000     -11.228625      -305.5464
  11   2.0000      -1.419526       -38.6273
  12   2.0000      -1.174678       -31.9646
  13   2.0000      -1.144174       -31.1346
  14   2.0000      -1.034788       -28.1580
  15   2.0000      -1.026084       -27.9212
  16   2.0000      -0.954034       -25.9606
  17   2.0000      -0.852753       -23.2046
  18   2.0000      -0.834102       -22.6971
  19   2.0000      -0.806948       -21.9582
  20   2.0000      -0.749488       -20.3946
  21   2.0000      -0.720684       -19.6108
  22   2.0000      -0.683974       -18.6119
  23   2.0000      -0.675278       -18.3752
  24   2.0000      -0.662693       -18.0328
  25   2.0000      -0.626893       -17.0586
  26   2.0000      -0.597335       -16.2543
  27   2.0000      -0.595397       -16.2016
  28   2.0000      -0.588341       -16.0096
  29   2.0000      -0.559653       -15.2289
  30   2.0000      -0.534817       -14.5531
  31   2.0000      -0.529379       -14.4051
  32   2.0000      -0.493030       -13.4160
  33   2.0000      -0.482837       -13.1387
  34   2.0000      -0.474290       -12.9061
  35   2.0000      -0.412716       -11.2306
  36   2.0000      -0.380131       -10.3439
  37   2.0000      -0.348373        -9.4797
  38   2.0000      -0.289948        -7.8899
  39   0.0000       0.022548         0.6136
  40   0.0000       0.027413         0.7460
  41   0.0000       0.029247         0.7959
  42   0.0000       0.037600         1.0231
  43   0.0000       0.038286         1.0418

MULLIKEN ATOMIC CHARGES
-----------------------
   0 C :   -0.855315
   1 C :    0.130064
   2 C :   -0.733498
   3 H :    0.410036
   4 C :    0.407280
   5 C :   -0.247491
   6 C :   -0.240507
   7 C :   -0.451804
   8 H :    0.261913
   9 C :   -0.568786
  10 H :    0.280517
  11 C :    1.118265
  12 H :    0.163178
  13 H :    0.201721
  14 O :   -0.822013
  15 C :   -0.690031
  16 H :    0.503916
  17 H :    0.246528
  18 H :    0.246528
  19 H :    0.319732
  20 H :    0.319766
Sum of atomic charges:   -0.0000000

LOEWDIN ATOMIC CHARGES
----------------------
   0 C :    0.459347
   1 C :   -0.072739
   2 C :    0.526226
   3 H :   -0.309985
   4 C :   -0.093496
   5 C :    0.338154
   6 C :    0.334134
   7 C :    0.342205
   8 H :   -0.309274
   9 C :    0.334776
  10 H :   -0.306139
  11 C :   -0.458449
  12 H :   -0.357365
  13 H :   -0.324329
  14 O :    0.879935
  15 C :    0.574232
  16 H :   -0.316482
  17 H :   -0.305203
  18 H :   -0.305203
  19 H :   -0.315172
  20 H :   -0.315172

  Mayer bond orders larger than 0.100000
B(  0-C ,  1-C ) :   1.7665 B(  0-C ,  2-C ) :   1.1806 B(  0-C ,  3-H ) :   0.8552
B(  0-C ,  4-C ) :  -0.2896 B(  1-C ,  2-C ) :   0.4842 B(  1-C ,  4-C ) :   0.6067
B(  1-C ,  5-C ) :  -0.4780 B(  1-C ,  6-C ) :  -0.3786 B(  1-C , 19-H ) :  -0.1224
B(  1-C , 20-H ) :  -0.1224 B(  2-C , 19-H ) :   0.9437 B(  2-C , 20-H ) :   0.9436
B(  4-C ,  5-C ) :   1.1680 B(  4-C ,  6-C ) :   1.0197 B(  4-C ,  7-C ) :  -0.4089
B(  4-C ,  9-C ) :  -0.2777 B(  5-C ,  7-C ) :   0.8761 B(  5-C ,  8-H ) :   1.0342
B(  5-C ,  9-C ) :   0.1636 B(  5-C , 11-C ) :  -0.1424 B(  5-C , 12-H ) :  -0.1478
B(  6-C ,  9-C ) :   1.3279 B(  6-C , 10-H ) :   1.0392 B(  6-C , 11-C ) :  -0.2228
B(  7-C ,  8-H ) :  -0.1588 B(  7-C , 11-C ) :   1.3874 B(  7-C , 12-H ) :   1.1689
B(  7-C , 14-O ) :   0.1619 B(  7-C , 15-C ) :   0.1805 B(  9-C , 10-H ) :  -0.1562
B(  9-C , 11-C ) :   1.1396 B(  9-C , 13-H ) :   1.0749 B(  9-C , 14-O ) :   0.2819
B( 11-C , 13-H ) :  -0.1255 B( 11-C , 15-C ) :  -0.1791 B( 14-O , 15-C ) :   0.9237
B( 15-C , 16-H ) :   0.7475 B( 15-C , 17-H ) :   0.9277 B( 15-C , 18-H ) :   0.9277

MP2 TOTAL ENERGY:     -461.407279391 Eh
FINAL SINGLE POINT ENERGY      -461.407279391193

DIPOLE MOMENT
-------------
                                X             Y             Z
Electronic contribution:      0.74855       3.48755      -0.00012
Nuclear contribution   :     -1.37361      -3.79154       0.00014
                        -----------------------------------------
Total Dipole Moment    :     -0.62506      -0.30399       0.00002
                        -----------------------------------------
Magnitude (a.u.)       :      0.69506
Magnitude (Debye)      :      1.76670

Rotational constants in cm-1:     0.132278     0.018301     0.016178
Rotational constants in MHz :  3965.583388   548.655642   485.015778

                             ****ORCA TERMINATED NORMALLY****
TOTAL RUN TIME: 0 days 1 hours 1 minutes 43 seconds 497 msec
