                         Program Version 4.2.1 -  RELEASE  -
|  1> %pal
|  2>  nprocs 32
|  3> end
|  4> !RI-MP2 aug-cc-pVQZ aug-cc-pVQZ/C TightSCF
|  5> %maxcore 4500
|  6> *xyzfile 0 1  02_21TS.xyz
|  7>
|  8>
|  9>                          ****END OF INPUT****

CARTESIAN COORDINATES (ANGSTROEM)
---------------------------------
  C      1.465811    1.056322    0.487723
  C      0.690934   -1.012736    0.633134
  C     -0.690934   -1.012736    0.633134
  C     -1.465811    1.056322    0.487723
  C      0.697246    1.619518   -0.509498
  C     -0.697246    1.619518   -0.509498
  C      1.630879   -1.322658   -0.491047
  H      1.153235   -1.170320    1.603255
  C      2.864654    0.622736    0.164180
  H      1.166637    1.142207    1.523634
  O      2.903908   -0.768518   -0.210718
  H      1.231577   -0.974177   -1.451726
  H      1.811728   -2.397635   -0.571601
  H      3.547449    0.731605    1.007742
  H      3.251737    1.211144   -0.673797
  C     -1.630879   -1.322658   -0.491047
  H     -1.153235   -1.170320    1.603255
  O     -2.903908   -0.768518   -0.210718
  H     -1.183751    1.826223   -1.458711
  H      1.183751    1.826223   -1.458711
  C     -2.864654    0.622736    0.164180
  H     -1.231577   -0.974177   -1.451726
  H     -1.811728   -2.397635   -0.571601
  H     -3.251737    1.211144   -0.673797
  H     -3.547449    0.731605    1.007742
  H     -1.166637    1.142207    1.523634

 Total Charge           Charge          ....    0
 Multiplicity           Mult            ....    1
 Number of Electrons    NEL             ....   90
 Basis Dimension        Dim             .... 1604

ORBITAL ENERGIES
----------------

  NO   OCC          E(Eh)            E(eV)
   0   2.0000     -20.550783      -559.2152
   1   2.0000     -20.550783      -559.2152
   2   2.0000     -11.279471      -306.9300
   3   2.0000     -11.279471      -306.9300
   4   2.0000     -11.279263      -306.9244
   5   2.0000     -11.279259      -306.9243
   6   2.0000     -11.247223      -306.0525
   7   2.0000     -11.247206      -306.0520
   8   2.0000     -11.243162      -305.9420
   9   2.0000     -11.241848      -305.9062
  10   2.0000     -11.231736      -305.6311
  11   2.0000     -11.230541      -305.5985
  12   2.0000      -1.370793       -37.3012
  13   2.0000      -1.369958       -37.2784
  14   2.0000      -1.120340       -30.4860
  15   2.0000      -1.074632       -29.2422
  16   2.0000      -1.044655       -28.4265
  17   2.0000      -0.980286       -26.6749
  18   2.0000      -0.972960       -26.4756
  19   2.0000      -0.870510       -23.6878
  20   2.0000      -0.856801       -23.3147
  21   2.0000      -0.813644       -22.1404
  22   2.0000      -0.765652       -20.8345
  23   2.0000      -0.723258       -19.6809
  24   2.0000      -0.692144       -18.8342
  25   2.0000      -0.682792       -18.5797
  26   2.0000      -0.667180       -18.1549
  27   2.0000      -0.661268       -17.9940
  28   2.0000      -0.624385       -16.9904
  29   2.0000      -0.623349       -16.9622
  30   2.0000      -0.605213       -16.4687
  31   2.0000      -0.602525       -16.3955
  32   2.0000      -0.572810       -15.5870
  33   2.0000      -0.550252       -14.9731
  34   2.0000      -0.549591       -14.9551
  35   2.0000      -0.526904       -14.3378
  36   2.0000      -0.525940       -14.3115
  37   2.0000      -0.493690       -13.4340
  38   2.0000      -0.479844       -13.0572
  39   2.0000      -0.475194       -12.9307
  40   2.0000      -0.461269       -12.5518
  41   2.0000      -0.427949       -11.6451
  42   2.0000      -0.417516       -11.3612
  43   2.0000      -0.316880        -8.6227
  44   2.0000      -0.308361        -8.3909
  45   0.0000       0.023573         0.6415
  46   0.0000       0.027369         0.7448
  47   0.0000       0.029049         0.7905
  48   0.0000       0.031123         0.8469
  49   0.0000       0.040814         1.1106

MULLIKEN ATOMIC CHARGES
-----------------------
   0 C :   -0.261612
   1 C :    0.145329
   2 C :    0.145246
   3 C :   -0.261391
   4 C :   -0.289643
   5 C :   -0.289930
   6 C :   -0.297959
   7 H :    0.292640
   8 C :   -0.177487
   9 H :    0.446846
  10 O :   -1.106529
  11 H :    0.120585
  12 H :    0.422343
  13 H :    0.322003
  14 H :    0.262272
  15 C :   -0.298029
  16 H :    0.292593
  17 O :   -1.106446
  18 H :    0.121365
  19 H :    0.121469
  20 C :   -0.177420
  21 H :    0.120375
  22 H :    0.422282
  23 H :    0.262288
  24 H :    0.321937
  25 H :    0.446870
Sum of atomic charges:    0.0000000

LOEWDIN ATOMIC CHARGES
----------------------
   0 C :    0.261109
   1 C :    0.287730
   2 C :    0.287730
   3 C :    0.261109
   4 C :    0.354153
   5 C :    0.354153
   6 C :    0.149816
   7 H :   -0.302493
   8 C :    0.200148
   9 H :   -0.307444
  10 O :    0.904489
  11 H :   -0.302119
  12 H :   -0.304495
  13 H :   -0.302389
  14 H :   -0.318939
  15 C :    0.149816
  16 H :   -0.302493
  17 O :    0.904489
  18 H :   -0.319565
  19 H :   -0.319565
  20 C :    0.200148
  21 H :   -0.302119
  22 H :   -0.304495
  23 H :   -0.318939
  24 H :   -0.302389
  25 H :   -0.307445

  Mayer bond orders larger than 0.100000
B(  0-C ,  1-C ) :   0.1464 B(  0-C ,  3-C ) :   0.1061 B(  0-C ,  4-C ) :   1.4008
B(  0-C ,  5-C ) :  -0.2309 B(  0-C ,  8-C ) :   0.9170 B(  0-C ,  9-H ) :   0.7871
B(  0-C , 10-O ) :   0.1323 B(  1-C ,  2-C ) :   1.2532 B(  1-C ,  6-C ) :   0.7080
B(  1-C ,  7-H ) :   0.9915 B(  1-C , 10-O ) :  -0.1348 B(  1-C , 11-H ) :  -0.1214
B(  2-C ,  3-C ) :   0.1465 B(  2-C , 15-C ) :   0.7080 B(  2-C , 16-H ) :   0.9915
B(  2-C , 17-O ) :  -0.1349 B(  2-C , 21-H ) :  -0.1215 B(  3-C ,  4-C ) :  -0.2310
B(  3-C ,  5-C ) :   1.4008 B(  3-C , 17-O ) :   0.1323 B(  3-C , 20-C ) :   0.9170
B(  3-C , 25-H ) :   0.7871 B(  4-C ,  5-C ) :   0.8137 B(  4-C , 18-H ) :  -0.1834
B(  4-C , 19-H ) :   1.1722 B(  5-C , 18-H ) :   1.1723 B(  5-C , 19-H ) :  -0.1834
B(  6-C , 10-O ) :   0.6745 B(  6-C , 11-H ) :   1.1400 B(  6-C , 12-H ) :   0.8453
B(  8-C , 10-O ) :   0.6079 B(  8-C , 13-H ) :   0.9618 B(  8-C , 14-H ) :   0.9680
B( 15-C , 17-O ) :   0.6746 B( 15-C , 21-H ) :   1.1402 B( 15-C , 22-H ) :   0.8452
B( 17-O , 20-C ) :   0.6078 B( 20-C , 23-H ) :   0.9679 B( 20-C , 24-H ) :   0.9619

MP2 TOTAL ENERGY:     -538.922659018 Eh
FINAL SINGLE POINT ENERGY      -538.922659017594

DIPOLE MOMENT
-------------
                                X             Y             Z
Electronic contribution:      0.00000      -0.37796       0.28734
Nuclear contribution   :     -0.00000       0.72592      -0.04988
                        -----------------------------------------
Total Dipole Moment    :      0.00000       0.34796       0.23746
                        -----------------------------------------
Magnitude (a.u.)       :      0.42126
Magnitude (Debye)      :      1.07077

Rotational constants in cm-1:     0.063422     0.023359     0.019058
Rotational constants in MHz :  1901.357160   700.276394   571.333147

                             ****ORCA TERMINATED NORMALLY****
TOTAL RUN TIME: 0 days 2 hours 10 minutes 31 seconds 777 msec
