                         Program Version 4.2.1 -  RELEASE  -
|  1> %pal
|  2>  nprocs 32
|  3> end
|  4> !RI-MP2 aug-cc-pVQZ aug-cc-pVQZ/C TightSCF
|  5> %maxcore 4500
|  6> *xyzfile -1 1  09_16TS.xyz
|  7>
|  8>
|  9>                          ****END OF INPUT****

CARTESIAN COORDINATES (ANGSTROEM)
---------------------------------
  C      1.939775    0.307296    0.152705
  C      1.040754    1.522309    0.283994
  O      1.440858    2.581628   -0.245586
  C     -0.209355    1.348449    0.901510
  C     -1.422500    0.793445   -0.794104
  C     -2.630508    0.234246   -0.481243
  C     -3.302564   -0.156845    0.569265
  O     -4.575310   -0.729729    0.580521
  C     -5.159936   -0.886971   -0.686209
  H     -0.752012    2.249523    1.159816
  H     -0.377520    0.495982    1.546667
  H     -1.385738    1.815192   -1.159419
  H     -0.673903    0.156673   -1.256886
  H     -2.952102   -0.081974    1.599642
  H     -4.547962   -1.529182   -1.329889
  H     -5.269672    0.076960   -1.196072
  H     -6.139866   -1.340707   -0.524435
  C      1.502701   -1.003819    0.346254
  C      2.375497   -2.073916    0.199703
  C      3.704343   -1.853864   -0.140609
  C      4.148235   -0.552393   -0.344654
  C      3.270913    0.512840   -0.207678
  H      0.466223   -1.191864    0.596109
  H      2.012865   -3.085756    0.345431
  H      4.385789   -2.690078   -0.253588
  H      5.182297   -0.369709   -0.618089
  H      3.583093    1.535082   -0.382364

 Total Charge           Charge          ....   -1
 Multiplicity           Mult            ....    1
 Number of Electrons    NEL             ....  102
 Basis Dimension        Dim             .... 1718

ORBITAL ENERGIES
----------------

  NO   OCC          E(Eh)            E(eV)
   0   2.0000     -20.431240      -555.9623
   1   2.0000     -20.345273      -553.6230
   2   2.0000     -11.154557      -303.5309
   3   2.0000     -11.145644      -303.2884
   4   2.0000     -11.131990      -302.9168
   5   2.0000     -11.128234      -302.8146
   6   2.0000     -11.127794      -302.8027
   7   2.0000     -11.127472      -302.7939
   8   2.0000     -11.124541      -302.7142
   9   2.0000     -11.121795      -302.6394
  10   2.0000     -11.116891      -302.5060
  11   2.0000     -11.115665      -302.4726
  12   2.0000     -11.041427      -300.4525
  13   2.0000     -11.038590      -300.3753
  14   2.0000      -1.250255       -34.0212
  15   2.0000      -1.184189       -32.2234
  16   2.0000      -1.044696       -28.4276
  17   2.0000      -0.921133       -25.0653
  18   2.0000      -0.907101       -24.6835
  19   2.0000      -0.904362       -24.6089
  20   2.0000      -0.836061       -22.7504
  21   2.0000      -0.815774       -22.1984
  22   2.0000      -0.749925       -20.4065
  23   2.0000      -0.724018       -19.7015
  24   2.0000      -0.710565       -19.3355
  25   2.0000      -0.619046       -16.8451
  26   2.0000      -0.587121       -15.9764
  27   2.0000      -0.573301       -15.6003
  28   2.0000      -0.535458       -14.5705
  29   2.0000      -0.519311       -14.1312
  30   2.0000      -0.510483       -13.8909
  31   2.0000      -0.508666       -13.8415
  32   2.0000      -0.493054       -13.4167
  33   2.0000      -0.484117       -13.1735
  34   2.0000      -0.478655       -13.0249
  35   2.0000      -0.457557       -12.4508
  36   2.0000      -0.436840       -11.8870
  37   2.0000      -0.420427       -11.4404
  38   2.0000      -0.409140       -11.1333
  39   2.0000      -0.405788       -11.0421
  40   2.0000      -0.378739       -10.3060
  41   2.0000      -0.369615       -10.0577
  42   2.0000      -0.365995        -9.9592
  43   2.0000      -0.359230        -9.7752
  44   2.0000      -0.349747        -9.5171
  45   2.0000      -0.257214        -6.9991
  46   2.0000      -0.250734        -6.8228
  47   2.0000      -0.230947        -6.2844
  48   2.0000      -0.222835        -6.0636
  49   2.0000      -0.179741        -4.8910
  50   2.0000      -0.102218        -2.7815
  51   0.0000       0.085032         2.3138
  52   0.0000       0.093606         2.5471
  53   0.0000       0.096093         2.6148
  54   0.0000       0.103971         2.8292
  55   0.0000       0.113113         3.0780

MULLIKEN ATOMIC CHARGES
-----------------------
   0 C :   -0.121013
   1 C :    1.444853
   2 O :   -1.096078
   3 C :   -0.854531
   4 C :   -0.308164
   5 C :   -0.781218
   6 C :    0.094262
   7 O :   -0.979744
   8 C :   -0.789506
   9 H :    0.181491
  10 H :    0.208420
  11 H :    0.366427
  12 H :    0.356658
  13 H :    0.625304
  14 H :    0.264950
  15 H :    0.255025
  16 H :    0.552296
  17 C :   -0.258941
  18 C :   -0.490417
  19 C :   -0.348424
  20 C :   -0.392099
  21 C :   -0.396873
  22 H :    0.482531
  23 H :    0.202928
  24 H :    0.311518
  25 H :    0.214592
  26 H :    0.255753
Sum of atomic charges:   -1.0000000

LOEWDIN ATOMIC CHARGES
----------------------
   0 C :   -0.134091
   1 C :   -0.794222
   2 O :    0.639013
   3 C :    0.537798
   4 C :    0.545035
   5 C :    0.135669
   6 C :   -0.144669
   7 O :    0.781058
   8 C :    0.458701
   9 H :   -0.355361
  10 H :   -0.392739
  11 H :   -0.351035
  12 H :   -0.368487
  13 H :   -0.415838
  14 H :   -0.339472
  15 H :   -0.339511
  16 H :   -0.344458
  17 C :    0.318886
  18 C :    0.335068
  19 C :    0.310839
  20 C :    0.325594
  21 C :    0.303571
  22 H :   -0.352166
  23 H :   -0.328599
  24 H :   -0.334275
  25 H :   -0.332540
  26 H :   -0.363768

  Mayer bond orders larger than 0.100000
B(  0-C ,  1-C ) :   0.8469 B(  0-C ,  2-O ) :   0.4968 B(  0-C ,  3-C ) :  -0.1379
B(  0-C , 17-C ) :   1.1863 B(  0-C , 18-C ) :  -0.2900 B(  0-C , 20-C ) :  -0.3435
B(  0-C , 21-C ) :   1.0987 B(  0-C , 22-H ) :  -0.1111 B(  1-C ,  2-O ) :   0.1127
B(  1-C ,  3-C ) :   1.3155 B(  1-C , 17-C ) :  -0.2478 B(  1-C , 21-C ) :  -0.2781
B(  2-O ,  3-C ) :   0.2674 B(  2-O , 21-C ) :  -0.1003 B(  2-O , 26-H ) :   0.1576
B(  3-C ,  4-C ) :   0.4802 B(  3-C ,  9-H ) :   0.9954 B(  3-C , 10-H ) :   1.0023
B(  4-C ,  5-C ) :   1.1471 B(  4-C ,  6-C ) :  -0.1621 B(  4-C , 11-H ) :   0.8875
B(  4-C , 12-H ) :   0.8614 B(  5-C ,  6-C ) :   2.0504 B(  5-C ,  7-O ) :   0.2946
B(  6-C ,  7-O ) :   0.3204 B(  6-C , 13-H ) :   0.5517 B(  7-O ,  8-C ) :   0.9639
B(  8-C , 14-H ) :   0.9229 B(  8-C , 15-H ) :   0.9210 B(  8-C , 16-H ) :   0.6870
B( 17-C , 18-C ) :   1.1054 B( 17-C , 19-C ) :  -0.1388 B( 17-C , 22-H ) :   0.7224
B( 17-C , 23-H ) :  -0.1079 B( 18-C , 19-C ) :   1.2920 B( 18-C , 21-C ) :   0.1731
B( 18-C , 22-H ) :  -0.1344 B( 18-C , 23-H ) :   1.1471 B( 18-C , 24-H ) :  -0.1107
B( 19-C , 20-C ) :   1.1479 B( 19-C , 24-H ) :   1.0368 B( 19-C , 25-H ) :  -0.1037
B( 20-C , 21-C ) :   1.3254 B( 20-C , 24-H ) :  -0.1060 B( 20-C , 25-H ) :   1.1646
B( 21-C , 25-H ) :  -0.1645 B( 21-C , 26-H ) :   0.9124

MP2 TOTAL ENERGY:     -614.444435724 Eh
FINAL SINGLE POINT ENERGY      -614.444435724370

DIPOLE MOMENT
-------------
                                X             Y             Z
Electronic contribution:      7.88026       1.97202       1.41558
Nuclear contribution   :     -6.53347      -3.94004      -1.47130
                        -----------------------------------------
Total Dipole Moment    :      1.34679      -1.96802      -0.05572
                        -----------------------------------------
Magnitude (a.u.)       :      2.38538
Magnitude (Debye)      :      6.06316

Rotational constants in cm-1:     0.043830     0.009379     0.008137
Rotational constants in MHz :  1313.988499   281.169528   243.948955

                             ****ORCA TERMINATED NORMALLY****
TOTAL RUN TIME: 0 days 2 hours 1 minutes 37 seconds 776 msec
