                         Program Version 4.2.1 -  RELEASE  -
|  1> %pal
|  2>  nprocs 32
|  3> end
|  4> !RI-MP2 aug-cc-pVQZ aug-cc-pVQZ/C TightSCF
|  5> %maxcore 4500
|  6> *xyzfile 1 1  10_27TS.xyz
|  7>
|  8>
|  9>                          ****END OF INPUT****

CARTESIAN COORDINATES (ANGSTROEM)
---------------------------------
  C      1.013015    3.271492   -0.750053
  C      0.003854    2.112874   -0.878749
  C      0.840261    1.792376    1.142193
  C      1.570002    3.073142    0.691868
  H      1.789118    3.221963   -1.515208
  H      0.505699    4.229659   -0.862455
  H      2.651813    2.954447    0.721597
  H      1.302397    3.903587    1.345741
  C     -0.550073    2.005439    0.541994
  H     -1.237923    1.181229    0.692348
  H     -1.001175    2.937288    0.878194
  H     -0.709323    2.174758   -1.696214
  H      0.924958    1.524645    2.191709
  N      1.381230    0.724388    0.277199
  N      0.754694    0.832976   -0.960336
  C     -0.244373   -1.498804   -0.626413
  C     -1.584990   -1.088435   -0.268007
  C     -2.081033   -1.188572    1.038803
  C     -2.431859   -0.594739   -1.270310
  C     -3.370485   -0.782730    1.334245
  H     -1.466722   -1.602054    1.827852
  C     -3.718833   -0.187462   -0.973736
  H     -2.064267   -0.528741   -2.288171
  C     -4.189465   -0.276064    0.332047
  H     -3.745265   -0.872442    2.345966
  H     -4.361953    0.191675   -1.757817
  H     -5.199850    0.035824    0.565423
  H     -0.067455   -1.624692   -1.688986
  C      1.956596   -0.444817    0.616559
  H      2.122332   -0.499333    1.690935
  C      0.750831   -1.940025    0.247784
  H      0.430789   -2.105816    1.272422
  H      1.424241    0.814194   -1.725567
  C      3.130040   -0.982231   -0.181170
  H      4.034484   -0.468850    0.154735
  H      3.001918   -0.768487   -1.246110
  C      1.760556   -2.952891   -0.282844
  H      1.548951   -3.941494    0.126915
  H      1.652595   -3.031944   -1.367584
  C      3.173863   -2.479366    0.049842
  H      3.418663   -2.689250    1.095347
  H      3.927070   -2.972826   -0.563428

 Total Charge           Charge          ....    1
 Multiplicity           Mult            ....    1
 Number of Electrons    NEL             ....  138
 Basis Dimension        Dim             .... 2578

ORBITAL ENERGIES
----------------

  NO   OCC          E(Eh)            E(eV)
   0   2.0000     -15.741350      -428.3439
   1   2.0000     -15.736020      -428.1989
   2   2.0000     -11.449487      -311.5564
   3   2.0000     -11.428915      -310.9966
   4   2.0000     -11.399164      -310.1870
   5   2.0000     -11.391023      -309.9655
   6   2.0000     -11.370644      -309.4110
   7   2.0000     -11.368126      -309.3424
   8   2.0000     -11.367725      -309.3315
   9   2.0000     -11.364208      -309.2358
  10   2.0000     -11.363613      -309.2196
  11   2.0000     -11.359323      -309.1029
  12   2.0000     -11.353444      -308.9429
  13   2.0000     -11.353349      -308.9403
  14   2.0000     -11.348695      -308.8137
  15   2.0000     -11.342965      -308.6578
  16   2.0000     -11.341408      -308.6154
  17   2.0000     -11.340742      -308.5973
  18   2.0000     -11.340686      -308.5957
  19   2.0000      -1.495702       -40.7001
  20   2.0000      -1.298180       -35.3253
  21   2.0000      -1.289475       -35.0884
  22   2.0000      -1.237997       -33.6876
  23   2.0000      -1.236685       -33.6519
  24   2.0000      -1.196786       -32.5662
  25   2.0000      -1.146668       -31.2024
  26   2.0000      -1.132252       -30.8101
  27   2.0000      -1.105454       -30.0809
  28   2.0000      -1.088338       -29.6152
  29   2.0000      -1.046071       -28.4650
  30   2.0000      -0.998589       -27.1730
  31   2.0000      -0.962710       -26.1967
  32   2.0000      -0.947726       -25.7889
  33   2.0000      -0.941519       -25.6200
  34   2.0000      -0.921074       -25.0637
  35   2.0000      -0.899502       -24.4767
  36   2.0000      -0.892647       -24.2902
  37   2.0000      -0.847559       -23.0632
  38   2.0000      -0.833035       -22.6680
  39   2.0000      -0.811121       -22.0717
  40   2.0000      -0.797241       -21.6940
  41   2.0000      -0.780016       -21.2253
  42   2.0000      -0.769921       -20.9506
  43   2.0000      -0.764017       -20.7900
  44   2.0000      -0.751408       -20.4468
  45   2.0000      -0.731387       -19.9021
  46   2.0000      -0.727361       -19.7925
  47   2.0000      -0.715843       -19.4791
  48   2.0000      -0.711712       -19.3667
  49   2.0000      -0.694388       -18.8953
  50   2.0000      -0.683019       -18.5859
  51   2.0000      -0.675254       -18.3746
  52   2.0000      -0.658081       -17.9073
  53   2.0000      -0.649046       -17.6614
  54   2.0000      -0.645777       -17.5725
  55   2.0000      -0.641956       -17.4685
  56   2.0000      -0.633891       -17.2491
  57   2.0000      -0.620447       -16.8832
  58   2.0000      -0.613815       -16.7028
  59   2.0000      -0.611788       -16.6476
  60   2.0000      -0.608566       -16.5599
  61   2.0000      -0.603046       -16.4097
  62   2.0000      -0.599468       -16.3124
  63   2.0000      -0.592350       -16.1187
  64   2.0000      -0.581156       -15.8141
  65   2.0000      -0.524991       -14.2857
  66   2.0000      -0.498541       -13.5660
  67   2.0000      -0.465047       -12.6546
  68   2.0000      -0.422309       -11.4916
  69   0.0000      -0.100375        -2.7314
  70   0.0000      -0.063035        -1.7153
  71   0.0000      -0.059227        -1.6117
  72   0.0000      -0.051010        -1.3881
  73   0.0000      -0.049194        -1.3386

MULLIKEN ATOMIC CHARGES
-----------------------
   0 C :   -0.725883
   1 C :    0.128717
   2 C :    0.055925
   3 C :   -0.760366
   4 H :    0.209652
   5 H :    0.243897
   6 H :    0.263278
   7 H :    0.216075
   8 C :   -1.370231
   9 H :    1.109036
  10 H :    0.014310
  11 H :    0.431782
  12 H :    0.196608
  13 N :    0.140725
  14 N :   -0.388490
  15 C :    0.453539
  16 C :    0.971784
  17 C :   -0.501088
  18 C :   -0.697218
  19 C :   -0.472124
  20 H :    0.263322
  21 C :   -0.400226
  22 H :    0.221518
  23 C :   -0.283967
  24 H :    0.216376
  25 H :    0.241706
  26 H :    0.348413
  27 H :    0.222636
  28 C :    0.623791
  29 H :    0.385330
  30 C :   -0.067879
  31 H :    0.225714
  32 H :    0.046298
  33 C :   -0.716026
  34 H :    0.298450
  35 H :    0.228456
  36 C :   -0.676080
  37 H :    0.319814
  38 H :    0.074967
  39 C :   -0.573771
  40 H :    0.198771
  41 H :    0.282458
Sum of atomic charges:    1.0000000

LOEWDIN ATOMIC CHARGES
----------------------
   0 C :    0.590969
   1 C :    0.039732
   2 C :    0.057563
   3 C :    0.585707
   4 H :   -0.248856
   5 H :   -0.244518
   6 H :   -0.247491
   7 H :   -0.246371
   8 C :    0.553564
   9 H :   -0.322623
  10 H :   -0.228256
  11 H :   -0.227706
  12 H :   -0.224407
  13 N :    0.373646
  14 N :    0.797390
  15 C :    0.403197
  16 C :   -0.067030
  17 C :    0.358351
  18 C :    0.353904
  19 C :    0.391086
  20 H :   -0.315046
  21 C :    0.387897
  22 H :   -0.295347
  23 C :    0.382444
  24 H :   -0.302786
  25 H :   -0.304506
  26 H :   -0.297548
  27 H :   -0.283313
  28 C :    0.156487
  29 H :   -0.259140
  30 C :    0.296930
  31 H :   -0.313731
  32 H :   -0.459845
  33 C :    0.552498
  34 H :   -0.232825
  35 H :   -0.264954
  36 C :    0.549571
  37 H :   -0.239427
  38 H :   -0.279291
  39 C :    0.561749
  40 H :   -0.248049
  41 H :   -0.239617

  Mayer bond orders larger than 0.100000
B(  0-C ,  1-C ) :   0.5709 B(  0-C ,  2-C ) :  -0.2183 B(  0-C ,  3-C ) :   1.1674
B(  0-C ,  4-H ) :   1.0476 B(  0-C ,  5-H ) :   1.0360 B(  1-C ,  3-C ) :  -0.2303
B(  1-C ,  8-C ) :   0.8990 B(  1-C , 11-H ) :   0.8356 B(  1-C , 14-N ) :   0.8466
B(  2-C ,  3-C ) :   0.6203 B(  2-C ,  8-C ) :   0.9640 B(  2-C ,  9-H ) :  -0.1045
B(  2-C , 12-H ) :   1.0523 B(  2-C , 13-N ) :   0.8017 B(  3-C ,  6-H ) :   1.0012
B(  3-C ,  7-H ) :   1.0462 B(  8-C ,  9-H ) :  -0.1306 B(  8-C , 10-H ) :   1.4392
B(  9-H , 10-H ) :  -0.3372 B( 13-N , 14-N ) :   0.7551 B( 13-N , 15-C ) :   0.1059
B( 13-N , 28-C ) :   1.3889 B( 13-N , 30-C ) :   0.1376 B( 14-N , 15-C ) :   0.1456
B( 14-N , 28-C ) :  -0.1044 B( 14-N , 32-H ) :   1.2086 B( 15-C , 16-C ) :   0.3467
B( 15-C , 17-C ) :  -0.3640 B( 15-C , 18-C ) :  -0.7111 B( 15-C , 27-H ) :   1.0888
B( 15-C , 28-C ) :   0.1678 B( 15-C , 30-C ) :   1.0515 B( 15-C , 36-C ) :  -0.1560
B( 16-C , 17-C ) :   1.0490 B( 16-C , 18-C ) :   1.1327 B( 16-C , 19-C ) :  -0.5094
B( 16-C , 21-C ) :  -0.5146 B( 16-C , 22-H ) :  -0.1079 B( 16-C , 27-H ) :  -0.2073
B( 16-C , 30-C ) :  -0.2001 B( 17-C , 19-C ) :   1.3579 B( 17-C , 20-H ) :   1.0445
B( 17-C , 21-C ) :   0.1578 B( 17-C , 24-H ) :  -0.1062 B( 18-C , 21-C ) :   1.3753
B( 18-C , 22-H ) :   1.1032 B( 18-C , 23-C ) :   0.1141 B( 18-C , 25-H ) :  -0.1530
B( 18-C , 30-C ) :   0.1226 B( 19-C , 23-C ) :   1.1995 B( 19-C , 24-H ) :   1.1677
B( 19-C , 26-H ) :  -0.1040 B( 21-C , 23-C ) :   1.1406 B( 21-C , 25-H ) :   1.1707
B( 23-C , 26-H ) :   1.0317 B( 28-C , 29-H ) :   0.8892 B( 28-C , 30-C ) :   0.1976
B( 28-C , 33-C ) :   0.4151 B( 28-C , 39-C ) :  -0.1386 B( 30-C , 31-H ) :   1.0282
B( 30-C , 36-C ) :   0.4396 B( 30-C , 38-H ) :  -0.1573 B( 30-C , 39-C ) :  -0.2974
B( 33-C , 34-H ) :   0.9311 B( 33-C , 35-H ) :   1.0685 B( 33-C , 39-C ) :   1.0568
B( 36-C , 37-H ) :   0.9187 B( 36-C , 38-H ) :   1.1757 B( 36-C , 39-C ) :   1.1064
B( 39-C , 40-H ) :   1.0220 B( 39-C , 41-H ) :   0.9212

MP2 TOTAL ENERGY:     -769.477417947 Eh
FINAL SINGLE POINT ENERGY      -769.477417947414

DIPOLE MOMENT
-------------
                                X             Y             Z
Electronic contribution:     -8.58867      -2.01395      -0.23442
Nuclear contribution   :      9.09099       2.11847       0.19793
                        -----------------------------------------
Total Dipole Moment    :      0.50231       0.10452      -0.03649
                        -----------------------------------------
Magnitude (a.u.)       :      0.51437
Magnitude (Debye)      :      1.30741

Rotational constants in cm-1:     0.016649     0.011921     0.008166
Rotational constants in MHz :   499.124557   357.391696   244.812694

                             ****ORCA TERMINATED NORMALLY****
TOTAL RUN TIME: 0 days 13 hours 4 minutes 35 seconds 546 msec
