                         Program Version 4.2.1 -  RELEASE  -
|  1> %pal
|  2>  nprocs 32
|  3> end
|  4> !RI-MP2 aug-cc-pVQZ aug-cc-pVQZ/C TightSCF
|  5> %maxcore 4500
|  6> *xyzfile 1 1  05_27P1.xyz
|  7>
|  8>
|  9>                          ****END OF INPUT****

CARTESIAN COORDINATES (ANGSTROEM)
---------------------------------
  C     -3.315366   -0.016699   -0.026967
  C     -2.643927    1.202375    0.012149
  C     -1.265766    1.221976    0.027744
  C     -0.549958    0.010704    0.009334
  C     -1.240374   -1.216840   -0.028133
  C     -2.617020   -1.222923   -0.047469
  H     -4.398576   -0.027753   -0.041976
  H     -3.201148    2.129553    0.027950
  H     -0.743681    2.169531    0.057208
  H     -0.684432   -2.144869   -0.041359
  H     -3.155629   -2.160795   -0.077715
  C      0.869773    0.029288    0.038497
  O      1.520525   -1.073540    0.027700
  C      1.779559    1.210623    0.109122
  C      2.978496   -0.851693    0.117244
  C      3.143281    0.611724   -0.258826
  H      1.752840    1.585926    1.139136
  H      1.457431    2.022785   -0.539813
  H      3.248044   -1.083885    1.146951
  H      3.434108   -1.568762   -0.558938
  H      3.965475    1.079267    0.278493
  H      3.329187    0.716116   -1.327712

 Total Charge           Charge          ....    1
 Multiplicity           Mult            ....    1
 Number of Electrons    NEL             ....   78
 Basis Dimension        Dim             .... 1386

ORBITAL ENERGIES
----------------

  NO   OCC          E(Eh)            E(eV)
   0   2.0000     -20.805671      -566.1511
   1   2.0000     -11.549274      -314.2717
   2   2.0000     -11.460254      -311.8494
   3   2.0000     -11.418612      -310.7162
   4   2.0000     -11.412536      -310.5509
   5   2.0000     -11.407595      -310.4164
   6   2.0000     -11.406345      -310.3824
   7   2.0000     -11.403524      -310.3057
   8   2.0000     -11.398341      -310.1646
   9   2.0000     -11.380954      -309.6915
  10   2.0000     -11.379952      -309.6642
  11   2.0000      -1.654083       -45.0099
  12   2.0000      -1.328369       -36.1468
  13   2.0000      -1.260617       -34.3031
  14   2.0000      -1.235832       -33.6287
  15   2.0000      -1.180705       -32.1286
  16   2.0000      -1.153506       -31.3885
  17   2.0000      -1.031128       -28.0584
  18   2.0000      -1.025692       -27.9105
  19   2.0000      -0.978518       -26.6268
  20   2.0000      -0.946267       -25.7492
  21   2.0000      -0.903929       -24.5972
  22   2.0000      -0.874095       -23.7853
  23   2.0000      -0.840107       -22.8605
  24   2.0000      -0.821408       -22.3517
  25   2.0000      -0.785597       -21.3772
  26   2.0000      -0.770096       -20.9554
  27   2.0000      -0.761737       -20.7279
  28   2.0000      -0.751503       -20.4494
  29   2.0000      -0.746597       -20.3159
  30   2.0000      -0.710363       -19.3300
  31   2.0000      -0.704977       -19.1834
  32   2.0000      -0.674935       -18.3659
  33   2.0000      -0.664073       -18.0704
  34   2.0000      -0.662199       -18.0193
  35   2.0000      -0.648884       -17.6570
  36   2.0000      -0.644331       -17.5331
  37   2.0000      -0.508969       -13.8498
  38   2.0000      -0.495652       -13.4874
  39   0.0000      -0.125377        -3.4117
  40   0.0000      -0.075991        -2.0678
  41   0.0000      -0.060361        -1.6425
  42   0.0000      -0.060167        -1.6372
  43   0.0000      -0.057483        -1.5642

MULLIKEN ATOMIC CHARGES
-----------------------
   0 C :   -0.329664
   1 C :   -0.305376
   2 C :   -0.337550
   3 C :   -0.029202
   4 C :   -0.363364
   5 C :   -0.295587
   6 H :    0.329978
   7 H :    0.286814
   8 H :    0.297438
   9 H :    0.325414
  10 H :    0.282616
  11 C :    1.172901
  12 O :   -0.705445
  13 C :   -0.405464
  14 C :   -0.287680
  15 C :   -0.599507
  16 H :    0.325667
  17 H :    0.336736
  18 H :    0.286898
  19 H :    0.402792
  20 H :    0.320592
  21 H :    0.290992
Sum of atomic charges:    1.0000000

LOEWDIN ATOMIC CHARGES
----------------------
   0 C :    0.399282
   1 C :    0.405335
   2 C :    0.367828
   3 C :   -0.063070
   4 C :    0.370549
   5 C :    0.404209
   6 H :   -0.286434
   7 H :   -0.303182
   8 H :   -0.311592
   9 H :   -0.308027
  10 H :   -0.303164
  11 C :   -0.357816
  12 O :    0.979710
  13 C :    0.567375
  14 C :    0.357363
  15 C :    0.576166
  16 H :   -0.229004
  17 H :   -0.254650
  18 H :   -0.258572
  19 H :   -0.260535
  20 H :   -0.242139
  21 H :   -0.249629

  Mayer bond orders larger than 0.100000
B(  0-C ,  1-C ) :   1.1724 B(  0-C ,  5-C ) :   1.1500 B(  0-C ,  6-H ) :   1.0188
B(  1-C ,  2-C ) :   1.2072 B(  1-C ,  3-C ) :  -0.3770 B(  1-C ,  7-H ) :   1.0955
B(  2-C ,  3-C ) :   0.9720 B(  2-C ,  4-C ) :   0.1610 B(  2-C ,  7-H ) :  -0.1319
B(  2-C ,  8-H ) :   0.9753 B(  2-C , 11-C ) :  -0.4297 B(  3-C ,  4-C ) :   0.9238
B(  3-C ,  5-C ) :  -0.4249 B(  3-C ,  8-H ) :  -0.1654 B(  3-C ,  9-H ) :  -0.1375
B(  3-C , 11-C ) :   0.4470 B(  3-C , 12-O ) :   0.3283 B(  3-C , 13-C ) :  -0.1610
B(  4-C ,  5-C ) :   1.2541 B(  4-C ,  9-H ) :   0.9103 B(  4-C , 10-H ) :  -0.1519
B(  4-C , 11-C ) :  -0.3680 B(  5-C , 10-H ) :   1.1229 B(  8-H , 11-C ) :   0.1426
B(  9-H , 11-C ) :   0.1178 B( 11-C , 12-O ) :   0.5394 B( 11-C , 13-C ) :   0.9558
B( 11-C , 15-C ) :  -0.1272 B( 12-O , 14-C ) :   0.6879 B( 13-C , 15-C ) :   0.9869
B( 13-C , 16-H ) :   0.8136 B( 13-C , 17-H ) :   0.8932 B( 14-C , 15-C ) :   1.1595
B( 14-C , 18-H ) :   0.8926 B( 14-C , 19-H ) :   0.8191 B( 15-C , 20-H ) :   0.8893
B( 15-C , 21-H ) :   0.8797

MP2 TOTAL ENERGY:     -461.850988179 Eh
FINAL SINGLE POINT ENERGY      -461.850988178988

DIPOLE MOMENT
-------------
                                X             Y             Z
Electronic contribution:     -4.00819      -2.24980       0.02516
Nuclear contribution   :      5.06758       2.72167       0.06316
                        -----------------------------------------
Total Dipole Moment    :      1.05939       0.47187       0.08832
                        -----------------------------------------
Magnitude (a.u.)       :      1.16308
Magnitude (Debye)      :      2.95632

Rotational constants in cm-1:     0.107217     0.022453     0.018827
Rotational constants in MHz :  3214.284722   673.137953   564.425320

                             ****ORCA TERMINATED NORMALLY****
TOTAL RUN TIME: 0 days 1 hours 12 minutes 39 seconds 376 msec
