                         Program Version 4.2.1 -  RELEASE  -
|  1> %pal
|  2>  nprocs 32
|  3> end
|  4> !RI-MP2 aug-cc-pVQZ aug-cc-pVQZ/C TightSCF
|  5> %maxcore 4500
|  6> *xyzfile 0 1  03_42R1.xyz
|  7>
|  8>
|  9>                          ****END OF INPUT****

CARTESIAN COORDINATES (ANGSTROEM)
---------------------------------
  O      2.978635    1.447167    0.592667
  C      2.730010    0.389124    0.138882
  C      1.385776   -0.191653   -0.183786
  C      0.241023    0.764244    0.123716
  H      1.306888   -1.129742    0.370676
  H      1.401687   -0.474722   -1.240778
  H      0.235043    0.992768    1.194005
  C     -1.129168    0.228435   -0.291783
  H      0.427266    1.712784   -0.386683
  C     -1.532767   -1.030759    0.482378
  H     -1.084578   -0.032758   -1.358954
  C     -2.196510    1.314033   -0.125470
  H     -2.209746    1.635760    0.923661
  C     -3.588232    0.824464   -0.519933
  H     -1.922623    2.193136   -0.716245
  C     -3.976474   -0.430606    0.258641
  H     -3.601386    0.601412   -1.593417
  H     -4.323944    1.616543   -0.357734
  C     -2.925101   -1.525188    0.091589
  H     -4.955756   -0.792302   -0.065769
  H     -4.071005   -0.180481    1.322047
  H     -2.909056   -1.852361   -0.954837
  H     -3.190079   -2.402585    0.687365
  H     -1.516544   -0.801314    1.555786
  H     -0.805555   -1.831583    0.323536
  Cl     4.078763   -0.757909   -0.252318

 Total Charge           Charge          ....    0
 Multiplicity           Mult            ....    1
 Number of Electrons    NEL             ....   94
 Basis Dimension        Dim             .... 1574

ORBITAL ENERGIES
----------------

  NO   OCC          E(Eh)            E(eV)
   0   2.0000    -104.839056     -2852.8158
   1   2.0000     -20.588673      -560.2463
   2   2.0000     -11.403099      -310.2941
   3   2.0000     -11.262563      -306.4699
   4   2.0000     -11.234640      -305.7101
   5   2.0000     -11.232791      -305.6598
   6   2.0000     -11.223741      -305.4135
   7   2.0000     -11.221252      -305.3458
   8   2.0000     -11.221043      -305.3401
   9   2.0000     -11.219805      -305.3064
  10   2.0000     -11.218950      -305.2832
  11   2.0000     -10.565072      -287.4902
  12   2.0000      -8.031921      -218.5597
  13   2.0000      -8.030378      -218.5177
  14   2.0000      -8.030294      -218.5154
  15   2.0000      -1.450484       -39.4697
  16   2.0000      -1.140919       -31.0460
  17   2.0000      -1.125281       -30.6204
  18   2.0000      -1.077363       -29.3165
  19   2.0000      -1.012948       -27.5637
  20   2.0000      -1.008964       -27.4553
  21   2.0000      -0.904730       -24.6190
  22   2.0000      -0.840839       -22.8804
  23   2.0000      -0.808803       -22.0086
  24   2.0000      -0.765234       -20.8231
  25   2.0000      -0.759850       -20.6766
  26   2.0000      -0.683936       -18.6108
  27   2.0000      -0.667125       -18.1534
  28   2.0000      -0.658399       -17.9160
  29   2.0000      -0.646305       -17.5869
  30   2.0000      -0.611773       -16.6472
  31   2.0000      -0.607545       -16.5321
  32   2.0000      -0.605058       -16.4645
  33   2.0000      -0.572029       -15.5657
  34   2.0000      -0.554381       -15.0855
  35   2.0000      -0.533510       -14.5175
  36   2.0000      -0.525872       -14.3097
  37   2.0000      -0.519898       -14.1472
  38   2.0000      -0.498829       -13.5738
  39   2.0000      -0.489416       -13.3177
  40   2.0000      -0.479677       -13.0527
  41   2.0000      -0.463541       -12.6136
  42   2.0000      -0.461668       -12.5626
  43   2.0000      -0.459699       -12.5090
  44   2.0000      -0.447888       -12.1876
  45   2.0000      -0.433826       -11.8050
  46   2.0000      -0.428691       -11.6653
  47   0.0000       0.021639         0.5888
  48   0.0000       0.026796         0.7292
  49   0.0000       0.026897         0.7319
  50   0.0000       0.030790         0.8378
  51   0.0000       0.042244         1.1495

MULLIKEN ATOMIC CHARGES
-----------------------
   0 O :   -0.699859
   1 C :    0.670544
   2 C :   -0.487227
   3 C :   -0.174866
   4 H :    0.245642
   5 H :    0.181130
   6 H :    0.129140
   7 C :    0.635237
   8 H :    0.195722
   9 C :   -0.342007
  10 H :    0.114518
  11 C :   -0.499132
  12 H :    0.146791
  13 C :   -0.541122
  14 H :    0.241845
  15 C :   -0.462005
  16 H :    0.122109
  17 H :    0.215221
  18 C :   -0.452296
  19 H :    0.245826
  20 H :    0.099691
  21 H :    0.130700
  22 H :    0.209496
  23 H :    0.168929
  24 H :    0.223885
  25 Cl:   -0.317911
Sum of atomic charges:   -0.0000000

LOEWDIN ATOMIC CHARGES
----------------------
   0 O :    0.629447
   1 C :   -1.337140
   2 C :    0.349349
   3 C :    0.496418
   4 H :   -0.330014
   5 H :   -0.304966
   6 H :   -0.260459
   7 C :    0.135226
   8 H :   -0.273279
   9 C :    0.534166
  10 H :   -0.257250
  11 C :    0.534100
  12 H :   -0.254818
  13 C :    0.544470
  14 H :   -0.253187
  15 C :    0.536471
  16 H :   -0.259979
  17 H :   -0.256333
  18 C :    0.546641
  19 H :   -0.257690
  20 H :   -0.261397
  21 H :   -0.258914
  22 H :   -0.255839
  23 H :   -0.251157
  24 H :   -0.272267
  25 Cl:    1.038402

  Mayer bond orders larger than 0.100000
B(  0-O ,  1-C ) :   1.2955 B(  0-O ,  2-C ) :   0.4184 B(  0-O ,  3-C ) :  -0.2141
B(  1-C ,  2-C ) :   1.0768 B(  1-C ,  3-C ) :  -0.3863 B(  1-C , 25-Cl) :   0.9682
B(  2-C ,  3-C ) :   0.8755 B(  2-C ,  4-H ) :   0.8726 B(  2-C ,  5-H ) :   0.8714
B(  2-C ,  7-C ) :  -0.1547 B(  2-C , 25-Cl) :  -0.2805 B(  3-C ,  6-H ) :   0.9078
B(  3-C ,  7-C ) :   0.7204 B(  3-C ,  8-H ) :   0.8949 B(  3-C , 11-C ) :   0.1256
B(  7-C ,  9-C ) :   0.5918 B(  7-C , 10-H ) :   1.0071 B(  7-C , 11-C ) :   0.5408
B(  9-C , 15-C ) :  -0.1378 B(  9-C , 18-C ) :   0.6813 B(  9-C , 22-H ) :  -0.1172
B(  9-C , 23-H ) :   0.9912 B(  9-C , 24-H ) :   0.9818 B( 11-C , 12-H ) :   1.0595
B( 11-C , 13-C ) :   0.8561 B( 11-C , 14-H ) :   0.9952 B( 11-C , 15-C ) :  -0.1045
B( 11-C , 17-H ) :  -0.1067 B( 13-C , 15-C ) :   0.8844 B( 13-C , 16-H ) :   1.0592
B( 13-C , 17-H ) :   1.0266 B( 15-C , 18-C ) :   0.8854 B( 15-C , 19-H ) :   0.9657
B( 15-C , 20-H ) :   1.0728 B( 18-C , 21-H ) :   1.0628 B( 18-C , 22-H ) :   1.0317

MP2 TOTAL ENERGY:     -886.227994659 Eh
FINAL SINGLE POINT ENERGY      -886.227994659031

DIPOLE MOMENT
-------------
                                X             Y             Z
Electronic contribution:     32.06252      -0.86123      -0.35677
Nuclear contribution   :    -33.36071       0.36554       0.07376
                        -----------------------------------------
Total Dipole Moment    :     -1.29819      -0.49569      -0.28301
                        -----------------------------------------
Magnitude (a.u.)       :      1.41813
Magnitude (Debye)      :      3.60459

Rotational constants in cm-1:     0.085434     0.011030     0.010141
Rotational constants in MHz :  2561.232976   330.671136   304.030601

                             ****ORCA TERMINATED NORMALLY****
TOTAL RUN TIME: 0 days 1 hours 58 minutes 40 seconds 81 msec
