                         Program Version 4.2.1 -  RELEASE  -
|  1> %pal
|  2>  nprocs 32
|  3> end
|  4> !RI-MP2 aug-cc-pVQZ aug-cc-pVQZ/C TightSCF
|  5> %maxcore 4500
|  6> *xyzfile 0 1  02_47TS.xyz
|  7>
|  8>
|  9>                          ****END OF INPUT****

CARTESIAN COORDINATES (ANGSTROEM)
---------------------------------
  C      1.478586    1.269997    0.000000
  C      1.478586   -1.269997    0.000000
  N      1.689025    0.646873    1.174381
  N      1.689025   -0.646873    1.174381
  C      1.346891   -2.755431   -0.000000
  H      0.819613   -3.084573   -0.893690
  H      2.339025   -3.212772    0.000000
  H      0.819613   -3.084573    0.893689
  C      1.346891    2.755431    0.000001
  H      2.339024    3.212772    0.000000
  H      0.819612    3.084573   -0.893688
  H      0.819612    3.084573    0.893690
  C     -3.282593    0.700480   -0.000001
  C     -2.097535    1.449198    0.000001
  C     -0.995069    0.623120    0.000001
  C     -0.995069   -0.623121    0.000000
  C     -2.097535   -1.449199   -0.000001
  C     -3.282593   -0.700481   -0.000001
  H     -4.231537    1.224580   -0.000001
  H     -2.094736    2.530876    0.000001
  H     -2.094736   -2.530876   -0.000002
  H     -4.231537   -1.224580   -0.000002
  N      1.689024    0.646874   -1.174380
  N      1.689025   -0.646873   -1.174381

 Total Charge           Charge          ....    0
 Multiplicity           Mult            ....    1
 Number of Electrons    NEL             ....   98
 Basis Dimension        Dim             .... 1580

ORBITAL ENERGIES
----------------

  NO   OCC          E(Eh)            E(eV)
   0   2.0000     -15.631062      -425.3428
   1   2.0000     -15.631028      -425.3419
   2   2.0000     -15.630044      -425.3151
   3   2.0000     -15.630041      -425.3150
   4   2.0000     -11.328142      -308.2544
   5   2.0000     -11.328109      -308.2535
   6   2.0000     -11.274648      -306.7988
   7   2.0000     -11.274636      -306.7984
   8   2.0000     -11.254655      -306.2547
   9   2.0000     -11.253471      -306.2225
  10   2.0000     -11.250614      -306.1448
  11   2.0000     -11.247583      -306.0623
  12   2.0000     -11.239038      -305.8298
  13   2.0000     -11.239038      -305.8298
  14   2.0000      -1.429232       -38.8914
  15   2.0000      -1.322212       -35.9792
  16   2.0000      -1.186746       -32.2930
  17   2.0000      -1.182397       -32.1747
  18   2.0000      -1.042788       -28.3757
  19   2.0000      -1.036134       -28.1946
  20   2.0000      -1.022755       -27.8306
  21   2.0000      -0.995694       -27.0942
  22   2.0000      -0.961506       -26.1639
  23   2.0000      -0.879399       -23.9297
  24   2.0000      -0.853853       -23.2345
  25   2.0000      -0.801899       -21.8208
  26   2.0000      -0.782036       -21.2803
  27   2.0000      -0.707239       -19.2449
  28   2.0000      -0.682749       -18.5785
  29   2.0000      -0.653476       -17.7820
  30   2.0000      -0.649612       -17.6769
  31   2.0000      -0.641145       -17.4465
  32   2.0000      -0.618717       -16.8361
  33   2.0000      -0.596178       -16.2228
  34   2.0000      -0.578893       -15.7525
  35   2.0000      -0.575473       -15.6594
  36   2.0000      -0.560004       -15.2385
  37   2.0000      -0.557757       -15.1773
  38   2.0000      -0.550152       -14.9704
  39   2.0000      -0.539122       -14.6703
  40   2.0000      -0.532967       -14.5028
  41   2.0000      -0.506274       -13.7764
  42   2.0000      -0.502684       -13.6787
  43   2.0000      -0.483980       -13.1698
  44   2.0000      -0.385578       -10.4921
  45   2.0000      -0.380444       -10.3524
  46   2.0000      -0.373939       -10.1754
  47   2.0000      -0.359186        -9.7740
  48   2.0000      -0.359062        -9.7706
  49   0.0000       0.021525         0.5857
  50   0.0000       0.023579         0.6416
  51   0.0000       0.028696         0.7809
  52   0.0000       0.033931         0.9233
  53   0.0000       0.040097         1.0911

MULLIKEN ATOMIC CHARGES
-----------------------
   0 C :    0.965786
   1 C :    0.966003
   2 N :   -0.421244
   3 N :   -0.421123
   4 C :   -1.009973
   5 H :    0.266518
   6 H :    0.420670
   7 H :    0.266503
   8 C :   -1.009932
   9 H :    0.420630
  10 H :    0.266506
  11 H :    0.266501
  12 C :   -0.227747
  13 C :   -0.508320
  14 C :   -0.044856
  15 C :   -0.044505
  16 C :   -0.508781
  17 C :   -0.227933
  18 H :    0.253845
  19 H :    0.459946
  20 H :    0.459819
  21 H :    0.253915
  22 N :   -0.421089
  23 N :   -0.421138
Sum of atomic charges:   -0.0000000

LOEWDIN ATOMIC CHARGES
----------------------
   0 C :   -0.725861
   1 C :   -0.725860
   2 N :    0.352523
   3 N :    0.352523
   4 C :    0.859644
   5 H :   -0.302512
   6 H :   -0.280748
   7 H :   -0.302513
   8 C :    0.859644
   9 H :   -0.280749
  10 H :   -0.302513
  11 H :   -0.302512
  12 C :    0.321161
  13 C :    0.313880
  14 C :    0.060711
  15 C :    0.060711
  16 C :    0.313881
  17 C :    0.321162
  18 H :   -0.321787
  19 H :   -0.327022
  20 H :   -0.327023
  21 H :   -0.321787
  22 N :    0.352523
  23 N :    0.352524

  Mayer bond orders larger than 0.100000
B(  0-C ,  1-C ) :   0.2008 B(  0-C ,  2-N ) :   0.7901 B(  0-C ,  8-C ) :   0.5186
B(  0-C ,  9-H ) :  -0.1574 B(  0-C , 14-C ) :   0.2673 B(  0-C , 15-C ) :  -0.1119
B(  0-C , 22-N ) :   0.7905 B(  1-C ,  3-N ) :   0.7899 B(  1-C ,  4-C ) :   0.5184
B(  1-C ,  6-H ) :  -0.1574 B(  1-C , 14-C ) :  -0.1120 B(  1-C , 15-C ) :   0.2673
B(  1-C , 23-N ) :   0.7905 B(  2-N ,  3-N ) :   0.7333 B(  2-N , 14-C ) :   0.1035
B(  2-N , 22-N ) :   0.1011 B(  3-N , 15-C ) :   0.1036 B(  3-N , 23-N ) :   0.1011
B(  4-C ,  5-H ) :   1.0292 B(  4-C ,  6-H ) :   0.8631 B(  4-C ,  7-H ) :   1.0292
B(  8-C ,  9-H ) :   0.8632 B(  8-C , 10-H ) :   1.0292 B(  8-C , 11-H ) :   1.0292
B( 12-C , 13-C ) :   1.3511 B( 12-C , 14-C ) :  -0.4013 B( 12-C , 17-C ) :   1.1844
B( 12-C , 18-H ) :   1.1186 B( 13-C , 14-C ) :   0.8852 B( 13-C , 15-C ) :  -0.1461
B( 13-C , 16-C ) :   0.1210 B( 13-C , 18-H ) :  -0.1433 B( 13-C , 19-H ) :   0.7978
B( 14-C , 15-C ) :   1.9256 B( 14-C , 16-C ) :  -0.1462 B( 14-C , 22-N ) :   0.1034
B( 15-C , 16-C ) :   0.8852 B( 15-C , 17-C ) :  -0.4014 B( 15-C , 23-N ) :   0.1034
B( 16-C , 17-C ) :   1.3517 B( 16-C , 20-H ) :   0.7979 B( 16-C , 21-H ) :  -0.1432
B( 17-C , 21-H ) :   1.1184 B( 22-N , 23-N ) :   0.7332

MP2 TOTAL ENERGY:     -604.888572801 Eh
FINAL SINGLE POINT ENERGY      -604.888572800955

DIPOLE MOMENT
-------------
                                X             Y             Z
Electronic contribution:      3.58232      -0.00000       0.00000
Nuclear contribution   :     -4.60221       0.00000      -0.00000
                        -----------------------------------------
Total Dipole Moment    :     -1.01989      -0.00000       0.00000
                        -----------------------------------------
Magnitude (a.u.)       :      1.01989
Magnitude (Debye)      :      2.59236

Rotational constants in cm-1:     0.035735     0.021521     0.015408
Rotational constants in MHz :  1071.310859   645.181173   461.926706

                             ****ORCA TERMINATED NORMALLY****
TOTAL RUN TIME: 0 days 1 hours 58 minutes 42 seconds 746 msec
