                         Program Version 4.2.1 -  RELEASE  -
|  1> %pal
|  2>  nprocs 32
|  3> end
|  4> !RI-MP2 aug-cc-pVQZ aug-cc-pVQZ/C TightSCF
|  5> %maxcore 4500
|  6> *xyzfile 0 1  10_44TS.xyz
|  7>
|  8>
|  9>                          ****END OF INPUT****

CARTESIAN COORDINATES (ANGSTROEM)
---------------------------------
  C     -0.072733   -2.364039   -0.954229
  H     -0.144263   -3.451906   -0.965247
  H      0.226554   -2.050967   -1.963374
  C      1.009081   -1.910167    0.031016
  C     -0.347302    0.120673    0.461314
  H     -0.762434   -0.080606    1.454435
  H     -0.280802    1.202029    0.388628
  C     -1.349433   -0.371905   -0.603647
  H     -1.003818   -0.008859   -1.577953
  N     -1.392107   -1.826935   -0.695906
  C      2.185726    0.237434    0.245491
  C      2.043650   -2.787263    0.334780
  H      2.319651   -2.908822    1.365892
  H      2.103448   -3.715502   -0.232686
  C      3.427974   -0.342797   -0.044551
  H      4.059376    0.175341   -0.764657
  C      3.870553   -1.588655    0.384798
  C      1.010934   -0.541567    0.358621
  C      5.068774   -2.245401   -0.247191
  H      5.039548   -3.328531   -0.114759
  H      5.116129   -2.040069   -1.317885
  H      5.997790   -1.890054    0.210903
  H      3.775084   -1.769885    1.442754
  C     -2.721687    0.203873   -0.340338
  C     -2.069863   -2.436053    0.438444
  H     -1.630116   -2.137119    1.403391
  H     -1.955427   -3.518978    0.362402
  C     -3.542438   -2.064317    0.394164
  H     -4.017131   -2.609842   -0.427367
  C     -3.747990   -0.586593    0.174610
  H     -4.038457   -2.376371    1.317203
  C     -4.981287    0.000689    0.451942
  H     -5.778167   -0.615467    0.855411
  C     -2.953992    1.557236   -0.576369
  H     -2.159030    2.169022   -0.989089
  C     -5.204237    1.347130    0.220023
  H     -6.170175    1.784308    0.442659
  C     -4.183286    2.131605   -0.302392
  H     -4.346459    3.184751   -0.496762
  Si     2.137563    2.129861    0.083823
  C      3.891286    2.766226   -0.152913
  H      4.325008    2.451097   -1.104626
  H      3.884618    3.859726   -0.145819
  H      4.556313    2.431321    0.645855
  C      1.151369    2.707114   -1.414465
  H      0.089380    2.467697   -1.358780
  H      1.544870    2.245962   -2.323982
  H      1.240167    3.791086   -1.529072
  C      1.476569    2.910729    1.662438
  H      2.075500    2.592309    2.519422
  H      1.544205    4.000357    1.598375
  H      0.437490    2.654738    1.873283

 Total Charge           Charge          ....    0
 Multiplicity           Mult            ....    1
 Number of Electrons    NEL             ....  176
 Basis Dimension        Dim             .... 3178

ORBITAL ENERGIES
----------------

  NO   OCC          E(Eh)            E(eV)
   0   2.0000     -68.745856     -1870.6699
   1   2.0000     -15.541100      -422.8948
   2   2.0000     -11.256374      -306.3015
   3   2.0000     -11.247912      -306.0712
   4   2.0000     -11.244639      -305.9822
   5   2.0000     -11.243606      -305.9541
   6   2.0000     -11.233290      -305.6734
   7   2.0000     -11.231637      -305.6284
   8   2.0000     -11.229383      -305.5671
   9   2.0000     -11.229289      -305.5645
  10   2.0000     -11.226255      -305.4819
  11   2.0000     -11.225580      -305.4636
  12   2.0000     -11.224496      -305.4341
  13   2.0000     -11.223535      -305.4079
  14   2.0000     -11.223104      -305.3962
  15   2.0000     -11.221181      -305.3438
  16   2.0000     -11.220499      -305.3253
  17   2.0000     -11.218081      -305.2595
  18   2.0000     -11.216873      -305.2266
  19   2.0000     -11.211752      -305.0873
  20   2.0000     -11.192739      -304.5699
  21   2.0000     -11.190535      -304.5099
  22   2.0000     -11.189722      -304.4878
  23   2.0000      -6.094316      -165.8348
  24   2.0000      -4.200938      -114.3133
  25   2.0000      -4.200686      -114.3065
  26   2.0000      -4.200641      -114.3053
  27   2.0000      -1.249204       -33.9926
  28   2.0000      -1.153873       -31.3985
  29   2.0000      -1.123373       -30.5685
  30   2.0000      -1.069394       -29.0997
  31   2.0000      -1.057147       -28.7664
  32   2.0000      -1.046702       -28.4822
  33   2.0000      -1.011228       -27.5169
  34   2.0000      -0.992758       -27.0143
  35   2.0000      -0.971465       -26.4349
  36   2.0000      -0.958551       -26.0835
  37   2.0000      -0.926876       -25.2216
  38   2.0000      -0.920415       -25.0458
  39   2.0000      -0.916891       -24.9499
  40   2.0000      -0.883502       -24.0413
  41   2.0000      -0.859805       -23.3965
  42   2.0000      -0.832337       -22.6490
  43   2.0000      -0.820294       -22.3213
  44   2.0000      -0.810285       -22.0490
  45   2.0000      -0.774165       -21.0661
  46   2.0000      -0.732439       -19.9307
  47   2.0000      -0.693010       -18.8578
  48   2.0000      -0.672878       -18.3099
  49   2.0000      -0.658456       -17.9175
  50   2.0000      -0.656860       -17.8741
  51   2.0000      -0.646319       -17.5872
  52   2.0000      -0.630090       -17.1456
  53   2.0000      -0.623258       -16.9597
  54   2.0000      -0.611176       -16.6309
  55   2.0000      -0.594678       -16.1820
  56   2.0000      -0.591981       -16.1086
  57   2.0000      -0.588005       -16.0004
  58   2.0000      -0.580055       -15.7841
  59   2.0000      -0.574220       -15.6253
  60   2.0000      -0.566600       -15.4180
  61   2.0000      -0.563475       -15.3329
  62   2.0000      -0.559361       -15.2210
  63   2.0000      -0.556796       -15.1512
  64   2.0000      -0.550212       -14.9720
  65   2.0000      -0.543559       -14.7910
  66   2.0000      -0.538830       -14.6623
  67   2.0000      -0.537575       -14.6282
  68   2.0000      -0.531262       -14.4564
  69   2.0000      -0.530095       -14.4246
  70   2.0000      -0.526163       -14.3176
  71   2.0000      -0.520887       -14.1741
  72   2.0000      -0.511316       -13.9136
  73   2.0000      -0.497373       -13.5342
  74   2.0000      -0.492860       -13.4114
  75   2.0000      -0.486360       -13.2345
  76   2.0000      -0.474404       -12.9092
  77   2.0000      -0.460928       -12.5425
  78   2.0000      -0.456654       -12.4262
  79   2.0000      -0.440666       -11.9911
  80   2.0000      -0.424303       -11.5459
  81   2.0000      -0.422435       -11.4950
  82   2.0000      -0.412059       -11.2127
  83   2.0000      -0.360550        -9.8111
  84   2.0000      -0.327864        -8.9216
  85   2.0000      -0.319421        -8.6919
  86   2.0000      -0.299590        -8.1523
  87   2.0000      -0.274334        -7.4650
  88   0.0000       0.019500         0.5306
  89   0.0000       0.024197         0.6584
  90   0.0000       0.024548         0.6680
  91   0.0000       0.028106         0.7648
  92   0.0000       0.031354         0.8532

MULLIKEN ATOMIC CHARGES
-----------------------
   0 C :   -0.369795
   1 H :    0.228026
   2 H :    0.371281
   3 C :   -0.015497
   4 C :   -0.438472
   5 H :    0.264645
   6 H :    0.200641
   7 C :    1.770799
   8 H :    0.369265
   9 N :   -0.749087
  10 C :   -1.578232
  11 C :   -0.872782
  12 H :    0.273540
  13 H :    0.178972
  14 C :   -0.293535
  15 H :    0.246907
  16 C :   -0.071313
  17 C :    0.896475
  18 C :   -0.978472
  19 H :    0.269771
  20 H :    0.229905
  21 H :    0.251417
  22 H :    0.195261
  23 C :    0.692551
  24 C :   -0.773911
  25 H :    0.286196
  26 H :    0.145683
  27 C :   -0.705845
  28 H :    0.166831
  29 C :    0.489704
  30 H :    0.240963
  31 C :   -0.772026
  32 H :    0.248146
  33 C :   -0.920384
  34 H :    0.283303
  35 C :   -0.458850
  36 H :    0.236802
  37 C :   -0.665085
  38 H :    0.174500
  39 Si:    2.017264
  40 C :   -0.727513
  41 H :    0.257274
  42 H :    0.266306
  43 H :    0.287049
  44 C :   -1.335873
  45 H :    0.311153
  46 H :    0.225145
  47 H :    0.233306
  48 C :   -1.402002
  49 H :    0.249240
  50 H :    0.272274
  51 H :    0.298081
Sum of atomic charges:   -0.0000000

LOEWDIN ATOMIC CHARGES
----------------------
   0 C :    0.364194
   1 H :   -0.306296
   2 H :   -0.258720
   3 C :   -0.021167
   4 C :    0.501002
   5 H :   -0.253294
   6 H :   -0.402844
   7 C :   -0.029593
   8 H :   -0.282442
   9 N :    0.553640
  10 C :    0.070994
  11 C :    0.737594
  12 H :   -0.359796
  13 H :   -0.283474
  14 C :    0.286489
  15 H :   -0.358998
  16 C :    0.303804
  17 C :   -0.040690
  18 C :    0.927605
  19 H :   -0.291503
  20 H :   -0.293296
  21 H :   -0.277986
  22 H :   -0.349439
  23 C :   -0.033675
  24 C :    0.365904
  25 H :   -0.259788
  26 H :   -0.273245
  27 C :    0.533171
  28 H :   -0.258285
  29 C :   -0.031529
  30 H :   -0.270814
  31 C :    0.358147
  32 H :   -0.312040
  33 C :    0.364400
  34 H :   -0.322613
  35 C :    0.349067
  36 H :   -0.321088
  37 C :    0.358911
  38 H :   -0.319193
  39 Si:    0.141047
  40 C :    0.982799
  41 H :   -0.335914
  42 H :   -0.331210
  43 H :   -0.327702
  44 C :    1.017822
  45 H :   -0.370986
  46 H :   -0.321951
  47 H :   -0.324801
  48 C :    1.010983
  49 H :   -0.326728
  50 H :   -0.330341
  51 H :   -0.346133

  Mayer bond orders larger than 0.100000
B(  0-C ,  1-H ) :   1.1105 B(  0-C ,  2-H ) :   0.8465 B(  0-C ,  3-C ) :   0.5377
B(  0-C ,  9-N ) :   1.2915 B(  1-H ,  3-C ) :  -0.1109 B(  3-C ,  4-C ) :  -0.2992
B(  3-C ,  7-C ) :   0.2088 B(  3-C , 10-C ) :  -0.5276 B(  3-C , 11-C ) :   1.4161
B(  3-C , 12-H ) :  -0.1875 B(  3-C , 13-H ) :  -0.2096 B(  3-C , 17-C ) :   1.1622
B(  4-C ,  5-H ) :   0.8234 B(  4-C ,  6-H ) :   0.9361 B(  4-C ,  7-C ) :   0.9138
B(  4-C , 10-C ) :  -0.1557 B(  4-C , 17-C ) :   0.1886 B(  4-C , 23-C ) :   0.3642
B(  4-C , 29-C ) :  -0.1154 B(  4-C , 33-C ) :   0.3321 B(  4-C , 37-C ) :   0.1040
B(  4-C , 39-Si) :   0.1015 B(  5-H ,  8-H ) :   0.1058 B(  6-H , 10-C ) :   0.1975
B(  6-H , 17-C ) :  -0.1190 B(  6-H , 23-C ) :  -0.1933 B(  6-H , 33-C ) :  -0.3158
B(  7-C ,  8-H ) :   0.8820 B(  7-C ,  9-N ) :  -0.2226 B(  7-C , 24-C ) :  -0.1528
B(  7-C , 29-C ) :  -0.1010 B(  7-C , 33-C ) :  -0.7562 B(  8-H ,  9-N ) :  -0.1226
B(  9-N , 23-C ) :   0.1314 B(  9-N , 24-C ) :   0.6998 B(  9-N , 25-H ) :  -0.1053
B(  9-N , 29-C ) :  -0.1545 B( 10-C , 11-C ) :   0.4513 B( 10-C , 14-C ) :   1.2715
B( 10-C , 16-C ) :  -0.4256 B( 10-C , 17-C ) :   1.0295 B( 10-C , 39-Si) :   0.3397
B( 10-C , 44-C ) :   0.2018 B( 10-C , 48-C ) :   0.2557 B( 11-C , 12-H ) :   1.0684
B( 11-C , 13-H ) :   1.1593 B( 11-C , 14-C ) :  -0.2266 B( 11-C , 16-C ) :   0.4029
B( 11-C , 17-C ) :  -0.5429 B( 14-C , 15-H ) :   0.9427 B( 14-C , 16-C ) :   0.9303
B( 14-C , 17-C ) :  -0.2414 B( 14-C , 18-C ) :  -0.1296 B( 14-C , 39-Si) :  -0.1335
B( 14-C , 40-C ) :  -0.1743 B( 16-C , 17-C ) :   0.1199 B( 16-C , 18-C ) :   0.6273
B( 16-C , 19-H ) :  -0.1075 B( 16-C , 21-H ) :  -0.1233 B( 16-C , 22-H ) :   0.9364
B( 17-C , 39-Si) :  -0.1098 B( 17-C , 48-C ) :  -0.1029 B( 18-C , 19-H ) :   1.0415
B( 18-C , 20-H ) :   1.0104 B( 18-C , 21-H ) :   1.0564 B( 23-C , 24-C ) :   0.1110
B( 23-C , 27-C ) :  -0.1475 B( 23-C , 29-C ) :   0.8607 B( 23-C , 31-C ) :  -0.4527
B( 23-C , 33-C ) :   0.7721 B( 23-C , 37-C ) :  -0.5308 B( 24-C , 25-H ) :   1.0080
B( 24-C , 26-H ) :   1.0881 B( 24-C , 27-C ) :   1.1228 B( 24-C , 29-C ) :  -0.1110
B( 27-C , 28-H ) :   1.1347 B( 27-C , 29-C ) :   0.3622 B( 27-C , 30-H ) :   1.0952
B( 28-H , 29-C ) :  -0.1373 B( 29-C , 30-H ) :  -0.1727 B( 29-C , 31-C ) :   0.9008
B( 29-C , 33-C ) :  -0.1363 B( 29-C , 35-C ) :  -0.3697 B( 31-C , 32-H ) :   1.0499
B( 31-C , 35-C ) :   1.3298 B( 31-C , 36-H ) :  -0.2077 B( 31-C , 37-C ) :   0.2799
B( 33-C , 34-H ) :   1.0644 B( 33-C , 37-C ) :   1.1942 B( 33-C , 38-H ) :  -0.1636
B( 34-H , 37-C ) :  -0.1582 B( 35-C , 36-H ) :   1.1950 B( 35-C , 37-C ) :   1.3460
B( 36-H , 37-C ) :  -0.1440 B( 37-C , 38-H ) :   1.2197 B( 39-Si, 40-C ) :   1.3378
B( 39-Si, 41-H ) :  -0.1207 B( 39-Si, 42-H ) :  -0.1885 B( 39-Si, 43-H ) :  -0.1214
B( 39-Si, 45-H ) :   0.1611 B( 39-Si, 48-C ) :   0.2704 B( 39-Si, 49-H ) :  -0.1173
B( 40-C , 41-H ) :   1.0124 B( 40-C , 42-H ) :   1.0405 B( 40-C , 43-H ) :   0.9836
B( 44-C , 45-H ) :   1.0687 B( 44-C , 46-H ) :   0.9944 B( 44-C , 47-H ) :   1.0757
B( 48-C , 49-H ) :   1.0627 B( 48-C , 50-H ) :   1.0374 B( 48-C , 51-H ) :   0.9368

MP2 TOTAL ENERGY:    -1159.857816392 Eh
FINAL SINGLE POINT ENERGY     -1159.857816391587

DIPOLE MOMENT
-------------
                                X             Y             Z
Electronic contribution:    -15.84747      -2.79809      -0.34835
Nuclear contribution   :     16.25440       2.41784       0.57146
                        -----------------------------------------
Total Dipole Moment    :      0.40692      -0.38025       0.22311
                        -----------------------------------------
Magnitude (a.u.)       :      0.59996
Magnitude (Debye)      :      1.52498

Rotational constants in cm-1:     0.012647     0.005541     0.004134
Rotational constants in MHz :   379.154136   166.109043   123.925538

                             ****ORCA TERMINATED NORMALLY****
TOTAL RUN TIME: 0 days 18 hours 17 minutes 24 seconds 871 msec
