                         Program Version 4.2.1 -  RELEASE  -
|  1> %pal
|  2>  nprocs 32
|  3> end
|  4> !RI-MP2 aug-cc-pVQZ aug-cc-pVQZ/C TightSCF
|  5> %maxcore 4500
|  6> *xyzfile 0 1  04_35R1.xyz
|  7>
|  8>
|  9>                          ****END OF INPUT****

CARTESIAN COORDINATES (ANGSTROEM)
---------------------------------
  C      2.289333   -0.251086    0.115024
  C      1.409196   -1.314215   -0.050151
  C      0.051016   -1.078743   -0.196125
  C     -0.446735    0.222675   -0.174030
  C      0.439309    1.279892   -0.001085
  C      1.801893    1.046995    0.138610
  H      3.350695   -0.436124    0.228269
  H      1.784911   -2.330360   -0.068267
  H     -0.638208   -1.905342   -0.322231
  H      0.060761    2.296151    0.027174
  H      2.480860    1.880481    0.273250
  C     -1.922875    0.475394   -0.353968
  O     -2.739135   -0.410011    0.396787
  H     -2.211134    0.313419   -1.394724
  H     -2.149984    1.519779   -0.110872
  H     -2.491636   -0.343376    1.323458

 Total Charge           Charge          ....    0
 Multiplicity           Mult            ....    1
 Number of Electrons    NEL             ....   58
 Basis Dimension        Dim             .... 1008

ORBITAL ENERGIES
----------------

  NO   OCC          E(Eh)            E(eV)
   0   2.0000     -20.558631      -559.4288
   1   2.0000     -11.282388      -307.0094
   2   2.0000     -11.239600      -305.8451
   3   2.0000     -11.236687      -305.7658
   4   2.0000     -11.235835      -305.7426
   5   2.0000     -11.235150      -305.7240
   6   2.0000     -11.233961      -305.6916
   7   2.0000     -11.231804      -305.6329
   8   2.0000      -1.364404       -37.1273
   9   2.0000      -1.159605       -31.5544
  10   2.0000      -1.041838       -28.3499
  11   2.0000      -1.019017       -27.7289
  12   2.0000      -0.923203       -25.1216
  13   2.0000      -0.832172       -22.6446
  14   2.0000      -0.807109       -21.9625
  15   2.0000      -0.714040       -19.4300
  16   2.0000      -0.684177       -18.6174
  17   2.0000      -0.648174       -17.6377
  18   2.0000      -0.622183       -16.9305
  19   2.0000      -0.610781       -16.6202
  20   2.0000      -0.596683       -16.2366
  21   2.0000      -0.587471       -15.9859
  22   2.0000      -0.534246       -14.5376
  23   2.0000      -0.508104       -13.8262
  24   2.0000      -0.498007       -13.5515
  25   2.0000      -0.482500       -13.1295
  26   2.0000      -0.453772       -12.3478
  27   2.0000      -0.341614        -9.2958
  28   2.0000      -0.334938        -9.1141
  29   0.0000       0.024432         0.6648
  30   0.0000       0.028580         0.7777
  31   0.0000       0.030994         0.8434
  32   0.0000       0.039101         1.0640
  33   0.0000       0.041906         1.1403

MULLIKEN ATOMIC CHARGES
-----------------------
   0 C :   -0.342884
   1 C :   -0.308714
   2 C :   -0.354453
   3 C :    0.227673
   4 C :   -0.423173
   5 C :   -0.344967
   6 H :    0.309476
   7 H :    0.249227
   8 H :    0.346426
   9 H :    0.268733
  10 H :    0.245681
  11 C :    0.150077
  12 O :   -0.888769
  13 H :    0.327980
  14 H :    0.177777
  15 H :    0.359909
Sum of atomic charges:    0.0000000

LOEWDIN ATOMIC CHARGES
----------------------
   0 C :    0.333017
   1 C :    0.342601
   2 C :    0.333292
   3 C :   -0.095374
   4 C :    0.336470
   5 C :    0.339935
   6 H :   -0.322959
   7 H :   -0.320649
   8 H :   -0.319006
   9 H :   -0.319973
  10 H :   -0.321084
  11 C :    0.161112
  12 O :    1.270379
  13 H :   -0.311338
  14 H :   -0.319698
  15 H :   -0.786727

  Mayer bond orders larger than 0.100000
B(  0-C ,  1-C ) :   1.1436 B(  0-C ,  5-C ) :   1.1767 B(  0-C ,  6-H ) :   1.0273
B(  0-C , 10-H ) :  -0.1051 B(  1-C ,  2-C ) :   1.3350 B(  1-C ,  3-C ) :  -0.2413
B(  1-C ,  4-C ) :   0.1639 B(  1-C ,  7-H ) :   1.0984 B(  2-C ,  3-C ) :   1.0497
B(  2-C ,  5-C ) :   0.1456 B(  2-C ,  7-H ) :  -0.1095 B(  2-C ,  8-H ) :   0.9182
B(  3-C ,  4-C ) :   0.9479 B(  3-C ,  5-C ) :  -0.3502 B(  3-C , 11-C ) :   0.8822
B(  3-C , 14-H ) :  -0.1253 B(  4-C ,  5-C ) :   1.3638 B(  4-C ,  9-H ) :   0.9972
B(  4-C , 10-H ) :  -0.1152 B(  4-C , 11-C ) :  -0.1086 B(  5-C , 10-H ) :   1.1213
B( 11-C , 12-O ) :   0.6058 B( 11-C , 13-H ) :   0.8255 B( 11-C , 14-H ) :   1.0929
B( 12-O , 15-H ) :   0.8620

MP2 TOTAL ENERGY:     -346.193188136 Eh
FINAL SINGLE POINT ENERGY      -346.193188136098

DIPOLE MOMENT
-------------
                                X             Y             Z
Electronic contribution:      0.33663      -0.64957       0.25413
Nuclear contribution   :      0.14413       0.99537      -0.03796
                        -----------------------------------------
Total Dipole Moment    :      0.48075       0.34579       0.21617
                        -----------------------------------------
Magnitude (a.u.)       :      0.63042
Magnitude (Debye)      :      1.60239

Rotational constants in cm-1:     0.161672     0.049398     0.039474
Rotational constants in MHz :  4846.798173  1480.913379  1183.403991

                             ****ORCA TERMINATED NORMALLY****
TOTAL RUN TIME: 0 days 0 hours 26 minutes 52 seconds 183 msec
