                         Program Version 4.2.1 -  RELEASE  -
|  1> %pal
|  2>  nprocs 32
|  3> end
|  4> !RI-MP2 aug-cc-pVQZ aug-cc-pVQZ/C TightSCF
|  5> %maxcore 4500
|  6> *xyzfile 0 1  10_89P.xyz
|  7>
|  8>
|  9>                          ****END OF INPUT****

CARTESIAN COORDINATES (ANGSTROEM)
---------------------------------
  O      1.956427    0.594696   -1.197937
  C      1.995461   -0.147897   -0.247219
  C      0.846861   -0.483122    0.646748
  C     -0.480392    0.196441    0.270078
  C     -0.973892   -0.274859   -1.073985
  C     -2.101996   -0.946984   -1.246244
  C     -1.478722   -0.093026    1.370908
  C     -2.612083   -0.751096    1.183485
  C     -3.069581   -1.263333   -0.148008
  H     -1.204377    0.264600    2.358458
  H     -3.282353   -0.931279    2.017029
  H     -3.217439   -2.345794   -0.087391
  O     -4.369924   -0.761217   -0.461676
  H     -4.302784    0.194088   -0.563136
  C      3.347486   -0.814011    0.088765
  O      4.323244   -0.425444   -0.721441
  O      3.478023   -1.597624    0.980716
  C     -0.261531    1.711617    0.304358
  O      0.526851    2.258805    1.026408
  O     -1.092920    2.377679   -0.505412
  H      3.943885    0.210080   -1.353938
  H     -0.912742    3.321854   -0.390769
  H      1.146631   -0.208682    1.661958
  H      0.724533   -1.569226    0.660302
  H     -2.396685   -1.269921   -2.238987
  H     -0.341936   -0.043258   -1.922102

 Total Charge           Charge          ....    0
 Multiplicity           Mult            ....    1
 Number of Electrons    NEL             ....  118
 Basis Dimension        Dim             .... 1740

ORBITAL ENERGIES
----------------

  NO   OCC          E(Eh)            E(eV)
   0   2.0000     -20.627396      -561.3000
   1   2.0000     -20.627087      -561.2916
   2   2.0000     -20.608094      -560.7747
   3   2.0000     -20.575095      -559.8768
   4   2.0000     -20.569494      -559.7244
   5   2.0000     -20.561956      -559.5193
   6   2.0000     -11.407645      -310.4178
   7   2.0000     -11.402593      -310.2803
   8   2.0000     -11.382724      -309.7397
   9   2.0000     -11.304713      -307.6169
  10   2.0000     -11.292731      -307.2908
  11   2.0000     -11.272240      -306.7332
  12   2.0000     -11.259759      -306.3936
  13   2.0000     -11.252700      -306.2015
  14   2.0000     -11.252344      -306.1918
  15   2.0000     -11.246753      -306.0397
  16   2.0000      -1.496496       -40.7217
  17   2.0000      -1.487665       -40.4814
  18   2.0000      -1.446378       -39.3579
  19   2.0000      -1.395775       -37.9810
  20   2.0000      -1.382246       -37.6128
  21   2.0000      -1.376724       -37.4626
  22   2.0000      -1.177328       -32.0367
  23   2.0000      -1.087463       -29.5914
  24   2.0000      -1.048645       -28.5351
  25   2.0000      -1.013545       -27.5800
  26   2.0000      -0.922557       -25.1041
  27   2.0000      -0.907960       -24.7068
  28   2.0000      -0.844196       -22.9717
  29   2.0000      -0.836619       -22.7656
  30   2.0000      -0.817408       -22.2428
  31   2.0000      -0.756528       -20.5862
  32   2.0000      -0.739770       -20.1302
  33   2.0000      -0.736855       -20.0508
  34   2.0000      -0.723038       -19.6749
  35   2.0000      -0.704788       -19.1783
  36   2.0000      -0.681403       -18.5419
  37   2.0000      -0.673167       -18.3178
  38   2.0000      -0.667398       -18.1608
  39   2.0000      -0.644318       -17.5328
  40   2.0000      -0.640790       -17.4368
  41   2.0000      -0.634340       -17.2613
  42   2.0000      -0.630828       -17.1657
  43   2.0000      -0.615856       -16.7583
  44   2.0000      -0.613371       -16.6907
  45   2.0000      -0.603793       -16.4300
  46   2.0000      -0.577222       -15.7070
  47   2.0000      -0.555768       -15.1232
  48   2.0000      -0.547098       -14.8873
  49   2.0000      -0.542050       -14.7499
  50   2.0000      -0.518949       -14.1213
  51   2.0000      -0.511120       -13.9083
  52   2.0000      -0.502865       -13.6836
  53   2.0000      -0.498495       -13.5647
  54   2.0000      -0.477077       -12.9819
  55   2.0000      -0.459092       -12.4925
  56   2.0000      -0.444512       -12.0958
  57   2.0000      -0.391024       -10.6403
  58   2.0000      -0.384480       -10.4622
  59   0.0000       0.019558         0.5322
  60   0.0000       0.025733         0.7002
  61   0.0000       0.026091         0.7100
  62   0.0000       0.031896         0.8679
  63   0.0000       0.038428         1.0457

MULLIKEN ATOMIC CHARGES
-----------------------
   0 O :   -0.857492
   1 C :    0.025280
   2 C :   -0.043307
   3 C :    0.973704
   4 C :   -0.532836
   5 C :   -0.624504
   6 C :   -0.658616
   7 C :   -0.628956
   8 C :    0.742822
   9 H :    0.261562
  10 H :    0.266485
  11 H :    0.441613
  12 O :   -1.038580
  13 H :    0.348380
  14 C :    1.399571
  15 O :   -0.868855
  16 O :   -0.750033
  17 C :    1.587527
  18 O :   -0.995759
  19 O :   -0.889453
  20 H :    0.419223
  21 H :    0.334941
  22 H :    0.291846
  23 H :    0.257625
  24 H :    0.218854
  25 H :    0.318960
Sum of atomic charges:   -0.0000000

LOEWDIN ATOMIC CHARGES
----------------------
   0 O :    0.837585
   1 C :   -0.625319
   2 C :    0.419583
   3 C :   -0.404824
   4 C :    0.341120
   5 C :    0.397442
   6 C :    0.364512
   7 C :    0.401349
   8 C :   -0.250788
   9 H :   -0.298273
  10 H :   -0.301921
  11 H :   -0.320339
  12 O :    1.281441
  13 H :   -0.786189
  14 C :   -1.034714
  15 O :    1.243062
  16 O :    0.687231
  17 C :   -1.078884
  18 O :    0.762242
  19 O :    1.290207
  20 H :   -0.936865
  21 H :   -0.786868
  22 H :   -0.295248
  23 H :   -0.267122
  24 H :   -0.303083
  25 H :   -0.335336

  Mayer bond orders larger than 0.100000
B(  0-O ,  1-C ) :   1.0949 B(  0-O ,  2-C ) :   0.1992 B(  1-C ,  2-C ) :   0.5518
B(  1-C ,  3-C ) :  -0.1844 B(  1-C , 14-C ) :   1.5760 B(  1-C , 15-O ) :   0.2689
B(  1-C , 16-O ) :   0.3100 B(  2-C ,  3-C ) :   0.7177 B(  2-C , 14-C ) :  -0.3929
B(  2-C , 22-H ) :   0.8979 B(  2-C , 23-H ) :   0.9393 B(  3-C ,  4-C ) :   0.2401
B(  3-C ,  5-C ) :  -0.3717 B(  3-C ,  6-C ) :   0.5510 B(  3-C ,  7-C ) :  -0.1921
B(  3-C , 17-C ) :   1.2650 B(  3-C , 18-O ) :   0.1751 B(  3-C , 19-O ) :  -0.1790
B(  4-C ,  5-C ) :   1.7512 B(  4-C , 24-H ) :  -0.1591 B(  4-C , 25-H ) :   0.9275
B(  5-C ,  8-C ) :   0.9030 B(  5-C , 12-O ) :   0.1968 B(  5-C , 24-H ) :   1.1198
B(  6-C ,  7-C ) :   1.7588 B(  6-C ,  9-H ) :   0.9995 B(  6-C , 10-H ) :  -0.1254
B(  7-C ,  8-C ) :   0.7912 B(  7-C , 10-H ) :   1.0460 B(  7-C , 12-O ) :   0.2373
B(  8-C , 11-H ) :   0.8052 B( 12-O , 13-H ) :   0.8413 B( 14-C , 15-O ) :   0.5035
B( 14-C , 16-O ) :   1.2780 B( 15-O , 16-O ) :   0.1792 B( 15-O , 20-H ) :   0.7733
B( 17-C , 18-O ) :   0.9520 B( 17-C , 19-O ) :   0.6157 B( 18-O , 19-O ) :   0.1988
B( 19-O , 21-H ) :   0.9503

MP2 TOTAL ENERGY:     -837.259255037 Eh
FINAL SINGLE POINT ENERGY      -837.259255036506

DIPOLE MOMENT
-------------
                                X             Y             Z
Electronic contribution:      8.67180       2.78729      -0.61301
Nuclear contribution   :     -9.56985      -2.29169       0.12498
                        -----------------------------------------
Total Dipole Moment    :     -0.89805       0.49559      -0.48803
                        -----------------------------------------
Magnitude (a.u.)       :      1.13590
Magnitude (Debye)      :      2.88724

Rotational constants in cm-1:     0.032928     0.010511     0.009548
Rotational constants in MHz :   987.142117   315.120772   286.234235

                             ****ORCA TERMINATED NORMALLY****
TOTAL RUN TIME: 0 days 2 hours 35 minutes 36 seconds 799 msec
