                         Program Version 4.2.1 -  RELEASE  -
|  1> %pal
|  2>  nprocs 32
|  3> end
|  4> !RI-MP2 aug-cc-pVQZ aug-cc-pVQZ/C TightSCF
|  5> %maxcore 4500
|  6> *xyzfile -1 1  07_2TS.xyz
|  7>
|  8>
|  9>                          ****END OF INPUT****

CARTESIAN COORDINATES (ANGSTROEM)
---------------------------------
  O      2.320508    0.733853   -0.000022
  H      1.444652    1.565034    0.000001
  O      2.264558   -1.504860   -0.000051
  O      0.356313    2.062090    0.000023
  C      1.708776   -0.412726   -0.000029
  C      0.207256   -0.302110   -0.000007
  C     -0.390631    0.984991    0.000019
  C     -1.797874    1.060467    0.000039
  H     -2.253398    2.044270    0.000058
  C     -2.566259   -0.088114    0.000034
  H     -3.649140   -0.001944    0.000050
  C     -1.973405   -1.351995    0.000009
  C     -0.588921   -1.439026   -0.000011
  H     -2.584452   -2.247331    0.000006
  H     -0.082341   -2.397603   -0.000031

 Total Charge           Charge          ....   -1
 Multiplicity           Mult            ....    1
 Number of Electrons    NEL             ....   72
 Basis Dimension        Dim             .... 1030

ORBITAL ENERGIES
----------------

  NO   OCC          E(Eh)            E(eV)
   0   2.0000     -20.371841      -554.3460
   1   2.0000     -20.367989      -554.2412
   2   2.0000     -20.345000      -553.6156
   3   2.0000     -11.192791      -304.5713
   4   2.0000     -11.155630      -303.5601
   5   2.0000     -11.114295      -302.4353
   6   2.0000     -11.103264      -302.1352
   7   2.0000     -11.088536      -301.7344
   8   2.0000     -11.084857      -301.6343
   9   2.0000     -11.076893      -301.4176
  10   2.0000      -1.250940       -34.0398
  11   2.0000      -1.202340       -32.7173
  12   2.0000      -1.139072       -30.9957
  13   2.0000      -1.005527       -27.3618
  14   2.0000      -0.887761       -24.1572
  15   2.0000      -0.855537       -23.2803
  16   2.0000      -0.716563       -19.4987
  17   2.0000      -0.674321       -18.3492
  18   2.0000      -0.623112       -16.9557
  19   2.0000      -0.563722       -15.3397
  20   2.0000      -0.539981       -14.6936
  21   2.0000      -0.513103       -13.9622
  22   2.0000      -0.470918       -12.8143
  23   2.0000      -0.457996       -12.4627
  24   2.0000      -0.449623       -12.2349
  25   2.0000      -0.444310       -12.0903
  26   2.0000      -0.409464       -11.1421
  27   2.0000      -0.394667       -10.7394
  28   2.0000      -0.392369       -10.6769
  29   2.0000      -0.353979        -9.6323
  30   2.0000      -0.331637        -9.0243
  31   2.0000      -0.269144        -7.3238
  32   2.0000      -0.266529        -7.2526
  33   2.0000      -0.255463        -6.9515
  34   2.0000      -0.208472        -5.6728
  35   2.0000      -0.155962        -4.2440
  36   0.0000       0.096750         2.6327
  37   0.0000       0.102446         2.7877
  38   0.0000       0.114950         3.1279
  39   0.0000       0.125721         3.4210
  40   0.0000       0.135960         3.6996

MULLIKEN ATOMIC CHARGES
-----------------------
   0 O :   -0.977284
   1 H :    0.484114
   2 O :   -0.894909
   3 O :   -0.965388
   4 C :    1.487465
   5 C :   -0.659683
   6 C :    1.201038
   7 C :   -0.596144
   8 H :    0.261781
   9 C :   -0.443897
  10 H :    0.202386
  11 C :   -0.472804
  12 C :   -0.124572
  13 H :    0.234689
  14 H :    0.263209
Sum of atomic charges:   -1.0000000

LOEWDIN ATOMIC CHARGES
----------------------
   0 O :    0.989044
   1 H :   -1.428773
   2 O :    0.576387
   3 O :    1.047255
   4 C :   -1.200173
   5 C :   -0.180473
   6 C :   -0.559589
   7 C :    0.296408
   8 H :   -0.352221
   9 C :    0.279532
  10 H :   -0.336715
  11 C :    0.303902
  12 C :    0.270384
  13 H :   -0.352074
  14 H :   -0.352894

  Mayer bond orders larger than 0.100000
B(  0-O ,  1-H ) :   0.3398 B(  0-O ,  2-O ) :   0.1730 B(  0-O ,  4-C ) :   0.9036
B(  0-O ,  6-C ) :   0.1125 B(  1-H ,  3-O ) :   0.4712 B(  2-O ,  4-C ) :   1.1366
B(  2-O ,  5-C ) :   0.4103 B(  3-O ,  5-C ) :   0.3114 B(  3-O ,  7-C ) :   0.3089
B(  4-C ,  5-C ) :   1.3544 B(  4-C ,  6-C ) :  -0.2609 B(  4-C , 12-C ) :  -0.2301
B(  5-C ,  6-C ) :   1.1455 B(  5-C ,  7-C ) :  -0.1849 B(  5-C , 11-C ) :  -0.2330
B(  5-C , 12-C ) :   0.9961 B(  5-C , 14-H ) :  -0.1164 B(  6-C ,  7-C ) :   1.2162
B(  6-C ,  9-C ) :  -0.1511 B(  7-C ,  8-H ) :   0.9945 B(  7-C ,  9-C ) :   1.2983
B(  7-C , 10-H ) :  -0.1376 B(  9-C , 10-H ) :   1.1487 B(  9-C , 11-C ) :   1.2530
B( 11-C , 12-C ) :   1.2033 B( 11-C , 13-H ) :   1.1197 B( 12-C , 13-H ) :  -0.1394
B( 12-C , 14-H ) :   0.9667

MP2 TOTAL ENERGY:     -494.810482593 Eh
FINAL SINGLE POINT ENERGY      -494.810482592689

DIPOLE MOMENT
-------------
                                X             Y             Z
Electronic contribution:      4.44592       0.76244      -0.00005
Nuclear contribution   :     -6.85299      -0.98925       0.00008
                        -----------------------------------------
Total Dipole Moment    :     -2.40707      -0.22681       0.00003
                        -----------------------------------------
Magnitude (a.u.)       :      2.41773
Magnitude (Debye)      :      6.14538

Rotational constants in cm-1:     0.081995     0.041767     0.027672
Rotational constants in MHz :  2458.157431  1252.152853   829.577206

                             ****ORCA TERMINATED NORMALLY****
TOTAL RUN TIME: 0 days 0 hours 35 minutes 50 seconds 520 msec
