                         Program Version 4.2.1 -  RELEASE  -
|  1> %pal
|  2>  nprocs 32
|  3> end
|  4> !RI-MP2 aug-cc-pVQZ aug-cc-pVQZ/C TightSCF
|  5> %maxcore 4500
|  6> *xyzfile 0 1  07_3P.xyz
|  7>
|  8>
|  9>                          ****END OF INPUT****

CARTESIAN COORDINATES (ANGSTROEM)
---------------------------------
  C     -0.323223    1.302025   -0.000458
  C      0.807391    0.482830   -0.003126
  C      0.529156   -0.884221   -0.000140
  N     -0.668802   -1.458721    0.001520
  C     -1.657274   -0.568761   -0.005247
  N     -1.532046    0.775135   -0.000965
  N      2.172353    0.709283   -0.001710
  C      2.696532   -0.474878    0.001600
  N      1.755418   -1.488198    0.003417
  N     -2.931504   -1.045801   -0.043046
  O     -0.212729    2.628443    0.004550
  H      3.754651   -0.689575    0.002799
  H      1.922629   -2.481303    0.002419
  H     -3.679499   -0.402611    0.148221
  H     -3.068887   -2.024759    0.139200
  H     -1.110480    2.986860    0.000685

 Total Charge           Charge          ....    0
 Multiplicity           Mult            ....    1
 Number of Electrons    NEL             ....   78
 Basis Dimension        Dim             .... 1110

ORBITAL ENERGIES
----------------

  NO   OCC          E(Eh)            E(eV)
   0   2.0000     -20.605004      -560.6907
   1   2.0000     -15.623695      -425.1424
   2   2.0000     -15.574438      -423.8020
   3   2.0000     -15.560181      -423.4140
   4   2.0000     -15.550609      -423.1536
   5   2.0000     -15.548989      -423.1095
   6   2.0000     -11.360551      -309.1363
   7   2.0000     -11.356715      -309.0319
   8   2.0000     -11.319710      -308.0250
   9   2.0000     -11.313200      -307.8478
  10   2.0000     -11.243608      -305.9541
  11   2.0000      -1.443080       -39.2682
  12   2.0000      -1.366448       -37.1830
  13   2.0000      -1.316790       -35.8317
  14   2.0000      -1.206000       -32.8169
  15   2.0000      -1.199196       -32.6318
  16   2.0000      -1.167079       -31.7578
  17   2.0000      -1.030355       -28.0374
  18   2.0000      -0.907746       -24.7010
  19   2.0000      -0.871510       -23.7150
  20   2.0000      -0.841843       -22.9077
  21   2.0000      -0.791727       -21.5440
  22   2.0000      -0.777142       -21.1471
  23   2.0000      -0.710258       -19.3271
  24   2.0000      -0.685376       -18.6500
  25   2.0000      -0.655337       -17.8326
  26   2.0000      -0.652591       -17.7579
  27   2.0000      -0.636108       -17.3094
  28   2.0000      -0.612925       -16.6785
  29   2.0000      -0.600541       -16.3415
  30   2.0000      -0.584145       -15.8954
  31   2.0000      -0.563650       -15.3377
  32   2.0000      -0.509998       -13.8777
  33   2.0000      -0.457366       -12.4456
  34   2.0000      -0.445605       -12.1255
  35   2.0000      -0.437940       -11.9170
  36   2.0000      -0.412652       -11.2288
  37   2.0000      -0.387121       -10.5341
  38   2.0000      -0.301670        -8.2089
  39   0.0000       0.019588         0.5330
  40   0.0000       0.024882         0.6771
  41   0.0000       0.033428         0.9096
  42   0.0000       0.040556         1.1036
  43   0.0000       0.048528         1.3205

MULLIKEN ATOMIC CHARGES
-----------------------
   0 C :    1.517601
   1 C :   -0.205934
   2 C :    0.945769
   3 N :   -0.672289
   4 C :    0.683035
   5 N :   -0.775441
   6 N :   -0.711483
   7 C :   -0.208362
   8 N :   -0.626895
   9 N :   -0.801091
  10 O :   -0.795877
  11 H :    0.563538
  12 H :    0.146467
  13 H :    0.284762
  14 H :    0.269157
  15 H :    0.387042
Sum of atomic charges:    0.0000000

LOEWDIN ATOMIC CHARGES
----------------------
   0 C :   -0.702010
   1 C :   -0.443352
   2 C :   -0.606762
   3 N :    0.620000
   4 C :   -0.777650
   5 N :    0.588832
   6 N :    0.595031
   7 C :   -0.041211
   8 N :    0.841899
   9 N :    1.224268
  10 O :    1.283003
  11 H :   -0.317955
  12 H :   -0.439461
  13 H :   -0.507391
  14 H :   -0.505608
  15 H :   -0.811632

  Mayer bond orders larger than 0.100000
B(  0-C ,  1-C ) :   1.3309 B(  0-C ,  2-C ) :  -0.2824 B(  0-C ,  5-N ) :   1.1280
B(  0-C , 10-O ) :   0.2068 B(  1-C ,  2-C ) :   1.4529 B(  1-C ,  4-C ) :   0.1279
B(  1-C ,  5-N ) :   0.1078 B(  1-C ,  6-N ) :   0.4169 B(  1-C , 10-O ) :   0.4398
B(  2-C ,  3-N ) :   0.9775 B(  2-C ,  8-N ) :   0.7484 B(  3-N ,  4-C ) :   1.4004
B(  3-N ,  8-N ) :   0.1062 B(  4-C ,  5-N ) :   1.2363 B(  4-C ,  9-N ) :   1.1080
B(  5-N , 10-O ) :   0.2472 B(  6-N ,  7-C ) :   1.8102 B(  7-C ,  8-N ) :   1.3029
B(  7-C , 11-H ) :   0.6961 B(  8-N , 12-H ) :   1.0965 B(  9-N , 13-H ) :   0.9286
B(  9-N , 14-H ) :   0.9469 B( 10-O , 15-H ) :   0.8620

MP2 TOTAL ENERGY:     -541.776211489 Eh
FINAL SINGLE POINT ENERGY      -541.776211489093

DIPOLE MOMENT
-------------
                                X             Y             Z
Electronic contribution:      1.76342       1.36650      -0.06387
Nuclear contribution   :     -2.12472      -2.50533       0.28416
                        -----------------------------------------
Total Dipole Moment    :     -0.36130      -1.13883       0.22029
                        -----------------------------------------
Magnitude (a.u.)       :      1.21491
Magnitude (Debye)      :      3.08805

Rotational constants in cm-1:     0.064530     0.037910     0.023885
Rotational constants in MHz :  1934.557403  1136.511628   716.055524

                             ****ORCA TERMINATED NORMALLY****
TOTAL RUN TIME: 0 days 0 hours 37 minutes 3 seconds 441 msec
