                         Program Version 4.2.1 -  RELEASE  -
|  1> %pal
|  2>  nprocs 32
|  3> end
|  4> !RI-MP2 aug-cc-pVQZ aug-cc-pVQZ/C TightSCF
|  5> %maxcore 4500
|  6> *xyzfile 0 1  10_20TS.xyz
|  7>
|  8>
|  9>                          ****END OF INPUT****

CARTESIAN COORDINATES (ANGSTROEM)
---------------------------------
  C     -3.804634   -1.954070   -0.868013
  C     -2.734229   -1.102665   -0.644025
  C     -2.919142    0.116835    0.014518
  C     -4.201629    0.435888    0.464105
  C     -5.270224   -0.419934    0.245314
  C     -5.078456   -1.618459   -0.427682
  H     -3.638987   -2.896070   -1.377642
  H     -1.738177   -1.398689   -0.947351
  H     -4.361216    1.371008    0.989550
  H     -6.256845   -0.148687    0.602084
  H     -5.911291   -2.289486   -0.598960
  C     -1.808601    1.052885    0.273116
  H     -2.083367    1.925157    0.850949
  C     -0.797486    1.216347   -0.679060
  H     -0.795528    0.578044   -1.551433
  C      1.155823    2.198066   -1.730185
  C      0.420463    3.028898    0.458405
  C      2.536376    1.854605   -1.176583
  H      1.167322    3.204956   -2.164087
  H      0.861974    1.504089   -2.517132
  C      1.780898    2.692250    1.065622
  H      0.411772    4.068225    0.109953
  H     -0.366398    2.916801    1.198621
  C      2.881944    2.752255    0.009365
  H      3.275330    1.963915   -1.974478
  H      2.547227    0.807950   -0.865552
  H      1.985107    3.389168    1.882143
  H      1.736545    1.690449    1.499865
  H      3.838435    2.452442    0.442350
  H      3.000401    3.786975   -0.334916
  N      0.137873    2.166429   -0.684964
  N      0.413153   -0.751664    0.310403
  N     -0.017109   -0.453736    1.478117
  N     -0.880198    0.249461    1.864980
  C      1.586576   -1.510177    0.236069
  C      2.407834   -1.809647    1.327062
  C      1.968451   -1.945904   -1.034980
  C      3.577775   -2.528553    1.139884
  C      3.142624   -2.659131   -1.211514
  C      3.957468   -2.956059   -0.126300
  H      2.117578   -1.479536    2.316499
  H      4.201864   -2.755848    1.996468
  H      4.874062   -3.515565   -0.264486
  H      3.420972   -2.990346   -2.205190
  H      1.326212   -1.718970   -1.877716

 Total Charge           Charge          ....    0
 Multiplicity           Mult            ....    1
 Number of Electrons    NEL             ....  164
 Basis Dimension        Dim             .... 2852

ORBITAL ENERGIES
----------------

  NO   OCC          E(Eh)            E(eV)
   0   2.0000     -15.682387      -426.7394
   1   2.0000     -15.641709      -425.6325
   2   2.0000     -15.608257      -424.7223
   3   2.0000     -15.566940      -423.5980
   4   2.0000     -11.320931      -308.0582
   5   2.0000     -11.278083      -306.8922
   6   2.0000     -11.275213      -306.8141
   7   2.0000     -11.264581      -306.5248
   8   2.0000     -11.237324      -305.7831
   9   2.0000     -11.232144      -305.6422
  10   2.0000     -11.231031      -305.6119
  11   2.0000     -11.229846      -305.5797
  12   2.0000     -11.228730      -305.5493
  13   2.0000     -11.228209      -305.5351
  14   2.0000     -11.227881      -305.5262
  15   2.0000     -11.224283      -305.4283
  16   2.0000     -11.223608      -305.4099
  17   2.0000     -11.219585      -305.3004
  18   2.0000     -11.218215      -305.2631
  19   2.0000     -11.217597      -305.2463
  20   2.0000     -11.216457      -305.2153
  21   2.0000     -11.216043      -305.2040
  22   2.0000     -11.215838      -305.1985
  23   2.0000      -1.436290       -39.0834
  24   2.0000      -1.301272       -35.4094
  25   2.0000      -1.221702       -33.2442
  26   2.0000      -1.151532       -31.3348
  27   2.0000      -1.132781       -30.8245
  28   2.0000      -1.105838       -30.0914
  29   2.0000      -1.059198       -28.8222
  30   2.0000      -1.044581       -28.4245
  31   2.0000      -1.010528       -27.4979
  32   2.0000      -1.006369       -27.3847
  33   2.0000      -1.001216       -27.2445
  34   2.0000      -0.988533       -26.8993
  35   2.0000      -0.917556       -24.9680
  36   2.0000      -0.878228       -23.8978
  37   2.0000      -0.852946       -23.2098
  38   2.0000      -0.836843       -22.7717
  39   2.0000      -0.819585       -22.3021
  40   2.0000      -0.817978       -22.2583
  41   2.0000      -0.793501       -21.5923
  42   2.0000      -0.764017       -20.7899
  43   2.0000      -0.745418       -20.2839
  44   2.0000      -0.717903       -19.5351
  45   2.0000      -0.703128       -19.1331
  46   2.0000      -0.696568       -18.9546
  47   2.0000      -0.664426       -18.0799
  48   2.0000      -0.660838       -17.9823
  49   2.0000      -0.645216       -17.5572
  50   2.0000      -0.641700       -17.4615
  51   2.0000      -0.633947       -17.2506
  52   2.0000      -0.626825       -17.0568
  53   2.0000      -0.624615       -16.9966
  54   2.0000      -0.615226       -16.7412
  55   2.0000      -0.608838       -16.5673
  56   2.0000      -0.597686       -16.2639
  57   2.0000      -0.592156       -16.1134
  58   2.0000      -0.584012       -15.8918
  59   2.0000      -0.577373       -15.7111
  60   2.0000      -0.575344       -15.6559
  61   2.0000      -0.571200       -15.5431
  62   2.0000      -0.550634       -14.9835
  63   2.0000      -0.539951       -14.6928
  64   2.0000      -0.517138       -14.0720
  65   2.0000      -0.513694       -13.9783
  66   2.0000      -0.511655       -13.9228
  67   2.0000      -0.505634       -13.7590
  68   2.0000      -0.497169       -13.5286
  69   2.0000      -0.490864       -13.3571
  70   2.0000      -0.487876       -13.2758
  71   2.0000      -0.480960       -13.0876
  72   2.0000      -0.475252       -12.9323
  73   2.0000      -0.469196       -12.7675
  74   2.0000      -0.445133       -12.1127
  75   2.0000      -0.422040       -11.4843
  76   2.0000      -0.403685       -10.9848
  77   2.0000      -0.355207        -9.6657
  78   2.0000      -0.333951        -9.0873
  79   2.0000      -0.329386        -8.9630
  80   2.0000      -0.282114        -7.6767
  81   2.0000      -0.266539        -7.2529
  82   0.0000       0.016454         0.4477
  83   0.0000       0.023351         0.6354
  84   0.0000       0.025425         0.6918
  85   0.0000       0.026561         0.7228
  86   0.0000       0.032559         0.8860

MULLIKEN ATOMIC CHARGES
-----------------------
   0 C :   -0.574278
   1 C :   -0.533268
   2 C :    0.819392
   3 C :   -0.706107
   4 C :   -0.314438
   5 C :   -0.406263
   6 H :    0.221821
   7 H :    0.409122
   8 H :    0.207908
   9 H :    0.205033
  10 H :    0.353218
  11 C :    0.021543
  12 H :    0.106479
  13 C :    0.956855
  14 H :    0.503810
  15 C :   -0.664351
  16 C :   -0.871033
  17 C :   -0.769775
  18 H :    0.219144
  19 H :    0.175291
  20 C :   -0.500432
  21 H :    0.253286
  22 H :    0.353729
  23 C :   -0.472770
  24 H :    0.193156
  25 H :    0.688393
  26 H :    0.231004
  27 H :    0.465336
  28 H :    0.206081
  29 H :    0.186547
  30 N :   -0.516782
  31 N :   -0.313158
  32 N :   -0.065790
  33 N :   -0.468827
  34 C :    1.113054
  35 C :   -0.396305
  36 C :   -0.507488
  37 C :   -0.287822
  38 C :   -0.337644
  39 C :   -0.439135
  40 H :    0.213250
  41 H :    0.243578
  42 H :    0.350806
  43 H :    0.189266
  44 H :    0.258560
Sum of atomic charges:   -0.0000000

LOEWDIN ATOMIC CHARGES
----------------------
   0 C :    0.349610
   1 C :    0.330758
   2 C :   -0.118332
   3 C :    0.342503
   4 C :    0.339261
   5 C :    0.332775
   6 H :   -0.319138
   7 H :   -0.359730
   8 H :   -0.318584
   9 H :   -0.321404
  10 H :   -0.326625
  11 C :    0.119902
  12 H :   -0.385467
  13 C :    0.167542
  14 H :   -0.326303
  15 C :    0.419628
  16 C :    0.415785
  17 C :    0.553930
  18 H :   -0.251344
  19 H :   -0.282070
  20 C :    0.554093
  21 H :   -0.246403
  22 H :   -0.325391
  23 C :    0.550278
  24 H :   -0.247388
  25 H :   -0.307479
  26 H :   -0.248145
  27 H :   -0.287948
  28 H :   -0.253092
  29 H :   -0.260317
  30 N :    0.538574
  31 N :    0.296794
  32 N :   -0.085512
  33 N :    0.433800
  34 C :   -0.407627
  35 C :    0.309643
  36 C :    0.284557
  37 C :    0.328309
  38 C :    0.326577
  39 C :    0.326412
  40 H :   -0.345323
  41 H :   -0.320813
  42 H :   -0.330507
  43 H :   -0.320698
  44 H :   -0.325090

  Mayer bond orders larger than 0.100000
B(  0-C ,  1-C ) :   1.3122 B(  0-C ,  2-C ) :  -0.4892 B(  0-C ,  3-C ) :   0.1805
B(  0-C ,  5-C ) :   1.2704 B(  0-C ,  6-H ) :   1.1215 B(  0-C ,  7-H ) :  -0.1756
B(  1-C ,  2-C ) :   1.1356 B(  1-C ,  6-H ) :  -0.1034 B(  1-C ,  7-H ) :   0.6890
B(  1-C , 11-C ) :  -0.2312 B(  1-C , 14-H ) :  -0.1282 B(  2-C ,  3-C ) :   0.9945
B(  2-C ,  4-C ) :  -0.4204 B(  2-C ,  7-H ) :  -0.1305 B(  2-C ,  8-H ) :  -0.1414
B(  2-C , 11-C ) :   0.6093 B(  2-C , 12-H ) :  -0.2051 B(  2-C , 13-C ) :  -0.5870
B(  2-C , 33-N ) :  -0.2380 B(  3-C ,  4-C ) :   1.3941 B(  3-C ,  5-C ) :   0.1015
B(  3-C ,  8-H ) :   1.0908 B(  3-C ,  9-H ) :  -0.1707 B(  3-C , 10-H ) :  -0.1214
B(  3-C , 11-C ) :  -0.3870 B(  4-C ,  5-C ) :   1.1476 B(  4-C ,  9-H ) :   1.1984
B(  5-C ,  9-H ) :  -0.1054 B(  5-C , 10-H ) :   0.9902 B( 11-C , 12-H ) :   1.1358
B( 11-C , 13-C ) :   0.7965 B( 11-C , 16-C ) :  -0.2829 B( 11-C , 30-N ) :  -0.2752
B( 11-C , 31-N ) :   0.2296 B( 11-C , 33-N ) :   0.5212 B( 13-C , 14-H ) :   0.7894
B( 13-C , 15-C ) :  -0.4186 B( 13-C , 16-C ) :   0.1810 B( 13-C , 17-C ) :   0.1248
B( 13-C , 30-N ) :   1.1941 B( 13-C , 33-N ) :  -0.1381 B( 15-C , 17-C ) :   0.9168
B( 15-C , 18-H ) :   1.0646 B( 15-C , 19-H ) :   1.0698 B( 15-C , 23-C ) :  -0.1514
B( 15-C , 30-N ) :   1.0511 B( 16-C , 20-C ) :   0.9045 B( 16-C , 21-H ) :   1.0427
B( 16-C , 22-H ) :   0.8831 B( 16-C , 30-N ) :   0.8160 B( 17-C , 23-C ) :   0.8606
B( 17-C , 24-H ) :   1.0464 B( 17-C , 25-H ) :   0.5007 B( 18-H , 30-N ) :  -0.1048
B( 20-C , 23-C ) :   0.8312 B( 20-C , 26-H ) :   0.9994 B( 20-C , 27-H ) :   0.7259
B( 23-C , 28-H ) :   0.9858 B( 23-C , 29-H ) :   1.0416 B( 31-N , 32-N ) :   0.9221
B( 31-N , 33-N ) :   0.1063 B( 31-N , 34-C ) :   0.8683 B( 31-N , 35-C ) :  -0.1144
B( 31-N , 39-C ) :   0.1300 B( 32-N , 33-N ) :   1.3797 B( 32-N , 34-C ) :  -0.1728
B( 32-N , 35-C ) :  -0.1286 B( 34-C , 35-C ) :   1.0265 B( 34-C , 36-C ) :   1.0611
B( 34-C , 37-C ) :  -0.3323 B( 34-C , 38-C ) :  -0.4161 B( 34-C , 39-C ) :  -0.1347
B( 34-C , 42-H ) :   0.1049 B( 35-C , 37-C ) :   1.2705 B( 35-C , 38-C ) :   0.1480
B( 35-C , 39-C ) :   0.1616 B( 35-C , 40-H ) :   0.9879 B( 35-C , 41-H ) :  -0.1726
B( 35-C , 42-H ) :  -0.1096 B( 36-C , 37-C ) :   0.1448 B( 36-C , 38-C ) :   1.3942
B( 36-C , 39-C ) :   0.1114 B( 36-C , 43-H ) :  -0.1594 B( 36-C , 44-H ) :   0.9678
B( 37-C , 39-C ) :   1.1367 B( 37-C , 41-H ) :   1.1524 B( 38-C , 39-C ) :   1.0923
B( 38-C , 43-H ) :   1.2214 B( 39-C , 41-H ) :  -0.1189 B( 39-C , 42-H ) :   0.9873
B( 39-C , 43-H ) :  -0.1090

MP2 TOTAL ENERGY:     -954.516343097 Eh
FINAL SINGLE POINT ENERGY      -954.516343097148

DIPOLE MOMENT
-------------
                                X             Y             Z
Electronic contribution:     -8.95942      -9.00426       3.96881
Nuclear contribution   :      9.66086      10.52747      -4.79782
                        -----------------------------------------
Total Dipole Moment    :      0.70143       1.52320      -0.82901
                        -----------------------------------------
Magnitude (a.u.)       :      1.87067
Magnitude (Debye)      :      4.75486

Rotational constants in cm-1:     0.012013     0.006369     0.004883
Rotational constants in MHz :   360.130793   190.940758   146.394865

                             ****ORCA TERMINATED NORMALLY****
TOTAL RUN TIME: 0 days 15 hours 18 minutes 39 seconds 703 msec
