                         Program Version 4.2.1 -  RELEASE  -
|  1> %pal
|  2>  nprocs 32
|  3> end
|  4> !RI-MP2 aug-cc-pVQZ aug-cc-pVQZ/C TightSCF
|  5> %maxcore 4500
|  6> *xyzfile 0 2  06_34P.xyz
|  7>
|  8>
|  9>                          ****END OF INPUT****

CARTESIAN COORDINATES (ANGSTROEM)
---------------------------------
  Si    -0.727017   -0.004328   -0.273321
  Si    -0.828645    2.122130    0.715434
  Si     0.059982   -1.567247    1.294348
  Si    -2.873045   -0.640706   -0.992872
  C     -3.713784    0.806078   -1.864934
  H     -4.681683    0.501141   -2.273163
  H     -3.890327    1.640101   -1.181977
  H     -3.108119    1.179515   -2.694378
  C     -2.718447   -2.060640   -2.224206
  H     -2.237074   -2.931926   -1.774488
  H     -3.703251   -2.371592   -2.584631
  H     -2.125291   -1.767104   -3.093776
  C     -3.964514   -1.193993    0.440619
  H     -4.045084   -0.420957    1.208024
  H     -4.974732   -1.418784    0.086730
  H     -3.573527   -2.096333    0.916121
  C     -0.177875   -3.323826    0.650179
  H      0.206658   -4.054602    1.367419
  H     -1.233597   -3.548526    0.481744
  H      0.348442   -3.478242   -0.295070
  C      1.875294   -1.338558    1.743396
  H      2.084907   -0.316905    2.065369
  H      2.139914   -2.009826    2.565831
  H      2.535531   -1.565441    0.905571
  C     -0.944026   -1.359575    2.878574
  H     -2.017560   -1.445633    2.701011
  H     -0.664021   -2.124437    3.608664
  H     -0.760181   -0.385148    3.337607
  C      0.697522    2.463664    1.767870
  H      0.670022    3.479531    2.172507
  H      0.761092    1.773005    2.611980
  H      1.613983    2.358388    1.183198
  C     -0.944521    3.436480   -0.631484
  H     -1.829425    3.290601   -1.255068
  H     -1.006501    4.436491   -0.192758
  H     -0.070576    3.415851   -1.286706
  C     -2.353210    2.248506    1.818638
  H     -2.391010    3.223470    2.312837
  H     -3.275015    2.133711    1.243835
  H     -2.350347    1.481872    2.596743
  C      0.358817    0.114321   -1.868355
  C      1.707567    0.666559   -1.618680
  C      2.932523   -0.177557   -1.624600
  H      2.686042   -1.185734   -1.267532
  H      3.284318   -0.326545   -2.659770
  C      4.080587    0.395102   -0.797189
  H      3.738796    0.550209    0.231307
  H      4.341979    1.386445   -1.185121
  C      5.321309   -0.489994   -0.789429
  H      5.661251   -0.646019   -1.819032
  H      5.053297   -1.480287   -0.404570
  C      6.458064    0.089427    0.044375
  H      6.151479    0.223688    1.085147
  H      7.334510   -0.562038    0.037172
  H      6.766586    1.066537   -0.336974
  H      0.417690   -0.881631   -2.318302
  H     -0.208721    0.744861   -2.563211
  H      1.819852    1.738435   -1.491183

 Total Charge           Charge          ....    0
 Multiplicity           Mult            ....    2
 Number of Electrons    NEL             ....  185
 Basis Dimension        Dim             .... 3330

ORBITAL ENERGIES
----------------
                 SPIN UP ORBITALS
  NO   OCC          E(Eh)            E(eV)
   0   1.0000     -68.741770     -1870.5586
   1   1.0000     -68.740687     -1870.5292
   2   1.0000     -68.740389     -1870.5211
   3   1.0000     -68.722945     -1870.0464
   4   1.0000     -11.219057      -305.2861
   5   1.0000     -11.215489      -305.1890
   6   1.0000     -11.214095      -305.1510
   7   1.0000     -11.212339      -305.1032
   8   1.0000     -11.208118      -304.9884
   9   1.0000     -11.206603      -304.9472
  10   1.0000     -11.195255      -304.6384
  11   1.0000     -11.194730      -304.6241
  12   1.0000     -11.194704      -304.6234
  13   1.0000     -11.194057      -304.6058
  14   1.0000     -11.193942      -304.6027
  15   1.0000     -11.193380      -304.5873
  16   1.0000     -11.193362      -304.5869
  17   1.0000     -11.193234      -304.5834
  18   1.0000     -11.192531      -304.5643
  19   1.0000      -6.091185      -165.7496
  20   1.0000      -6.090239      -165.7238
  21   1.0000      -6.089922      -165.7152
  22   1.0000      -6.076100      -165.3391
  23   1.0000      -4.197572      -114.2217
  24   1.0000      -4.197385      -114.2167
  25   1.0000      -4.197330      -114.2152
  26   1.0000      -4.196743      -114.1992
  27   1.0000      -4.196348      -114.1884
  28   1.0000      -4.196339      -114.1882
  29   1.0000      -4.196308      -114.1874
  30   1.0000      -4.196109      -114.1819
  31   1.0000      -4.196057      -114.1805
  32   1.0000      -4.182266      -113.8052
  33   1.0000      -4.181587      -113.7868
  34   1.0000      -4.181543      -113.7856
  35   1.0000      -1.091691       -29.7064
  36   1.0000      -1.041380       -28.3374
  37   1.0000      -0.969511       -26.3817
  38   1.0000      -0.963571       -26.2201
  39   1.0000      -0.960556       -26.1381
  40   1.0000      -0.960103       -26.1257
  41   1.0000      -0.923313       -25.1246
  42   1.0000      -0.921336       -25.0708
  43   1.0000      -0.920833       -25.0571
  44   1.0000      -0.918840       -25.0029
  45   1.0000      -0.918077       -24.9821
  46   1.0000      -0.917233       -24.9592
  47   1.0000      -0.874325       -23.7916
  48   1.0000      -0.794351       -21.6154
  49   1.0000      -0.781334       -21.2612
  50   1.0000      -0.697981       -18.9930
  51   1.0000      -0.649078       -17.6623
  52   1.0000      -0.625320       -17.0158
  53   1.0000      -0.622595       -16.9417
  54   1.0000      -0.609123       -16.5751
  55   1.0000      -0.593388       -16.1469
  56   1.0000      -0.585810       -15.9407
  57   1.0000      -0.582976       -15.8636
  58   1.0000      -0.573274       -15.5996
  59   1.0000      -0.572287       -15.5727
  60   1.0000      -0.564456       -15.3596
  61   1.0000      -0.561325       -15.2744
  62   1.0000      -0.559994       -15.2382
  63   1.0000      -0.555164       -15.1068
  64   1.0000      -0.553824       -15.0703
  65   1.0000      -0.553290       -15.0558
  66   1.0000      -0.547500       -14.8982
  67   1.0000      -0.544191       -14.8082
  68   1.0000      -0.538966       -14.6660
  69   1.0000      -0.538733       -14.6597
  70   1.0000      -0.538328       -14.6487
  71   1.0000      -0.534750       -14.5513
  72   1.0000      -0.533337       -14.5128
  73   1.0000      -0.531455       -14.4616
  74   1.0000      -0.529512       -14.4088
  75   1.0000      -0.526653       -14.3310
  76   1.0000      -0.525611       -14.3026
  77   1.0000      -0.525244       -14.2926
  78   1.0000      -0.502793       -13.6817
  79   1.0000      -0.490878       -13.3575
  80   1.0000      -0.469277       -12.7697
  81   1.0000      -0.464986       -12.6529
  82   1.0000      -0.459865       -12.5136
  83   1.0000      -0.438287       -11.9264
  84   1.0000      -0.430461       -11.7134
  85   1.0000      -0.429979       -11.7003
  86   1.0000      -0.425446       -11.5770
  87   1.0000      -0.424586       -11.5536
  88   1.0000      -0.422198       -11.4886
  89   1.0000      -0.412796       -11.2328
  90   1.0000      -0.337102        -9.1730
  91   1.0000      -0.334554        -9.1037
  92   1.0000      -0.291409        -7.9296
  93   0.0000       0.019762         0.5377
  94   0.0000       0.024413         0.6643
  95   0.0000       0.024603         0.6695
  96   0.0000       0.025248         0.6870
  97   0.0000       0.032009         0.8710

MULLIKEN ATOMIC CHARGES AND SPIN POPULATIONS
--------------------------------------------
   0 Si:   -0.396057    0.093925
   1 Si:    1.211317   -0.018471
   2 Si:    1.202170    0.011832
   3 Si:    1.671441   -0.003563
   4 C :   -1.172266   -0.000867
   5 H :    0.192987    0.000347
   6 H :    0.327309   -0.000323
   7 H :    0.327903   -0.000740
   8 C :   -1.205315   -0.003863
   9 H :    0.360737   -0.000953
  10 H :    0.293742    0.000250
  11 H :    0.243636   -0.000999
  12 C :   -1.159738    0.007255
  13 H :    0.345028    0.000320
  14 H :    0.189798    0.000466
  15 H :    0.304800    0.000708
  16 C :   -1.198163   -0.000223
  17 H :    0.193836   -0.000009
  18 H :    0.395163   -0.000143
  19 H :    0.358970   -0.001394
  20 C :   -1.298232    0.007944
  21 H :    0.384074   -0.008735
  22 H :    0.160461    0.000282
  23 H :    0.390775    0.004925
  24 C :   -1.250006   -0.002303
  25 H :    0.368078    0.000408
  26 H :    0.202757    0.000397
  27 H :    0.287659   -0.001099
  28 C :   -1.223146   -0.001629
  29 H :    0.173758   -0.001042
  30 H :    0.293968    0.002673
  31 H :    0.396397    0.001338
  32 C :   -1.246347   -0.002231
  33 H :    0.344621   -0.000168
  34 H :    0.274407   -0.000613
  35 H :    0.338359    0.000282
  36 C :   -1.208405   -0.000834
  37 H :    0.207518    0.000231
  38 H :    0.307764    0.000828
  39 H :    0.316374    0.001448
  40 C :   -0.724851   -0.211058
  41 C :   -0.446116    1.311671
  42 C :   -0.151490   -0.227502
  43 H :    0.135506    0.040006
  44 H :    0.393707    0.102310
  45 C :   -0.379627    0.038707
  46 H :    0.334952    0.007431
  47 H :    0.250502    0.003567
  48 C :   -0.558561   -0.006601
  49 H :    0.206597   -0.001681
  50 H :    0.242489   -0.000383
  51 C :   -0.952326   -0.000287
  52 H :    0.223017    0.000216
  53 H :    0.297786    0.000307
  54 H :    0.222759    0.000134
  55 H :    0.060385    0.013348
  56 H :    0.233410    0.070448
  57 H :   -0.096272   -0.226288
Sum of atomic charges         :    0.0000000

LOEWDIN ATOMIC CHARGES AND SPIN POPULATIONS
-------------------------------------------
   0 Si:    0.343108    0.035245
   1 Si:    0.144681    0.004977
   2 Si:    0.167041    0.004073
   3 Si:    0.148390    0.009566
   4 C :    0.959986    0.000683
   5 H :   -0.329961    0.000169
   6 H :   -0.354244    0.000126
   7 H :   -0.336875    0.000196
   8 C :    0.961449   -0.000070
   9 H :   -0.352839   -0.000017
  10 H :   -0.331944   -0.000017
  11 H :   -0.340333    0.000136
  12 C :    0.959986    0.003414
  13 H :   -0.348210    0.000577
  14 H :   -0.327750    0.000799
  15 H :   -0.350478    0.000464
  16 C :    0.961486   -0.000088
  17 H :   -0.330737   -0.000052
  18 H :   -0.353965    0.000010
  19 H :   -0.334839    0.000041
  20 C :    0.971481    0.001148
  21 H :   -0.349827    0.000441
  22 H :   -0.321381    0.000082
  23 H :   -0.374359    0.000931
  24 C :    0.958889    0.000315
  25 H :   -0.359140    0.000176
  26 H :   -0.325597    0.000070
  27 H :   -0.347280    0.000091
  28 C :    0.963735    0.001767
  29 H :   -0.327725    0.000248
  30 H :   -0.350045    0.000193
  31 H :   -0.344932    0.003222
  32 C :    0.965334   -0.000297
  33 H :   -0.349824   -0.000027
  34 H :   -0.329820   -0.000030
  35 H :   -0.345844   -0.000682
  36 C :    0.960432   -0.000251
  37 H :   -0.326757   -0.000063
  38 H :   -0.352221    0.000022
  39 H :   -0.349880    0.000024
  40 C :    0.485981    0.131661
  41 C :    0.390868    0.438709
  42 C :    0.485840    0.127845
  43 H :   -0.309708    0.012528
  44 H :   -0.258464    0.030947
  45 C :    0.488401    0.014224
  46 H :   -0.293873    0.006056
  47 H :   -0.262589    0.000195
  48 C :    0.507767    0.002302
  49 H :   -0.267963    0.000749
  50 H :   -0.271173    0.000362
  51 C :    0.927701    0.000040
  52 H :   -0.282901    0.000015
  53 H :   -0.281802    0.000054
  54 H :   -0.282921    0.000037
  55 H :   -0.344219    0.009834
  56 H :   -0.341073    0.020501
  57 H :   -0.309063    0.136329

  Mayer bond orders larger than 0.100000
B(  0-Si,  1-Si) :   0.7808 B(  0-Si,  2-Si) :   0.7669 B(  0-Si,  3-Si) :   0.9251
B(  0-Si,  4-C ) :  -0.1518 B(  0-Si,  7-H ) :  -0.1172 B(  0-Si, 40-C ) :   0.4601
B(  0-Si, 41-C ) :   0.1538 B(  0-Si, 42-C ) :  -0.1714 B(  0-Si, 55-H ) :  -0.1780
B(  0-Si, 56-H ) :  -0.1376 B(  1-Si, 28-C ) :   1.0423 B(  1-Si, 32-C ) :   0.9196
B(  1-Si, 36-C ) :   0.8717 B(  1-Si, 41-C ) :  -0.1326 B(  2-Si, 16-C ) :   1.1423
B(  2-Si, 18-H ) :  -0.1568 B(  2-Si, 20-C ) :   0.9227 B(  2-Si, 23-H ) :  -0.1051
B(  2-Si, 24-C ) :   0.8307 B(  2-Si, 40-C ) :   0.1166 B(  3-Si,  4-C ) :   1.0670
B(  3-Si,  8-C ) :   0.8616 B(  3-Si, 12-C ) :   0.6836 B(  3-Si, 40-C ) :   0.1895
B(  4-C ,  5-H ) :   1.0979 B(  4-C ,  6-H ) :   0.8765 B(  4-C ,  7-H ) :   0.9111
B(  8-C ,  9-H ) :   0.8584 B(  8-C , 10-H ) :   0.9779 B(  8-C , 11-H ) :   1.0218
B( 12-C , 13-H ) :   0.8383 B( 12-C , 14-H ) :   1.1221 B( 12-C , 15-H ) :   0.8984
B( 16-C , 17-H ) :   1.0818 B( 16-C , 18-H ) :   0.8530 B( 16-C , 19-H ) :   0.8708
B( 20-C , 21-H ) :   0.7177 B( 20-C , 22-H ) :   1.1448 B( 20-C , 23-H ) :   0.8936
B( 21-H , 23-H ) :   0.1195 B( 24-C , 25-H ) :   0.8451 B( 24-C , 26-H ) :   1.0955
B( 24-C , 27-H ) :   0.8997 B( 28-C , 29-H ) :   1.1013 B( 28-C , 30-H ) :   0.8677
B( 28-C , 31-H ) :   0.7846 B( 30-H , 31-H ) :   0.1242 B( 32-C , 33-H ) :   0.8768
B( 32-C , 34-H ) :   1.0022 B( 32-C , 35-H ) :   0.9060 B( 36-C , 37-H ) :   1.0956
B( 36-C , 38-H ) :   0.8900 B( 36-C , 39-H ) :   0.8717 B( 40-C , 41-C ) :   0.6967
B( 40-C , 55-H ) :   1.0896 B( 40-C , 56-H ) :   1.1389 B( 40-C , 57-H ) :  -0.1484
B( 41-C , 42-C ) :   0.8677 B( 41-C , 45-C ) :  -0.2666 B( 41-C , 55-H ) :   0.1364
B( 41-C , 56-H ) :  -0.1641 B( 41-C , 57-H ) :   1.3412 B( 42-C , 43-H ) :   0.8228
B( 42-C , 44-H ) :   0.7889 B( 42-C , 45-C ) :   1.1070 B( 42-C , 46-H ) :   0.1016
B( 42-C , 48-C ) :  -0.1054 B( 45-C , 46-H ) :   0.7212 B( 45-C , 47-H ) :   0.9036
B( 45-C , 48-C ) :   0.8545 B( 45-C , 51-C ) :  -0.1698 B( 48-C , 49-H ) :   0.9326
B( 48-C , 50-H ) :   0.8695 B( 48-C , 51-C ) :   1.0820 B( 51-C , 52-H ) :   0.9346
B( 51-C , 53-H ) :   1.0130 B( 51-C , 54-H ) :   0.9808

MP2 TOTAL ENERGY:    -1750.212279096 Eh
FINAL SINGLE POINT ENERGY     -1750.212279095660

DIPOLE MOMENT
-------------
                                X             Y             Z
Electronic contribution:    -10.16959       0.36675      -2.11831
Nuclear contribution   :     10.19388      -0.40667       2.08994
                        -----------------------------------------
Total Dipole Moment    :      0.02429      -0.03992      -0.02837
                        -----------------------------------------
Magnitude (a.u.)       :      0.05466
Magnitude (Debye)      :      0.13895

Rotational constants in cm-1:     0.010529     0.005379     0.004992
Rotational constants in MHz :   315.659409   161.257623   149.653672

                             ****ORCA TERMINATED NORMALLY****
TOTAL RUN TIME: 1 days 1 hours 42 minutes 41 seconds 340 msec
