                         Program Version 4.2.1 -  RELEASE  -
|  1> %pal
|  2>  nprocs 32
|  3> end
|  4> !RI-MP2 aug-cc-pVQZ aug-cc-pVQZ/C TightSCF
|  5> %maxcore 4500
|  6> *xyzfile 1 1  03_29P2.xyz
|  7>
|  8>
|  9>                          ****END OF INPUT****

CARTESIAN COORDINATES (ANGSTROEM)
---------------------------------
  C     -0.929434    0.282921   -0.000001
  C     -0.040676    1.379010   -0.000035
  C      1.302991    1.161922   -0.000038
  N      1.736506   -0.111756   -0.000007
  C      0.955057   -1.196085    0.000027
  C     -0.402758   -1.022902    0.000031
  F      3.070203   -0.309615   -0.000010
  O     -2.202490    0.573467   -0.000001
  H     -0.432456    2.386647   -0.000060
  H      2.064341    1.930138   -0.000063
  H      1.459434   -2.153228    0.000050
  H     -1.034200   -1.898260    0.000059
  C     -3.196646   -0.468406    0.000026
  H     -4.149955    0.049372    0.000009
  H     -3.102912   -1.076149    0.900638
  H     -3.102908   -1.076200   -0.900551

 Total Charge           Charge          ....    1
 Multiplicity           Mult            ....    1
 Number of Electrons    NEL             ....   66
 Basis Dimension        Dim             .... 1042

ORBITAL ENERGIES
----------------

  NO   OCC          E(Eh)            E(eV)
   0   2.0000     -26.547249      -722.3874
   1   2.0000     -20.779021      -565.4259
   2   2.0000     -15.929587      -433.4661
   3   2.0000     -11.535333      -313.8924
   4   2.0000     -11.515682      -313.3576
   5   2.0000     -11.508236      -313.1550
   6   2.0000     -11.441333      -311.3345
   7   2.0000     -11.440419      -311.3096
   8   2.0000     -11.435750      -311.1826
   9   2.0000      -1.870781       -50.9065
  10   2.0000      -1.619953       -44.0812
  11   2.0000      -1.503717       -40.9182
  12   2.0000      -1.287502       -35.0347
  13   2.0000      -1.282422       -34.8965
  14   2.0000      -1.150662       -31.3111
  15   2.0000      -1.110928       -30.2299
  16   2.0000      -1.047265       -28.4975
  17   2.0000      -0.985244       -26.8099
  18   2.0000      -0.944963       -25.7138
  19   2.0000      -0.942677       -25.6515
  20   2.0000      -0.911244       -24.7962
  21   2.0000      -0.858532       -23.3618
  22   2.0000      -0.852113       -23.1872
  23   2.0000      -0.836690       -22.7675
  24   2.0000      -0.835623       -22.7384
  25   2.0000      -0.795635       -21.6503
  26   2.0000      -0.776118       -21.1192
  27   2.0000      -0.769419       -20.9370
  28   2.0000      -0.731116       -19.8947
  29   2.0000      -0.689606       -18.7651
  30   2.0000      -0.677231       -18.4284
  31   2.0000      -0.575204       -15.6521
  32   2.0000      -0.556987       -15.1564
  33   0.0000      -0.105803        -2.8790
  34   0.0000      -0.081737        -2.2242
  35   0.0000      -0.081059        -2.2057
  36   0.0000      -0.068137        -1.8541
  37   0.0000      -0.061448        -1.6721

MULLIKEN ATOMIC CHARGES
-----------------------
   0 C :    1.372711
   1 C :   -0.530395
   2 C :   -0.161396
   3 N :    0.230721
   4 C :   -0.102427
   5 C :   -0.604041
   6 F :   -0.481274
   7 O :   -0.712939
   8 H :    0.301757
   9 H :    0.516074
  10 H :    0.531029
  11 H :    0.254705
  12 C :   -0.664098
  13 H :    0.509777
  14 H :    0.269899
  15 H :    0.269898
Sum of atomic charges:    1.0000000

LOEWDIN ATOMIC CHARGES
----------------------
   0 C :   -0.437286
   1 C :    0.387407
   2 C :    0.236547
   3 N :   -0.106955
   4 C :    0.239729
   5 C :    0.394973
   6 F :    0.742503
   7 O :    0.921382
   8 H :   -0.300505
   9 H :   -0.276881
  10 H :   -0.273227
  11 H :   -0.330582
  12 C :    0.672172
  13 H :   -0.293817
  14 H :   -0.287729
  15 H :   -0.287730

  Mayer bond orders larger than 0.100000
B(  0-C ,  1-C ) :   0.9243 B(  0-C ,  2-C ) :  -0.3763 B(  0-C ,  4-C ) :  -0.2427
B(  0-C ,  5-C ) :   1.1473 B(  0-C ,  7-O ) :   0.5652 B(  1-C ,  2-C ) :   1.4604
B(  1-C ,  7-O ) :   0.1210 B(  1-C ,  8-H ) :   0.9458 B(  1-C ,  9-H ) :  -0.1008
B(  2-C ,  3-N ) :   1.0372 B(  2-C ,  9-H ) :   0.8478 B(  3-N ,  4-C ) :   1.1335
B(  3-N ,  6-F ) :   0.3489 B(  4-C ,  5-C ) :   1.2210 B(  4-C ,  6-F ) :   0.1270
B(  4-C , 10-H ) :   0.8435 B(  5-C ,  7-O ) :   0.1603 B(  5-C , 10-H ) :  -0.1239
B(  5-C , 11-H ) :   1.0460 B(  7-O , 12-C ) :   0.8487 B( 12-C , 13-H ) :   0.7363
B( 12-C , 14-H ) :   0.9146 B( 12-C , 15-H ) :   0.9146

MP2 TOTAL ENERGY:     -461.659248592 Eh
FINAL SINGLE POINT ENERGY      -461.659248592112

DIPOLE MOMENT
-------------
                                X             Y             Z
Electronic contribution:     10.81948       1.04351      -0.00008
Nuclear contribution   :    -11.15188      -1.49623       0.00009
                        -----------------------------------------
Total Dipole Moment    :     -0.33240      -0.45272       0.00001
                        -----------------------------------------
Magnitude (a.u.)       :      0.56165
Magnitude (Debye)      :      1.42760

Rotational constants in cm-1:     0.166561     0.033010     0.027698
Rotational constants in MHz :  4993.380329   989.617589   830.367798

                             ****ORCA TERMINATED NORMALLY****
TOTAL RUN TIME: 0 days 0 hours 29 minutes 51 seconds 415 msec
