                         Program Version 4.2.1 -  RELEASE  -
|  1> %pal
|  2>  nprocs 32
|  3> end
|  4> !RI-MP2 aug-cc-pVQZ aug-cc-pVQZ/C TightSCF
|  5> %maxcore 4500
|  6> *xyzfile 0 2  04_4R.xyz
|  7>
|  8>
|  9>                          ****END OF INPUT****

CARTESIAN COORDINATES (ANGSTROEM)
---------------------------------
  C     -1.918371   -0.515198   -0.031121
  H     -1.863129   -1.106353   -0.960112
  H     -1.883758   -1.257709    0.775700
  C     -0.687784    0.386683    0.045818
  H     -0.734052    1.122252   -0.765068
  C      1.842687    0.519019    0.041598
  H      1.831420    1.245014   -0.773547
  O      3.066159   -0.187384   -0.097562
  H     -0.720233    0.956799    0.980377
  H      1.829061    1.083916    0.982886
  C      0.624092   -0.384562   -0.043343
  C     -3.205547    0.223787    0.017931
  H     -4.132915   -0.287445    0.241372
  H     -3.259408    1.262631   -0.284395
  H      0.667872   -1.123693    0.766660
  H      0.669878   -0.945071   -0.982165
  H      3.135523   -0.829638    0.613488

 Total Charge           Charge          ....    0
 Multiplicity           Mult            ....    2
 Number of Electrons    NEL             ....   49
 Basis Dimension        Dim             ....  986

ORBITAL ENERGIES
----------------
                 SPIN UP ORBITALS
  NO   OCC          E(Eh)            E(eV)
   0   1.0000     -20.552033      -559.2493
   1   1.0000     -11.271070      -306.7014
   2   1.0000     -11.229119      -305.5599
   3   1.0000     -11.224833      -305.4432
   4   1.0000     -11.223789      -305.4148
   5   1.0000     -11.220455      -305.3241
   6   1.0000      -1.356701       -36.9177
   7   1.0000      -1.091030       -29.6884
   8   1.0000      -1.019794       -27.7500
   9   1.0000      -0.915213       -24.9042
  10   1.0000      -0.828737       -22.5511
  11   1.0000      -0.798256       -21.7217
  12   1.0000      -0.691519       -18.8172
  13   1.0000      -0.647093       -17.6083
  14   1.0000      -0.621903       -16.9228
  15   1.0000      -0.608396       -16.5553
  16   1.0000      -0.584071       -15.8934
  17   1.0000      -0.554969       -15.1015
  18   1.0000      -0.546176       -14.8622
  19   1.0000      -0.502826       -13.6826
  20   1.0000      -0.488308       -13.2875
  21   1.0000      -0.484482       -13.1834
  22   1.0000      -0.468553       -12.7500
  23   1.0000      -0.434913       -11.8346
  24   1.0000      -0.350813        -9.5461
  25   0.0000       0.025329         0.6892
  26   0.0000       0.029358         0.7989
  27   0.0000       0.031704         0.8627
  28   0.0000       0.036217         0.9855
  29   0.0000       0.046617         1.2685

                 SPIN DOWN ORBITALS
  NO   OCC          E(Eh)            E(eV)
   0   1.0000     -20.552032      -559.2492
   1   1.0000     -11.271083      -306.7018
   2   1.0000     -11.227900      -305.5267
   3   1.0000     -11.223360      -305.4032
   4   1.0000     -11.220501      -305.3253
   5   1.0000     -11.205576      -304.9192
   6   1.0000      -1.356699       -36.9177
   7   1.0000      -1.083848       -29.4930
   8   1.0000      -0.999981       -27.2109
   9   1.0000      -0.889552       -24.2060
  10   1.0000      -0.814511       -22.1640
  11   1.0000      -0.775201       -21.0943
  12   1.0000      -0.691188       -18.8082
  13   1.0000      -0.641854       -17.4657
  14   1.0000      -0.616594       -16.7784
  15   1.0000      -0.603862       -16.4319
  16   1.0000      -0.575914       -15.6714
  17   1.0000      -0.544190       -14.8082
  18   1.0000      -0.536780       -14.6065
  19   1.0000      -0.499030       -13.5793
  20   1.0000      -0.481133       -13.0923
  21   1.0000      -0.480806       -13.0834
  22   1.0000      -0.467456       -12.7201
  23   1.0000      -0.434077       -11.8118
  24   0.0000       0.025587         0.6963
  25   0.0000       0.029626         0.8062
  26   0.0000       0.031725         0.8633
  27   0.0000       0.035866         0.9760
  28   0.0000       0.046567         1.2672

MULLIKEN ATOMIC CHARGES AND SPIN POPULATIONS
--------------------------------------------
   0 C :   -0.360679   -0.215898
   1 H :    0.197931    0.079099
   2 H :    0.227343    0.030864
   3 C :   -0.255671    0.034005
   4 H :    0.222632   -0.002962
   5 C :    0.054094    0.000112
   6 H :    0.303115    0.000064
   7 O :   -0.896380    0.000092
   8 H :    0.253513   -0.004050
   9 H :    0.200576    0.000144
  10 C :   -0.523018   -0.005384
  11 C :   -1.012282    1.235606
  12 H :    0.379156   -0.076073
  13 H :    0.337678   -0.077335
  14 H :    0.250155    0.000783
  15 H :    0.274982    0.000982
  16 H :    0.346854   -0.000047
Sum of atomic charges         :   -0.0000000

LOEWDIN ATOMIC CHARGES AND SPIN POPULATIONS
-------------------------------------------
   0 C :    0.451807    0.150350
   1 H :   -0.285647    0.032417
   2 H :   -0.293284    0.017589
   3 C :    0.477194    0.014668
   4 H :   -0.272718    0.000173
   5 C :    0.182085   -0.000024
   6 H :   -0.312320    0.000042
   7 O :    1.273277   -0.000000
   8 H :   -0.268355    0.005940
   9 H :   -0.289941    0.000026
  10 C :    0.493662    0.002067
  11 C :    0.864977    0.467515
  12 H :   -0.337420    0.152532
  13 H :   -0.339784    0.155637
  14 H :   -0.273102    0.000336
  15 H :   -0.272201    0.000733
  16 H :   -0.798232   -0.000002

  Mayer bond orders larger than 0.100000
B(  0-C ,  1-H ) :   0.8914 B(  0-C ,  2-H ) :   0.9148 B(  0-C ,  3-C ) :   0.8895
B(  0-C , 11-C ) :   0.9799 B(  3-C ,  4-H ) :   0.8665 B(  3-C ,  8-H ) :   0.8689
B(  3-C , 10-C ) :   0.9203 B(  3-C , 11-C ) :  -0.2200 B(  5-C ,  6-H ) :   0.8500
B(  5-C ,  7-O ) :   0.6280 B(  5-C ,  9-H ) :   0.9397 B(  5-C , 10-C ) :   1.1720
B(  7-O , 16-H ) :   0.8613 B( 10-C , 14-H ) :   0.8581 B( 10-C , 15-H ) :   0.8408
B( 11-C , 12-H ) :   0.9103 B( 11-C , 13-H ) :   0.9295

MP2 TOTAL ENERGY:     -271.838350759 Eh
FINAL SINGLE POINT ENERGY      -271.838350758726

DIPOLE MOMENT
-------------
                                X             Y             Z
Electronic contribution:      4.15445      -0.28174      -0.19722
Nuclear contribution   :     -4.65863       0.12435       0.62693
                        -----------------------------------------
Total Dipole Moment    :     -0.50417      -0.15739       0.42971
                        -----------------------------------------
Magnitude (a.u.)       :      0.68089
Magnitude (Debye)      :      1.73068

Rotational constants in cm-1:     0.553440     0.039244     0.037788
Rotational constants in MHz : 16591.726073  1176.513738  1132.866872

                             ****ORCA TERMINATED NORMALLY****
TOTAL RUN TIME: 0 days 0 hours 28 minutes 17 seconds 290 msec
