                         Program Version 4.2.1 -  RELEASE  -
|  1> %pal
|  2>  nprocs 32
|  3> end
|  4> !RI-MP2 aug-cc-pVQZ aug-cc-pVQZ/C TightSCF
|  5> %maxcore 4500
|  6> *xyzfile 0 1  02_11TS.xyz
|  7>
|  8>
|  9>                          ****END OF INPUT****

CARTESIAN COORDINATES (ANGSTROEM)
---------------------------------
  C      3.191570    1.317083    0.169129
  C      1.904868    1.299412    1.017567
  C      1.080846    0.019130    0.864258
  C      1.368862   -0.466226   -1.017196
  C      3.751704   -0.071390   -0.114357
  H      2.223700    1.289748    2.067057
  H      3.936846    1.931719    0.681802
  H      3.000283    1.817886   -0.788609
  H      1.118235    0.538211   -1.347287
  H      3.751969   -0.636434    0.824230
  H      1.587195   -0.874410    1.214057
  H      3.173871   -0.508845   -2.132668
  H      2.986486   -1.873798   -1.044994
  C      2.845298   -0.792529   -1.124895
  C      5.187829   -0.016610   -0.622341
  H      5.857822    0.412030    0.126591
  H      5.256218    0.598040   -1.525152
  H      5.557579   -1.014478   -0.871702
  C     -0.278405    0.010506    1.207632
  C      0.435618   -1.447810   -1.364386
  C     -1.488129   -0.017772   -1.006107
  C     -0.936483   -1.221121   -1.382329
  C     -0.885248   -1.249310    1.578607
  H     -0.831631    0.920628    1.386565
  O     -0.301776   -2.312969    1.392294
  H     -0.869148    0.867447   -1.025752
  C     -2.920399    0.240846   -0.864367
  C     -3.315732    1.498983   -0.618244
  H     -2.532090    2.250054   -0.539685
  C     -3.857605   -0.926318   -1.005474
  H     -3.817846   -1.329959   -2.020733
  H     -4.889782   -0.657533   -0.794008
  H     -3.575917   -1.734872   -0.327991
  C     -4.702742    2.021098   -0.433651
  H     -5.466980    1.249349   -0.505489
  H     -4.927510    2.784590   -1.184816
  H     -4.804400    2.506266    0.542132
  C     -2.253614   -1.219361    2.221678
  H     -2.879161   -0.423689    1.815422
  H     -2.132089   -1.034264    3.292875
  H     -2.738956   -2.186713    2.099233
  C      1.115958    2.585687    0.787230
  H      0.309186    2.716600    1.508963
  H      1.777924    3.450476    0.872355
  H      0.680668    2.608399   -0.216677
  H      0.779506   -2.470190   -1.476204
  H     -1.582945   -2.078282   -1.524391

 Total Charge           Charge          ....    0
 Multiplicity           Mult            ....    1
 Number of Electrons    NEL             ....  144
 Basis Dimension        Dim             .... 2808

ORBITAL ENERGIES
----------------

  NO   OCC          E(Eh)            E(eV)
   0   2.0000     -20.497273      -557.7591
   1   2.0000     -11.292779      -307.2921
   2   2.0000     -11.251646      -306.1728
   3   2.0000     -11.241417      -305.8945
   4   2.0000     -11.240635      -305.8732
   5   2.0000     -11.237717      -305.7938
   6   2.0000     -11.236209      -305.7528
   7   2.0000     -11.233879      -305.6894
   8   2.0000     -11.231079      -305.6132
   9   2.0000     -11.228325      -305.5382
  10   2.0000     -11.223189      -305.3985
  11   2.0000     -11.221757      -305.3595
  12   2.0000     -11.220352      -305.3213
  13   2.0000     -11.218113      -305.2604
  14   2.0000     -11.217791      -305.2516
  15   2.0000     -11.217334      -305.2392
  16   2.0000     -11.211226      -305.0730
  17   2.0000     -11.208719      -305.0048
  18   2.0000     -11.206667      -304.9489
  19   2.0000      -1.341567       -36.5059
  20   2.0000      -1.141928       -31.0734
  21   2.0000      -1.123174       -30.5631
  22   2.0000      -1.081937       -29.4410
  23   2.0000      -1.068117       -29.0649
  24   2.0000      -1.021058       -27.7844
  25   2.0000      -1.013704       -27.5843
  26   2.0000      -0.981508       -26.7082
  27   2.0000      -0.970323       -26.4038
  28   2.0000      -0.933815       -25.4104
  29   2.0000      -0.929413       -25.2906
  30   2.0000      -0.895207       -24.3598
  31   2.0000      -0.862693       -23.4751
  32   2.0000      -0.831749       -22.6330
  33   2.0000      -0.786835       -21.4109
  34   2.0000      -0.751607       -20.4523
  35   2.0000      -0.736036       -20.0286
  36   2.0000      -0.719624       -19.5820
  37   2.0000      -0.697009       -18.9666
  38   2.0000      -0.674352       -18.3501
  39   2.0000      -0.664009       -18.0686
  40   2.0000      -0.636125       -17.3098
  41   2.0000      -0.628771       -17.1097
  42   2.0000      -0.620622       -16.8880
  43   2.0000      -0.610539       -16.6136
  44   2.0000      -0.597785       -16.2665
  45   2.0000      -0.592306       -16.1175
  46   2.0000      -0.578133       -15.7318
  47   2.0000      -0.574991       -15.6463
  48   2.0000      -0.570251       -15.5173
  49   2.0000      -0.565463       -15.3870
  50   2.0000      -0.559235       -15.2176
  51   2.0000      -0.555286       -15.1101
  52   2.0000      -0.548017       -14.9123
  53   2.0000      -0.541280       -14.7290
  54   2.0000      -0.536271       -14.5927
  55   2.0000      -0.532205       -14.4820
  56   2.0000      -0.522431       -14.2161
  57   2.0000      -0.518312       -14.1040
  58   2.0000      -0.506899       -13.7934
  59   2.0000      -0.503934       -13.7127
  60   2.0000      -0.498637       -13.5686
  61   2.0000      -0.489230       -13.3126
  62   2.0000      -0.485247       -13.2043
  63   2.0000      -0.478585       -13.0230
  64   2.0000      -0.467235       -12.7141
  65   2.0000      -0.449177       -12.2227
  66   2.0000      -0.437660       -11.9093
  67   2.0000      -0.432030       -11.7561
  68   2.0000      -0.389280       -10.5928
  69   2.0000      -0.377864       -10.2822
  70   2.0000      -0.318515        -8.6672
  71   2.0000      -0.263169        -7.1612
  72   0.0000       0.018841         0.5127
  73   0.0000       0.023157         0.6301
  74   0.0000       0.026847         0.7305
  75   0.0000       0.027998         0.7619
  76   0.0000       0.033183         0.9030

MULLIKEN ATOMIC CHARGES
-----------------------
   0 C :   -0.080085
   1 C :    0.254642
   2 C :    1.094819
   3 C :    0.892827
   4 C :    0.196300
   5 H :    0.102087
   6 H :    0.207332
   7 H :    0.138483
   8 H :    0.354738
   9 H :    0.072946
  10 H :    0.165405
  11 H :    0.215910
  12 H :    0.117406
  13 C :   -0.500151
  14 C :   -1.171187
  15 H :    0.245530
  16 H :    0.175159
  17 H :    0.177167
  18 C :   -1.045489
  19 C :   -0.770359
  20 C :   -0.093223
  21 C :   -0.373286
  22 C :    1.339475
  23 H :    0.128088
  24 O :   -1.199296
  25 H :    0.636586
  26 C :    0.499996
  27 C :   -0.698724
  28 H :    0.182811
  29 C :   -0.981760
  30 H :    0.321792
  31 H :    0.291265
  32 H :    0.193501
  33 C :   -0.941580
  34 H :    0.248155
  35 H :    0.333962
  36 H :    0.237889
  37 C :   -1.108342
  38 H :    0.059560
  39 H :    0.325406
  40 H :    0.282212
  41 C :   -1.046101
  42 H :    0.207587
  43 H :    0.172824
  44 H :    0.136947
  45 H :    0.017249
  46 H :   -0.016475
Sum of atomic charges:   -0.0000000

LOEWDIN ATOMIC CHARGES
----------------------
   0 C :    0.523465
   1 C :    0.162547
   2 C :    0.244276
   3 C :    0.261627
   4 C :    0.133815
   5 H :   -0.259252
   6 H :   -0.251265
   7 H :   -0.267587
   8 H :   -0.339268
   9 H :   -0.268838
  10 H :   -0.353797
  11 H :   -0.261748
  12 H :   -0.263828
  13 C :    0.542084
  14 C :    0.941245
  15 H :   -0.269308
  16 H :   -0.271910
  17 H :   -0.266669
  18 C :    0.286848
  19 C :    0.399888
  20 C :    0.300666
  21 C :    0.363531
  22 C :   -0.699727
  23 H :   -0.351023
  24 O :    0.762095
  25 H :   -0.387966
  26 C :   -0.022529
  27 C :    0.404699
  28 H :   -0.323553
  29 C :    0.899255
  30 H :   -0.265316
  31 H :   -0.316567
  32 H :   -0.299510
  33 C :    0.922133
  34 H :   -0.330314
  35 H :   -0.283100
  36 H :   -0.283361
  37 C :    0.890214
  38 H :   -0.326781
  39 H :   -0.277703
  40 H :   -0.304040
  41 C :    0.938064
  42 H :   -0.280598
  43 H :   -0.260788
  44 H :   -0.266817
  45 H :   -0.289404
  46 H :   -0.333883

  Mayer bond orders larger than 0.100000
B(  0-C ,  1-C ) :   0.6884 B(  0-C ,  2-C ) :  -0.1133 B(  0-C ,  4-C ) :   0.5479
B(  0-C ,  5-H ) :  -0.1035 B(  0-C ,  6-H ) :   1.0709 B(  0-C ,  7-H ) :   1.0902
B(  1-C ,  2-C ) :   0.7215 B(  1-C ,  5-H ) :   1.1836 B(  1-C ,  6-H ) :  -0.1802
B(  1-C , 18-C ) :  -0.3091 B(  1-C , 41-C ) :   0.5661 B(  1-C , 42-H ) :  -0.1465
B(  1-C , 44-H ) :  -0.1570 B(  2-C ,  3-C ) :   0.5233 B(  2-C ,  5-H ) :  -0.1331
B(  2-C , 10-H ) :   1.0459 B(  2-C , 18-C ) :  -0.1809 B(  2-C , 20-C ) :   0.1085
B(  2-C , 22-C ) :  -0.3352 B(  2-C , 24-O ) :  -0.2201 B(  3-C ,  8-H ) :   1.0942
B(  3-C , 11-H ) :  -0.1784 B(  3-C , 12-H ) :  -0.2755 B(  3-C , 13-C ) :   0.1419
B(  3-C , 19-C ) :   0.5045 B(  3-C , 20-C ) :   0.1915 B(  3-C , 21-C ) :  -0.3364
B(  3-C , 45-H ) :  -0.1913 B(  4-C ,  6-H ) :  -0.1131 B(  4-C ,  9-H ) :   1.1797
B(  4-C , 13-C ) :   0.5510 B(  4-C , 14-C ) :   0.3618 B(  4-C , 15-H ) :  -0.1611
B(  4-C , 16-H ) :  -0.1944 B(  4-C , 17-H ) :  -0.1924 B(  8-H , 13-C ) :  -0.1107
B(  8-H , 19-C ) :  -0.1054 B(  8-H , 20-C ) :  -0.1197 B(  8-H , 25-H ) :  -0.1170
B( 10-H , 18-C ) :  -0.1407 B( 11-H , 13-C ) :   1.1284 B( 12-H , 13-C ) :   1.2525
B( 13-C , 19-C ) :  -0.1675 B( 14-C , 15-H ) :   1.0845 B( 14-C , 16-H ) :   1.1185
B( 14-C , 17-H ) :   1.1966 B( 18-C , 19-C ) :   0.1678 B( 18-C , 22-C ) :   1.0754
B( 18-C , 23-H ) :   1.2631 B( 18-C , 24-O ) :   0.7495 B( 18-C , 37-C ) :  -0.2641
B( 18-C , 41-C ) :  -0.1497 B( 19-C , 20-C ) :  -0.3913 B( 19-C , 21-C ) :   1.1405
B( 19-C , 45-H ) :   1.4904 B( 19-C , 46-H ) :  -0.2933 B( 20-C , 21-C ) :   1.2944
B( 20-C , 25-H ) :   0.7064 B( 20-C , 26-C ) :   0.5331 B( 20-C , 27-C ) :  -0.1158
B( 20-C , 29-C ) :  -0.2456 B( 21-C , 26-C ) :  -0.2749 B( 21-C , 45-H ) :  -0.2135
B( 21-C , 46-H ) :   1.3491 B( 22-C , 37-C ) :   0.7629 B( 22-C , 38-H ) :  -0.1576
B( 25-H , 26-C ) :  -0.2895 B( 26-C , 27-C ) :   1.1650 B( 26-C , 28-H ) :  -0.1819
B( 26-C , 29-C ) :   0.5369 B( 26-C , 30-H ) :  -0.1175 B( 26-C , 32-H ) :  -0.1898
B( 26-C , 33-C ) :  -0.1751 B( 27-C , 28-H ) :   1.1790 B( 27-C , 33-C ) :   0.7045
B( 27-C , 35-H ) :  -0.1701 B( 27-C , 36-H ) :  -0.1534 B( 29-C , 30-H ) :   1.0005
B( 29-C , 31-H ) :   1.0224 B( 29-C , 32-H ) :   1.1150 B( 33-C , 34-H ) :   0.9985
B( 33-C , 35-H ) :   0.9907 B( 33-C , 36-H ) :   1.0519 B( 37-C , 38-H ) :   1.0931
B( 37-C , 39-H ) :   0.9477 B( 37-C , 40-H ) :   1.0470 B( 41-C , 42-H ) :   1.1416
B( 41-C , 43-H ) :   1.1162 B( 41-C , 44-H ) :   1.1070

MP2 TOTAL ENERGY:     -776.513459862 Eh
FINAL SINGLE POINT ENERGY      -776.513459862489

DIPOLE MOMENT
-------------
                                X             Y             Z
Electronic contribution:     -1.30281      -8.08044       0.57643
Nuclear contribution   :      0.98061       9.43099      -0.90652
                        -----------------------------------------
Total Dipole Moment    :     -0.32220       1.35054      -0.33009
                        -----------------------------------------
Magnitude (a.u.)       :      1.42714
Magnitude (Debye)      :      3.62751

Rotational constants in cm-1:     0.020830     0.007452     0.007043
Rotational constants in MHz :   624.469364   223.394541   211.128981

                             ****ORCA TERMINATED NORMALLY****
TOTAL RUN TIME: 0 days 13 hours 37 minutes 54 seconds 872 msec
