                         Program Version 4.2.1 -  RELEASE  -
|  1> %pal
|  2>  nprocs 32
|  3> end
|  4> !RI-MP2 aug-cc-pVQZ aug-cc-pVQZ/C TightSCF
|  5> %maxcore 4500
|  6> *xyzfile 0 1  10_57R1.xyz
|  7>
|  8>
|  9>                          ****END OF INPUT****

CARTESIAN COORDINATES (ANGSTROEM)
---------------------------------
  C      0.137143   -0.000002    0.000044
  C     -0.550544   -1.269759    0.000081
  C     -0.550543    1.269756    0.000081
  C     -1.873475   -1.547703    0.000027
  C     -1.873474    1.547702    0.000027
  C     -3.006776   -0.675351   -0.000079
  C     -3.006775    0.675350   -0.000079
  C      1.520715   -0.000001    0.000008
  C      2.268626   -1.208822   -0.000015
  N      2.855064   -2.198813   -0.000050
  C      2.268623    1.208823   -0.000019
  N      2.855052    2.198819   -0.000030
  H     -3.972410    1.168488   -0.000155
  H     -2.118402    2.604708    0.000060
  H      0.104852    2.133092    0.000151
  H     -3.972411   -1.168488   -0.000155
  H      0.104850   -2.133095    0.000151
  H     -2.118404   -2.604709    0.000061

 Total Charge           Charge          ....    0
 Multiplicity           Mult            ....    1
 Number of Electrons    NEL             ....   80
 Basis Dimension        Dim             .... 1236

ORBITAL ENERGIES
----------------

  NO   OCC          E(Eh)            E(eV)
   0   2.0000     -15.571432      -423.7202
   1   2.0000     -15.571431      -423.7202
   2   2.0000     -11.332468      -308.3721
   3   2.0000     -11.300847      -307.5117
   4   2.0000     -11.297123      -307.4104
   5   2.0000     -11.297122      -307.4103
   6   2.0000     -11.290724      -307.2362
   7   2.0000     -11.289175      -307.1941
   8   2.0000     -11.288008      -307.1623
   9   2.0000     -11.287994      -307.1619
  10   2.0000     -11.280691      -306.9632
  11   2.0000     -11.280661      -306.9624
  12   2.0000      -1.241894       -33.7936
  13   2.0000      -1.221983       -33.2518
  14   2.0000      -1.197578       -32.5878
  15   2.0000      -1.138664       -30.9846
  16   2.0000      -1.104712       -30.0607
  17   2.0000      -1.045363       -28.4458
  18   2.0000      -0.940034       -25.5796
  19   2.0000      -0.934409       -25.4266
  20   2.0000      -0.813144       -22.1268
  21   2.0000      -0.783574       -21.3221
  22   2.0000      -0.758549       -20.6412
  23   2.0000      -0.734505       -19.9869
  24   2.0000      -0.687112       -18.6973
  25   2.0000      -0.665854       -18.1188
  26   2.0000      -0.620085       -16.8734
  27   2.0000      -0.597386       -16.2557
  28   2.0000      -0.582789       -15.8585
  29   2.0000      -0.569183       -15.4883
  30   2.0000      -0.563376       -15.3302
  31   2.0000      -0.558968       -15.2103
  32   2.0000      -0.535246       -14.5648
  33   2.0000      -0.527417       -14.3517
  34   2.0000      -0.484412       -13.1815
  35   2.0000      -0.484389       -13.1809
  36   2.0000      -0.465630       -12.6704
  37   2.0000      -0.436006       -11.8643
  38   2.0000      -0.430099       -11.7036
  39   2.0000      -0.310988        -8.4624
  40   0.0000       0.009601         0.2612
  41   0.0000       0.011699         0.3183
  42   0.0000       0.013737         0.3738
  43   0.0000       0.019233         0.5234
  44   0.0000       0.028278         0.7695

MULLIKEN ATOMIC CHARGES
-----------------------
   0 C :    1.113960
   1 C :   -0.159945
   2 C :   -0.159081
   3 C :   -0.418253
   4 C :   -0.418320
   5 C :   -0.474902
   6 C :   -0.474816
   7 C :   -0.520564
   8 C :    0.590453
   9 N :   -0.816682
  10 C :    0.590423
  11 N :   -0.816727
  12 H :    0.322166
  13 H :    0.270603
  14 H :    0.389415
  15 H :    0.322279
  16 H :    0.389319
  17 H :    0.270672
Sum of atomic charges:    0.0000000

LOEWDIN ATOMIC CHARGES
----------------------
   0 C :   -0.095805
   1 C :    0.382159
   2 C :    0.382159
   3 C :    0.404827
   4 C :    0.404828
   5 C :    0.381758
   6 C :    0.381758
   7 C :   -0.267203
   8 C :   -0.383149
   9 N :    0.447014
  10 C :   -0.383149
  11 N :    0.447015
  12 H :   -0.330116
  13 H :   -0.325308
  14 H :   -0.395682
  15 H :   -0.330116
  16 H :   -0.395681
  17 H :   -0.325308

  Mayer bond orders larger than 0.100000
B(  0-C ,  1-C ) :   0.8609 B(  0-C ,  2-C ) :   0.8605 B(  0-C ,  3-C ) :  -0.3361
B(  0-C ,  4-C ) :  -0.3361 B(  0-C ,  7-C ) :   0.4838 B(  0-C ,  8-C ) :  -0.4487
B(  0-C , 10-C ) :  -0.4486 B(  0-C , 14-H ) :  -0.1516 B(  0-C , 16-H ) :  -0.1516
B(  1-C ,  3-C ) :   1.3690 B(  1-C ,  5-C ) :  -0.1156 B(  1-C ,  7-C ) :  -0.2473
B(  1-C , 16-H ) :   0.8786 B(  1-C , 17-H ) :  -0.1608 B(  2-C ,  4-C ) :   1.3687
B(  2-C ,  6-C ) :  -0.1157 B(  2-C ,  7-C ) :  -0.2477 B(  2-C , 13-H ) :  -0.1610
B(  2-C , 14-H ) :   0.8785 B(  3-C ,  5-C ) :   1.2141 B(  3-C , 16-H ) :  -0.1321
B(  3-C , 17-H ) :   1.0735 B(  4-C ,  6-C ) :   1.2141 B(  4-C , 13-H ) :   1.0736
B(  4-C , 14-H ) :  -0.1322 B(  5-C ,  6-C ) :   1.5426 B(  5-C , 12-H ) :  -0.1208
B(  5-C , 15-H ) :   0.9977 B(  6-C , 12-H ) :   0.9978 B(  6-C , 15-H ) :  -0.1209
B(  7-C ,  8-C ) :   1.5086 B(  7-C , 10-C ) :   1.5087 B(  8-C ,  9-N ) :   2.2838
B( 10-C , 11-N ) :   2.2836

MP2 TOTAL ENERGY:     -493.243883922 Eh
FINAL SINGLE POINT ENERGY      -493.243883922370

DIPOLE MOMENT
-------------
                                X             Y             Z
Electronic contribution:      7.96373       0.00000      -0.00005
Nuclear contribution   :    -11.63438      -0.00000       0.00011
                        -----------------------------------------
Total Dipole Moment    :     -3.67065      -0.00000       0.00006
                        -----------------------------------------
Magnitude (a.u.)       :      3.67065
Magnitude (Debye)      :      9.33005

Rotational constants in cm-1:     0.055567     0.023133     0.016333
Rotational constants in MHz :  1665.853311   693.509359   489.659719

                             ****ORCA TERMINATED NORMALLY****
TOTAL RUN TIME: 0 days 1 hours 1 minutes 53 seconds 131 msec
