                         Program Version 4.2.1 -  RELEASE  -
|  1> %pal
|  2>  nprocs 32
|  3> end
|  4> !RI-MP2 aug-cc-pVQZ aug-cc-pVQZ/C TightSCF
|  5> %maxcore 4500
|  6> *xyzfile 0 1  02_11P.xyz
|  7>
|  8>
|  9>                          ****END OF INPUT****

CARTESIAN COORDINATES (ANGSTROEM)
---------------------------------
  C      3.307533    0.979735    0.702652
  C      1.966735    1.337536    0.040672
  C      0.939724    0.230645    0.351266
  C      1.446685   -1.162347   -0.070854
  C      3.853755   -0.423966    0.398847
  H      1.613216    2.249204    0.535503
  H      3.166295    1.049750    1.787171
  H      4.057524    1.733170    0.443441
  H      4.650489   -0.609589    1.127303
  H      3.123175   -2.462323    0.336258
  H      2.558050   -1.535482    1.716041
  C      2.764613   -1.473745    0.640820
  C      4.495216   -0.568397   -0.983069
  H      5.017297   -1.525651   -1.057958
  H      5.226356    0.223904   -1.160674
  H      3.768084   -0.530535   -1.793921
  C     -0.476207    0.566134   -0.172374
  C      0.396155   -2.192070    0.230448
  C     -1.270908   -0.671630   -0.716152
  C     -0.881574   -1.950956   -0.031477
  C     -1.260591    1.311910    0.896298
  O     -1.645512    2.441867    0.699509
  C     -2.756533   -0.365949   -0.804228
  C     -3.639102   -0.898056    0.039091
  H     -3.270001   -1.586894    0.793052
  C     -3.105630    0.626744   -1.879141
  H     -2.706947    1.615506   -1.635019
  H     -4.178198    0.731516   -2.025608
  H     -2.664098    0.324108   -2.833297
  C     -5.113882   -0.649460    0.109738
  H     -5.379132   -0.205236    1.074092
  H     -5.668190   -1.589446    0.034069
  H     -5.476013    0.018190   -0.669786
  C     -1.517606    0.638302    2.225485
  H     -1.382335   -0.441059    2.186276
  H     -2.527081    0.884311    2.551725
  H     -0.821618    1.047581    2.962611
  C      2.090174    1.677073   -1.449647
  H      1.234650    2.257702   -1.796961
  H      2.981595    2.281992   -1.628082
  H      2.163594    0.792943   -2.083498
  H     -1.639240   -2.699520    0.164395
  H      0.706483   -3.137095    0.666132
  H     -0.399974    1.272557   -0.995969
  H     -0.920297   -0.774893   -1.751908
  H      0.881420    0.171943    1.444065
  H      1.617652   -1.160619   -1.155769

 Total Charge           Charge          ....    0
 Multiplicity           Mult            ....    1
 Number of Electrons    NEL             ....  144
 Basis Dimension        Dim             .... 2808

ORBITAL ENERGIES
----------------

  NO   OCC          E(Eh)            E(eV)
   0   2.0000     -20.531412      -558.6881
   1   2.0000     -11.317968      -307.9776
   2   2.0000     -11.242030      -305.9112
   3   2.0000     -11.232631      -305.6554
   4   2.0000     -11.231706      -305.6303
   5   2.0000     -11.231156      -305.6153
   6   2.0000     -11.229467      -305.5693
   7   2.0000     -11.225636      -305.4651
   8   2.0000     -11.224956      -305.4466
   9   2.0000     -11.224048      -305.4219
  10   2.0000     -11.222061      -305.3678
  11   2.0000     -11.221097      -305.3416
  12   2.0000     -11.220129      -305.3152
  13   2.0000     -11.219232      -305.2908
  14   2.0000     -11.217278      -305.2376
  15   2.0000     -11.215731      -305.1956
  16   2.0000     -11.212117      -305.0972
  17   2.0000     -11.210997      -305.0667
  18   2.0000     -11.210352      -305.0492
  19   2.0000      -1.379041       -37.5256
  20   2.0000      -1.163055       -31.6483
  21   2.0000      -1.120406       -30.4878
  22   2.0000      -1.078358       -29.3436
  23   2.0000      -1.063006       -28.9259
  24   2.0000      -1.023546       -27.8521
  25   2.0000      -1.011359       -27.5205
  26   2.0000      -0.988853       -26.9081
  27   2.0000      -0.969019       -26.3684
  28   2.0000      -0.936425       -25.4814
  29   2.0000      -0.923718       -25.1356
  30   2.0000      -0.896248       -24.3881
  31   2.0000      -0.856011       -23.2932
  32   2.0000      -0.838138       -22.8069
  33   2.0000      -0.801190       -21.8015
  34   2.0000      -0.744648       -20.2629
  35   2.0000      -0.727912       -19.8075
  36   2.0000      -0.723264       -19.6810
  37   2.0000      -0.688669       -18.7396
  38   2.0000      -0.673528       -18.3276
  39   2.0000      -0.657681       -17.8964
  40   2.0000      -0.647548       -17.6207
  41   2.0000      -0.626283       -17.0420
  42   2.0000      -0.619397       -16.8546
  43   2.0000      -0.614701       -16.7269
  44   2.0000      -0.605612       -16.4795
  45   2.0000      -0.592945       -16.1348
  46   2.0000      -0.589112       -16.0306
  47   2.0000      -0.581344       -15.8192
  48   2.0000      -0.572521       -15.5791
  49   2.0000      -0.571231       -15.5440
  50   2.0000      -0.556472       -15.1424
  51   2.0000      -0.551645       -15.0110
  52   2.0000      -0.548119       -14.9151
  53   2.0000      -0.543255       -14.7827
  54   2.0000      -0.538075       -14.6418
  55   2.0000      -0.530555       -14.4371
  56   2.0000      -0.525757       -14.3066
  57   2.0000      -0.522825       -14.2268
  58   2.0000      -0.509020       -13.8511
  59   2.0000      -0.498803       -13.5731
  60   2.0000      -0.490689       -13.3523
  61   2.0000      -0.483388       -13.1537
  62   2.0000      -0.481833       -13.1113
  63   2.0000      -0.473427       -12.8826
  64   2.0000      -0.465290       -12.6612
  65   2.0000      -0.456744       -12.4286
  66   2.0000      -0.443605       -12.0711
  67   2.0000      -0.422694       -11.5021
  68   2.0000      -0.418928       -11.3996
  69   2.0000      -0.391659       -10.6576
  70   2.0000      -0.352415        -9.5897
  71   2.0000      -0.336801        -9.1648
  72   0.0000       0.019812         0.5391
  73   0.0000       0.024340         0.6623
  74   0.0000       0.025290         0.6882
  75   0.0000       0.027922         0.7598
  76   0.0000       0.033265         0.9052

MULLIKEN ATOMIC CHARGES
-----------------------
   0 C :   -0.611939
   1 C :    0.173788
   2 C :    1.379894
   3 C :    0.791164
   4 C :    0.094782
   5 H :    0.168655
   6 H :    0.071812
   7 H :    0.063468
   8 H :    0.215972
   9 H :    0.055638
  10 H :    0.083795
  11 C :   -0.672220
  12 C :   -1.115131
  13 H :    0.150907
  14 H :    0.159109
  15 H :    0.224503
  16 C :   -0.524595
  17 C :   -1.106993
  18 C :    0.896011
  19 C :   -0.418622
  20 C :    1.854072
  21 O :   -1.227951
  22 C :    0.192074
  23 C :   -0.564445
  24 H :    0.162307
  25 C :   -1.140369
  26 H :    0.241832
  27 H :    0.307284
  28 H :    0.198631
  29 C :   -0.952877
  30 H :    0.219137
  31 H :    0.296194
  32 H :    0.251509
  33 C :   -1.103326
  34 H :    0.144050
  35 H :    0.186824
  36 H :    0.270142
  37 C :   -1.100462
  38 H :    0.228585
  39 H :    0.060505
  40 H :    0.133096
  41 H :    0.007545
  42 H :    0.016944
  43 H :    0.203682
  44 H :    0.754875
  45 H :   -0.051619
  46 H :    0.331763
Sum of atomic charges:   -0.0000000

LOEWDIN ATOMIC CHARGES
----------------------
   0 C :    0.561306
   1 C :    0.190003
   2 C :    0.157527
   3 C :    0.130490
   4 C :    0.167773
   5 H :   -0.258302
   6 H :   -0.254323
   7 H :   -0.260596
   8 H :   -0.267402
   9 H :   -0.252311
  10 H :   -0.251348
  11 C :    0.540113
  12 C :    0.948831
  13 H :   -0.263085
  14 H :   -0.261852
  15 H :   -0.311643
  16 C :    0.136552
  17 C :    0.444553
  18 C :    0.106435
  19 C :    0.416274
  20 C :   -0.635696
  21 O :    0.794356
  22 C :   -0.006422
  23 C :    0.394180
  24 H :   -0.360598
  25 C :    0.928686
  26 H :   -0.290484
  27 H :   -0.315995
  28 H :   -0.268503
  29 C :    0.925169
  30 H :   -0.281991
  31 H :   -0.282947
  32 H :   -0.330933
  33 C :    0.913564
  34 H :   -0.310842
  35 H :   -0.288156
  36 H :   -0.269705
  37 C :    0.966503
  38 H :   -0.267932
  39 H :   -0.257967
  40 H :   -0.296173
  41 H :   -0.319755
  42 H :   -0.291331
  43 H :   -0.376594
  44 H :   -0.293994
  45 H :   -0.319022
  46 H :   -0.276417

  Mayer bond orders larger than 0.100000
B(  0-C ,  1-C ) :   0.7271 B(  0-C ,  2-C ) :  -0.4547 B(  0-C ,  4-C ) :   0.6397
B(  0-C ,  6-H ) :   1.2981 B(  0-C ,  7-H ) :   1.2627 B(  0-C , 45-H ) :  -0.1013
B(  1-C ,  2-C ) :   0.3559 B(  1-C ,  5-H ) :   1.1211 B(  1-C ,  7-H ) :  -0.1900
B(  1-C , 37-C ) :   0.6181 B(  1-C , 39-H ) :  -0.1664 B(  1-C , 40-H ) :  -0.1464
B(  2-C ,  3-C ) :   0.7591 B(  2-C ,  4-C ) :   0.1384 B(  2-C ,  6-H ) :  -0.2016
B(  2-C , 10-H ) :  -0.1544 B(  2-C , 11-C ) :  -0.2068 B(  2-C , 16-C ) :   1.3323
B(  2-C , 17-C ) :  -0.2016 B(  2-C , 18-C ) :  -0.1230 B(  2-C , 20-C ) :   0.5192
B(  2-C , 21-O ) :   0.2727 B(  2-C , 33-C ) :  -0.1336 B(  2-C , 37-C ) :  -0.2802
B(  2-C , 44-H ) :   0.1374 B(  2-C , 45-H ) :   0.6217 B(  3-C ,  4-C ) :  -0.1832
B(  3-C ,  9-H ) :  -0.2728 B(  3-C , 10-H ) :  -0.1543 B(  3-C , 17-C ) :   0.3443
B(  3-C , 18-C ) :   0.2813 B(  3-C , 19-C ) :  -0.1461 B(  3-C , 44-H ) :  -0.1317
B(  3-C , 45-H ) :   0.1495 B(  3-C , 46-H ) :   1.0034 B(  4-C ,  8-H ) :   1.0615
B(  4-C , 11-C ) :   0.6920 B(  4-C , 12-C ) :   0.6575 B(  4-C , 13-H ) :  -0.1073
B(  4-C , 14-H ) :  -0.1160 B(  9-H , 11-C ) :   1.3448 B( 10-H , 11-C ) :   1.2888
B( 12-C , 13-H ) :   1.1590 B( 12-C , 14-H ) :   1.1720 B( 12-C , 15-H ) :   1.0316
B( 16-C , 17-C ) :  -0.1020 B( 16-C , 18-C ) :   0.9925 B( 16-C , 20-C ) :   0.6508
B( 16-C , 23-C ) :   0.1284 B( 16-C , 25-C ) :   0.1206 B( 16-C , 43-H ) :   0.9408
B( 17-C , 18-C ) :  -0.2976 B( 17-C , 19-C ) :   1.0160 B( 17-C , 41-H ) :  -0.3707
B( 17-C , 42-H ) :   1.4731 B( 17-C , 45-H ) :   0.2420 B( 18-C , 19-C ) :   0.6554
B( 18-C , 21-O ) :   0.1116 B( 18-C , 23-C ) :  -0.4025 B( 18-C , 25-C ) :  -0.1531
B( 18-C , 26-H ) :   0.1394 B( 18-C , 41-H ) :  -0.1138 B( 18-C , 44-H ) :   0.5990
B( 19-C , 22-C ) :   0.1362 B( 19-C , 41-H ) :   1.4430 B( 19-C , 42-H ) :  -0.4506
B( 19-C , 44-H ) :  -0.4534 B( 19-C , 45-H ) :   0.2204 B( 20-C , 33-C ) :   0.6451
B( 20-C , 43-H ) :   0.1397 B( 20-C , 45-H ) :   0.1053 B( 21-O , 33-C ) :   0.1918
B( 21-O , 43-H ) :  -0.1618 B( 22-C , 23-C ) :   1.2837 B( 22-C , 25-C ) :   0.5778
B( 22-C , 26-H ) :  -0.2227 B( 22-C , 27-H ) :  -0.1369 B( 22-C , 28-H ) :  -0.1014
B( 22-C , 32-H ) :   0.1071 B( 22-C , 44-H ) :  -0.1735 B( 23-C , 24-H ) :   1.1662
B( 23-C , 29-C ) :   0.5140 B( 23-C , 30-H ) :  -0.2034 B( 23-C , 31-H ) :  -0.1543
B( 25-C , 26-H ) :   1.0063 B( 25-C , 27-H ) :   1.0488 B( 25-C , 28-H ) :   1.1303
B( 29-C , 30-H ) :   1.0934 B( 29-C , 31-H ) :   1.0285 B( 29-C , 32-H ) :   1.0113
B( 33-C , 34-H ) :   1.0998 B( 33-C , 35-H ) :   1.0686 B( 33-C , 36-H ) :   0.9933
B( 37-C , 38-H ) :   1.0893 B( 37-C , 39-H ) :   1.2724 B( 37-C , 40-H ) :   1.1368

MP2 TOTAL ENERGY:     -776.570940290 Eh
FINAL SINGLE POINT ENERGY      -776.570940289592

DIPOLE MOMENT
-------------
                                X             Y             Z
Electronic contribution:     -5.39755       0.62976       2.93841
Nuclear contribution   :      5.92642      -1.62571      -2.86132
                        -----------------------------------------
Total Dipole Moment    :      0.52888      -0.99596       0.07709
                        -----------------------------------------
Magnitude (a.u.)       :      1.13030
Magnitude (Debye)      :      2.87300

Rotational constants in cm-1:     0.024474     0.007883     0.007272
Rotational constants in MHz :   733.700636   236.324646   218.001232

                             ****ORCA TERMINATED NORMALLY****
TOTAL RUN TIME: 0 days 11 hours 34 minutes 34 seconds 380 msec
