                         Program Version 4.2.1 -  RELEASE  -
|  1> %pal
|  2>  nprocs 32
|  3> end
|  4> !RI-MP2 aug-cc-pVQZ aug-cc-pVQZ/C TightSCF
|  5> %maxcore 4500
|  6> *xyzfile 0 2  06_1TS.xyz
|  7>
|  8>
|  9>                          ****END OF INPUT****

CARTESIAN COORDINATES (ANGSTROEM)
---------------------------------
  C     -1.015292    0.273427   -1.820316
  H     -1.990610    0.745535   -1.972916
  H     -0.253249    0.924844   -2.252571
  H     -1.005932   -0.666822   -2.375086
  C     -1.911730   -1.223986    0.749669
  H     -1.895592   -2.179387    0.221432
  H     -1.686205   -1.416860    1.800422
  H     -2.930242   -0.827737    0.692902
  C     -0.650208    1.601938    0.955633
  H     -1.619214    2.107644    0.903221
  H     -0.418447    1.435242    2.009795
  H      0.101404    2.279567    0.545339
  Si    -0.693988   -0.011696    0.001610
  H      0.840200   -0.650255    0.119404
  O      2.089418   -0.963529    0.162056
  O      2.785613    0.208670   -0.132499
  H      3.036853    0.542567    0.739156

 Total Charge           Charge          ....    0
 Multiplicity           Mult            ....    2
 Number of Electrons    NEL             ....   59
 Basis Dimension        Dim             ....  990

ORBITAL ENERGIES
----------------
                 SPIN UP ORBITALS
  NO   OCC          E(Eh)            E(eV)
   0   1.0000     -68.762126     -1871.1126
   1   1.0000     -20.645969      -561.8054
   2   1.0000     -20.624304      -561.2159
   3   1.0000     -11.205373      -304.9137
   4   1.0000     -11.205351      -304.9131
   5   1.0000     -11.202464      -304.8345
   6   1.0000      -6.111676      -166.3072
   7   1.0000      -4.222412      -114.8977
   8   1.0000      -4.216127      -114.7266
   9   1.0000      -4.216089      -114.7256
  10   1.0000      -1.498807       -40.7846
  11   1.0000      -1.191020       -32.4093
  12   1.0000      -0.974882       -26.5279
  13   1.0000      -0.932400       -25.3719
  14   1.0000      -0.930552       -25.3216
  15   1.0000      -0.746885       -20.3238
  16   1.0000      -0.718645       -19.5553
  17   1.0000      -0.637877       -17.3575
  18   1.0000      -0.619581       -16.8597
  19   1.0000      -0.577429       -15.7126
  20   1.0000      -0.569209       -15.4890
  21   1.0000      -0.567232       -15.4352
  22   1.0000      -0.550420       -14.9777
  23   1.0000      -0.548829       -14.9344
  24   1.0000      -0.537977       -14.6391
  25   1.0000      -0.504108       -13.7175
  26   1.0000      -0.495569       -13.4851
  27   1.0000      -0.442855       -12.0507
  28   1.0000      -0.441717       -12.0197
  29   1.0000      -0.358376        -9.7519
  30   0.0000       0.020639         0.5616
  31   0.0000       0.030377         0.8266
  32   0.0000       0.034373         0.9353
  33   0.0000       0.036562         0.9949
  34   0.0000       0.047056         1.2805

                 SPIN DOWN ORBITALS
  NO   OCC          E(Eh)            E(eV)
   0   1.0000     -68.758966     -1871.0266
   1   1.0000     -20.624517      -561.2216
   2   1.0000     -20.611555      -560.8689
   3   1.0000     -11.204886      -304.9004
   4   1.0000     -11.204757      -304.8969
   5   1.0000     -11.201967      -304.8210
   6   1.0000      -6.106946      -166.1785
   7   1.0000      -4.214158      -114.6731
   8   1.0000      -4.214123      -114.6721
   9   1.0000      -4.209251      -114.5395
  10   1.0000      -1.455939       -39.6181
  11   1.0000      -1.120547       -30.4916
  12   1.0000      -0.969381       -26.3782
  13   1.0000      -0.930346       -25.3160
  14   1.0000      -0.928584       -25.2681
  15   1.0000      -0.712656       -19.3924
  16   1.0000      -0.648397       -17.6438
  17   1.0000      -0.605034       -16.4638
  18   1.0000      -0.585770       -15.9396
  19   1.0000      -0.568440       -15.4680
  20   1.0000      -0.566569       -15.4171
  21   1.0000      -0.562890       -15.3170
  22   1.0000      -0.547002       -14.8847
  23   1.0000      -0.545866       -14.8538
  24   1.0000      -0.537443       -14.6246
  25   1.0000      -0.469350       -12.7717
  26   1.0000      -0.438053       -11.9200
  27   1.0000      -0.436935       -11.8896
  28   1.0000      -0.419110       -11.4046
  29   0.0000       0.019797         0.5387
  30   0.0000       0.030421         0.8278
  31   0.0000       0.034463         0.9378
  32   0.0000       0.036623         0.9966
  33   0.0000       0.047079         1.2811

MULLIKEN ATOMIC CHARGES AND SPIN POPULATIONS
--------------------------------------------
   0 C :   -1.213046    0.007125
   1 H :    0.303233    0.011169
   2 H :    0.275976   -0.002212
   3 H :    0.279333   -0.000022
   4 C :   -1.200179    0.017300
   5 H :    0.272552    0.001955
   6 H :    0.266701    0.002074
   7 H :    0.272494    0.012567
   8 C :   -1.204909    0.005634
   9 H :    0.309740    0.011763
  10 H :    0.266411    0.001235
  11 H :    0.281507   -0.000701
  12 Si:    1.592727    0.266773
  13 H :   -0.125227   -0.037909
  14 O :   -0.328615    0.743984
  15 O :   -0.423585   -0.041035
  16 H :    0.374886    0.000300
Sum of atomic charges         :    0.0000000

LOEWDIN ATOMIC CHARGES AND SPIN POPULATIONS
-------------------------------------------
   0 C :    0.965673    0.040060
   1 H :   -0.344061    0.008232
   2 H :   -0.347839    0.003724
   3 H :   -0.347790    0.003609
   4 C :    0.966095    0.043338
   5 H :   -0.349846    0.004225
   6 H :   -0.350215    0.004092
   7 H :   -0.345048    0.008907
   8 C :    0.960591    0.039107
   9 H :   -0.343923    0.008197
  10 H :   -0.348974    0.003524
  11 H :   -0.350630    0.003967
  12 Si:    0.478033    0.143185
  13 H :   -0.800091    0.113651
  14 O :    0.628821    0.541324
  15 O :    0.834501    0.034748
  16 H :   -0.905295   -0.003889

  Mayer bond orders larger than 0.100000
B(  0-C ,  1-H ) :   0.9242 B(  0-C ,  2-H ) :   0.9575 B(  0-C ,  3-H ) :   0.9451
B(  0-C , 12-Si) :   0.8474 B(  4-C ,  5-H ) :   0.9505 B(  4-C ,  6-H ) :   0.9611
B(  4-C ,  7-H ) :   0.9475 B(  4-C , 12-Si) :   0.8228 B(  8-C ,  9-H ) :   0.9278
B(  8-C , 10-H ) :   0.9551 B(  8-C , 11-H ) :   0.9486 B(  8-C , 12-Si) :   0.8354
B( 12-Si, 13-H ) :   0.4081 B( 13-H , 14-O ) :   0.2700 B( 14-O , 15-O ) :   0.8879
B( 15-O , 16-H ) :   0.8760

MP2 TOTAL ENERGY:     -559.890363190 Eh
FINAL SINGLE POINT ENERGY      -559.890363189748

DIPOLE MOMENT
-------------
                                X             Y             Z
Electronic contribution:      7.32489      -1.87115       0.05846
Nuclear contribution   :     -7.96079       2.35985       0.44596
                        -----------------------------------------
Total Dipole Moment    :     -0.63590       0.48870       0.50442
                        -----------------------------------------
Magnitude (a.u.)       :      0.94743
Magnitude (Debye)      :      2.40819

Rotational constants in cm-1:     0.099465     0.043916     0.043375
Rotational constants in MHz :  2981.877520  1316.557938  1300.352342

                             ****ORCA TERMINATED NORMALLY****
TOTAL RUN TIME: 0 days 0 hours 40 minutes 48 seconds 36 msec
