                         Program Version 4.2.1 -  RELEASE  -
|  1> %pal
|  2>  nprocs 32
|  3> end
|  4> !RI-MP2 aug-cc-pVQZ aug-cc-pVQZ/C TightSCF
|  5> %maxcore 4500
|  6> *xyzfile 1 1  05_34P1.xyz
|  7>
|  8>
|  9>                          ****END OF INPUT****

CARTESIAN COORDINATES (ANGSTROEM)
---------------------------------
  C      0.696479    0.990839    0.000003
  C     -0.696478    0.990837   -0.000010
  C     -0.000001    2.158916    0.000023
  H     -0.000002    3.236861    0.000033
  C     -1.951238    0.321128   -0.000007
  C     -3.129848    1.080794    0.000169
  C     -2.014101   -1.078445   -0.000183
  C     -4.354103    0.443329    0.000182
  H     -3.075067    2.162550    0.000300
  C     -3.243037   -1.707765   -0.000184
  H     -1.103682   -1.662691   -0.000337
  C     -4.408204   -0.947337    0.000004
  H     -5.268054    1.022566    0.000324
  H     -3.299999   -2.788306   -0.000328
  H     -5.370439   -1.444553    0.000009
  C      1.951239    0.321130   -0.000001
  C      2.014101   -1.078444    0.000077
  C      3.129850    1.080794   -0.000074
  C      3.243036   -1.707765    0.000080
  H      1.103680   -1.662689    0.000149
  C      4.354104    0.443328   -0.000079
  H      3.075069    2.162550   -0.000133
  C      4.408203   -0.947338   -0.000002
  H      3.299997   -2.788306    0.000144
  H      5.268056    1.022564   -0.000140
  H      5.370438   -1.444555   -0.000003

 Total Charge           Charge          ....    1
 Multiplicity           Mult            ....    1
 Number of Electrons    NEL             ....  100
 Basis Dimension        Dim             .... 1706

ORBITAL ENERGIES
----------------

  NO   OCC          E(Eh)            E(eV)
   0   2.0000     -11.480083      -312.3889
   1   2.0000     -11.478771      -312.3533
   2   2.0000     -11.464611      -311.9679
   3   2.0000     -11.398727      -310.1751
   4   2.0000     -11.398726      -310.1751
   5   2.0000     -11.390915      -309.9626
   6   2.0000     -11.390914      -309.9625
   7   2.0000     -11.389452      -309.9227
   8   2.0000     -11.389451      -309.9227
   9   2.0000     -11.380602      -309.6819
  10   2.0000     -11.380602      -309.6819
  11   2.0000     -11.366948      -309.3104
  12   2.0000     -11.366948      -309.3104
  13   2.0000     -11.366389      -309.2952
  14   2.0000     -11.366389      -309.2952
  15   2.0000      -1.428744       -38.8781
  16   2.0000      -1.308491       -35.6058
  17   2.0000      -1.302117       -35.4324
  18   2.0000      -1.191733       -32.4287
  19   2.0000      -1.179021       -32.0828
  20   2.0000      -1.164816       -31.6963
  21   2.0000      -1.163678       -31.6653
  22   2.0000      -1.028890       -27.9975
  23   2.0000      -1.017708       -27.6932
  24   2.0000      -0.981832       -26.7170
  25   2.0000      -0.971921       -26.4473
  26   2.0000      -0.951366       -25.8880
  27   2.0000      -0.902817       -24.5669
  28   2.0000      -0.881799       -23.9950
  29   2.0000      -0.823308       -22.4033
  30   2.0000      -0.817751       -22.2521
  31   2.0000      -0.788084       -21.4449
  32   2.0000      -0.781990       -21.2790
  33   2.0000      -0.755851       -20.5678
  34   2.0000      -0.750363       -20.4184
  35   2.0000      -0.736713       -20.0470
  36   2.0000      -0.730781       -19.8856
  37   2.0000      -0.726401       -19.7664
  38   2.0000      -0.700604       -19.0644
  39   2.0000      -0.688455       -18.7338
  40   2.0000      -0.656758       -17.8713
  41   2.0000      -0.650206       -17.6930
  42   2.0000      -0.644732       -17.5440
  43   2.0000      -0.634213       -17.2578
  44   2.0000      -0.630032       -17.1441
  45   2.0000      -0.627411       -17.0727
  46   2.0000      -0.503738       -13.7074
  47   2.0000      -0.480735       -13.0815
  48   2.0000      -0.479404       -13.0452
  49   2.0000      -0.468099       -12.7376
  50   0.0000      -0.097581        -2.6553
  51   0.0000      -0.083130        -2.2621
  52   0.0000      -0.069414        -1.8889
  53   0.0000      -0.057193        -1.5563
  54   0.0000      -0.052478        -1.4280

MULLIKEN ATOMIC CHARGES
-----------------------
   0 C :   -0.063905
   1 C :   -0.063863
   2 C :   -0.592285
   3 H :    0.645858
   4 C :    0.863845
   5 C :   -0.435505
   6 C :   -0.498961
   7 C :   -0.346501
   8 H :    0.326642
   9 C :   -0.438258
  10 H :    0.604899
  11 C :   -0.419491
  12 H :    0.262321
  13 H :    0.264605
  14 H :    0.353231
  15 C :    0.863793
  16 C :   -0.498076
  17 C :   -0.435805
  18 C :   -0.438472
  19 H :    0.605173
  20 C :   -0.346778
  21 H :    0.326664
  22 C :   -0.419271
  23 H :    0.264497
  24 H :    0.262384
  25 H :    0.353259
Sum of atomic charges:    1.0000000

LOEWDIN ATOMIC CHARGES
----------------------
   0 C :    0.038626
   1 C :    0.038626
   2 C :    0.575814
   3 H :   -0.235696
   4 C :   -0.069385
   5 C :    0.356569
   6 C :    0.360496
   7 C :    0.389854
   8 H :   -0.296840
   9 C :    0.391943
  10 H :   -0.323200
  11 C :    0.386141
  12 H :   -0.304908
  13 H :   -0.304859
  14 H :   -0.294497
  15 C :   -0.069385
  16 C :    0.360496
  17 C :    0.356569
  18 C :    0.391943
  19 H :   -0.323199
  20 C :    0.389854
  21 H :   -0.296840
  22 C :    0.386140
  23 H :   -0.304859
  24 H :   -0.304908
  25 H :   -0.294496

  Mayer bond orders larger than 0.100000
B(  0-C ,  1-C ) :   0.8743 B(  0-C ,  2-C ) :   1.6812 B(  0-C ,  4-C ) :  -0.4737
B(  0-C , 10-H ) :   0.1031 B(  0-C , 15-C ) :   0.6173 B(  0-C , 16-C ) :  -0.5140
B(  0-C , 17-C ) :  -0.4433 B(  0-C , 18-C ) :   0.1715 B(  0-C , 22-C ) :  -0.1627
B(  1-C ,  2-C ) :   1.6810 B(  1-C ,  4-C ) :   0.6176 B(  1-C ,  5-C ) :  -0.4438
B(  1-C ,  6-C ) :  -0.5132 B(  1-C ,  9-C ) :   0.1720 B(  1-C , 11-C ) :  -0.1626
B(  1-C , 15-C ) :  -0.4739 B(  1-C , 19-H ) :   0.1028 B(  2-C ,  3-H ) :   0.5469
B(  2-C ,  4-C ) :  -0.3615 B(  2-C , 15-C ) :  -0.3614 B(  4-C ,  5-C ) :   0.9627
B(  4-C ,  6-C ) :   0.9344 B(  4-C ,  7-C ) :  -0.5497 B(  4-C ,  8-H ) :  -0.1151
B(  4-C ,  9-C ) :  -0.5749 B(  4-C , 10-H ) :  -0.2163 B(  4-C , 15-C ) :   0.2795
B(  5-C ,  6-C ) :   0.1730 B(  5-C ,  7-C ) :   1.3378 B(  5-C ,  8-H ) :   0.9518
B(  5-C , 12-H ) :  -0.1507 B(  6-C ,  9-C ) :   1.2306 B(  6-C , 10-H ) :   0.6193
B(  7-C , 11-C ) :   1.1832 B(  7-C , 12-H ) :   1.1472 B(  9-C , 11-C ) :   1.3022
B(  9-C , 13-H ) :   1.0857 B(  9-C , 14-H ) :  -0.1159 B( 11-C , 12-H ) :  -0.1013
B( 11-C , 14-H ) :   0.9939 B( 15-C , 16-C ) :   0.9342 B( 15-C , 17-C ) :   0.9631
B( 15-C , 18-C ) :  -0.5751 B( 15-C , 19-H ) :  -0.2166 B( 15-C , 20-C ) :  -0.5494
B( 15-C , 21-H ) :  -0.1151 B( 16-C , 17-C ) :   0.1731 B( 16-C , 18-C ) :   1.2310
B( 16-C , 19-H ) :   0.6193 B( 17-C , 20-C ) :   1.3375 B( 17-C , 21-H ) :   0.9517
B( 17-C , 24-H ) :  -0.1506 B( 18-C , 22-C ) :   1.3034 B( 18-C , 23-H ) :   1.0857
B( 18-C , 25-H ) :  -0.1157 B( 20-C , 22-C ) :   1.1835 B( 20-C , 24-H ) :   1.1471
B( 22-C , 24-H ) :  -0.1013 B( 22-C , 25-H ) :   0.9937

MP2 TOTAL ENERGY:     -576.836014223 Eh
FINAL SINGLE POINT ENERGY      -576.836014223161

DIPOLE MOMENT
-------------
                                X             Y             Z
Electronic contribution:      0.00000       3.03783      -0.00001
Nuclear contribution   :     -0.00000      -2.16611       0.00002
                        -----------------------------------------
Total Dipole Moment    :     -0.00000       0.87172       0.00001
                        -----------------------------------------
Magnitude (a.u.)       :      0.87172
Magnitude (Debye)      :      2.21573

Rotational constants in cm-1:     0.059798     0.009533     0.008222
Rotational constants in MHz :  1792.711466   285.798400   246.500668

                             ****ORCA TERMINATED NORMALLY****
TOTAL RUN TIME: 0 days 2 hours 20 minutes 53 seconds 491 msec
