                         Program Version 4.2.1 -  RELEASE  -
|  1> %pal
|  2>  nprocs 32
|  3> end
|  4> !RI-MP2 aug-cc-pVQZ aug-cc-pVQZ/C TightSCF
|  5> %maxcore 4500
|  6> *xyzfile 0 2  04_26TS.xyz
|  7>
|  8>
|  9>                          ****END OF INPUT****

CARTESIAN COORDINATES (ANGSTROEM)
---------------------------------
  N      2.581719    0.645655   -0.993468
  H      3.188550    0.003068   -1.490533
  C      1.614037    0.046548   -0.138935
  H      0.506599    0.608669   -0.442239
  C      1.382519   -1.407938   -0.472642
  C      1.774105    0.303281    1.369405
  H      0.923109   -1.485740   -1.458324
  H      0.712314   -1.846511    0.259311
  S      2.910139   -2.409342   -0.561542
  O      1.898950   -0.649321    2.116162
  H      3.217124   -2.280758    0.741330
  N      1.755821    1.583170    1.762416
  H      1.651085    2.333173    1.087221
  H      1.869551    1.778461    2.744369
  C      2.705811    1.973360   -1.248128
  H      3.480513    2.189672   -1.997988
  O      2.046154    2.844506   -0.723119
  O     -0.553297    1.065272   -0.967463
  O     -1.377828   -0.033193   -1.137633
  C     -2.335023   -0.108660   -0.131634
  Cl    -3.288987   -1.526551   -0.576222
  Cl    -1.568357   -0.352122    1.463214
  Cl    -3.344679    1.348673   -0.087760

 Total Charge           Charge          ....    0
 Multiplicity           Mult            ....    2
 Number of Electrons    NEL             ....  151
 Basis Dimension        Dim             .... 1584

ORBITAL ENERGIES
----------------
                 SPIN UP ORBITALS
  NO   OCC          E(Eh)            E(eV)
   0   1.0000    -104.877336     -2853.8574
   1   1.0000    -104.871479     -2853.6980
   2   1.0000    -104.871294     -2853.6930
   3   1.0000     -91.964521     -2502.4818
   4   1.0000     -20.709153      -563.5247
   5   1.0000     -20.697229      -563.2002
   6   1.0000     -20.557867      -559.4080
   7   1.0000     -20.533772      -558.7523
   8   1.0000     -15.624540      -425.1653
   9   1.0000     -15.585463      -424.1020
  10   1.0000     -11.501731      -312.9780
  11   1.0000     -11.382145      -309.7239
  12   1.0000     -11.367738      -309.3319
  13   1.0000     -11.331020      -308.3327
  14   1.0000     -11.281808      -306.9936
  15   1.0000     -10.602993      -288.5221
  16   1.0000     -10.597311      -288.3675
  17   1.0000     -10.597014      -288.3594
  18   1.0000      -8.967241      -244.0110
  19   1.0000      -8.069916      -219.5936
  20   1.0000      -8.067933      -219.5396
  21   1.0000      -8.067899      -219.5387
  22   1.0000      -8.064291      -219.4405
  23   1.0000      -8.064044      -219.4338
  24   1.0000      -8.062255      -219.3851
  25   1.0000      -8.062219      -219.3841
  26   1.0000      -8.061970      -219.3774
  27   1.0000      -8.061946      -219.3767
  28   1.0000      -6.649287      -180.9363
  29   1.0000      -6.648053      -180.9027
  30   1.0000      -6.646987      -180.8737
  31   1.0000      -1.586631       -43.1744
  32   1.0000      -1.425117       -38.7794
  33   1.0000      -1.403236       -38.1840
  34   1.0000      -1.321036       -35.9472
  35   1.0000      -1.285005       -34.9668
  36   1.0000      -1.224164       -33.3112
  37   1.0000      -1.196270       -32.5522
  38   1.0000      -1.127921       -30.6923
  39   1.0000      -1.124796       -30.6073
  40   1.0000      -1.098168       -29.8827
  41   1.0000      -0.996143       -27.1064
  42   1.0000      -0.881864       -23.9968
  43   1.0000      -0.873900       -23.7800
  44   1.0000      -0.866146       -23.5690
  45   1.0000      -0.821061       -22.3422
  46   1.0000      -0.786575       -21.4038
  47   1.0000      -0.762540       -20.7498
  48   1.0000      -0.751594       -20.4519
  49   1.0000      -0.733738       -19.9660
  50   1.0000      -0.729589       -19.8531
  51   1.0000      -0.698323       -19.0023
  52   1.0000      -0.682990       -18.5851
  53   1.0000      -0.649510       -17.6741
  54   1.0000      -0.640475       -17.4282
  55   1.0000      -0.632580       -17.2134
  56   1.0000      -0.610837       -16.6217
  57   1.0000      -0.598017       -16.2729
  58   1.0000      -0.592154       -16.1133
  59   1.0000      -0.584975       -15.9180
  60   1.0000      -0.566700       -15.4207
  61   1.0000      -0.561892       -15.2899
  62   1.0000      -0.545646       -14.8478
  63   1.0000      -0.513060       -13.9611
  64   1.0000      -0.510776       -13.8989
  65   1.0000      -0.506727       -13.7887
  66   1.0000      -0.499541       -13.5932
  67   1.0000      -0.478728       -13.0269
  68   1.0000      -0.474728       -12.9180
  69   1.0000      -0.472260       -12.8509
  70   1.0000      -0.468764       -12.7557
  71   1.0000      -0.460076       -12.5193
  72   1.0000      -0.453607       -12.3433
  73   1.0000      -0.426322       -11.6008
  74   1.0000      -0.395739       -10.7686
  75   1.0000      -0.377403       -10.2697
  76   0.0000       0.019736         0.5370
  77   0.0000       0.030232         0.8227
  78   0.0000       0.034349         0.9347
  79   0.0000       0.039351         1.0708
  80   0.0000       0.046851         1.2749

                 SPIN DOWN ORBITALS
  NO   OCC          E(Eh)            E(eV)
   0   1.0000    -104.877417     -2853.8596
   1   1.0000    -104.871463     -2853.6976
   2   1.0000    -104.871269     -2853.6923
   3   1.0000     -91.964109     -2502.4706
   4   1.0000     -20.696708      -563.1861
   5   1.0000     -20.675778      -562.6165
   6   1.0000     -20.556747      -559.3775
   7   1.0000     -20.531878      -558.7008
   8   1.0000     -15.624785      -425.1720
   9   1.0000     -15.585508      -424.1032
  10   1.0000     -11.501832      -312.9808
  11   1.0000     -11.382234      -309.7263
  12   1.0000     -11.368429      -309.3507
  13   1.0000     -11.317089      -307.9536
  14   1.0000     -11.283311      -307.0345
  15   1.0000     -10.603080      -288.5245
  16   1.0000     -10.597296      -288.3671
  17   1.0000     -10.596993      -288.3588
  18   1.0000      -8.966787      -243.9987
  19   1.0000      -8.070173      -219.6006
  20   1.0000      -8.068037      -219.5424
  21   1.0000      -8.067961      -219.5404
  22   1.0000      -8.064185      -219.4376
  23   1.0000      -8.063943      -219.4310
  24   1.0000      -8.062274      -219.3856
  25   1.0000      -8.062211      -219.3839
  26   1.0000      -8.061955      -219.3769
  27   1.0000      -8.061913      -219.3758
  28   1.0000      -6.648250      -180.9081
  29   1.0000      -6.647100      -180.8768
  30   1.0000      -6.646681      -180.8654
  31   1.0000      -1.551012       -42.2052
  32   1.0000      -1.422523       -38.7088
  33   1.0000      -1.399323       -38.0775
  34   1.0000      -1.281359       -34.8676
  35   1.0000      -1.270617       -34.5752
  36   1.0000      -1.223511       -33.2934
  37   1.0000      -1.170872       -31.8611
  38   1.0000      -1.126327       -30.6489
  39   1.0000      -1.124326       -30.5945
  40   1.0000      -1.087699       -29.5978
  41   1.0000      -0.978271       -26.6201
  42   1.0000      -0.879721       -23.9384
  43   1.0000      -0.869610       -23.6633
  44   1.0000      -0.858868       -23.3710
  45   1.0000      -0.792634       -21.5687
  46   1.0000      -0.759405       -20.6645
  47   1.0000      -0.750409       -20.4197
  48   1.0000      -0.734695       -19.9921
  49   1.0000      -0.726958       -19.7815
  50   1.0000      -0.710155       -19.3243
  51   1.0000      -0.695312       -18.9204
  52   1.0000      -0.657227       -17.8840
  53   1.0000      -0.638875       -17.3847
  54   1.0000      -0.635392       -17.2899
  55   1.0000      -0.606344       -16.4995
  56   1.0000      -0.598936       -16.2979
  57   1.0000      -0.594914       -16.1884
  58   1.0000      -0.585039       -15.9197
  59   1.0000      -0.574992       -15.6463
  60   1.0000      -0.549320       -14.9478
  61   1.0000      -0.538325       -14.6486
  62   1.0000      -0.516941       -14.0667
  63   1.0000      -0.509202       -13.8561
  64   1.0000      -0.503323       -13.6961
  65   1.0000      -0.501115       -13.6360
  66   1.0000      -0.474396       -12.9090
  67   1.0000      -0.473741       -12.8911
  68   1.0000      -0.471400       -12.8275
  69   1.0000      -0.468134       -12.7386
  70   1.0000      -0.461482       -12.5576
  71   1.0000      -0.455504       -12.3949
  72   1.0000      -0.419381       -11.4119
  73   1.0000      -0.410362       -11.1665
  74   1.0000      -0.375580       -10.2200
  75   0.0000       0.010198         0.2775
  76   0.0000       0.019961         0.5432
  77   0.0000       0.030267         0.8236
  78   0.0000       0.034810         0.9472
  79   0.0000       0.039468         1.0740

MULLIKEN ATOMIC CHARGES AND SPIN POPULATIONS
--------------------------------------------
   0 N :   -0.653212   -0.013118
   1 H :    0.143919    0.010467
   2 C :    1.178059    0.563372
   3 H :    0.719780   -0.314228
   4 C :   -0.611821   -0.057226
   5 C :    1.053281   -0.044927
   6 H :    0.239912    0.014478
   7 H :    0.281175    0.003993
   8 S :   -0.267510    0.043026
   9 O :   -0.993902    0.037999
  10 H :    0.025401   -0.001997
  11 N :   -0.916577    0.002017
  12 H :    0.351592    0.001194
  13 H :    0.155747   -0.001715
  14 C :    0.238276   -0.015851
  15 H :    0.463498   -0.000286
  16 O :   -0.826716    0.024002
  17 O :   -0.377059    0.785509
  18 O :   -0.367757   -0.036258
  19 C :    0.799697    0.000431
  20 Cl:   -0.203152   -0.004940
  21 Cl:   -0.220147    0.002101
  22 Cl:   -0.212485    0.001956
Sum of atomic charges         :   -0.0000000

LOEWDIN ATOMIC CHARGES AND SPIN POPULATIONS
-------------------------------------------
   0 N :    0.819658    0.042774
   1 H :   -0.575505    0.006637
   2 C :   -0.300184    0.176729
   3 H :   -1.020749    0.070531
   4 C :    0.065385    0.022844
   5 C :   -0.877633    0.031513
   6 H :   -0.372242   -0.000308
   7 H :   -0.418056   -0.001426
   8 S :    1.651871    0.020072
   9 O :    0.717148    0.028042
  10 H :   -0.772930    0.005471
  11 N :    1.242067   -0.002525
  12 H :   -0.701485   -0.000246
  13 H :   -0.471191   -0.000581
  14 C :   -0.345964    0.004765
  15 H :   -0.336630    0.000459
  16 O :    0.780135    0.016763
  17 O :    0.713355    0.535199
  18 O :    0.185049    0.051579
  19 C :   -2.989404   -0.004111
  20 Cl:    0.983451   -0.004922
  21 Cl:    1.046622   -0.001581
  22 Cl:    0.977232    0.002322

  Mayer bond orders larger than 0.100000
B(  0-N ,  1-H ) :   1.1115 B(  0-N ,  2-C ) :   0.2539 B(  0-N , 14-C ) :   1.1600
B(  0-N , 15-H ) :  -0.1188 B(  1-H ,  2-C ) :  -0.1044 B(  2-C ,  3-H ) :   0.5326
B(  2-C ,  4-C ) :   0.4957 B(  2-C ,  5-C ) :   0.9820 B(  2-C ,  8-S ) :  -0.2954
B(  2-C ,  9-O ) :   0.1372 B(  2-C , 11-N ) :  -0.2155 B(  2-C , 17-O ) :   0.2916
B(  2-C , 21-Cl) :  -0.1241 B(  3-H , 17-O ) :  -0.3697 B(  3-H , 18-O ) :  -0.1763
B(  3-H , 21-Cl) :  -0.1048 B(  4-C ,  6-H ) :   0.9941 B(  4-C ,  7-H ) :   0.9755
B(  4-C ,  8-S ) :   0.8371 B(  5-C ,  9-O ) :   0.8928 B(  5-C , 11-N ) :   1.1693
B(  8-S , 10-H ) :   1.1034 B(  9-O , 11-N ) :   0.2202 B( 11-N , 12-H ) :   0.8607
B( 11-N , 13-H ) :   1.0940 B( 14-C , 15-H ) :   0.8405 B( 14-C , 16-O ) :   1.5353
B( 17-O , 18-O ) :   0.8571 B( 18-O , 19-C ) :   0.8622 B( 19-C , 20-Cl) :   0.6864
B( 19-C , 21-Cl) :   0.8683 B( 19-C , 22-Cl) :   0.7251

MP2 TOTAL ENERGY:    -2381.720168908 Eh
FINAL SINGLE POINT ENERGY     -2381.720168908186

DIPOLE MOMENT
-------------
                                X             Y             Z
Electronic contribution:    -25.33074      -1.82448       1.01633
Nuclear contribution   :     25.88511       2.08652      -1.60500
                        -----------------------------------------
Total Dipole Moment    :      0.55437       0.26204      -0.58867
                        -----------------------------------------
Magnitude (a.u.)       :      0.85002
Magnitude (Debye)      :      2.16057

Rotational constants in cm-1:     0.017506     0.008213     0.007177
Rotational constants in MHz :   524.815912   246.216982   215.172758

                             ****ORCA TERMINATED NORMALLY****
TOTAL RUN TIME: 0 days 3 hours 46 minutes 50 seconds 539 msec
