                         Program Version 4.2.1 -  RELEASE  -
|  1> %pal
|  2>  nprocs 32
|  3> end
|  4> !RI-MP2 aug-cc-pVQZ aug-cc-pVQZ/C TightSCF
|  5> %maxcore 4500
|  6> *xyzfile 0 1  02_22R.xyz
|  7>
|  8>
|  9>                          ****END OF INPUT****

CARTESIAN COORDINATES (ANGSTROEM)
---------------------------------
  C     -2.857239    0.908395   -0.235644
  C     -1.458494    1.389203   -0.391747
  C     -0.730611    2.005571    0.538371
  C      0.730611    2.005545    0.538399
  C      1.458534    1.389254   -0.391738
  C      0.600848   -1.183923    0.376213
  C      2.059170   -1.279812    0.532709
  N      2.880627   -0.544561   -0.430081
  H      2.332781   -2.333437    0.440273
  H      2.308972   -0.983985    1.567908
  C     -0.600863   -1.183923    0.376227
  C      2.857255    0.908393   -0.235577
  H      3.260177    1.194239    0.752343
  H      3.513567    1.339057   -0.998024
  C     -2.059186   -1.279782    0.532746
  N     -2.880636   -0.544568   -0.430080
  H     -2.308973   -0.983894    1.567930
  H     -2.332816   -2.333408    0.440371
  C     -4.242602   -1.045773   -0.421723
  H     -4.252405   -2.106691   -0.676436
  H     -4.830516   -0.514131   -1.171196
  H     -4.741256   -0.920102    0.555723
  C      4.242586   -1.045788   -0.421746
  H      4.252372   -2.106696   -0.676502
  H      4.741242   -0.920167    0.555706
  H      4.830510   -0.514126   -1.171197
  H     -3.513495    1.339041   -0.998150
  H     -3.260210    1.194300    0.752239
  H     -0.987455    1.039358   -1.303232
  H     -1.214336    2.335497    1.453820
  H      0.987549    1.039531   -1.303300
  H      1.214300    2.335363    1.453908

 Total Charge           Charge          ....    0
 Multiplicity           Mult            ....    1
 Number of Electrons    NEL             ....  104
 Basis Dimension        Dim             .... 1948

ORBITAL ENERGIES
----------------

  NO   OCC          E(Eh)            E(eV)
   0   2.0000     -15.552655      -423.2093
   1   2.0000     -15.552655      -423.2092
   2   2.0000     -11.272437      -306.7386
   3   2.0000     -11.272436      -306.7386
   4   2.0000     -11.252251      -306.1893
   5   2.0000     -11.252250      -306.1893
   6   2.0000     -11.245317      -306.0006
   7   2.0000     -11.245317      -306.0006
   8   2.0000     -11.221798      -305.3606
   9   2.0000     -11.221071      -305.3409
  10   2.0000     -11.218630      -305.2745
  11   2.0000     -11.218549      -305.2722
  12   2.0000     -11.212502      -305.1077
  13   2.0000     -11.208652      -305.0029
  14   2.0000      -1.238347       -33.6971
  15   2.0000      -1.236934       -33.6587
  16   2.0000      -1.097755       -29.8714
  17   2.0000      -1.050935       -28.5974
  18   2.0000      -1.037135       -28.2219
  19   2.0000      -0.987162       -26.8620
  20   2.0000      -0.967920       -26.3384
  21   2.0000      -0.926357       -25.2074
  22   2.0000      -0.912678       -24.8352
  23   2.0000      -0.834781       -22.7156
  24   2.0000      -0.820459       -22.3258
  25   2.0000      -0.790560       -21.5122
  26   2.0000      -0.724438       -19.7130
  27   2.0000      -0.681534       -18.5455
  28   2.0000      -0.672854       -18.3093
  29   2.0000      -0.659116       -17.9355
  30   2.0000      -0.650112       -17.6904
  31   2.0000      -0.649198       -17.6656
  32   2.0000      -0.625605       -17.0236
  33   2.0000      -0.616364       -16.7721
  34   2.0000      -0.593423       -16.1479
  35   2.0000      -0.575384       -15.6570
  36   2.0000      -0.561407       -15.2766
  37   2.0000      -0.556772       -15.1505
  38   2.0000      -0.540011       -14.6944
  39   2.0000      -0.538891       -14.6640
  40   2.0000      -0.528673       -14.3859
  41   2.0000      -0.525905       -14.3106
  42   2.0000      -0.525457       -14.2984
  43   2.0000      -0.512614       -13.9489
  44   2.0000      -0.485271       -13.2049
  45   2.0000      -0.478117       -13.0102
  46   2.0000      -0.442289       -12.0353
  47   2.0000      -0.374785       -10.1984
  48   2.0000      -0.365380        -9.9425
  49   2.0000      -0.360026        -9.7968
  50   2.0000      -0.345830        -9.4105
  51   2.0000      -0.301335        -8.1997
  52   0.0000       0.024680         0.6716
  53   0.0000       0.025314         0.6888
  54   0.0000       0.030466         0.8290
  55   0.0000       0.033248         0.9047
  56   0.0000       0.038343         1.0434

MULLIKEN ATOMIC CHARGES
-----------------------
   0 C :   -0.319251
   1 C :   -0.178519
   2 C :   -0.258692
   3 C :   -0.259029
   4 C :   -0.178803
   5 C :   -0.133694
   6 C :   -0.037558
   7 N :   -0.329903
   8 H :    0.264314
   9 H :    0.179005
  10 C :   -0.133963
  11 C :   -0.319572
  12 H :    0.175161
  13 H :    0.320562
  14 C :   -0.037444
  15 N :   -0.330055
  16 H :    0.179139
  17 H :    0.264302
  18 C :   -0.986306
  19 H :    0.282825
  20 H :    0.277041
  21 H :    0.275142
  22 C :   -0.986228
  23 H :    0.282835
  24 H :    0.275058
  25 H :    0.277072
  26 H :    0.320620
  27 H :    0.175313
  28 H :    0.295177
  29 H :    0.175134
  30 H :    0.295137
  31 H :    0.175180
Sum of atomic charges:   -0.0000000

LOEWDIN ATOMIC CHARGES
----------------------
   0 C :    0.317464
   1 C :    0.330885
   2 C :    0.372048
   3 C :    0.372038
   4 C :    0.330894
   5 C :    0.183264
   6 C :    0.273453
   7 N :    0.486843
   8 H :   -0.334523
   9 H :   -0.283128
  10 C :    0.183259
  11 C :    0.317460
  12 H :   -0.279110
  13 H :   -0.292652
  14 C :    0.273456
  15 N :    0.486842
  16 H :   -0.283127
  17 H :   -0.334520
  18 C :    0.739560
  19 H :   -0.291677
  20 H :   -0.294058
  21 H :   -0.259885
  22 C :    0.739560
  23 H :   -0.291678
  24 H :   -0.259884
  25 H :   -0.294058
  26 H :   -0.292648
  27 H :   -0.279108
  28 H :   -0.344162
  29 H :   -0.324333
  30 H :   -0.344141
  31 H :   -0.324332

  Mayer bond orders larger than 0.100000
B(  0-C ,  1-C ) :   0.7113 B(  0-C ,  2-C ) :  -0.2582 B(  0-C , 15-N ) :   0.7971
B(  0-C , 26-H ) :   0.9479 B(  0-C , 27-H ) :   1.0554 B(  1-C ,  2-C ) :   1.5616
B(  1-C ,  3-C ) :  -0.3427 B(  1-C , 26-H ) :  -0.1784 B(  1-C , 28-H ) :   0.9839
B(  2-C ,  3-C ) :   0.7102 B(  2-C ,  4-C ) :  -0.3428 B(  2-C , 29-H ) :   1.1191
B(  2-C , 31-H ) :  -0.1711 B(  3-C ,  4-C ) :   1.5618 B(  3-C , 11-C ) :  -0.2579
B(  3-C , 29-H ) :  -0.1710 B(  3-C , 31-H ) :   1.1190 B(  4-C , 11-C ) :   0.7116
B(  4-C , 13-H ) :  -0.1785 B(  4-C , 30-H ) :   0.9840 B(  5-C ,  6-C ) :   0.6243
B(  5-C ,  7-N ) :  -0.1990 B(  5-C ,  8-H ) :  -0.1270 B(  5-C , 10-C ) :   3.0976
B(  5-C , 14-C ) :  -0.1570 B(  6-C ,  7-N ) :   0.8519 B(  6-C ,  8-H ) :   1.0613
B(  6-C ,  9-H ) :   0.9738 B(  6-C , 10-C ) :  -0.1567 B(  7-N , 11-C ) :   0.7972
B(  7-N , 22-C ) :   0.8707 B( 10-C , 14-C ) :   0.6242 B( 10-C , 15-N ) :  -0.1989
B( 10-C , 17-H ) :  -0.1271 B( 11-C , 12-H ) :   1.0555 B( 11-C , 13-H ) :   0.9479
B( 14-C , 15-N ) :   0.8515 B( 14-C , 16-H ) :   0.9737 B( 14-C , 17-H ) :   1.0615
B( 15-N , 18-C ) :   0.8707 B( 18-C , 19-H ) :   0.9897 B( 18-C , 20-H ) :   0.9805
B( 18-C , 21-H ) :   0.9763 B( 22-C , 23-H ) :   0.9897 B( 22-C , 24-H ) :   0.9764
B( 22-C , 25-H ) :   0.9804

MP2 TOTAL ENERGY:     -576.431835080 Eh
FINAL SINGLE POINT ENERGY      -576.431835079961

DIPOLE MOMENT
-------------
                                X             Y             Z
Electronic contribution:     -0.00003       1.74521      -0.69501
Nuclear contribution   :      0.00001      -1.95704       1.26983
                        -----------------------------------------
Total Dipole Moment    :     -0.00002      -0.21183       0.57482
                        -----------------------------------------
Magnitude (a.u.)       :      0.61261
Magnitude (Debye)      :      1.55713

Rotational constants in cm-1:     0.046021     0.013075     0.010866
Rotational constants in MHz :  1379.679831   391.968613   325.763408

                             ****ORCA TERMINATED NORMALLY****
TOTAL RUN TIME: 0 days 3 hours 11 minutes 53 seconds 400 msec
