                         Program Version 4.2.1 -  RELEASE  -
|  1> %pal
|  2>  nprocs 32
|  3> end
|  4> !RI-MP2 aug-cc-pVQZ aug-cc-pVQZ/C TightSCF
|  5> %maxcore 4500
|  6> *xyzfile 0 2  04_13R2.xyz
|  7>
|  8>
|  9>                          ****END OF INPUT****

CARTESIAN COORDINATES (ANGSTROEM)
---------------------------------
  O      1.093069   -0.139327    0.000000
  N      0.000000    0.318461    0.000000
  O     -1.093069   -0.139326    0.000000

 Total Charge           Charge          ....    0
 Multiplicity           Mult            ....    2
 Number of Electrons    NEL             ....   23
 Basis Dimension        Dim             ....  240

ORBITAL ENERGIES
----------------
                 SPIN UP ORBITALS
  NO   OCC          E(Eh)            E(eV)
   0   1.0000     -20.685815      -562.8896
   1   1.0000     -20.685766      -562.8883
   2   1.0000     -15.877980      -432.0618
   3   1.0000      -1.687667       -45.9237
   4   1.0000      -1.505925       -40.9783
   5   1.0000      -0.970632       -26.4122
   6   1.0000      -0.841537       -22.8994
   7   1.0000      -0.808248       -21.9935
   8   1.0000      -0.772012       -21.0075
   9   1.0000      -0.599545       -16.3144
  10   1.0000      -0.531693       -14.4681
  11   1.0000      -0.501428       -13.6446
  12   0.0000       0.065445         1.7808
  13   0.0000       0.073124         1.9898
  14   0.0000       0.081260         2.2112
  15   0.0000       0.091619         2.4931
  16   0.0000       0.100160         2.7255

                 SPIN DOWN ORBITALS
  NO   OCC          E(Eh)            E(eV)
   0   1.0000     -20.671586      -562.5025
   1   1.0000     -20.671515      -562.5005
   2   1.0000     -15.854782      -431.4306
   3   1.0000      -1.644831       -44.7581
   4   1.0000      -1.464529       -39.8519
   5   1.0000      -0.885041       -24.0832
   6   1.0000      -0.760493       -20.6941
   7   1.0000      -0.754286       -20.5252
   8   1.0000      -0.721190       -19.6246
   9   1.0000      -0.528720       -14.3872
  10   1.0000      -0.499390       -13.5891
  11   0.0000       0.017128         0.4661
  12   0.0000       0.081844         2.2271
  13   0.0000       0.081873         2.2279
  14   0.0000       0.097312         2.6480
  15   0.0000       0.099468         2.7067

MULLIKEN ATOMIC CHARGES AND SPIN POPULATIONS
--------------------------------------------
   0 O :   -0.382429    0.240486
   1 N :    0.764856    0.519028
   2 O :   -0.382428    0.240486
Sum of atomic charges         :    0.0000000

LOEWDIN ATOMIC CHARGES AND SPIN POPULATIONS
-------------------------------------------
   0 O :    0.364470    0.275531
   1 N :   -0.728941    0.448938
   2 O :    0.364471    0.275531

  Mayer bond orders larger than 0.100000
B(  0-O ,  1-N ) :   1.7609 B(  0-O ,  2-O ) :   0.1932 B(  1-N ,  2-O ) :   1.7609

MP2 TOTAL ENERGY:     -204.851051859 Eh
FINAL SINGLE POINT ENERGY      -204.851051859266

DIPOLE MOMENT
-------------
                                X             Y             Z
Electronic contribution:     -0.00000       0.25976       0.00000
Nuclear contribution   :      0.00000      -0.00237       0.00000
                        -----------------------------------------
Total Dipole Moment    :     -0.00000       0.25739       0.00000
                        -----------------------------------------
Magnitude (a.u.)       :      0.25739
Magnitude (Debye)      :      0.65423

Rotational constants in cm-1:     8.256693     0.440939     0.418585
Rotational constants in MHz : 247529.415491 13219.030802 12548.872350

                             ****ORCA TERMINATED NORMALLY****
TOTAL RUN TIME: 0 days 0 hours 0 minutes 26 seconds 152 msec
