                         Program Version 4.2.1 -  RELEASE  -
|  1> %pal
|  2>  nprocs 32
|  3> end
|  4> !RI-MP2 aug-cc-pVQZ aug-cc-pVQZ/C TightSCF
|  5> %maxcore 4500
|  6> *xyzfile -1 1  05_17P2.xyz
|  7>
|  8>
|  9>                          ****END OF INPUT****

CARTESIAN COORDINATES (ANGSTROEM)
---------------------------------
  C      6.187026    0.737423    0.686647
  C      5.064525    1.141310   -0.275210
  H      6.916776    1.543139    0.822383
  H      6.722525   -0.139572    0.310780
  H      5.775820    0.474973    1.664364
  C      4.067881    0.048355   -0.522059
  C      2.767270    0.115797   -0.187230
  C      1.757620   -0.883647   -0.381358
  C      0.461225   -0.676412    0.021876
  O     -0.041866    0.289406    0.643840
  S     -0.692926   -2.048891   -0.494993
  C     -2.023572   -1.873065    0.736258
  C     -3.178024   -0.971091    0.323409
  H     -1.572689   -1.507107    1.659889
  H     -2.403282   -2.879811    0.918275
  N     -2.728648    0.399316    0.226925
  H     -3.985115   -1.042773    1.062002
  H     -3.594590   -1.299309   -0.634148
  C     -3.557209    1.398791   -0.093540
  O     -4.762300    1.251257   -0.291975
  C     -2.906843    2.763319   -0.195077
  H     -3.083775    3.158871   -1.196583
  H     -1.834544    2.730712   -0.000982
  H     -3.388790    3.436076    0.516514
  H     -1.714421    0.551391    0.361688
  H      4.541316    2.015447    0.126496
  H      5.523140    1.467613   -1.219891
  H      2.017352   -1.825262   -0.849774
  H      4.450005   -0.856509   -0.995510
  H      2.411567    1.029179    0.288689

 Total Charge           Charge          ....   -1
 Multiplicity           Mult            ....    1
 Number of Electrons    NEL             ....  116
 Basis Dimension        Dim             .... 1860

ORBITAL ENERGIES
----------------

  NO   OCC          E(Eh)            E(eV)
   0   2.0000     -91.809123     -2498.2532
   1   2.0000     -20.386344      -554.7406
   2   2.0000     -20.356981      -553.9416
   3   2.0000     -15.438976      -420.1159
   4   2.0000     -11.219335      -305.2936
   5   2.0000     -11.178209      -304.1745
   6   2.0000     -11.143106      -303.2193
   7   2.0000     -11.135825      -303.0212
   8   2.0000     -11.118155      -302.5404
   9   2.0000     -11.113919      -302.4251
  10   2.0000     -11.111789      -302.3672
  11   2.0000     -11.093226      -301.8620
  12   2.0000     -11.073287      -301.3194
  13   2.0000     -11.042650      -300.4858
  14   2.0000      -8.811484      -239.7727
  15   2.0000      -6.493029      -176.6843
  16   2.0000      -6.492070      -176.6582
  17   2.0000      -6.491432      -176.6409
  18   2.0000      -1.249226       -33.9932
  19   2.0000      -1.198791       -32.6208
  20   2.0000      -1.102006       -29.9871
  21   2.0000      -0.959914       -26.1206
  22   2.0000      -0.941789       -25.6274
  23   2.0000      -0.904304       -24.6074
  24   2.0000      -0.881959       -23.9993
  25   2.0000      -0.835626       -22.7385
  26   2.0000      -0.793799       -21.6004
  27   2.0000      -0.733771       -19.9669
  28   2.0000      -0.692323       -18.8391
  29   2.0000      -0.663682       -18.0597
  30   2.0000      -0.618923       -16.8417
  31   2.0000      -0.566977       -15.4282
  32   2.0000      -0.555932       -15.1277
  33   2.0000      -0.537785       -14.6339
  34   2.0000      -0.524247       -14.2655
  35   2.0000      -0.508072       -13.8253
  36   2.0000      -0.499646       -13.5961
  37   2.0000      -0.482949       -13.1417
  38   2.0000      -0.472278       -12.8513
  39   2.0000      -0.463034       -12.5998
  40   2.0000      -0.451521       -12.2865
  41   2.0000      -0.450408       -12.2562
  42   2.0000      -0.429086       -11.6760
  43   2.0000      -0.420758       -11.4494
  44   2.0000      -0.409715       -11.1489
  45   2.0000      -0.396586       -10.7916
  46   2.0000      -0.389879       -10.6092
  47   2.0000      -0.382348       -10.4042
  48   2.0000      -0.381443       -10.3796
  49   2.0000      -0.364989        -9.9319
  50   2.0000      -0.344055        -9.3622
  51   2.0000      -0.326523        -8.8851
  52   2.0000      -0.299271        -8.1436
  53   2.0000      -0.265865        -7.2345
  54   2.0000      -0.259305        -7.0561
  55   2.0000      -0.238915        -6.5012
  56   2.0000      -0.221899        -6.0382
  57   2.0000      -0.115213        -3.1351
  58   0.0000       0.087499         2.3810
  59   0.0000       0.099039         2.6950
  60   0.0000       0.099422         2.7054
  61   0.0000       0.101798         2.7701
  62   0.0000       0.104346         2.8394

MULLIKEN ATOMIC CHARGES
-----------------------
   0 C :   -0.907232
   1 C :   -0.283911
   2 H :    0.284562
   3 H :    0.225257
   4 H :    0.262995
   5 C :   -0.348124
   6 C :   -0.424427
   7 C :   -0.310393
   8 C :    0.370065
   9 O :   -1.066308
  10 S :   -0.172961
  11 C :   -0.658519
  12 C :   -0.380077
  13 H :    0.278628
  14 H :    0.287946
  15 N :   -0.531378
  16 H :    0.270696
  17 H :    0.291770
  18 C :    0.885362
  19 O :   -0.932940
  20 C :   -0.872386
  21 H :    0.271323
  22 H :    0.279984
  23 H :    0.266137
  24 H :    0.532305
  25 H :    0.190225
  26 H :    0.219718
  27 H :    0.317286
  28 H :    0.337292
  29 H :    0.317104
Sum of atomic charges:   -1.0000000

LOEWDIN ATOMIC CHARGES
----------------------
   0 C :    0.891515
   1 C :    0.428462
   2 H :   -0.295117
   3 H :   -0.298806
   4 H :   -0.294490
   5 C :    0.338833
   6 C :    0.267412
   7 C :    0.126513
   8 C :   -1.051723
   9 O :    0.707052
  10 S :    1.252894
  11 C :    0.108678
  12 C :    0.269514
  13 H :   -0.380436
  14 H :   -0.381950
  15 N :    0.786222
  16 H :   -0.288713
  17 H :   -0.302034
  18 C :   -0.862112
  19 O :    0.659691
  20 C :    0.879593
  21 H :   -0.304261
  22 H :   -0.318208
  23 H :   -0.304507
  24 H :   -0.873797
  25 H :   -0.320330
  26 H :   -0.294352
  27 H :   -0.436703
  28 H :   -0.339689
  29 H :   -0.369149

  Mayer bond orders larger than 0.100000
B(  0-C ,  1-C ) :   1.0514 B(  0-C ,  2-H ) :   0.9644 B(  0-C ,  3-H ) :   0.9474
B(  0-C ,  4-H ) :   0.9245 B(  0-C ,  5-C ) :  -0.1013 B(  1-C ,  5-C ) :   0.8885
B(  1-C ,  6-C ) :  -0.2661 B(  1-C , 25-H ) :   0.9419 B(  1-C , 26-H ) :   0.9129
B(  5-C ,  6-C ) :   1.6125 B(  5-C ,  7-C ) :  -0.3456 B(  5-C , 28-H ) :   0.8548
B(  6-C ,  7-C ) :   1.0197 B(  6-C ,  8-C ) :  -0.5576 B(  6-C , 29-H ) :   0.8596
B(  7-C ,  8-C ) :   0.8819 B(  7-C , 10-S ) :  -0.4487 B(  7-C , 27-H ) :   0.9051
B(  8-C ,  9-O ) :   0.9320 B(  8-C , 10-S ) :   1.2200 B( 10-S , 11-C ) :   0.9384
B( 11-C , 12-C ) :   1.0037 B( 11-C , 13-H ) :   0.8875 B( 11-C , 14-H ) :   0.9203
B( 12-C , 15-N ) :   0.7005 B( 12-C , 16-H ) :   0.9015 B( 12-C , 17-H ) :   0.8942
B( 15-N , 18-C ) :   1.3051 B( 15-N , 19-O ) :   0.3016 B( 15-N , 24-H ) :   0.7439
B( 18-C , 19-O ) :   0.9857 B( 18-C , 20-C ) :   0.9662 B( 20-C , 21-H ) :   0.9519
B( 20-C , 22-H ) :   0.9516 B( 20-C , 23-H ) :   0.9611

MP2 TOTAL ENERGY:     -992.736512859 Eh
FINAL SINGLE POINT ENERGY      -992.736512858704

DIPOLE MOMENT
-------------
                                X             Y             Z
Electronic contribution:    -16.32759      -6.91695      -2.44455
Nuclear contribution   :     16.84157       7.00122       2.87868
                        -----------------------------------------
Total Dipole Moment    :      0.51398       0.08427       0.43412
                        -----------------------------------------
Magnitude (a.u.)       :      0.67804
Magnitude (Debye)      :      1.72345

Rotational constants in cm-1:     0.035350     0.007241     0.006236
Rotational constants in MHz :  1059.769751   217.078065   186.937405

                             ****ORCA TERMINATED NORMALLY****
TOTAL RUN TIME: 0 days 2 hours 14 minutes 58 seconds 357 msec
