                         Program Version 4.2.1 -  RELEASE  -
|  1> %pal
|  2>  nprocs 32
|  3> end
|  4> !RI-MP2 aug-cc-pVQZ aug-cc-pVQZ/C TightSCF
|  5> %maxcore 4500
|  6> *xyzfile 0 1  10_37TS.xyz
|  7>
|  8>
|  9>                          ****END OF INPUT****

CARTESIAN COORDINATES (ANGSTROEM)
---------------------------------
  C      1.173351   -2.485796    0.397896
  N     -0.116429   -1.841500    0.510709
  C      2.202120   -1.623776   -0.299314
  C      0.324611   -0.511512   -1.500483
  H     -0.139919    0.465657   -1.475480
  H      0.427163   -0.771588   -2.559113
  C      2.353500    0.779613   -0.698086
  C      3.540419   -1.957389   -0.118218
  H      4.179463   -2.075074   -0.972801
  H      3.771277   -2.658483    0.684607
  C      3.602568    0.916738   -0.091146
  C      4.621898   -0.008873   -0.230300
  C      1.714260   -0.456707   -0.915507
  H      4.794270   -0.352186   -1.237762
  H      3.721908    1.736735    0.612377
  C      5.842359    0.022270    0.645126
  H      6.308855   -0.962336    0.708789
  H      6.591536    0.708979    0.237748
  H      5.597762    0.346201    1.657636
  H      1.077427   -3.458480   -0.122920
  C     -0.613761   -1.533261   -0.822525
  H      1.552949   -2.705863    1.400770
  S      1.475228    2.333941   -0.896977
  C     -1.058556   -2.646312    1.265730
  C     -2.045435   -1.031410   -0.795713
  H     -0.608073   -2.466826   -1.420162
  C     -2.841438   -1.169440    0.339274
  C     -2.292959   -1.823151    1.578540
  H     -3.059568   -2.452966    2.037606
  H     -2.027580   -1.049238    2.303792
  H     -0.575515   -2.969236    2.190490
  H     -1.339232   -3.559199    0.707629
  C     -2.586361   -0.434561   -1.933977
  C     -4.148772   -0.687802    0.319421
  C     -4.674282   -0.083755   -0.808637
  C     -3.886748    0.038668   -1.946603
  H     -4.285227    0.502206   -2.841081
  H     -1.977765   -0.330865   -2.824554
  H     -4.760333   -0.794038    1.209513
  H     -5.693322    0.284300   -0.805333
  C      0.079869    2.176748    0.210808
  C      0.208525    1.597439    1.467551
  C     -1.150256    2.685057   -0.194289
  C     -2.243585    2.619322    0.656859
  C     -2.115661    2.043739    1.912221
  C     -0.887982    1.533234    2.312212
  H     -1.254435    3.111873   -1.184589
  H     -3.202728    2.998395    0.326595
  H      1.159859    1.183997    1.776160
  H     -2.972810    1.982468    2.571643
  H     -0.780696    1.078515    3.290044

 Total Charge           Charge          ....    0
 Multiplicity           Mult            ....    1
 Number of Electrons    NEL             ....  192
 Basis Dimension        Dim             .... 3234

ORBITAL ENERGIES
----------------

  NO   OCC          E(Eh)            E(eV)
   0   2.0000     -91.945541     -2501.9654
   1   2.0000     -15.543847      -422.9696
   2   2.0000     -11.259642      -306.3904
   3   2.0000     -11.259609      -306.3895
   4   2.0000     -11.254362      -306.2467
   5   2.0000     -11.254298      -306.2450
   6   2.0000     -11.252527      -306.1968
   7   2.0000     -11.248082      -306.0759
   8   2.0000     -11.241747      -305.9035
   9   2.0000     -11.237437      -305.7862
  10   2.0000     -11.233080      -305.6676
  11   2.0000     -11.230715      -305.6033
  12   2.0000     -11.229486      -305.5699
  13   2.0000     -11.227682      -305.5208
  14   2.0000     -11.227544      -305.5170
  15   2.0000     -11.226339      -305.4842
  16   2.0000     -11.225828      -305.4703
  17   2.0000     -11.225299      -305.4559
  18   2.0000     -11.225283      -305.4555
  19   2.0000     -11.224849      -305.4437
  20   2.0000     -11.224409      -305.4317
  21   2.0000     -11.223370      -305.4034
  22   2.0000     -11.222760      -305.3868
  23   2.0000     -11.220693      -305.3306
  24   2.0000     -11.219972      -305.3110
  25   2.0000     -11.217280      -305.2377
  26   2.0000      -8.947352      -243.4698
  27   2.0000      -6.628951      -180.3829
  28   2.0000      -6.627891      -180.3541
  29   2.0000      -6.627269      -180.3372
  30   2.0000      -1.255724       -34.1700
  31   2.0000      -1.158558       -31.5260
  32   2.0000      -1.154729       -31.4218
  33   2.0000      -1.138287       -30.9744
  34   2.0000      -1.079721       -29.3807
  35   2.0000      -1.064909       -28.9776
  36   2.0000      -1.050548       -28.5869
  37   2.0000      -1.045743       -28.4561
  38   2.0000      -1.014760       -27.6130
  39   2.0000      -1.011307       -27.5191
  40   2.0000      -0.995829       -27.0979
  41   2.0000      -0.973025       -26.4774
  42   2.0000      -0.933688       -25.4070
  43   2.0000      -0.922314       -25.0974
  44   2.0000      -0.889788       -24.2124
  45   2.0000      -0.858523       -23.3616
  46   2.0000      -0.837099       -22.7786
  47   2.0000      -0.825930       -22.4747
  48   2.0000      -0.819727       -22.3059
  49   2.0000      -0.805558       -21.9204
  50   2.0000      -0.781061       -21.2538
  51   2.0000      -0.769246       -20.9323
  52   2.0000      -0.748638       -20.3715
  53   2.0000      -0.696376       -18.9494
  54   2.0000      -0.691926       -18.8283
  55   2.0000      -0.672226       -18.2922
  56   2.0000      -0.666115       -18.1259
  57   2.0000      -0.658451       -17.9174
  58   2.0000      -0.647524       -17.6200
  59   2.0000      -0.630664       -17.1612
  60   2.0000      -0.628204       -17.0943
  61   2.0000      -0.623330       -16.9617
  62   2.0000      -0.609879       -16.5957
  63   2.0000      -0.603635       -16.4257
  64   2.0000      -0.596246       -16.2247
  65   2.0000      -0.593694       -16.1552
  66   2.0000      -0.586743       -15.9661
  67   2.0000      -0.582425       -15.8486
  68   2.0000      -0.577357       -15.7107
  69   2.0000      -0.567942       -15.4545
  70   2.0000      -0.562975       -15.3193
  71   2.0000      -0.552815       -15.0429
  72   2.0000      -0.546056       -14.8589
  73   2.0000      -0.542237       -14.7550
  74   2.0000      -0.527517       -14.3545
  75   2.0000      -0.523661       -14.2495
  76   2.0000      -0.520852       -14.1731
  77   2.0000      -0.511116       -13.9082
  78   2.0000      -0.506140       -13.7728
  79   2.0000      -0.497844       -13.5470
  80   2.0000      -0.494840       -13.4653
  81   2.0000      -0.492019       -13.3885
  82   2.0000      -0.478182       -13.0120
  83   2.0000      -0.473567       -12.8864
  84   2.0000      -0.463844       -12.6218
  85   2.0000      -0.451441       -12.2843
  86   2.0000      -0.444932       -12.1072
  87   2.0000      -0.429360       -11.6835
  88   2.0000      -0.378201       -10.2914
  89   2.0000      -0.364028        -9.9057
  90   2.0000      -0.330836        -9.0025
  91   2.0000      -0.328222        -8.9314
  92   2.0000      -0.319833        -8.7031
  93   2.0000      -0.315478        -8.5846
  94   2.0000      -0.291146        -7.9225
  95   2.0000      -0.288448        -7.8491
  96   0.0000       0.019012         0.5173
  97   0.0000       0.022851         0.6218
  98   0.0000       0.025406         0.6913
  99   0.0000       0.027735         0.7547
 100   0.0000       0.032527         0.8851

MULLIKEN ATOMIC CHARGES
-----------------------
   0 C :   -0.196463
   1 N :    0.102205
   2 C :    0.060749
   3 C :   -0.451898
   4 H :    0.428318
   5 H :    0.175613
   6 C :   -0.271506
   7 C :   -0.901085
   8 H :    0.231661
   9 H :    0.244594
  10 C :   -0.173129
  11 C :   -0.180867
  12 C :    0.236784
  13 H :    0.205976
  14 H :    0.361871
  15 C :   -0.955858
  16 H :    0.233734
  17 H :    0.266982
  18 H :    0.240030
  19 H :    0.269494
  20 C :    0.903235
  21 H :    0.148924
  22 S :   -0.658576
  23 C :   -0.966943
  24 C :    0.533232
  25 H :    0.357715
  26 C :    0.758439
  27 C :   -0.613263
  28 H :    0.271985
  29 H :    0.192609
  30 H :    0.156191
  31 H :    0.321646
  32 C :   -0.711142
  33 C :   -0.921583
  34 C :   -0.333425
  35 C :   -0.384092
  36 H :    0.145970
  37 H :    0.071254
  38 H :    0.098247
  39 H :    0.177327
  40 C :    0.311184
  41 C :    0.256802
  42 C :   -0.457173
  43 C :   -0.155845
  44 C :   -0.118280
  45 C :   -0.370770
  46 H :    0.277819
  47 H :    0.121516
  48 H :    0.418055
  49 H :    0.202454
  50 H :    0.039282
Sum of atomic charges:   -0.0000000

LOEWDIN ATOMIC CHARGES
----------------------
   0 C :    0.330554
   1 N :    0.533369
   2 C :   -0.022295
   3 C :    0.478782
   4 H :   -0.442842
   5 H :   -0.243244
   6 C :   -0.424883
   7 C :    0.752937
   8 H :   -0.367139
   9 H :   -0.287971
  10 C :    0.235065
  11 C :    0.290160
  12 C :   -0.083066
  13 H :   -0.349323
  14 H :   -0.348256
  15 C :    0.926487
  16 H :   -0.291139
  17 H :   -0.277542
  18 H :   -0.293538
  19 H :   -0.246008
  20 C :   -0.031808
  21 H :   -0.292289
  22 S :    1.381563
  23 C :    0.361424
  24 C :   -0.029814
  25 H :   -0.257989
  26 C :   -0.048083
  27 C :    0.523616
  28 H :   -0.265152
  29 H :   -0.290312
  30 H :   -0.272078
  31 H :   -0.239021
  32 C :    0.354779
  33 C :    0.347673
  34 C :    0.345702
  35 C :    0.356711
  36 H :   -0.315969
  37 H :   -0.313210
  38 H :   -0.306820
  39 H :   -0.317309
  40 C :   -0.473763
  41 C :    0.264654
  42 C :    0.241936
  43 C :    0.331913
  44 C :    0.331886
  45 C :    0.336761
  46 H :   -0.330466
  47 H :   -0.311110
  48 H :   -0.333375
  49 H :   -0.310454
  50 H :   -0.309707

  Mayer bond orders larger than 0.100000
B(  0-C ,  1-N ) :   1.4541 B(  0-C ,  7-C ) :  -0.3501 B(  0-C , 19-H ) :   0.9685
B(  0-C , 20-C ) :  -0.1150 B(  0-C , 21-H ) :   1.2217 B(  0-C , 24-C ) :  -0.1043
B(  1-N ,  3-C ) :  -0.1349 B(  1-N , 19-H ) :  -0.1313 B(  1-N , 20-C ) :   0.9122
B(  1-N , 21-H ) :  -0.1145 B(  1-N , 23-C ) :   0.8666 B(  1-N , 24-C ) :  -0.4658
B(  1-N , 26-C ) :   0.1272 B(  1-N , 30-H ) :  -0.1466 B(  1-N , 31-H ) :  -0.1055
B(  1-N , 32-C ) :  -0.1537 B(  2-C ,  3-C ) :  -0.5137 B(  2-C ,  7-C ) :   1.1759
B(  2-C ,  8-H ) :  -0.2571 B(  2-C ,  9-H ) :  -0.2169 B(  2-C , 10-C ) :   0.1076
B(  2-C , 12-C ) :   1.4955 B(  2-C , 20-C ) :   0.1365 B(  2-C , 21-H ) :  -0.2153
B(  3-C ,  4-H ) :   0.8023 B(  3-C ,  5-H ) :   1.1794 B(  3-C ,  6-C ) :  -0.4858
B(  3-C , 12-C ) :  -0.1990 B(  3-C , 20-C ) :   0.9266 B(  3-C , 22-S ) :  -0.1592
B(  3-C , 24-C ) :   0.1430 B(  3-C , 32-C ) :   0.1439 B(  4-H ,  6-C ) :   0.1085
B(  4-H , 22-S ) :   0.3939 B(  4-H , 32-C ) :  -0.1629 B(  4-H , 41-C ) :  -0.1185
B(  5-H , 12-C ) :  -0.1569 B(  5-H , 20-C ) :  -0.1218 B(  5-H , 24-C ) :   0.1180
B(  6-C ,  7-C ) :   0.1666 B(  6-C , 10-C ) :   0.7125 B(  6-C , 11-C ) :  -0.3460
B(  6-C , 12-C ) :   1.5625 B(  6-C , 14-H ) :  -0.1150 B(  6-C , 22-S ) :   0.8668
B(  7-C ,  8-H ) :   1.1881 B(  7-C ,  9-H ) :   1.1035 B(  7-C , 11-C ) :   0.3560
B( 10-C , 11-C ) :   1.0867 B( 10-C , 12-C ) :  -0.2365 B( 10-C , 13-H ) :  -0.1195
B( 10-C , 14-H ) :   0.9307 B( 10-C , 15-C ) :  -0.1037 B( 10-C , 22-S ) :  -0.1132
B( 11-C , 12-C ) :   0.2489 B( 11-C , 13-H ) :   1.0517 B( 11-C , 15-C ) :   0.6825
B( 11-C , 16-H ) :  -0.1147 B( 11-C , 17-H ) :  -0.1347 B( 12-C , 20-C ) :  -0.1562
B( 12-C , 22-S ) :  -0.4773 B( 15-C , 16-H ) :   1.0553 B( 15-C , 17-H ) :   1.0453
B( 15-C , 18-H ) :   0.9840 B( 20-C , 23-C ) :  -0.3022 B( 20-C , 25-H ) :   0.9920
B( 20-C , 26-C ) :  -0.5040 B( 20-C , 27-C ) :   0.1907 B( 20-C , 31-H ) :  -0.1080
B( 20-C , 32-C ) :  -0.5773 B( 20-C , 33-C ) :   0.1495 B( 20-C , 40-C ) :  -0.1240
B( 22-S , 40-C ) :   0.8091 B( 22-S , 41-C ) :  -0.6122 B( 22-S , 42-C ) :  -0.1246
B( 23-C , 24-C ) :   0.1992 B( 23-C , 26-C ) :  -0.2276 B( 23-C , 27-C ) :   1.1369
B( 23-C , 30-H ) :   1.1269 B( 23-C , 31-H ) :   0.9633 B( 24-C , 25-H ) :  -0.3074
B( 24-C , 26-C ) :   0.9665 B( 24-C , 27-C ) :  -0.1681 B( 24-C , 32-C ) :   1.0965
B( 24-C , 33-C ) :  -0.8038 B( 24-C , 35-C ) :  -0.3430 B( 26-C , 27-C ) :   0.1549
B( 26-C , 28-H ) :  -0.1934 B( 26-C , 32-C ) :  -0.2813 B( 26-C , 33-C ) :   1.0519
B( 26-C , 34-C ) :  -0.2478 B( 26-C , 38-H ) :  -0.1317 B( 27-C , 28-H ) :   1.0754
B( 27-C , 29-H ) :   0.9755 B( 32-C , 33-C ) :   0.2013 B( 32-C , 35-C ) :   1.1343
B( 32-C , 36-H ) :  -0.2709 B( 32-C , 37-H ) :   1.2230 B( 33-C , 34-C ) :   1.3876
B( 33-C , 35-C ) :   0.2277 B( 33-C , 38-H ) :   1.2381 B( 33-C , 39-H ) :  -0.2164
B( 34-C , 35-C ) :   1.1428 B( 34-C , 36-H ) :  -0.1056 B( 34-C , 39-H ) :   1.2615
B( 35-C , 36-H ) :   1.3224 B( 35-C , 39-H ) :  -0.1129 B( 40-C , 41-C ) :   0.3801
B( 40-C , 42-C ) :   0.9385 B( 40-C , 46-H ) :  -0.1750 B( 40-C , 48-H ) :  -0.3192
B( 41-C , 43-C ) :   0.1158 B( 41-C , 45-C ) :   0.9356 B( 41-C , 48-H ) :   0.9865
B( 41-C , 50-H ) :  -0.1816 B( 42-C , 43-C ) :   1.2020 B( 42-C , 45-C ) :   0.2192
B( 42-C , 46-H ) :   1.0385 B( 42-C , 47-H ) :  -0.1889 B( 43-C , 44-C ) :   0.9713
B( 43-C , 47-H ) :   1.2402 B( 43-C , 49-H ) :  -0.1967 B( 44-C , 45-C ) :   1.2334
B( 44-C , 47-H ) :  -0.1574 B( 44-C , 49-H ) :   1.1847 B( 44-C , 50-H ) :  -0.1678
B( 45-C , 48-H ) :  -0.2729 B( 45-C , 49-H ) :  -0.1572 B( 45-C , 50-H ) :   1.3113

MP2 TOTAL ENERGY:    -1380.233246666 Eh
FINAL SINGLE POINT ENERGY     -1380.233246666033

DIPOLE MOMENT
-------------
                                X             Y             Z
Electronic contribution:     -6.32887      11.27950      -5.86579
Nuclear contribution   :      6.47808     -12.32608       6.32085
                        -----------------------------------------
Total Dipole Moment    :      0.14922      -1.04658       0.45505
                        -----------------------------------------
Magnitude (a.u.)       :      1.15094
Magnitude (Debye)      :      2.92546

Rotational constants in cm-1:     0.011384     0.005459     0.004625
Rotational constants in MHz :   341.285321   163.669688   138.664839

                             ****ORCA TERMINATED NORMALLY****
TOTAL RUN TIME: 1 days 0 hours 43 minutes 12 seconds 401 msec
