                         Program Version 4.2.1 -  RELEASE  -
|  1> %pal
|  2>  nprocs 32
|  3> end
|  4> !RI-MP2 aug-cc-pVQZ aug-cc-pVQZ/C TightSCF
|  5> %maxcore 4500
|  6> *xyzfile 0 1  10_38R.xyz
|  7>
|  8>
|  9>                          ****END OF INPUT****

CARTESIAN COORDINATES (ANGSTROEM)
---------------------------------
  C     -1.304497    2.521784    0.958721
  H     -1.729347    3.502140    1.178283
  H     -0.852581    2.137083    1.894699
  C     -0.220092    2.658602   -0.080101
  C     -0.870717    0.449484   -0.990657
  H     -1.428384    0.855550   -1.839926
  H     -0.481412   -0.521547   -1.277261
  C     -1.849566    0.317601    0.184964
  H     -1.278986   -0.071567    1.052776
  N     -2.368571    1.642136    0.504593
  C      1.570903    1.054357   -0.722588
  C      0.202464    3.845444   -0.501077
  C      2.649780    1.889815   -0.181926
  C      3.950510    1.758414   -0.430376
  C      0.262747    1.370995   -0.628473
  C      5.012148    2.606667    0.189559
  H      4.588545    3.358826    0.857433
  H      5.712111    1.993457    0.765188
  H      5.600865    3.120326   -0.576314
  C     -2.955456   -0.681163   -0.102761
  C     -3.483343    1.597454    1.431675
  H     -3.726540    2.619406    1.729372
  H     -3.223098    1.041030    2.350794
  C     -4.671890    0.952589    0.745054
  H     -5.024837    1.620644   -0.046349
  C     -4.292503   -0.380441    0.156162
  H     -5.494536    0.822932    1.453011
  C     -5.272289   -1.334455   -0.112050
  H     -6.310033   -1.092324    0.092091
  C     -2.629157   -1.946859   -0.590181
  H     -1.591678   -2.206128   -0.763016
  C     -4.942496   -2.578813   -0.619102
  H     -5.717898   -3.308098   -0.820360
  C     -3.608695   -2.889212   -0.851178
  H     -3.331557   -3.864852   -1.231579
  S      2.046897   -0.449311   -1.570195
  C      2.742540   -1.426413   -0.251819
  C      2.350696   -1.282854    1.074620
  C      2.894580   -2.105983    2.049222
  C      3.818480   -3.085332    1.710192
  C      4.202582   -3.231944    0.384353
  C      3.674380   -2.402312   -0.593806
  H      1.627352   -0.524008    1.343999
  H      2.588218   -1.983013    3.081301
  H      4.237819   -3.728098    2.474262
  H      4.926113   -3.989614    0.108048
  H      3.989845   -2.506841   -1.625340
  H      0.970775    3.936220   -1.258424
  H     -0.219340    4.762616   -0.105979
  H      2.329926    2.665113    0.505819
  H      4.281640    0.990240   -1.122114

 Total Charge           Charge          ....    0
 Multiplicity           Mult            ....    1
 Number of Electrons    NEL             ....  192
 Basis Dimension        Dim             .... 3234

ORBITAL ENERGIES
----------------

  NO   OCC          E(Eh)            E(eV)
   0   2.0000     -91.952273     -2502.1486
   1   2.0000     -15.550177      -423.1418
   2   2.0000     -11.265374      -306.5464
   3   2.0000     -11.264768      -306.5299
   4   2.0000     -11.263967      -306.5081
   5   2.0000     -11.259274      -306.3804
   6   2.0000     -11.251695      -306.1742
   7   2.0000     -11.250866      -306.1516
   8   2.0000     -11.243413      -305.9488
   9   2.0000     -11.236314      -305.7556
  10   2.0000     -11.235953      -305.7458
  11   2.0000     -11.234648      -305.7103
  12   2.0000     -11.234370      -305.7027
  13   2.0000     -11.233422      -305.6770
  14   2.0000     -11.232800      -305.6600
  15   2.0000     -11.231193      -305.6163
  16   2.0000     -11.227354      -305.5118
  17   2.0000     -11.226598      -305.4913
  18   2.0000     -11.225895      -305.4721
  19   2.0000     -11.225310      -305.4562
  20   2.0000     -11.224935      -305.4460
  21   2.0000     -11.224815      -305.4427
  22   2.0000     -11.224655      -305.4384
  23   2.0000     -11.221960      -305.3650
  24   2.0000     -11.221661      -305.3569
  25   2.0000     -11.218292      -305.2653
  26   2.0000      -8.954608      -243.6673
  27   2.0000      -6.636216      -180.5806
  28   2.0000      -6.635226      -180.5537
  29   2.0000      -6.634570      -180.5358
  30   2.0000      -1.258312       -34.2404
  31   2.0000      -1.165615       -31.7180
  32   2.0000      -1.156756       -31.4769
  33   2.0000      -1.139886       -31.0179
  34   2.0000      -1.087229       -29.5850
  35   2.0000      -1.066860       -29.0307
  36   2.0000      -1.055698       -28.7270
  37   2.0000      -1.049114       -28.5478
  38   2.0000      -1.020756       -27.7762
  39   2.0000      -1.017702       -27.6931
  40   2.0000      -0.999091       -27.1867
  41   2.0000      -0.971992       -26.4493
  42   2.0000      -0.935141       -25.4465
  43   2.0000      -0.928023       -25.2528
  44   2.0000      -0.902047       -24.5459
  45   2.0000      -0.859596       -23.3908
  46   2.0000      -0.837254       -22.7828
  47   2.0000      -0.832953       -22.6658
  48   2.0000      -0.818148       -22.2629
  49   2.0000      -0.808367       -21.9968
  50   2.0000      -0.787792       -21.4369
  51   2.0000      -0.757059       -20.6006
  52   2.0000      -0.747467       -20.3396
  53   2.0000      -0.705690       -19.2028
  54   2.0000      -0.695943       -18.9376
  55   2.0000      -0.687440       -18.7062
  56   2.0000      -0.663281       -18.0488
  57   2.0000      -0.659862       -17.9557
  58   2.0000      -0.643028       -17.4977
  59   2.0000      -0.639319       -17.3967
  60   2.0000      -0.631219       -17.1763
  61   2.0000      -0.627010       -17.0618
  62   2.0000      -0.621685       -16.9169
  63   2.0000      -0.607070       -16.5192
  64   2.0000      -0.603205       -16.4140
  65   2.0000      -0.593207       -16.1420
  66   2.0000      -0.591222       -16.0880
  67   2.0000      -0.588435       -16.0121
  68   2.0000      -0.572547       -15.5798
  69   2.0000      -0.566580       -15.4174
  70   2.0000      -0.563781       -15.3413
  71   2.0000      -0.560425       -15.2499
  72   2.0000      -0.549943       -14.9647
  73   2.0000      -0.537548       -14.6274
  74   2.0000      -0.532549       -14.4914
  75   2.0000      -0.525650       -14.3037
  76   2.0000      -0.522440       -14.2163
  77   2.0000      -0.514946       -14.0124
  78   2.0000      -0.514496       -14.0002
  79   2.0000      -0.509055       -13.8521
  80   2.0000      -0.499020       -13.5790
  81   2.0000      -0.493167       -13.4198
  82   2.0000      -0.482901       -13.1404
  83   2.0000      -0.475516       -12.9394
  84   2.0000      -0.462959       -12.5977
  85   2.0000      -0.457508       -12.4494
  86   2.0000      -0.445504       -12.1228
  87   2.0000      -0.413142       -11.2422
  88   2.0000      -0.395723       -10.7682
  89   2.0000      -0.376338       -10.2407
  90   2.0000      -0.364759        -9.9256
  91   2.0000      -0.341558        -9.2943
  92   2.0000      -0.327883        -8.9221
  93   2.0000      -0.321515        -8.7489
  94   2.0000      -0.306953        -8.3526
  95   2.0000      -0.295768        -8.0483
  96   0.0000       0.019583         0.5329
  97   0.0000       0.023017         0.6263
  98   0.0000       0.024755         0.6736
  99   0.0000       0.027119         0.7379
 100   0.0000       0.030485         0.8295

MULLIKEN ATOMIC CHARGES
-----------------------
   0 C :   -0.246505
   1 H :    0.251391
   2 H :    0.270600
   3 C :   -0.259642
   4 C :   -0.243701
   5 H :    0.370053
   6 H :    0.343047
   7 C :    2.035663
   8 H :    0.252498
   9 N :   -0.231127
  10 C :   -0.184688
  11 C :   -1.180837
  12 C :   -0.369676
  13 C :   -0.476536
  14 C :    0.959530
  15 C :   -0.896231
  16 H :    0.252848
  17 H :    0.276228
  18 H :    0.315691
  19 C :    0.032577
  20 C :   -0.781229
  21 H :    0.179144
  22 H :    0.268755
  23 C :   -0.691534
  24 H :    0.212839
  25 C :    0.489781
  26 H :    0.197287
  27 C :   -0.688242
  28 H :    0.228511
  29 C :   -0.831890
  30 H :    0.192881
  31 C :   -0.354792
  32 H :    0.258660
  33 C :   -0.579144
  34 H :    0.185725
  35 S :   -0.411144
  36 C :    0.339784
  37 C :   -0.613600
  38 C :   -0.168779
  39 C :   -0.468311
  40 C :   -0.354132
  41 C :   -0.522454
  42 H :    0.438243
  43 H :    0.229840
  44 H :    0.343809
  45 H :    0.234582
  46 H :    0.300232
  47 H :    0.255284
  48 H :    0.195064
  49 H :    0.297101
  50 H :    0.346547
Sum of atomic charges:    0.0000000

LOEWDIN ATOMIC CHARGES
----------------------
   0 C :    0.336557
   1 H :   -0.307582
   2 H :   -0.242237
   3 C :   -0.059206
   4 C :    0.475127
   5 H :   -0.237044
   6 H :   -0.413312
   7 C :   -0.050401
   8 H :   -0.258213
   9 N :    0.538182
  10 C :   -0.418544
  11 C :    0.825024
  12 C :    0.256917
  13 C :    0.357955
  14 C :   -0.125499
  15 C :    0.905222
  16 H :   -0.310904
  17 H :   -0.290480
  18 H :   -0.291359
  19 C :   -0.018379
  20 C :    0.356431
  21 H :   -0.277572
  22 H :   -0.237580
  23 C :    0.524712
  24 H :   -0.256036
  25 C :   -0.037618
  26 H :   -0.273539
  27 C :    0.357271
  28 H :   -0.312779
  29 C :    0.365041
  30 H :   -0.322304
  31 C :    0.350352
  32 H :   -0.320086
  33 C :    0.360717
  34 H :   -0.318507
  35 S :    1.390534
  36 C :   -0.463762
  37 C :    0.253913
  38 C :    0.343546
  39 C :    0.334146
  40 C :    0.330174
  41 C :    0.233420
  42 H :   -0.354631
  43 H :   -0.317408
  44 H :   -0.323606
  45 H :   -0.320440
  46 H :   -0.342713
  47 H :   -0.328713
  48 H :   -0.323213
  49 H :   -0.375632
  50 H :   -0.365944

  Mayer bond orders larger than 0.100000
B(  0-C ,  1-H ) :   1.0441 B(  0-C ,  2-H ) :   0.9020 B(  0-C ,  3-C ) :   0.5405
B(  0-C ,  9-N ) :   0.9570 B(  0-C , 10-C ) :   0.1611 B(  0-C , 11-C ) :  -0.1871
B(  0-C , 14-C ) :  -0.2846 B(  0-C , 20-C ) :   0.1164 B(  1-H ,  3-C ) :  -0.1079
B(  2-H ,  3-C ) :   0.1579 B(  3-C ,  4-C ) :  -0.1017 B(  3-C ,  5-H ) :  -0.1256
B(  3-C , 10-C ) :  -0.3234 B(  3-C , 11-C ) :   1.7854 B(  3-C , 14-C ) :   0.6769
B(  3-C , 47-H ) :  -0.2059 B(  3-C , 48-H ) :  -0.1166 B(  4-C ,  5-H ) :   0.8903
B(  4-C ,  6-H ) :   0.9005 B(  4-C ,  7-C ) :   0.7737 B(  4-C , 10-C ) :  -0.4709
B(  4-C , 14-C ) :   0.7654 B(  4-C , 35-S ) :  -0.2890 B(  7-C ,  8-H ) :   0.9174
B(  7-C ,  9-N ) :   0.2384 B(  7-C , 10-C ) :   0.1177 B(  7-C , 14-C ) :  -0.1448
B(  7-C , 19-C ) :  -0.4618 B(  7-C , 20-C ) :  -0.2447 B(  7-C , 25-C ) :  -0.4817
B(  7-C , 29-C ) :  -0.7190 B(  7-C , 35-S ) :  -0.1501 B(  9-N , 14-C ) :   0.2712
B(  9-N , 20-C ) :   0.6293 B(  9-N , 22-H ) :  -0.1277 B(  9-N , 24-H ) :  -0.1075
B( 10-C , 11-C ) :   0.1173 B( 10-C , 12-C ) :   1.0983 B( 10-C , 13-C ) :  -0.3913
B( 10-C , 14-C ) :   1.1058 B( 10-C , 35-S ) :   0.3896 B( 10-C , 36-C ) :  -0.2121
B( 11-C , 14-C ) :  -0.5985 B( 11-C , 47-H ) :   1.1169 B( 11-C , 48-H ) :   1.2002
B( 12-C , 13-C ) :   1.4780 B( 12-C , 14-C ) :  -0.4453 B( 12-C , 15-C ) :  -0.2503
B( 12-C , 16-H ) :   0.1343 B( 12-C , 36-C ) :  -0.1047 B( 12-C , 49-H ) :   0.7629
B( 13-C , 15-C ) :   0.8198 B( 13-C , 16-H ) :  -0.1034 B( 13-C , 18-H ) :  -0.1274
B( 13-C , 50-H ) :   0.8570 B( 14-C , 35-S ) :   0.1379 B( 15-C , 16-H ) :   0.9833
B( 15-C , 17-H ) :   0.9672 B( 15-C , 18-H ) :   0.9938 B( 19-C , 20-C ) :   0.1778
B( 19-C , 25-C ) :   1.1397 B( 19-C , 27-C ) :  -0.4922 B( 19-C , 29-C ) :   1.1598
B( 19-C , 33-C ) :  -0.2880 B( 20-C , 21-H ) :   1.0690 B( 20-C , 22-H ) :   0.9884
B( 20-C , 23-C ) :   1.1472 B( 23-C , 24-H ) :   1.0670 B( 23-C , 25-C ) :   0.3329
B( 23-C , 26-H ) :   1.1403 B( 25-C , 26-H ) :  -0.1681 B( 25-C , 27-C ) :   1.0043
B( 25-C , 31-C ) :  -0.3128 B( 27-C , 28-H ) :   1.0638 B( 27-C , 29-C ) :   0.1026
B( 27-C , 31-C ) :   1.2612 B( 27-C , 32-H ) :  -0.2148 B( 27-C , 33-C ) :   0.2087
B( 29-C , 30-H ) :   1.1254 B( 29-C , 33-C ) :   1.1398 B( 29-C , 34-H ) :  -0.1822
B( 31-C , 32-H ) :   1.1654 B( 31-C , 33-C ) :   1.2476 B( 32-H , 33-C ) :  -0.1470
B( 33-C , 34-H ) :   1.2214 B( 35-S , 36-C ) :   0.9539 B( 35-S , 37-C ) :  -0.2968
B( 35-S , 41-C ) :  -0.2481 B( 36-C , 37-C ) :   0.6851 B( 36-C , 38-C ) :  -0.4591
B( 36-C , 39-C ) :  -0.1204 B( 36-C , 40-C ) :  -0.4272 B( 36-C , 41-C ) :   0.8901
B( 36-C , 42-H ) :  -0.2042 B( 37-C , 38-C ) :   1.3461 B( 37-C , 39-C ) :   0.1391
B( 37-C , 40-C ) :   0.1287 B( 37-C , 42-H ) :   0.6511 B( 38-C , 39-C ) :   1.1522
B( 38-C , 41-C ) :   0.1716 B( 38-C , 42-H ) :  -0.1183 B( 38-C , 43-H ) :   1.0939
B( 38-C , 44-H ) :  -0.1067 B( 39-C , 40-C ) :   1.1469 B( 39-C , 41-C ) :   0.1631
B( 39-C , 44-H ) :   1.0055 B( 39-C , 45-H ) :  -0.1035 B( 40-C , 41-C ) :   1.4072
B( 40-C , 45-H ) :   1.1697 B( 41-C , 44-H ) :  -0.1335 B( 41-C , 45-H ) :  -0.1812
B( 41-C , 46-H ) :   0.9571

MP2 TOTAL ENERGY:    -1380.262599719 Eh
FINAL SINGLE POINT ENERGY     -1380.262599719188

DIPOLE MOMENT
-------------
                                X             Y             Z
Electronic contribution:     -0.37402      -9.37669      -7.46157
Nuclear contribution   :      0.36700       9.68143       8.29619
                        -----------------------------------------
Total Dipole Moment    :     -0.00702       0.30474       0.83462
                        -----------------------------------------
Magnitude (a.u.)       :      0.88855
Magnitude (Debye)      :      2.25850

Rotational constants in cm-1:     0.009425     0.004238     0.003299
Rotational constants in MHz :   282.555436   127.045901    98.891592

                             ****ORCA TERMINATED NORMALLY****
TOTAL RUN TIME: 0 days 18 hours 19 minutes 3 seconds 655 msec
