                         Program Version 4.2.1 -  RELEASE  -
|  1> %pal
|  2>  nprocs 32
|  3> end
|  4> !RI-MP2 aug-cc-pVQZ aug-cc-pVQZ/C TightSCF
|  5> %maxcore 4500
|  6> *xyzfile 0 1  10_23P.xyz
|  7>
|  8>
|  9>                          ****END OF INPUT****

CARTESIAN COORDINATES (ANGSTROEM)
---------------------------------
  C      0.717896    1.227847   -0.228737
  C      1.005251    2.500012    0.606589
  C      1.335220    0.140108    0.666598
  N      2.341851    0.899103    1.497376
  N      2.148727    2.107184    1.463738
  C      1.994002   -1.024637   -0.050186
  C      3.281309   -1.431615    0.280305
  C      1.287805   -1.719015   -1.030529
  C      3.862312   -2.505292   -0.381603
  H      3.819068   -0.910243    1.059482
  C      1.869587   -2.793110   -1.685246
  H      0.278631   -1.420502   -1.287784
  C      3.161913   -3.187352   -1.364942
  H      4.867437   -2.812478   -0.119093
  H      1.310554   -3.324673   -2.445802
  H      3.617251   -4.026829   -1.876154
  C      0.351536   -0.453432    1.681423
  C     -1.483976    0.203762    0.253367
  C     -0.727377    0.988247   -0.504786
  H     -1.167046    1.444795   -1.380505
  C      1.505381    1.508764   -1.525667
  H      2.564946    1.296574   -1.363464
  H      1.175520    0.885489   -2.356235
  C      1.394637    3.629191   -0.359150
  H      0.756951    4.505529   -0.247084
  H      2.416114    3.942053   -0.133711
  C      1.301267    3.005190   -1.761062
  H      2.031770    3.421400   -2.455575
  H      0.312490    3.187764   -2.191036
  O     -0.972895   -0.439328    1.365928
  O      0.689781   -0.951830    2.706748
  C     -2.904778   -0.125114    0.045214
  C     -3.722519    0.691260   -0.737531
  C     -3.448741   -1.272310    0.621367
  C     -5.046668    0.353906   -0.959361
  H     -3.328936    1.606792   -1.160641
  C     -4.775973   -1.607069    0.396697
  H     -2.826894   -1.897958    1.246664
  C     -5.578073   -0.799580   -0.395756
  H     -5.670487    0.999718   -1.565238
  H     -5.184271   -2.503361    0.847445
  H     -6.615388   -1.060358   -0.566409
  H      0.193089    2.772974    1.283904

 Total Charge           Charge          ....    0
 Multiplicity           Mult            ....    1
 Number of Electrons    NEL             ....  174
 Basis Dimension        Dim             .... 2828

ORBITAL ENERGIES
----------------

  NO   OCC          E(Eh)            E(eV)
   0   2.0000     -20.624137      -561.2113
   1   2.0000     -20.551384      -559.2316
   2   2.0000     -15.629508      -425.3005
   3   2.0000     -15.628001      -425.2595
   4   2.0000     -11.394309      -310.0549
   5   2.0000     -11.324462      -308.1543
   6   2.0000     -11.302532      -307.5575
   7   2.0000     -11.274517      -306.7952
   8   2.0000     -11.266550      -306.5784
   9   2.0000     -11.259697      -306.3919
  10   2.0000     -11.254359      -306.2467
  11   2.0000     -11.249184      -306.1059
  12   2.0000     -11.245813      -306.0141
  13   2.0000     -11.244651      -305.9825
  14   2.0000     -11.244443      -305.9769
  15   2.0000     -11.244109      -305.9678
  16   2.0000     -11.242515      -305.9244
  17   2.0000     -11.241027      -305.8839
  18   2.0000     -11.239718      -305.8483
  19   2.0000     -11.238368      -305.8116
  20   2.0000     -11.237746      -305.7946
  21   2.0000     -11.237313      -305.7828
  22   2.0000     -11.237137      -305.7780
  23   2.0000     -11.236518      -305.7612
  24   2.0000     -11.234942      -305.7183
  25   2.0000      -1.485530       -40.4233
  26   2.0000      -1.397284       -38.0220
  27   2.0000      -1.385699       -37.7068
  28   2.0000      -1.179470       -32.0950
  29   2.0000      -1.174976       -31.9727
  30   2.0000      -1.160863       -31.5887
  31   2.0000      -1.105607       -30.0851
  32   2.0000      -1.089459       -29.6457
  33   2.0000      -1.035454       -28.1761
  34   2.0000      -1.029404       -28.0115
  35   2.0000      -1.023941       -27.8629
  36   2.0000      -1.012681       -27.5565
  37   2.0000      -0.995322       -27.0841
  38   2.0000      -0.962812       -26.1995
  39   2.0000      -0.909064       -24.7369
  40   2.0000      -0.863667       -23.5016
  41   2.0000      -0.844416       -22.9777
  42   2.0000      -0.833459       -22.6796
  43   2.0000      -0.832107       -22.6428
  44   2.0000      -0.823180       -22.3999
  45   2.0000      -0.802788       -21.8450
  46   2.0000      -0.774054       -21.0631
  47   2.0000      -0.743210       -20.2238
  48   2.0000      -0.732683       -19.9373
  49   2.0000      -0.729373       -19.8472
  50   2.0000      -0.701446       -19.0873
  51   2.0000      -0.689049       -18.7500
  52   2.0000      -0.672244       -18.2927
  53   2.0000      -0.668942       -18.2028
  54   2.0000      -0.654753       -17.8167
  55   2.0000      -0.649659       -17.6781
  56   2.0000      -0.638097       -17.3635
  57   2.0000      -0.632887       -17.2217
  58   2.0000      -0.627618       -17.0784
  59   2.0000      -0.621285       -16.9060
  60   2.0000      -0.613136       -16.6843
  61   2.0000      -0.602060       -16.3829
  62   2.0000      -0.595191       -16.1960
  63   2.0000      -0.590525       -16.0690
  64   2.0000      -0.569317       -15.4919
  65   2.0000      -0.565211       -15.3802
  66   2.0000      -0.549902       -14.9636
  67   2.0000      -0.540971       -14.7206
  68   2.0000      -0.530070       -14.4239
  69   2.0000      -0.526804       -14.3351
  70   2.0000      -0.517774       -14.0894
  71   2.0000      -0.511262       -13.9121
  72   2.0000      -0.507680       -13.8147
  73   2.0000      -0.505538       -13.7564
  74   2.0000      -0.502834       -13.6828
  75   2.0000      -0.497625       -13.5411
  76   2.0000      -0.494492       -13.4558
  77   2.0000      -0.482657       -13.1338
  78   2.0000      -0.479893       -13.0586
  79   2.0000      -0.472449       -12.8560
  80   2.0000      -0.439696       -11.9647
  81   2.0000      -0.407306       -11.0834
  82   2.0000      -0.384822       -10.4715
  83   2.0000      -0.350964        -9.5502
  84   2.0000      -0.344409        -9.3718
  85   2.0000      -0.340563        -9.2672
  86   2.0000      -0.317887        -8.6501
  87   0.0000       0.015243         0.4148
  88   0.0000       0.021797         0.5931
  89   0.0000       0.022320         0.6074
  90   0.0000       0.029206         0.7947
  91   0.0000       0.030251         0.8232

MULLIKEN ATOMIC CHARGES
-----------------------
   0 C :    2.086391
   1 C :   -0.034293
   2 C :    0.530465
   3 N :   -0.421084
   4 N :   -0.701521
   5 C :    0.552954
   6 C :   -0.627681
   7 C :   -0.862984
   8 C :   -0.452462
   9 H :    0.259409
  10 C :   -0.465817
  11 H :    0.278921
  12 C :   -0.380498
  13 H :    0.168453
  14 H :    0.177685
  15 H :    0.345439
  16 C :    2.271402
  17 C :    0.614444
  18 C :   -0.081639
  19 H :   -0.054127
  20 C :   -0.834309
  21 H :    0.223792
  22 H :    0.356697
  23 C :   -0.629019
  24 H :    0.265993
  25 H :    0.276665
  26 C :   -0.732193
  27 H :    0.253468
  28 H :    0.120036
  29 O :   -1.082890
  30 O :   -1.218285
  31 C :    0.670309
  32 C :   -0.647145
  33 C :   -0.697700
  34 C :   -0.363369
  35 H :    0.239193
  36 C :   -0.340478
  37 H :    0.238724
  38 C :   -0.387249
  39 H :    0.225136
  40 H :    0.216285
  41 H :    0.350846
  42 H :    0.292035
Sum of atomic charges:   -0.0000000

LOEWDIN ATOMIC CHARGES
----------------------
   0 C :   -0.350661
   1 C :   -0.071463
   2 C :   -0.558176
   3 N :    0.386542
   4 N :    0.444479
   5 C :   -0.118209
   6 C :    0.358171
   7 C :    0.345805
   8 C :    0.364544
   9 H :   -0.344938
  10 C :    0.367275
  11 H :   -0.325296
  12 C :    0.348543
  13 H :   -0.315727
  14 H :   -0.314065
  15 H :   -0.318957
  16 C :   -1.035733
  17 C :   -0.378423
  18 C :    0.366239
  19 H :   -0.325980
  20 C :    0.528830
  21 H :   -0.255318
  22 H :   -0.245681
  23 C :    0.565199
  24 H :   -0.250988
  25 H :   -0.276058
  26 C :    0.569419
  27 H :   -0.244558
  28 H :   -0.263186
  29 O :    0.868147
  30 O :    0.736701
  31 C :   -0.102936
  32 C :    0.338417
  33 C :    0.340674
  34 C :    0.354493
  35 H :   -0.330126
  36 C :    0.355616
  37 H :   -0.337935
  38 C :    0.343945
  39 H :   -0.318034
  40 H :   -0.317247
  41 H :   -0.318569
  42 H :   -0.264777

  Mayer bond orders larger than 0.100000
B(  0-C ,  1-C ) :   0.4450 B(  0-C ,  2-C ) :   0.4157 B(  0-C ,  3-N ) :   0.1607
B(  0-C ,  7-C ) :  -0.1371 B(  0-C , 11-H ) :  -0.1436 B(  0-C , 17-C ) :  -0.5819
B(  0-C , 18-C ) :   0.2205 B(  0-C , 19-H ) :  -0.2153 B(  0-C , 21-H ) :  -0.2338
B(  0-C , 22-H ) :  -0.1335 B(  0-C , 23-C ) :  -0.3780 B(  0-C , 26-C ) :  -0.1193
B(  0-C , 29-O ) :  -0.1014 B(  0-C , 30-O ) :   0.1703 B(  1-C ,  2-C ) :   0.2413
B(  1-C ,  4-N ) :   0.5292 B(  1-C , 23-C ) :   0.9297 B(  1-C , 42-H ) :   1.0039
B(  2-C ,  3-N ) :  -0.1817 B(  2-C ,  4-N ) :  -0.3734 B(  2-C ,  5-C ) :   0.3916
B(  2-C ,  6-C ) :  -0.2436 B(  2-C ,  7-C ) :  -0.1684 B(  2-C , 11-H ) :   0.1698
B(  2-C , 16-C ) :   1.0165 B(  2-C , 17-C ) :  -0.1198 B(  2-C , 29-O ) :   0.1973
B(  2-C , 30-O ) :   0.6811 B(  3-N ,  4-N ) :   1.4174 B(  4-N ,  5-C ) :   0.1172
B(  4-N , 16-C ) :   0.1419 B(  4-N , 23-C ) :   0.1440 B(  5-C ,  6-C ) :   0.7237
B(  5-C ,  7-C ) :   0.5437 B(  5-C ,  8-C ) :  -0.4058 B(  5-C , 10-C ) :  -0.3315
B(  5-C , 16-C ) :  -0.1288 B(  6-C ,  7-C ) :   0.1227 B(  6-C ,  8-C ) :   1.4438
B(  6-C ,  9-H ) :   1.0360 B(  6-C , 10-C ) :   0.1133 B(  6-C , 13-H ) :  -0.1598
B(  7-C ,  9-H ) :   0.1106 B(  7-C , 10-C ) :   1.3714 B(  7-C , 11-H ) :   0.9351
B(  7-C , 14-H ) :  -0.1015 B(  8-C , 10-C ) :   0.1146 B(  8-C , 12-C ) :   1.0963
B(  8-C , 13-H ) :   1.2420 B(  8-C , 15-H ) :  -0.1227 B( 10-C , 12-C ) :   1.2506
B( 10-C , 14-H ) :   1.1557 B( 10-C , 15-H ) :  -0.1353 B( 12-C , 15-H ) :   1.0423
B( 16-C , 29-O ) :   0.7397 B( 17-C , 18-C ) :   0.7219 B( 17-C , 29-O ) :  -0.1186
B( 17-C , 31-C ) :   0.7211 B( 17-C , 32-C ) :  -0.2318 B( 17-C , 33-C ) :  -0.5160
B( 17-C , 35-H ) :   0.1024 B( 18-C , 19-H ) :   1.3642 B( 18-C , 22-H ) :  -0.1058
B( 18-C , 29-O ) :   0.2657 B( 18-C , 31-C ) :  -0.5953 B( 18-C , 32-C ) :  -0.1508
B( 20-C , 21-H ) :   1.1944 B( 20-C , 22-H ) :   1.0260 B( 20-C , 23-C ) :  -0.1083
B( 20-C , 26-C ) :   0.8046 B( 20-C , 28-H ) :  -0.1149 B( 23-C , 24-H ) :   1.0077
B( 23-C , 25-H ) :   1.0287 B( 23-C , 26-C ) :   0.9786 B( 26-C , 27-H ) :   0.9905
B( 26-C , 28-H ) :   1.1507 B( 29-O , 30-O ) :   0.1878 B( 31-C , 32-C ) :   0.9771
B( 31-C , 33-C ) :   0.9903 B( 31-C , 34-C ) :  -0.4325 B( 31-C , 36-C ) :  -0.4641
B( 31-C , 37-H ) :  -0.1312 B( 31-C , 41-H ) :   0.1026 B( 32-C , 33-C ) :   0.2357
B( 32-C , 34-C ) :   1.2413 B( 32-C , 35-H ) :   0.9898 B( 32-C , 36-C ) :   0.1159
B( 32-C , 39-H ) :  -0.1497 B( 32-C , 41-H ) :  -0.1047 B( 33-C , 36-C ) :   1.2805
B( 33-C , 37-H ) :   1.0105 B( 33-C , 38-C ) :   0.1061 B( 33-C , 40-H ) :  -0.1720
B( 33-C , 41-H ) :  -0.1059 B( 34-C , 38-C ) :   1.1603 B( 34-C , 39-H ) :   1.1759
B( 36-C , 38-C ) :   1.1764 B( 36-C , 40-H ) :   1.1845 B( 38-C , 41-H ) :   0.9898

MP2 TOTAL ENERGY:    -1069.199888736 Eh
FINAL SINGLE POINT ENERGY     -1069.199888736252

DIPOLE MOMENT
-------------
                                X             Y             Z
Electronic contribution:      0.44854      -5.44792      12.24741
Nuclear contribution   :     -1.41174       6.03587     -14.47014
                        -----------------------------------------
Total Dipole Moment    :     -0.96320       0.58795      -2.22273
                        -----------------------------------------
Magnitude (a.u.)       :      2.49278
Magnitude (Debye)      :      6.33615

Rotational constants in cm-1:     0.011181     0.005874     0.004880
Rotational constants in MHz :   335.208883   176.107325   146.295925

                             ****ORCA TERMINATED NORMALLY****
TOTAL RUN TIME: 0 days 13 hours 49 minutes 9 seconds 929 msec
