                         Program Version 4.2.1 -  RELEASE  -
|  1> %pal
|  2>  nprocs 32
|  3> end
|  4> !RI-MP2 aug-cc-pVQZ aug-cc-pVQZ/C TightSCF
|  5> %maxcore 4500
|  6> *xyzfile 0 1  10_70R.xyz
|  7>
|  8>
|  9>                          ****END OF INPUT****

CARTESIAN COORDINATES (ANGSTROEM)
---------------------------------
  C      5.778929    0.760254    1.707276
  C      5.297996   -0.428175    0.884190
  C      3.867578   -0.259617    0.396507
  C      3.288659   -1.515128   -0.286788
  C      1.823732   -1.352831   -0.577422
  C      0.778266   -1.880339    0.073116
  C     -0.569153   -1.552524   -0.408484
  C     -1.720940   -1.990527    0.097165
  C     -4.208893    1.772044    0.194341
  C     -3.043194    2.007722    0.801874
  C     -1.843175    2.454335    0.118862
  C     -0.617768    2.188875    0.594339
  C      0.599136    2.331417   -0.168715
  C      1.740754    1.738050    0.193260
  C      2.906296    1.752548   -0.714514
  C      4.039719   -1.879047   -1.570819
  C     -3.076606   -1.575459   -0.408346
  C     -4.011744   -1.233572    0.766209
  C     -5.326155   -0.501089    0.396837
  C     -5.320262    0.991962    0.814353
  C      0.886964   -2.771166    1.277872
  O      3.013549    2.523657   -1.631525
  O      3.894069    0.851149   -0.519750
  O     -2.986662   -0.522143   -1.364781
  O     -5.692177   -0.666624   -0.959226
  H      5.750003    1.676529    1.116157
  H      6.805459    0.611189    2.046369
  H      5.154504    0.907461    2.593122
  H      5.951600   -0.569475    0.021242
  H      5.346893   -1.345042    1.479616
  H      3.242325   -0.017354    1.257687
  H      3.426649   -2.322874    0.435793
  H      1.600830   -0.726552   -1.438387
  H      0.563749    2.859577   -1.117051
  H      1.777678    1.179409    1.116929
  H      3.995587   -1.058135   -2.288259
  H      3.589284   -2.760152   -2.030316
  H      5.089580   -2.101466   -1.376347
  H     -3.524014   -2.400290   -0.969165
  H     -3.458382   -0.638765    1.496996
  H     -4.251072   -2.179230    1.259651
  H     -6.140786   -0.960900    0.959708
  H     -5.241037    1.035280    1.904876
  H     -6.291242    1.405387    0.532488
  H      0.404142   -3.734019    1.090893
  H      0.379970   -2.321242    2.136248
  H      1.917981   -2.965413    1.564300
  H     -2.557794    0.230714   -0.942315
  H     -4.919450   -0.450470   -1.500130
  H     -0.529273    1.716266    1.569583
  H     -1.953751    2.894078   -0.870030
  H     -4.323679    2.052020   -0.850223
  H     -2.919904    1.710361    1.841026
  H     -1.732319   -2.676945    0.938601
  H     -0.604590   -0.884654   -1.263471

 Total Charge           Charge          ....    0
 Multiplicity           Mult            ....    1
 Number of Electrons    NEL             ....  188
 Basis Dimension        Dim             .... 3380

ORBITAL ENERGIES
----------------

  NO   OCC          E(Eh)            E(eV)
   0   2.0000     -20.588014      -560.2283
   1   2.0000     -20.567869      -559.6802
   2   2.0000     -20.542475      -558.9892
   3   2.0000     -20.523805      -558.4811
   4   2.0000     -11.374930      -309.5276
   5   2.0000     -11.300308      -307.4970
   6   2.0000     -11.295730      -307.3724
   7   2.0000     -11.287695      -307.1538
   8   2.0000     -11.265327      -306.5451
   9   2.0000     -11.262700      -306.4736
  10   2.0000     -11.253216      -306.2156
  11   2.0000     -11.251752      -306.1757
  12   2.0000     -11.247210      -306.0521
  13   2.0000     -11.245542      -306.0068
  14   2.0000     -11.243271      -305.9449
  15   2.0000     -11.243078      -305.9397
  16   2.0000     -11.236535      -305.7617
  17   2.0000     -11.234919      -305.7177
  18   2.0000     -11.234646      -305.7103
  19   2.0000     -11.232775      -305.6593
  20   2.0000     -11.232268      -305.6455
  21   2.0000     -11.231117      -305.6142
  22   2.0000     -11.229979      -305.5833
  23   2.0000     -11.217645      -305.2476
  24   2.0000     -11.216458      -305.2153
  25   2.0000      -1.447780       -39.3961
  26   2.0000      -1.384328       -37.6695
  27   2.0000      -1.352432       -36.8016
  28   2.0000      -1.351401       -36.7735
  29   2.0000      -1.140907       -31.0457
  30   2.0000      -1.135348       -30.8944
  31   2.0000      -1.105286       -30.0764
  32   2.0000      -1.100251       -29.9394
  33   2.0000      -1.069670       -29.1072
  34   2.0000      -1.054690       -28.6996
  35   2.0000      -1.035058       -28.1654
  36   2.0000      -1.006268       -27.3819
  37   2.0000      -0.972132       -26.4531
  38   2.0000      -0.950153       -25.8550
  39   2.0000      -0.942350       -25.6426
  40   2.0000      -0.906060       -24.6551
  41   2.0000      -0.886338       -24.1185
  42   2.0000      -0.850516       -23.1437
  43   2.0000      -0.827554       -22.5189
  44   2.0000      -0.818656       -22.2768
  45   2.0000      -0.788543       -21.4573
  46   2.0000      -0.781358       -21.2618
  47   2.0000      -0.773270       -21.0417
  48   2.0000      -0.741756       -20.1842
  49   2.0000      -0.730366       -19.8743
  50   2.0000      -0.717225       -19.5167
  51   2.0000      -0.705838       -19.2068
  52   2.0000      -0.686731       -18.6869
  53   2.0000      -0.674723       -18.3601
  54   2.0000      -0.668310       -18.1856
  55   2.0000      -0.657662       -17.8959
  56   2.0000      -0.650615       -17.7041
  57   2.0000      -0.642970       -17.4961
  58   2.0000      -0.638211       -17.3666
  59   2.0000      -0.625310       -17.0155
  60   2.0000      -0.616469       -16.7750
  61   2.0000      -0.609534       -16.5863
  62   2.0000      -0.606539       -16.5048
  63   2.0000      -0.591988       -16.1088
  64   2.0000      -0.587727       -15.9929
  65   2.0000      -0.585440       -15.9306
  66   2.0000      -0.582776       -15.8581
  67   2.0000      -0.575948       -15.6723
  68   2.0000      -0.561490       -15.2789
  69   2.0000      -0.558493       -15.1974
  70   2.0000      -0.554085       -15.0774
  71   2.0000      -0.543401       -14.7867
  72   2.0000      -0.538787       -14.6611
  73   2.0000      -0.535089       -14.5605
  74   2.0000      -0.530251       -14.4289
  75   2.0000      -0.525901       -14.3105
  76   2.0000      -0.519783       -14.1440
  77   2.0000      -0.511832       -13.9277
  78   2.0000      -0.508674       -13.8417
  79   2.0000      -0.502483       -13.6733
  80   2.0000      -0.500694       -13.6246
  81   2.0000      -0.494727       -13.4622
  82   2.0000      -0.486059       -13.2263
  83   2.0000      -0.479016       -13.0347
  84   2.0000      -0.475509       -12.9393
  85   2.0000      -0.469150       -12.7662
  86   2.0000      -0.447131       -12.1671
  87   2.0000      -0.445609       -12.1256
  88   2.0000      -0.439967       -11.9721
  89   2.0000      -0.437254       -11.8983
  90   2.0000      -0.417548       -11.3621
  91   2.0000      -0.400531       -10.8990
  92   2.0000      -0.323792        -8.8108
  93   2.0000      -0.304713        -8.2917
  94   0.0000       0.014047         0.3822
  95   0.0000       0.020881         0.5682
  96   0.0000       0.023822         0.6482
  97   0.0000       0.026656         0.7253
  98   0.0000       0.030251         0.8232

MULLIKEN ATOMIC CHARGES
-----------------------
   0 C :   -0.932763
   1 C :   -0.757814
   2 C :    1.387933
   3 C :    0.050307
   4 C :   -0.071001
   5 C :    0.640132
   6 C :   -0.345348
   7 C :   -0.393987
   8 C :   -0.191478
   9 C :   -0.256899
  10 C :    0.097436
  11 C :   -0.248339
  12 C :    0.068432
  13 C :   -1.055642
  14 C :    1.911712
  15 C :   -1.188289
  16 C :    0.941582
  17 C :   -0.849850
  18 C :    0.755047
  19 C :   -0.849591
  20 C :   -1.105071
  21 O :   -1.134244
  22 O :   -1.105405
  23 O :   -1.349821
  24 O :   -1.256073
  25 H :    0.218904
  26 H :    0.281369
  27 H :    0.166576
  28 H :    0.193268
  29 H :    0.229693
  30 H :    0.237648
  31 H :    0.145366
  32 H :   -0.002671
  33 H :    0.137415
  34 H :    0.244376
  35 H :    0.239809
  36 H :    0.266133
  37 H :    0.213748
  38 H :    0.430157
  39 H :    0.349461
  40 H :    0.246548
  41 H :    0.453926
  42 H :    0.224257
  43 H :    0.260033
  44 H :    0.256362
  45 H :    0.169318
  46 H :    0.287117
  47 H :    0.665366
  48 H :    0.439307
  49 H :    0.156443
  50 H :    0.190689
  51 H :    0.181619
  52 H :    0.206783
  53 H :    0.135129
  54 H :    0.014890
Sum of atomic charges:   -0.0000000

LOEWDIN ATOMIC CHARGES
----------------------
   0 C :    0.944278
   1 C :    0.504784
   2 C :   -0.203482
   3 C :    0.113855
   4 C :    0.368113
   5 C :   -0.000743
   6 C :    0.367311
   7 C :    0.408066
   8 C :    0.374188
   9 C :    0.352627
  10 C :    0.365101
  11 C :    0.361698
  12 C :    0.348650
  13 C :    0.309371
  14 C :   -1.073309
  15 C :    0.944180
  16 C :   -0.176151
  17 C :    0.531583
  18 C :   -0.163416
  19 C :    0.512686
  20 C :    0.906436
  21 O :    0.679170
  22 O :    0.878010
  23 O :    1.360121
  24 O :    1.318760
  25 H :   -0.286004
  26 H :   -0.275529
  27 H :   -0.275897
  28 H :   -0.284784
  29 H :   -0.260641
  30 H :   -0.351114
  31 H :   -0.330429
  32 H :   -0.328188
  33 H :   -0.334195
  34 H :   -0.379977
  35 H :   -0.274462
  36 H :   -0.262361
  37 H :   -0.280956
  38 H :   -0.299356
  39 H :   -0.313436
  40 H :   -0.264517
  41 H :   -0.313645
  42 H :   -0.292479
  43 H :   -0.277854
  44 H :   -0.274270
  45 H :   -0.274570
  46 H :   -0.315867
  47 H :   -0.857793
  48 H :   -0.960754
  49 H :   -0.332061
  50 H :   -0.314008
  51 H :   -0.295168
  52 H :   -0.327751
  53 H :   -0.327879
  54 H :   -0.365938

  Mayer bond orders larger than 0.100000
B(  0-C ,  1-C ) :   0.9331 B(  0-C ,  2-C ) :  -0.1819 B(  0-C , 25-H ) :   0.9921
B(  0-C , 26-H ) :   1.0371 B(  0-C , 27-H ) :   1.0214 B(  1-C ,  3-C ) :   0.2042
B(  1-C , 26-H ) :  -0.1399 B(  1-C , 28-H ) :   1.1019 B(  1-C , 29-H ) :   1.0631
B(  2-C ,  3-C ) :   0.6379 B(  2-C ,  4-C ) :  -0.1044 B(  2-C , 13-C ) :  -0.2364
B(  2-C , 21-O ) :   0.1483 B(  2-C , 22-O ) :  -0.1483 B(  2-C , 28-H ) :  -0.1861
B(  2-C , 29-H ) :  -0.1248 B(  2-C , 30-H ) :   0.8507 B(  3-C ,  4-C ) :   0.7881
B(  3-C ,  5-C ) :  -0.3191 B(  3-C , 15-C ) :   0.3563 B(  3-C , 31-H ) :   0.9642
B(  3-C , 35-H ) :  -0.2458 B(  3-C , 36-H ) :  -0.1148 B(  3-C , 37-H ) :  -0.1535
B(  4-C ,  5-C ) :   1.3208 B(  4-C ,  6-C ) :  -0.7032 B(  4-C , 15-C ) :  -0.2340
B(  4-C , 32-H ) :   1.3028 B(  5-C ,  6-C ) :   0.6525 B(  5-C ,  7-C ) :  -0.6774
B(  5-C , 20-C ) :   0.3345 B(  5-C , 32-H ) :  -0.1655 B(  5-C , 44-H ) :  -0.1681
B(  5-C , 45-H ) :  -0.1692 B(  5-C , 54-H ) :  -0.1924 B(  6-C ,  7-C ) :   1.1863
B(  6-C , 16-C ) :  -0.5183 B(  6-C , 23-O ) :  -0.2197 B(  6-C , 53-H ) :  -0.1513
B(  6-C , 54-H ) :   1.1094 B(  7-C , 16-C ) :   0.6693 B(  7-C , 17-C ) :  -0.1899
B(  7-C , 20-C ) :  -0.1177 B(  7-C , 23-O ) :   0.2614 B(  7-C , 38-H ) :  -0.1931
B(  7-C , 53-H ) :   1.1589 B(  7-C , 54-H ) :   0.1301 B(  8-C ,  9-C ) :   1.4520
B(  8-C , 10-C ) :  -0.6686 B(  8-C , 11-C ) :   0.1137 B(  8-C , 19-C ) :   0.8054
B(  8-C , 43-H ) :  -0.2035 B(  8-C , 51-H ) :   1.1621 B(  9-C , 10-C ) :   0.5022
B(  9-C , 11-C ) :  -0.6924 B(  9-C , 19-C ) :  -0.2221 B(  9-C , 50-H ) :  -0.1582
B(  9-C , 52-H ) :   1.1437 B( 10-C , 11-C ) :   1.2767 B( 10-C , 12-C ) :  -0.4584
B( 10-C , 50-H ) :   1.2012 B( 10-C , 52-H ) :  -0.1417 B( 11-C , 12-C ) :   0.7404
B( 11-C , 13-C ) :  -0.6140 B( 11-C , 49-H ) :   1.1857 B( 11-C , 50-H ) :  -0.1209
B( 12-C , 13-C ) :   1.0379 B( 12-C , 14-C ) :  -0.4835 B( 12-C , 33-H ) :   1.2224
B( 13-C , 14-C ) :   1.2969 B( 13-C , 21-O ) :   0.2380 B( 13-C , 22-O ) :   0.1107
B( 13-C , 33-H ) :  -0.1322 B( 13-C , 34-H ) :   1.1226 B( 14-C , 21-O ) :   0.3474
B( 14-C , 22-O ) :   0.9595 B( 15-C , 35-H ) :   1.0835 B( 15-C , 36-H ) :   1.0949
B( 15-C , 37-H ) :   1.1402 B( 16-C , 17-C ) :   1.0802 B( 16-C , 38-H ) :   0.7686
B( 17-C , 18-C ) :   0.8708 B( 17-C , 24-O ) :   0.3087 B( 17-C , 39-H ) :   0.8491
B( 17-C , 40-H ) :   1.0040 B( 18-C , 19-C ) :   0.9440 B( 18-C , 41-H ) :   0.8435
B( 19-C , 24-O ) :   0.2570 B( 19-C , 42-H ) :   1.0526 B( 19-C , 43-H ) :   1.0337
B( 20-C , 44-H ) :   1.1045 B( 20-C , 45-H ) :   1.1030 B( 20-C , 46-H ) :   1.0230
B( 21-O , 22-O ) :   0.1982 B( 23-O , 47-H ) :   0.3492 B( 23-O , 54-H ) :   0.2894
B( 24-O , 41-H ) :  -0.1203 B( 24-O , 48-H ) :   0.7221 B( 44-H , 45-H ) :   0.1133

MP2 TOTAL ENERGY:    -1117.278863821 Eh
FINAL SINGLE POINT ENERGY     -1117.278863821309

DIPOLE MOMENT
-------------
                                X             Y             Z
Electronic contribution:     -6.80467      10.91512      -8.71893
Nuclear contribution   :      6.64544     -12.02540      10.84815
                        -----------------------------------------
Total Dipole Moment    :     -0.15923      -1.11028       2.12922
                        -----------------------------------------
Magnitude (a.u.)       :      2.40659
Magnitude (Debye)      :      6.11705

Rotational constants in cm-1:     0.013427     0.003620     0.003168
Rotational constants in MHz :   402.520887   108.515546    94.961738

                             ****ORCA TERMINATED NORMALLY****
TOTAL RUN TIME: 0 days 22 hours 34 minutes 54 seconds 919 msec
