                         Program Version 4.2.1 -  RELEASE  -
|  1> %pal
|  2>  nprocs 32
|  3> end
|  4> !RI-MP2 aug-cc-pVQZ aug-cc-pVQZ/C TightSCF
|  5> %maxcore 4500
|  6> *xyzfile 0 1  05_27R1.xyz
|  7>
|  8>
|  9>                          ****END OF INPUT****

CARTESIAN COORDINATES (ANGSTROEM)
---------------------------------
  C      3.273571    0.239752    0.257116
  C      2.380549    1.296040    0.372134
  C      1.029606    1.103617    0.115857
  C      0.558417   -0.149140   -0.257921
  C      1.459911   -1.201757   -0.385040
  C      2.809082   -1.012124   -0.124409
  H      4.327662    0.392308    0.455201
  H      2.738239    2.278401    0.657469
  H      0.330119    1.926335    0.185025
  H      1.103427   -2.178733   -0.695167
  H      3.500229   -1.840305   -0.226934
  C     -0.910138   -0.398226   -0.481072
  O     -1.597601    0.813972   -0.782623
  C     -1.635368   -0.975228    0.739502
  C     -2.855524    0.863517   -0.108146
  C     -3.070969   -0.521854    0.494253
  H     -1.234164   -0.521435    1.649410
  H     -1.518660   -2.056232    0.817239
  H     -2.808779    1.632765    0.670799
  H     -3.626206    1.147455   -0.827048
  H     -3.679090   -0.495134    1.398900
  H     -3.561141   -1.181082   -0.226509
  H     -1.025657   -1.083696   -1.331064

 Total Charge           Charge          ....    0
 Multiplicity           Mult            ....    1
 Number of Electrons    NEL             ....   80
 Basis Dimension        Dim             .... 1432

ORBITAL ENERGIES
----------------

  NO   OCC          E(Eh)            E(eV)
   0   2.0000     -20.546601      -559.1014
   1   2.0000     -11.281413      -306.9829
   2   2.0000     -11.272166      -306.7312
   3   2.0000     -11.232531      -305.6527
   4   2.0000     -11.229598      -305.5729
   5   2.0000     -11.227900      -305.5267
   6   2.0000     -11.227195      -305.5075
   7   2.0000     -11.226959      -305.5011
   8   2.0000     -11.226218      -305.4809
   9   2.0000     -11.225426      -305.4594
  10   2.0000     -11.221647      -305.3565
  11   2.0000      -1.375654       -37.4335
  12   2.0000      -1.153234       -31.3811
  13   2.0000      -1.068041       -29.0629
  14   2.0000      -1.043536       -28.3961
  15   2.0000      -1.010849       -27.5066
  16   2.0000      -0.969037       -26.3688
  17   2.0000      -0.844677       -22.9848
  18   2.0000      -0.826024       -22.4772
  19   2.0000      -0.812849       -22.1188
  20   2.0000      -0.776669       -21.1342
  21   2.0000      -0.706157       -19.2155
  22   2.0000      -0.687616       -18.7110
  23   2.0000      -0.661286       -17.9945
  24   2.0000      -0.626128       -17.0378
  25   2.0000      -0.624627       -16.9970
  26   2.0000      -0.595816       -16.2130
  27   2.0000      -0.587165       -15.9776
  28   2.0000      -0.581499       -15.8234
  29   2.0000      -0.560182       -15.2433
  30   2.0000      -0.532532       -14.4909
  31   2.0000      -0.507626       -13.8132
  32   2.0000      -0.497670       -13.5423
  33   2.0000      -0.490449       -13.3458
  34   2.0000      -0.481840       -13.1115
  35   2.0000      -0.475466       -12.9381
  36   2.0000      -0.464815       -12.6483
  37   2.0000      -0.416356       -11.3296
  38   2.0000      -0.333471        -9.0742
  39   2.0000      -0.323661        -8.8073
  40   0.0000       0.024006         0.6532
  41   0.0000       0.027110         0.7377
  42   0.0000       0.028976         0.7885
  43   0.0000       0.033778         0.9191
  44   0.0000       0.038488         1.0473

MULLIKEN ATOMIC CHARGES
-----------------------
   0 C :   -0.320739
   1 C :   -0.324211
   2 C :   -0.561162
   3 C :    0.402626
   4 C :   -0.564413
   5 C :   -0.330742
   6 H :    0.342725
   7 H :    0.225233
   8 H :    0.277041
   9 H :    0.257073
  10 H :    0.206870
  11 C :    0.881152
  12 O :   -1.034147
  13 C :   -0.585159
  14 C :   -0.306767
  15 C :   -0.620136
  16 H :    0.211733
  17 H :    0.332647
  18 H :    0.217269
  19 H :    0.400938
  20 H :    0.347633
  21 H :    0.223127
  22 H :    0.321410
Sum of atomic charges:   -0.0000000

LOEWDIN ATOMIC CHARGES
----------------------
   0 C :    0.333149
   1 C :    0.346896
   2 C :    0.344114
   3 C :   -0.092515
   4 C :    0.342746
   5 C :    0.342621
   6 H :   -0.324548
   7 H :   -0.320639
   8 H :   -0.333563
   9 H :   -0.309548
  10 H :   -0.321049
  11 C :   -0.255165
  12 O :    0.910006
  13 C :    0.513760
  14 C :    0.205253
  15 C :    0.524015
  16 H :   -0.261462
  17 H :   -0.247195
  18 H :   -0.287262
  19 H :   -0.291133
  20 H :   -0.257811
  21 H :   -0.265082
  22 H :   -0.295589

  Mayer bond orders larger than 0.100000
B(  0-C ,  1-C ) :   1.1397 B(  0-C ,  5-C ) :   1.1534 B(  0-C ,  6-H ) :   0.9986
B(  0-C , 10-H ) :  -0.1025 B(  1-C ,  2-C ) :   1.3370 B(  1-C ,  3-C ) :  -0.3889
B(  1-C ,  4-C ) :   0.1493 B(  1-C ,  6-H ) :  -0.1034 B(  1-C ,  7-H ) :   1.1527
B(  2-C ,  3-C ) :   1.1483 B(  2-C ,  5-C ) :   0.1753 B(  2-C ,  7-H ) :  -0.1338
B(  2-C ,  8-H ) :   0.9255 B(  2-C , 11-C ) :  -0.2862 B(  3-C ,  4-C ) :   0.9483
B(  3-C ,  5-C ) :  -0.4086 B(  3-C , 11-C ) :   0.7787 B(  4-C ,  5-C ) :   1.3760
B(  4-C ,  9-H ) :   0.9974 B(  4-C , 10-H ) :  -0.1375 B(  4-C , 11-C ) :  -0.2781
B(  5-C , 10-H ) :   1.1836 B( 11-C , 12-O ) :   0.2826 B( 11-C , 13-C ) :   0.8480
B( 11-C , 15-C ) :  -0.1356 B( 11-C , 22-H ) :   0.9000 B( 12-O , 14-C ) :   0.8780
B( 13-C , 15-C ) :   1.0011 B( 13-C , 16-H ) :   0.9508 B( 13-C , 17-H ) :   0.8406
B( 14-C , 15-C ) :   1.1299 B( 14-C , 18-H ) :   0.9582 B( 14-C , 19-H ) :   0.8065
B( 15-C , 20-H ) :   0.8407 B( 15-C , 21-H ) :   0.9367

MP2 TOTAL ENERGY:     -462.698219016 Eh
FINAL SINGLE POINT ENERGY      -462.698219015688

DIPOLE MOMENT
-------------
                                X             Y             Z
Electronic contribution:      5.11414       1.53461      -2.11472
Nuclear contribution   :     -5.55465      -1.99360       2.54962
                        -----------------------------------------
Total Dipole Moment    :     -0.44052      -0.45899       0.43490
                        -----------------------------------------
Magnitude (a.u.)       :      0.77063
Magnitude (Debye)      :      1.95879

Rotational constants in cm-1:     0.100710     0.022260     0.019819
Rotational constants in MHz :  3019.204472   667.325662   594.166835

                             ****ORCA TERMINATED NORMALLY****
TOTAL RUN TIME: 0 days 1 hours 16 minutes 1 seconds 696 msec
