                         Program Version 4.2.1 -  RELEASE  -
|  1> %pal
|  2>  nprocs 32
|  3> end
|  4> !RI-MP2 aug-cc-pVQZ aug-cc-pVQZ/C TightSCF
|  5> %maxcore 4500
|  6> *xyzfile 0 1  06_25TS.xyz
|  7>
|  8>
|  9>                          ****END OF INPUT****

CARTESIAN COORDINATES (ANGSTROEM)
---------------------------------
  C      1.710966   -2.792700   -0.758595
  C      0.834357   -2.104453    0.314562
  C      2.827710    0.213955   -0.135770
  H      1.077283   -3.424784   -1.390719
  C      1.492524   -2.168841    1.705632
  H      0.843263   -1.661196    2.427486
  H      1.547366   -3.216762    2.024381
  H      3.420566    1.119175   -0.297496
  H     -0.077853   -2.707104    0.415037
  H     -0.266302   -0.214814    0.968700
  C      2.894806   -1.579772    1.795901
  H      3.233786   -1.656378    2.833976
  H      3.586467   -2.201336    1.220405
  C      3.042588   -0.123259    1.358114
  H      2.378805    0.499616    1.965194
  H      4.060600    0.186346    1.616995
  C      3.442057   -0.835838   -1.094191
  H      3.884038   -0.295370   -1.937501
  C      2.498838   -1.879385   -1.701841
  H      1.790054   -1.359839   -2.353383
  H      3.091851   -2.511821   -2.370964
  H      4.280353   -1.335812   -0.599025
  H      2.400035   -3.490324   -0.269046
  C      1.365978    0.565200   -0.521820
  H      1.368423    0.613492   -1.618071
  Si     0.852884    2.321611   -0.052750
  C      0.466498    2.559253    1.775171
  H      1.361405    2.475054    2.395278
  H      0.046228    3.555158    1.941243
  H     -0.259258    1.828846    2.138807
  C     -0.687704    2.787701   -1.037953
  H     -0.959543    3.829094   -0.845546
  H     -0.515555    2.692538   -2.113903
  H     -1.554310    2.175477   -0.780792
  C      2.206570    3.544637   -0.523849
  H      2.509718    3.422063   -1.567343
  H      1.855788    4.572871   -0.400708
  H      3.098654    3.426975    0.095693
  B      0.350379   -0.597816   -0.006067
  C     -1.597081   -0.556274   -0.402787
  C     -2.590536   -0.354681    0.422475
  H     -2.445063   -0.112076    1.464233
  C     -0.875271   -0.823731   -1.486014
  H     -0.676075   -0.036042   -2.200522
  H     -0.728263   -1.846240   -1.807749
  C     -3.980905   -0.454737   -0.088806
  O     -4.302817   -0.716079   -1.216564
  O     -4.849938   -0.206243    0.900080
  C     -6.234399   -0.267466    0.539560
  H     -6.485752   -1.262393    0.173130
  H     -6.783275   -0.042749    1.449671
  H     -6.455642    0.465791   -0.235488

 Total Charge           Charge          ....    0
 Multiplicity           Mult            ....    1
 Number of Electrons    NEL             ....  168
 Basis Dimension        Dim             .... 3110

ORBITAL ENERGIES
----------------

  NO   OCC          E(Eh)            E(eV)
   0   2.0000     -68.731289     -1870.2734
   1   2.0000     -20.617127      -561.0205
   2   2.0000     -20.554655      -559.3206
   3   2.0000     -11.399643      -310.2001
   4   2.0000     -11.334030      -308.4146
   5   2.0000     -11.295000      -307.3526
   6   2.0000     -11.278433      -306.9018
   7   2.0000     -11.272349      -306.7362
   8   2.0000     -11.212250      -305.1008
   9   2.0000     -11.205374      -304.9137
  10   2.0000     -11.203281      -304.8568
  11   2.0000     -11.202750      -304.8423
  12   2.0000     -11.201518      -304.8088
  13   2.0000     -11.199931      -304.7656
  14   2.0000     -11.198972      -304.7395
  15   2.0000     -11.188144      -304.4449
  16   2.0000     -11.185401      -304.3702
  17   2.0000     -11.184526      -304.3464
  18   2.0000     -11.184430      -304.3438
  19   2.0000     -11.170789      -303.9726
  20   2.0000      -7.561750      -205.7657
  21   2.0000      -6.080491      -165.4586
  22   2.0000      -4.187026      -113.9348
  23   2.0000      -4.186933      -113.9322
  24   2.0000      -4.186573      -113.9224
  25   2.0000      -1.479699       -40.2647
  26   2.0000      -1.376640       -37.4603
  27   2.0000      -1.148011       -31.2390
  28   2.0000      -1.101972       -29.9862
  29   2.0000      -1.046348       -28.4726
  30   2.0000      -1.035732       -28.1837
  31   2.0000      -1.031180       -28.0598
  32   2.0000      -0.978966       -26.6390
  33   2.0000      -0.964697       -26.2507
  34   2.0000      -0.936559       -25.4851
  35   2.0000      -0.915519       -24.9125
  36   2.0000      -0.912605       -24.8332
  37   2.0000      -0.905398       -24.6371
  38   2.0000      -0.862417       -23.4676
  39   2.0000      -0.829161       -22.5626
  40   2.0000      -0.790956       -21.5230
  41   2.0000      -0.776647       -21.1336
  42   2.0000      -0.760095       -20.6832
  43   2.0000      -0.723039       -19.6749
  44   2.0000      -0.704396       -19.1676
  45   2.0000      -0.702444       -19.1145
  46   2.0000      -0.688287       -18.7292
  47   2.0000      -0.668958       -18.2033
  48   2.0000      -0.656834       -17.8734
  49   2.0000      -0.644386       -17.5346
  50   2.0000      -0.630906       -17.1678
  51   2.0000      -0.623155       -16.9569
  52   2.0000      -0.606282       -16.4978
  53   2.0000      -0.598365       -16.2823
  54   2.0000      -0.591549       -16.0969
  55   2.0000      -0.571987       -15.5646
  56   2.0000      -0.570201       -15.5159
  57   2.0000      -0.564051       -15.3486
  58   2.0000      -0.561483       -15.2787
  59   2.0000      -0.558567       -15.1994
  60   2.0000      -0.553847       -15.0709
  61   2.0000      -0.550177       -14.9711
  62   2.0000      -0.544850       -14.8261
  63   2.0000      -0.536240       -14.5918
  64   2.0000      -0.530004       -14.4221
  65   2.0000      -0.526121       -14.3165
  66   2.0000      -0.522122       -14.2077
  67   2.0000      -0.500844       -13.6287
  68   2.0000      -0.484674       -13.1886
  69   2.0000      -0.478523       -13.0213
  70   2.0000      -0.475261       -12.9325
  71   2.0000      -0.473194       -12.8763
  72   2.0000      -0.466653       -12.6983
  73   2.0000      -0.455745       -12.4015
  74   2.0000      -0.450785       -12.2665
  75   2.0000      -0.435767       -11.8578
  76   2.0000      -0.425510       -11.5787
  77   2.0000      -0.421255       -11.4629
  78   2.0000      -0.416649       -11.3376
  79   2.0000      -0.406044       -11.0490
  80   2.0000      -0.405419       -11.0320
  81   2.0000      -0.393409       -10.7052
  82   2.0000      -0.387789       -10.5523
  83   2.0000      -0.357793        -9.7361
  84   0.0000       0.018490         0.5031
  85   0.0000       0.023370         0.6359
  86   0.0000       0.025589         0.6963
  87   0.0000       0.026262         0.7146
  88   0.0000       0.032947         0.8965

MULLIKEN ATOMIC CHARGES
-----------------------
   0 C :   -0.531367
   1 C :    0.434005
   2 C :    0.345991
   3 H :    0.004271
   4 C :   -0.860708
   5 H :    0.107097
   6 H :    0.037218
   7 H :    0.355705
   8 H :    0.381276
   9 H :   -0.576418
  10 C :   -0.304267
  11 H :    0.055488
  12 H :    0.153187
  13 C :   -0.625056
  14 H :    0.496861
  15 H :   -0.085749
  16 C :   -0.621113
  17 H :   -0.003481
  18 C :   -0.594548
  19 H :    0.185836
  20 H :    0.147345
  21 H :    0.151071
  22 H :    0.000107
  23 C :   -1.516923
  24 H :    0.101330
  25 Si:    2.109976
  26 C :   -1.192322
  27 H :    0.231324
  28 H :    0.164936
  29 H :    0.306903
  30 C :   -1.172950
  31 H :    0.187597
  32 H :    0.203468
  33 H :    0.228557
  34 C :   -1.002666
  35 H :    0.214513
  36 H :    0.255465
  37 H :    0.248917
  38 B :    1.976331
  39 C :    0.997178
  40 C :   -1.430305
  41 H :    0.126195
  42 C :   -0.561441
  43 H :    0.308723
  44 H :    0.260756
  45 C :    1.867663
  46 O :   -0.945145
  47 O :   -0.904319
  48 C :   -0.882410
  49 H :    0.360423
  50 H :    0.455343
  51 H :    0.350135
Sum of atomic charges:   -0.0000000

LOEWDIN ATOMIC CHARGES
----------------------
   0 C :    0.573746
   1 C :    0.313035
   2 C :    0.165126
   3 H :   -0.260158
   4 C :    0.563138
   5 H :   -0.261185
   6 H :   -0.250283
   7 H :   -0.328403
   8 H :   -0.283955
   9 H :   -0.219849
  10 C :    0.572492
  11 H :   -0.251504
  12 H :   -0.298584
  13 C :    0.578458
  14 H :   -0.293340
  15 H :   -0.250442
  16 C :    0.590427
  17 H :   -0.255131
  18 C :    0.571321
  19 H :   -0.299545
  20 H :   -0.252229
  21 H :   -0.274385
  22 H :   -0.273136
  23 C :    0.388774
  24 H :   -0.370976
  25 Si:    0.184131
  26 C :    1.017902
  27 H :   -0.335678
  28 H :   -0.326945
  29 H :   -0.336847
  30 C :    1.008302
  31 H :   -0.327515
  32 H :   -0.322482
  33 H :   -0.356469
  34 C :    1.008693
  35 H :   -0.323588
  36 H :   -0.331857
  37 H :   -0.334256
  38 B :   -0.698769
  39 C :    0.185040
  40 C :    0.369690
  41 H :   -0.332819
  42 C :    0.797634
  43 H :   -0.266523
  44 H :   -0.261519
  45 C :   -1.106665
  46 O :    0.722850
  47 O :    0.839297
  48 C :    0.583377
  49 H :   -0.313659
  50 H :   -0.321026
  51 H :   -0.313710

  Mayer bond orders larger than 0.100000
B(  0-C ,  1-C ) :   0.3129 B(  0-C ,  3-H ) :   1.3658 B(  0-C ,  8-H ) :  -0.1556
B(  0-C , 18-C ) :   0.6142 B(  0-C , 19-H ) :  -0.1213 B(  0-C , 20-H ) :  -0.1016
B(  0-C , 22-H ) :   1.4246 B(  0-C , 23-C ) :   0.1166 B(  0-C , 38-B ) :  -0.2266
B(  1-C ,  2-C ) :   0.1410 B(  1-C ,  3-H ) :  -0.1840 B(  1-C ,  4-C ) :   0.1824
B(  1-C ,  5-H ) :  -0.1894 B(  1-C ,  6-H ) :  -0.1632 B(  1-C ,  8-H ) :   0.9466
B(  1-C , 10-C ) :  -0.1217 B(  1-C , 22-H ) :  -0.3530 B(  1-C , 23-C ) :  -0.1787
B(  1-C , 25-Si) :   0.1356 B(  1-C , 38-B ) :   0.8046 B(  2-C ,  7-H ) :   1.0082
B(  2-C , 13-C ) :   0.5901 B(  2-C , 15-H ) :  -0.1481 B(  2-C , 16-C ) :   0.4625
B(  2-C , 17-H ) :  -0.2249 B(  2-C , 18-C ) :   0.1852 B(  2-C , 21-H ) :  -0.2425
B(  2-C , 23-C ) :   0.3820 B(  2-C , 24-H ) :  -0.1242 B(  2-C , 25-Si) :  -0.2999
B(  2-C , 34-C ) :  -0.1460 B(  2-C , 38-B ) :  -0.2211 B(  4-C ,  5-H ) :   1.3517
B(  4-C ,  6-H ) :   1.3325 B(  4-C ,  8-H ) :  -0.1915 B(  4-C ,  9-H ) :   0.1050
B(  4-C , 10-C ) :   0.7998 B(  4-C , 11-H ) :  -0.1010 B(  4-C , 13-C ) :  -0.1699
B(  4-C , 38-B ) :  -0.2411 B(  5-H , 38-B ) :  -0.1748 B(  7-H , 16-C ) :  -0.1190
B(  7-H , 23-C ) :  -0.1056 B(  9-H , 23-C ) :  -0.2894 B(  9-H , 38-B ) :   0.7829
B(  9-H , 39-C ) :   0.1856 B( 10-C , 11-H ) :   1.1570 B( 10-C , 12-H ) :   1.1560
B( 10-C , 13-C ) :   0.5734 B( 10-C , 14-H ) :  -0.1128 B( 10-C , 38-B ) :   0.1259
B( 13-C , 14-H ) :   0.8575 B( 13-C , 15-H ) :   1.4300 B( 13-C , 38-B ) :  -0.1552
B( 16-C , 17-H ) :   1.3477 B( 16-C , 18-C ) :   0.6963 B( 16-C , 21-H ) :   1.3096
B( 18-C , 19-H ) :   1.1792 B( 18-C , 20-H ) :   1.1424 B( 23-C , 24-H ) :   0.8059
B( 23-C , 25-Si) :   1.2622 B( 23-C , 26-C ) :   0.2945 B( 23-C , 30-C ) :   0.1133
B( 23-C , 34-C ) :   0.4283 B( 23-C , 38-B ) :   0.7590 B( 23-C , 39-C ) :   0.2389
B( 23-C , 42-C ) :  -0.2217 B( 23-C , 43-H ) :  -0.1057 B( 24-H , 25-Si) :   0.1254
B( 25-Si, 26-C ) :   0.3455 B( 25-Si, 30-C ) :   0.3220 B( 25-Si, 32-H ) :  -0.1106
B( 25-Si, 34-C ) :   0.3853 B( 25-Si, 35-H ) :  -0.1297 B( 25-Si, 36-H ) :  -0.1360
B( 25-Si, 37-H ) :  -0.1304 B( 25-Si, 38-B ) :  -0.1725 B( 25-Si, 39-C ) :  -0.1651
B( 26-C , 27-H ) :   1.0503 B( 26-C , 28-H ) :   1.1435 B( 26-C , 29-H ) :   0.9545
B( 30-C , 31-H ) :   1.1428 B( 30-C , 32-H ) :   1.0647 B( 30-C , 33-H ) :   1.0185
B( 34-C , 35-H ) :   1.0744 B( 34-C , 36-H ) :   1.0547 B( 34-C , 37-H ) :   1.0540
B( 38-B , 39-C ) :  -0.6099 B( 38-B , 40-C ) :   0.5770 B( 38-B , 42-C ) :  -0.1417
B( 38-B , 44-H ) :  -0.1233 B( 38-B , 46-O ) :  -0.1108 B( 39-C , 40-C ) :   0.5745
B( 39-C , 42-C ) :   1.1177 B( 39-C , 45-C ) :  -0.4642 B( 39-C , 46-O ) :  -0.3722
B( 39-C , 47-O ) :   0.2295 B( 40-C , 41-H ) :   1.1561 B( 40-C , 42-C ) :  -0.5568
B( 40-C , 45-C ) :   1.4844 B( 40-C , 46-O ) :   0.5835 B( 40-C , 47-O ) :  -0.1079
B( 42-C , 43-H ) :   1.1223 B( 42-C , 44-H ) :   1.2046 B( 42-C , 46-O ) :   0.1164
B( 43-H , 44-H ) :   0.1410 B( 45-C , 46-O ) :   0.8727 B( 45-C , 47-O ) :   0.6117
B( 45-C , 48-C ) :  -0.3393 B( 46-O , 47-O ) :   0.2264 B( 47-O , 48-C ) :   0.9435
B( 48-C , 49-H ) :   0.8907 B( 48-C , 50-H ) :   0.8228 B( 48-C , 51-H ) :   0.8974

MP2 TOTAL ENERGY:    -1129.307701613 Eh
FINAL SINGLE POINT ENERGY     -1129.307701612586

DIPOLE MOMENT
-------------
                                X             Y             Z
Electronic contribution:    -19.53685      -3.92425      -2.23420
Nuclear contribution   :     18.69372       3.92808       2.41541
                        -----------------------------------------
Total Dipole Moment    :     -0.84312       0.00383       0.18121
                        -----------------------------------------
Magnitude (a.u.)       :      0.86239
Magnitude (Debye)      :      2.19201

Rotational constants in cm-1:     0.012769     0.006023     0.004972
Rotational constants in MHz :   382.809613   180.557711   149.049950

                             ****ORCA TERMINATED NORMALLY****
TOTAL RUN TIME: 0 days 21 hours 42 minutes 12 seconds 819 msec
