                         Program Version 4.2.1 -  RELEASE  -
|  1> %pal
|  2>  nprocs 32
|  3> end
|  4> !RI-MP2 aug-cc-pVQZ aug-cc-pVQZ/C TightSCF
|  5> %maxcore 4500
|  6> *xyzfile 1 1  10_33R1.xyz
|  7>
|  8>
|  9>                          ****END OF INPUT****

CARTESIAN COORDINATES (ANGSTROEM)
---------------------------------
  C     -1.780387   -0.275492   -1.066661
  C     -1.178243   -1.101009    0.077499
  C     -0.544056    0.954612    0.601039
  C     -1.319489    1.167538   -0.709530
  H     -1.410700   -0.611636   -2.033278
  H     -2.866230   -0.362671   -1.068305
  H     -0.701221    1.627549   -1.479718
  H     -2.160142    1.833964   -0.518048
  C     -1.324936   -0.166136    1.284766
  H     -0.858777   -0.538052    2.197707
  H     -2.355491    0.120624    1.486514
  H     -1.535675   -2.122066    0.172402
  H     -0.267800    1.838490    1.168485
  N      0.688179    0.188345    0.221225
  N      0.294335   -1.107143   -0.139671
  C      1.885021    0.626105    0.132453
  H      0.784043   -1.789188    0.433708
  C      3.016681   -0.201956   -0.329963
  H      2.683539   -0.943331   -1.057955
  H      3.792672    0.428564   -0.761103
  H      3.465041   -0.731683    0.518591
  H      2.025603    1.659048    0.432511

 Total Charge           Charge          ....    1
 Multiplicity           Mult            ....    1
 Number of Electrons    NEL             ....   68
 Basis Dimension        Dim             .... 1318

ORBITAL ENERGIES
----------------

  NO   OCC          E(Eh)            E(eV)
   0   2.0000     -15.858317      -431.5267
   1   2.0000     -15.771625      -429.1677
   2   2.0000     -11.506040      -313.0953
   3   2.0000     -11.450349      -311.5798
   4   2.0000     -11.424332      -310.8719
   5   2.0000     -11.402368      -310.2742
   6   2.0000     -11.385752      -309.8221
   7   2.0000     -11.379503      -309.6520
   8   2.0000     -11.366819      -309.3069
   9   2.0000      -1.566096       -42.6156
  10   2.0000      -1.352895       -36.8141
  11   2.0000      -1.283121       -34.9155
  12   2.0000      -1.197672       -32.5903
  13   2.0000      -1.132697       -30.8223
  14   2.0000      -1.104962       -30.0675
  15   2.0000      -1.008396       -27.4398
  16   2.0000      -0.991683       -26.9851
  17   2.0000      -0.925307       -25.1789
  18   2.0000      -0.900900       -24.5147
  19   2.0000      -0.854193       -23.2438
  20   2.0000      -0.821472       -22.3534
  21   2.0000      -0.803644       -21.8683
  22   2.0000      -0.784967       -21.3600
  23   2.0000      -0.760785       -20.7020
  24   2.0000      -0.746595       -20.3159
  25   2.0000      -0.720714       -19.6116
  26   2.0000      -0.706641       -19.2287
  27   2.0000      -0.685781       -18.6611
  28   2.0000      -0.676193       -18.4001
  29   2.0000      -0.657085       -17.8802
  30   2.0000      -0.642808       -17.4917
  31   2.0000      -0.629841       -17.1388
  32   2.0000      -0.620014       -16.8714
  33   2.0000      -0.550293       -14.9742
  34   0.0000      -0.083636        -2.2759
  35   0.0000      -0.076187        -2.0732
  36   0.0000      -0.067699        -1.8422
  37   0.0000      -0.060692        -1.6515
  38   0.0000      -0.056950        -1.5497

MULLIKEN ATOMIC CHARGES
-----------------------
   0 C :   -0.631038
   1 C :    0.075824
   2 C :    0.035310
   3 C :   -0.657139
   4 H :    0.325030
   5 H :    0.275805
   6 H :    0.288016
   7 H :    0.305226
   8 C :   -0.878405
   9 H :    0.310788
  10 H :    0.306615
  11 H :    0.447121
  12 H :    0.407815
  13 N :    0.072875
  14 N :   -0.570111
  15 C :    0.059959
  16 H :    0.149702
  17 C :   -0.763969
  18 H :    0.265429
  19 H :    0.329909
  20 H :    0.330498
  21 H :    0.514736
Sum of atomic charges:    1.0000000

LOEWDIN ATOMIC CHARGES
----------------------
   0 C :    0.583127
   1 C :    0.032496
   2 C :    0.066796
   3 C :    0.590531
   4 H :   -0.247612
   5 H :   -0.242093
   6 H :   -0.242987
   7 H :   -0.240517
   8 C :    0.574650
   9 H :   -0.228479
  10 H :   -0.231011
  11 H :   -0.222512
  12 H :   -0.226663
  13 N :    0.371225
  14 N :    0.847108
  15 C :    0.355779
  16 H :   -0.465344
  17 C :    0.990758
  18 H :   -0.289178
  19 H :   -0.268798
  20 H :   -0.254003
  21 H :   -0.253276

  Mayer bond orders larger than 0.100000
B(  0-C ,  1-C ) :   0.7947 B(  0-C ,  2-C ) :  -0.1264 B(  0-C ,  3-C ) :   1.0503
B(  0-C ,  4-H ) :   0.9116 B(  0-C ,  5-H ) :   0.9455 B(  1-C ,  2-C ) :  -0.1458
B(  1-C ,  3-C ) :  -0.1491 B(  1-C ,  8-C ) :   0.9659 B(  1-C , 11-H ) :   0.7621
B(  1-C , 14-N ) :   0.7882 B(  2-C ,  3-C ) :   0.8705 B(  2-C ,  8-C ) :   0.9049
B(  2-C , 12-H ) :   0.7873 B(  2-C , 13-N ) :   0.6802 B(  3-C ,  6-H ) :   0.9265
B(  3-C ,  7-H ) :   0.9123 B(  8-C ,  9-H ) :   0.8923 B(  8-C , 10-H ) :   0.9279
B( 13-N , 14-N ) :   0.5675 B( 13-N , 15-C ) :   1.6473 B( 14-N , 16-H ) :   0.9948
B( 15-C , 17-C ) :   0.6903 B( 15-C , 18-H ) :  -0.1153 B( 15-C , 21-H ) :   0.6905
B( 17-C , 18-H ) :   0.9768 B( 17-C , 19-H ) :   0.9664 B( 17-C , 20-H ) :   0.8773

MP2 TOTAL ENERGY:     -383.125640638 Eh
FINAL SINGLE POINT ENERGY      -383.125640637704

DIPOLE MOMENT
-------------
                                X             Y             Z
Electronic contribution:      0.50617      -0.12041       1.11788
Nuclear contribution   :      0.62170       0.41840      -0.52583
                        -----------------------------------------
Total Dipole Moment    :      1.12787       0.29799       0.59204
                        -----------------------------------------
Magnitude (a.u.)       :      1.30821
Magnitude (Debye)      :      3.32520

Rotational constants in cm-1:     0.109822     0.043438     0.040970
Rotational constants in MHz :  3292.386686  1302.227044  1228.238036

                             ****ORCA TERMINATED NORMALLY****
TOTAL RUN TIME: 0 days 0 hours 53 minutes 58 seconds 13 msec
