                         Program Version 4.2.1 -  RELEASE  -
|  1> %pal
|  2>  nprocs 32
|  3> end
|  4> !RI-MP2 aug-cc-pVQZ aug-cc-pVQZ/C TightSCF
|  5> %maxcore 4500
|  6> *xyzfile 1 1  10_12P.xyz
|  7>
|  8>
|  9>                          ****END OF INPUT****

CARTESIAN COORDINATES (ANGSTROEM)
---------------------------------
  C      2.375768   -0.475052   -0.128904
  N      0.966002   -0.895188   -0.109822
  N      0.208582    0.073461   -0.165270
  C     -1.213912   -0.098748   -0.103377
  C     -2.044953    0.877316   -0.641931
  C     -1.722424   -1.251701    0.485510
  C     -3.415192    0.683720   -0.593850
  H     -1.647038    1.766785   -1.109762
  C     -3.093154   -1.424876    0.531094
  H     -1.050942   -1.988967    0.903119
  C     -3.938268   -0.461479   -0.008303
  H     -4.074788    1.429479   -1.017517
  H     -3.504527   -2.312670    0.993179
  H     -5.010830   -0.603283    0.031097
  C      2.933453   -0.796569    1.261973
  H      2.429993   -0.226260    2.043927
  H      2.832936   -1.858843    1.484000
  H      3.993393   -0.539844    1.279249
  C      3.080224   -1.298916   -1.203092
  H      2.630847   -1.138719   -2.184337
  H      4.126717   -0.994352   -1.252111
  H      3.039825   -2.362285   -0.968042
  C      2.325305    1.034704   -0.444014
  C      0.869565    1.435413   -0.220718
  C      0.577056    2.205794    1.057794
  H      0.965559    1.683010    1.932850
  H      1.071088    3.175734    0.995390
  H     -0.489186    2.377809    1.197945
  H      2.992559    1.600733    0.203262
  H      2.621638    1.216842   -1.476267
  H      0.449864    1.949277   -1.083422

 Total Charge           Charge          ....    1
 Multiplicity           Mult            ....    1
 Number of Electrons    NEL             ....  102
 Basis Dimension        Dim             .... 1902

ORBITAL ENERGIES
----------------

  NO   OCC          E(Eh)            E(eV)
   0   2.0000     -15.885669      -432.2710
   1   2.0000     -15.832860      -430.8340
   2   2.0000     -11.453155      -311.6562
   3   2.0000     -11.438369      -311.2538
   4   2.0000     -11.433365      -311.1177
   5   2.0000     -11.390597      -309.9539
   6   2.0000     -11.386799      -309.8506
   7   2.0000     -11.384826      -309.7969
   8   2.0000     -11.373754      -309.4956
   9   2.0000     -11.373563      -309.4904
  10   2.0000     -11.371440      -309.4326
  11   2.0000     -11.370214      -309.3992
  12   2.0000     -11.364986      -309.2570
  13   2.0000     -11.359073      -309.0961
  14   2.0000      -1.621139       -44.1134
  15   2.0000      -1.335414       -36.3385
  16   2.0000      -1.278720       -34.7957
  17   2.0000      -1.269324       -34.5401
  18   2.0000      -1.186086       -32.2750
  19   2.0000      -1.167224       -31.7618
  20   2.0000      -1.105119       -30.0718
  21   2.0000      -1.094901       -29.7938
  22   2.0000      -1.087650       -29.5965
  23   2.0000      -1.021554       -27.7979
  24   2.0000      -0.982045       -26.7228
  25   2.0000      -0.963254       -26.2115
  26   2.0000      -0.920149       -25.0385
  27   2.0000      -0.895958       -24.3803
  28   2.0000      -0.837580       -22.7917
  29   2.0000      -0.822369       -22.3778
  30   2.0000      -0.805752       -21.9256
  31   2.0000      -0.774467       -21.0743
  32   2.0000      -0.772507       -21.0210
  33   2.0000      -0.753515       -20.5042
  34   2.0000      -0.745619       -20.2893
  35   2.0000      -0.738170       -20.0866
  36   2.0000      -0.723863       -19.6973
  37   2.0000      -0.719213       -19.5708
  38   2.0000      -0.704064       -19.1586
  39   2.0000      -0.688776       -18.7426
  40   2.0000      -0.684106       -18.6155
  41   2.0000      -0.677503       -18.4358
  42   2.0000      -0.657400       -17.8888
  43   2.0000      -0.652823       -17.7642
  44   2.0000      -0.649073       -17.6622
  45   2.0000      -0.643755       -17.5175
  46   2.0000      -0.629310       -17.1244
  47   2.0000      -0.614521       -16.7220
  48   2.0000      -0.610417       -16.6103
  49   2.0000      -0.483456       -13.1555
  50   2.0000      -0.481224       -13.0948
  51   0.0000      -0.103321        -2.8115
  52   0.0000      -0.068648        -1.8680
  53   0.0000      -0.057372        -1.5612
  54   0.0000      -0.054314        -1.4780
  55   0.0000      -0.053785        -1.4636

MULLIKEN ATOMIC CHARGES
-----------------------
   0 C :    1.341020
   1 N :   -0.787345
   2 N :    0.617894
   3 C :    1.014184
   4 C :   -0.220040
   5 C :   -0.549319
   6 C :   -0.408051
   7 H :    0.259407
   8 C :   -0.425886
   9 H :    0.315047
  10 C :   -0.401674
  11 H :    0.248446
  12 H :    0.260580
  13 H :    0.336602
  14 C :   -1.225570
  15 H :    0.265580
  16 H :    0.306062
  17 H :    0.330007
  18 C :   -1.115359
  19 H :    0.230910
  20 H :    0.292286
  21 H :    0.261980
  22 C :   -0.796479
  23 C :    0.087579
  24 C :   -1.190715
  25 H :    0.299145
  26 H :    0.305154
  27 H :    0.337019
  28 H :    0.319498
  29 H :    0.254348
  30 H :    0.437690
Sum of atomic charges:    1.0000000

LOEWDIN ATOMIC CHARGES
----------------------
   0 C :   -0.442719
   1 N :    0.626219
   2 N :    0.292539
   3 C :   -0.208599
   4 C :    0.360529
   5 C :    0.361098
   6 C :    0.390039
   7 H :   -0.322273
   8 C :    0.388179
   9 H :   -0.317200
  10 C :    0.384806
  11 H :   -0.301261
  12 H :   -0.302162
  13 H :   -0.298631
  14 C :    0.945065
  15 H :   -0.269311
  16 H :   -0.257563
  17 H :   -0.253739
  18 C :    0.942927
  19 H :   -0.259643
  20 H :   -0.254865
  21 H :   -0.260908
  22 C :    0.552518
  23 C :    0.071639
  24 C :    0.988136
  25 H :   -0.264362
  26 H :   -0.247287
  27 H :   -0.269423
  28 H :   -0.251353
  29 H :   -0.249184
  30 H :   -0.273209

  Mayer bond orders larger than 0.100000
B(  0-C ,  1-N ) :   0.7196 B(  0-C ,  2-N ) :  -0.2833 B(  0-C , 14-C ) :   0.4061
B(  0-C , 15-H ) :  -0.1277 B(  0-C , 16-H ) :  -0.1237 B(  0-C , 18-C ) :   0.2819
B(  0-C , 19-H ) :  -0.1332 B(  0-C , 21-H ) :  -0.1599 B(  0-C , 22-C ) :   0.7278
B(  1-N ,  2-N ) :  -0.1094 B(  2-N ,  3-C ) :   0.8030 B(  2-N , 23-C ) :   0.4843
B(  3-C ,  4-C ) :   0.8484 B(  3-C ,  5-C ) :   0.8045 B(  3-C ,  6-C ) :  -0.4278
B(  3-C ,  8-C ) :  -0.4523 B(  3-C , 10-C ) :  -0.1299 B(  4-C ,  6-C ) :   1.2439
B(  4-C ,  7-H ) :   0.9843 B(  4-C , 11-H ) :  -0.1424 B(  5-C ,  6-C ) :   0.1313
B(  5-C ,  8-C ) :   1.2800 B(  5-C ,  9-H ) :   0.9040 B(  5-C , 12-H ) :  -0.1547
B(  6-C , 10-C ) :   1.2239 B(  6-C , 11-H ) :   1.1319 B(  6-C , 13-H ) :  -0.1032
B(  8-C , 10-C ) :   1.1736 B(  8-C , 12-H ) :   1.1506 B(  8-C , 13-H ) :  -0.1001
B( 10-C , 13-H ) :   1.0235 B( 14-C , 15-H ) :   1.0233 B( 14-C , 16-H ) :   1.0076
B( 14-C , 17-H ) :   0.9297 B( 14-C , 18-C ) :   0.1136 B( 18-C , 19-H ) :   1.0657
B( 18-C , 20-H ) :   1.0090 B( 18-C , 21-H ) :   1.0592 B( 22-C , 23-C ) :   0.9873
B( 22-C , 28-H ) :   0.9639 B( 22-C , 29-H ) :   0.9801 B( 23-C , 24-C ) :   0.6808
B( 23-C , 25-H ) :  -0.1029 B( 23-C , 30-H ) :   0.8543 B( 24-C , 25-H ) :   0.9729
B( 24-C , 26-H ) :   0.9558 B( 24-C , 27-H ) :   0.9872

MP2 TOTAL ENERGY:     -575.728426492 Eh
FINAL SINGLE POINT ENERGY      -575.728426491581

DIPOLE MOMENT
-------------
                                X             Y             Z
Electronic contribution:    -10.87953      -2.57644      -2.05841
Nuclear contribution   :     11.63417       3.23928       2.01426
                        -----------------------------------------
Total Dipole Moment    :      0.75463       0.66284      -0.04415
                        -----------------------------------------
Magnitude (a.u.)       :      1.00538
Magnitude (Debye)      :      2.55546

Rotational constants in cm-1:     0.048130     0.014536     0.012836
Rotational constants in MHz :  1442.887937   435.789255   384.815283

                             ****ORCA TERMINATED NORMALLY****
TOTAL RUN TIME: 0 days 2 hours 49 minutes 7 seconds 575 msec
