                         Program Version 4.2.1 -  RELEASE  -
|  1> %pal
|  2>  nprocs 32
|  3> end
|  4> !RI-MP2 aug-cc-pVQZ aug-cc-pVQZ/C TightSCF
|  5> %maxcore 4500
|  6> *xyzfile 0 1  08_15R1.xyz
|  7>
|  8>
|  9>                          ****END OF INPUT****

CARTESIAN COORDINATES (ANGSTROEM)
---------------------------------
  C      3.062340   -0.458866   -0.942685
  C      2.338439    0.862909   -0.658445
  C      1.132445    0.616919    0.244886
  O      1.467707   -0.071826    1.419040
  C      2.103606   -1.326411    1.200168
  C      3.365591   -1.194959    0.364566
  H      1.410165   -2.018438    0.709693
  C     -1.118697   -0.149911    0.016598
  C     -1.969577    1.008035   -0.503826
  C     -3.455129    0.791157   -0.178852
  C     -3.876933   -0.604948   -0.622930
  O     -3.068979   -1.584624    0.001842
  C     -1.714279   -1.485812   -0.406569
  H     -1.630585   -1.595094   -1.496258
  O      4.256078   -0.229353   -1.668484
  H      2.411131   -1.078261   -1.562234
  H      4.974292   -0.224996   -1.022324
  O      4.415192   -0.541554    1.057509
  H      3.733440   -2.198881    0.135538
  H      4.150150    0.393993    1.139496
  O      0.191539   -0.096421   -0.526128
  H     -1.064569   -0.110047    1.109160
  O     -1.544008    2.245959    0.022079
  H     -1.831798    1.053208   -1.588358
  H     -2.058374    2.362367    0.837615
  O     -5.192400   -0.818263   -0.239447
  H     -3.757039   -0.705402   -1.714427
  H     -5.414156   -1.739274   -0.409048
  N     -3.662688    1.046022    1.241725
  H     -4.034152    1.526997   -0.740950
  H     -4.636648    1.247603    1.428260
  H     -3.424661    0.224578    1.788867
  N      3.259332    1.780413    0.020989
  H      3.981208    2.071975   -0.628579
  H      2.776459    2.613979    0.336835
  H      2.352208   -1.710758    2.187837
  H     -1.180812   -2.309510    0.063500
  H      1.960586    1.270775   -1.601738
  H      0.698772    1.560125    0.579356

 Total Charge           Charge          ....    0
 Multiplicity           Mult            ....    1
 Number of Electrons    NEL             ....  150
 Basis Dimension        Dim             .... 2440

ORBITAL ENERGIES
----------------

  NO   OCC          E(Eh)            E(eV)
   0   2.0000     -20.580933      -560.0357
   1   2.0000     -20.578664      -559.9739
   2   2.0000     -20.569176      -559.7157
   3   2.0000     -20.563155      -559.5519
   4   2.0000     -20.553339      -559.2848
   5   2.0000     -20.550670      -559.2122
   6   2.0000     -20.542095      -558.9788
   7   2.0000     -15.557799      -423.3492
   8   2.0000     -15.554802      -423.2677
   9   2.0000     -11.348821      -308.8171
  10   2.0000     -11.333407      -308.3977
  11   2.0000     -11.291413      -307.2550
  12   2.0000     -11.288160      -307.1664
  13   2.0000     -11.286288      -307.1155
  14   2.0000     -11.277702      -306.8819
  15   2.0000     -11.277031      -306.8636
  16   2.0000     -11.275366      -306.8183
  17   2.0000     -11.270974      -306.6988
  18   2.0000     -11.259960      -306.3991
  19   2.0000      -1.441203       -39.2171
  20   2.0000      -1.431067       -38.9413
  21   2.0000      -1.379699       -37.5435
  22   2.0000      -1.371251       -37.3136
  23   2.0000      -1.363614       -37.1058
  24   2.0000      -1.354059       -36.8458
  25   2.0000      -1.338871       -36.4325
  26   2.0000      -1.202909       -32.7328
  27   2.0000      -1.198563       -32.6145
  28   2.0000      -1.065601       -28.9965
  29   2.0000      -1.041286       -28.3348
  30   2.0000      -1.019215       -27.7343
  31   2.0000      -0.992595       -27.0099
  32   2.0000      -0.896884       -24.4055
  33   2.0000      -0.887871       -24.1602
  34   2.0000      -0.869473       -23.6596
  35   2.0000      -0.856097       -23.2956
  36   2.0000      -0.799553       -21.7569
  37   2.0000      -0.770589       -20.9688
  38   2.0000      -0.749252       -20.3882
  39   2.0000      -0.734870       -19.9968
  40   2.0000      -0.724109       -19.7040
  41   2.0000      -0.713168       -19.4063
  42   2.0000      -0.698966       -19.0198
  43   2.0000      -0.685893       -18.6641
  44   2.0000      -0.682083       -18.5604
  45   2.0000      -0.672173       -18.2908
  46   2.0000      -0.665487       -18.1088
  47   2.0000      -0.660619       -17.9763
  48   2.0000      -0.644258       -17.5311
  49   2.0000      -0.639955       -17.4141
  50   2.0000      -0.616022       -16.7628
  51   2.0000      -0.609294       -16.5797
  52   2.0000      -0.605053       -16.4643
  53   2.0000      -0.594770       -16.1845
  54   2.0000      -0.587505       -15.9868
  55   2.0000      -0.581653       -15.8276
  56   2.0000      -0.568495       -15.4695
  57   2.0000      -0.556360       -15.1393
  58   2.0000      -0.553448       -15.0601
  59   2.0000      -0.548630       -14.9290
  60   2.0000      -0.531411       -14.4604
  61   2.0000      -0.527480       -14.3535
  62   2.0000      -0.513895       -13.9838
  63   2.0000      -0.501486       -13.6461
  64   2.0000      -0.494195       -13.4477
  65   2.0000      -0.490949       -13.3594
  66   2.0000      -0.487689       -13.2707
  67   2.0000      -0.477791       -13.0014
  68   2.0000      -0.464678       -12.6445
  69   2.0000      -0.459234       -12.4964
  70   2.0000      -0.443501       -12.0683
  71   2.0000      -0.417944       -11.3728
  72   2.0000      -0.412772       -11.2321
  73   2.0000      -0.409614       -11.1462
  74   2.0000      -0.396144       -10.7796
  75   0.0000       0.019702         0.5361
  76   0.0000       0.026599         0.7238
  77   0.0000       0.027330         0.7437
  78   0.0000       0.027890         0.7589
  79   0.0000       0.034737         0.9452

MULLIKEN ATOMIC CHARGES
-----------------------
   0 C :    0.608707
   1 C :    0.151032
   2 C :    1.224701
   3 O :   -1.200430
   4 C :   -0.634333
   5 C :    0.543941
   6 H :    0.349766
   7 C :    0.556837
   8 C :    0.931189
   9 C :   -0.014323
  10 C :    1.055497
  11 O :   -1.259623
  12 C :   -0.053280
  13 H :    0.108003
  14 O :   -1.195499
  15 H :    0.267048
  16 H :    0.396028
  17 O :   -1.221574
  18 H :    0.384559
  19 H :    0.406135
  20 O :   -1.026031
  21 H :    0.145827
  22 O :   -1.323858
  23 H :    0.146468
  24 H :    0.430623
  25 O :   -1.000771
  26 H :    0.112672
  27 H :    0.322257
  28 N :   -0.765861
  29 H :    0.315427
  30 H :    0.135999
  31 H :    0.221623
  32 N :   -0.765781
  33 H :    0.138927
  34 H :    0.096631
  35 H :    0.292356
  36 H :    0.285184
  37 H :    0.332800
  38 H :    0.501130
Sum of atomic charges:   -0.0000000

LOEWDIN ATOMIC CHARGES
----------------------
   0 C :   -0.220830
   1 C :   -0.040779
   2 C :   -0.594875
   3 O :    0.942106
   4 C :    0.197219
   5 C :   -0.213968
   6 H :   -0.300573
   7 C :   -0.240976
   8 C :   -0.218274
   9 C :   -0.057725
  10 C :   -0.594821
  11 O :    0.923374
  12 C :    0.179198
  13 H :   -0.282918
  14 O :    1.318054
  15 H :   -0.298507
  16 H :   -0.858302
  17 O :    1.321969
  18 H :   -0.292849
  19 H :   -0.907719
  20 O :    0.942382
  21 H :   -0.308948
  22 O :    1.326939
  23 H :   -0.293346
  24 H :   -0.859820
  25 O :    1.290640
  26 H :   -0.301453
  27 H :   -0.770728
  28 N :    1.312155
  29 H :   -0.272826
  30 H :   -0.471817
  31 H :   -0.491686
  32 N :    1.311092
  33 H :   -0.476032
  34 H :   -0.464039
  35 H :   -0.300225
  36 H :   -0.296269
  37 H :   -0.265043
  38 H :   -0.369780

  Mayer bond orders larger than 0.100000
B(  0-C ,  1-C ) :   0.9098 B(  0-C ,  5-C ) :   0.9055 B(  0-C , 14-O ) :  -0.3408
B(  0-C , 15-H ) :   0.9796 B(  0-C , 32-N ) :   0.1341 B(  1-C ,  2-C ) :   0.8389
B(  1-C ,  5-C ) :  -0.1235 B(  1-C , 14-O ) :   0.2961 B(  1-C , 32-N ) :   0.3111
B(  1-C , 37-H ) :   0.8823 B(  2-C , 20-O ) :   0.4933 B(  2-C , 38-H ) :   0.7533
B(  3-O ,  4-C ) :   0.6425 B(  4-C ,  5-C ) :   0.9093 B(  4-C ,  6-H ) :   0.9417
B(  4-C , 17-O ) :   0.2413 B(  4-C , 35-H ) :   0.9630 B(  5-C , 14-O ) :   0.2853
B(  5-C , 17-O ) :   0.1278 B(  5-C , 18-H ) :   0.8222 B(  7-C ,  8-C ) :   0.7957
B(  7-C , 12-C ) :   0.3868 B(  7-C , 13-H ) :  -0.2001 B(  7-C , 20-O ) :   0.9111
B(  7-C , 21-H ) :   1.0067 B(  7-C , 22-O ) :   0.2593 B(  8-C ,  9-C ) :   0.8764
B(  8-C , 12-C ) :   0.1034 B(  8-C , 22-O ) :  -0.2905 B(  8-C , 23-H ) :   1.0355
B(  9-C , 10-C ) :   0.8504 B(  9-C , 22-O ) :   0.1817 B(  9-C , 25-O ) :   0.1080
B(  9-C , 28-N ) :   0.6964 B(  9-C , 29-H ) :   0.8687 B( 10-C , 11-O ) :   0.4698
B( 10-C , 25-O ) :   0.1568 B( 10-C , 26-H ) :   1.1252 B( 11-O , 12-C ) :   0.5634
B( 11-O , 25-O ) :   0.1994 B( 12-C , 13-H ) :   1.1643 B( 12-C , 36-H ) :   1.0058
B( 14-O , 16-H ) :   0.8145 B( 17-O , 19-H ) :   0.7076 B( 22-O , 24-H ) :   0.7555
B( 25-O , 27-H ) :   0.9552 B( 28-N , 30-H ) :   1.0413 B( 28-N , 31-H ) :   0.9792
B( 32-N , 33-H ) :   1.1204 B( 32-N , 34-H ) :   1.1266

MP2 TOTAL ENERGY:    -1027.761580988 Eh
FINAL SINGLE POINT ENERGY     -1027.761580987933

DIPOLE MOMENT
-------------
                                X             Y             Z
Electronic contribution:     -0.80103      -0.89138       0.09358
Nuclear contribution   :     -0.58143       0.63749      -0.44155
                        -----------------------------------------
Total Dipole Moment    :     -1.38246      -0.25389      -0.34797
                        -----------------------------------------
Magnitude (a.u.)       :      1.44802
Magnitude (Debye)      :      3.68056

Rotational constants in cm-1:     0.030670     0.006024     0.005705
Rotational constants in MHz :   919.459377   180.598040   171.025477

                             ****ORCA TERMINATED NORMALLY****
TOTAL RUN TIME: 0 days 5 hours 52 minutes 49 seconds 512 msec
