                         Program Version 4.2.1 -  RELEASE  -
|  1> %pal
|  2>  nprocs 32
|  3> end
|  4> !RI-MP2 aug-cc-pVQZ aug-cc-pVQZ/C TightSCF
|  5> %maxcore 4500
|  6> *xyzfile 0 1  02_18TS.xyz
|  7>
|  8>
|  9>                          ****END OF INPUT****

CARTESIAN COORDINATES (ANGSTROEM)
---------------------------------
  C      2.102142   -0.905714    0.625139
  C      0.673124   -1.293535    0.309545
  C     -0.414742    0.640892    0.891892
  C      2.576531    0.363686   -0.074306
  H      2.165410   -0.751092    1.713328
  C      1.784195    1.630967    0.216992
  H      3.612481    0.535499    0.222022
  H      2.584329    0.211875   -1.152381
  C      0.287811    1.538787   -0.081740
  H      1.901524    1.893563    1.281421
  C      0.191399   -1.556336   -0.957069
  C     -1.199559   -1.662113   -1.141091
  C     -1.766083    0.351869    0.893254
  C     -2.112552   -1.570892   -0.119671
  H     -1.566318   -1.570718   -2.161340
  C      1.045630   -1.512605   -2.201807
  H      0.641142   -2.204666   -2.942484
  H      1.047643   -0.518357   -2.657580
  H      2.074955   -1.796223   -1.995129
  H     -0.157877    2.533642   -0.011983
  H      0.124318    1.215073   -1.113609
  C     -3.540364   -1.227556   -0.416197
  H     -4.222706   -1.544877    0.373318
  H     -3.877068   -1.661066   -1.358148
  C     -2.696001    0.986068   -0.102598
  O      3.045965   -1.912807    0.273901
  O      2.404946    2.639254   -0.563183
  O     -2.649856    2.139242   -0.430927
  O     -3.679932    0.197706   -0.591090
  C      2.880416   -3.124387    0.972431
  H      3.709689   -3.771338    0.690365
  H      2.908291   -2.962056    2.058254
  H      1.938081   -3.619325    0.712500
  C      2.151184    3.959730   -0.144404
  H      1.103377    4.248162   -0.278857
  H      2.423246    4.098137    0.910086
  H      2.771955    4.611220   -0.757874
  C     -2.415151    0.019377    2.224281
  H     -1.737120   -0.579623    2.836207
  H     -3.351346   -0.530398    2.122803
  H     -2.636091    0.937144    2.775760
  H      0.100898   -1.667386    1.147784
  H      0.068588    0.556466    1.861681
  H     -1.884266   -2.000230    0.846349

 Total Charge           Charge          ....    0
 Multiplicity           Mult            ....    1
 Number of Electrons    NEL             ....  152
 Basis Dimension        Dim             .... 2704

ORBITAL ENERGIES
----------------

  NO   OCC          E(Eh)            E(eV)
   0   2.0000     -20.592163      -560.3413
   1   2.0000     -20.557246      -559.3911
   2   2.0000     -20.549668      -559.1849
   3   2.0000     -20.532148      -558.7082
   4   2.0000     -11.373662      -309.4931
   5   2.0000     -11.303360      -307.5801
   6   2.0000     -11.290435      -307.2284
   7   2.0000     -11.280229      -306.9506
   8   2.0000     -11.272054      -306.7282
   9   2.0000     -11.265208      -306.5419
  10   2.0000     -11.258406      -306.3568
  11   2.0000     -11.256307      -306.2997
  12   2.0000     -11.254761      -306.2576
  13   2.0000     -11.244737      -305.9848
  14   2.0000     -11.242023      -305.9110
  15   2.0000     -11.241711      -305.9025
  16   2.0000     -11.232982      -305.6650
  17   2.0000     -11.221574      -305.3546
  18   2.0000     -11.219226      -305.2907
  19   2.0000     -11.215445      -305.1878
  20   2.0000      -1.452328       -39.5199
  21   2.0000      -1.380503       -37.5654
  22   2.0000      -1.373635       -37.3785
  23   2.0000      -1.357133       -36.9295
  24   2.0000      -1.146142       -31.1881
  25   2.0000      -1.104536       -30.0559
  26   2.0000      -1.086014       -29.5520
  27   2.0000      -1.043900       -28.4060
  28   2.0000      -1.015909       -27.6443
  29   2.0000      -0.977053       -26.5870
  30   2.0000      -0.955737       -26.0069
  31   2.0000      -0.938467       -25.5370
  32   2.0000      -0.910295       -24.7704
  33   2.0000      -0.909051       -24.7365
  34   2.0000      -0.863485       -23.4966
  35   2.0000      -0.842842       -22.9349
  36   2.0000      -0.812307       -22.1040
  37   2.0000      -0.793604       -21.5951
  38   2.0000      -0.736322       -20.0363
  39   2.0000      -0.724392       -19.7117
  40   2.0000      -0.693785       -18.8788
  41   2.0000      -0.685141       -18.6436
  42   2.0000      -0.676695       -18.4138
  43   2.0000      -0.671664       -18.2769
  44   2.0000      -0.656488       -17.8639
  45   2.0000      -0.650582       -17.7032
  46   2.0000      -0.642547       -17.4846
  47   2.0000      -0.634955       -17.2780
  48   2.0000      -0.630933       -17.1686
  49   2.0000      -0.619204       -16.8494
  50   2.0000      -0.604878       -16.4596
  51   2.0000      -0.602298       -16.3894
  52   2.0000      -0.593605       -16.1528
  53   2.0000      -0.589275       -16.0350
  54   2.0000      -0.579407       -15.7665
  55   2.0000      -0.574128       -15.6228
  56   2.0000      -0.567007       -15.4290
  57   2.0000      -0.558005       -15.1841
  58   2.0000      -0.547284       -14.8923
  59   2.0000      -0.534515       -14.5449
  60   2.0000      -0.527695       -14.3593
  61   2.0000      -0.524630       -14.2759
  62   2.0000      -0.513563       -13.9748
  63   2.0000      -0.507441       -13.8082
  64   2.0000      -0.505450       -13.7540
  65   2.0000      -0.498738       -13.5714
  66   2.0000      -0.481492       -13.1021
  67   2.0000      -0.469254       -12.7690
  68   2.0000      -0.464503       -12.6398
  69   2.0000      -0.452259       -12.3066
  70   2.0000      -0.450574       -12.2608
  71   2.0000      -0.433726       -11.8023
  72   2.0000      -0.426946       -11.6178
  73   2.0000      -0.416611       -11.3366
  74   2.0000      -0.314505        -8.5581
  75   2.0000      -0.308581        -8.3969
  76   0.0000       0.015542         0.4229
  77   0.0000       0.023588         0.6419
  78   0.0000       0.025443         0.6923
  79   0.0000       0.027905         0.7593
  80   0.0000       0.035167         0.9570

MULLIKEN ATOMIC CHARGES
-----------------------
   0 C :    1.796591
   1 C :    0.068337
   2 C :    0.483475
   3 C :   -0.855082
   4 H :    0.054062
   5 C :    1.316228
   6 H :    0.214785
   7 H :    0.259009
   8 C :   -0.951182
   9 H :    0.139175
  10 C :    0.356276
  11 C :   -0.407014
  12 C :   -0.541603
  13 C :   -0.157644
  14 H :    0.114501
  15 C :   -1.020990
  16 H :    0.176645
  17 H :    0.187365
  18 H :    0.256689
  19 H :    0.308522
  20 H :    0.261656
  21 C :   -0.368178
  22 H :    0.221659
  23 H :    0.303550
  24 C :    1.936760
  25 O :   -1.263888
  26 O :   -1.195823
  27 O :   -1.193671
  28 O :   -1.124577
  29 C :   -0.869650
  30 H :    0.410042
  31 H :    0.236773
  32 H :    0.259521
  33 C :   -0.813543
  34 H :    0.244488
  35 H :    0.224800
  36 H :    0.413671
  37 C :   -1.148564
  38 H :    0.203846
  39 H :    0.212073
  40 H :    0.299682
  41 H :    0.371503
  42 H :    0.239435
  43 H :    0.340290
Sum of atomic charges:   -0.0000000

LOEWDIN ATOMIC CHARGES
----------------------
   0 C :   -0.218976
   1 C :    0.287455
   2 C :    0.309996
   3 C :    0.496373
   4 H :   -0.298963
   5 C :   -0.210340
   6 H :   -0.262630
   7 H :   -0.329454
   8 C :    0.516240
   9 H :   -0.293862
  10 C :   -0.019178
  11 C :    0.382379
  12 C :   -0.155021
  13 C :    0.269335
  14 H :   -0.306491
  15 C :    0.929524
  16 H :   -0.278832
  17 H :   -0.265417
  18 H :   -0.316301
  19 H :   -0.320243
  20 H :   -0.273977
  21 C :    0.209998
  22 H :   -0.298641
  23 H :   -0.306342
  24 C :   -1.068663
  25 O :    0.913811
  26 O :    0.921675
  27 O :    0.713465
  28 O :    0.872721
  29 C :    0.582332
  30 H :   -0.316078
  31 H :   -0.298504
  32 H :   -0.309358
  33 C :    0.587910
  34 H :   -0.313064
  35 H :   -0.299749
  36 H :   -0.318385
  37 C :    0.914366
  38 H :   -0.271583
  39 H :   -0.307268
  40 H :   -0.250478
  41 H :   -0.352202
  42 H :   -0.306154
  43 H :   -0.341426

  Mayer bond orders larger than 0.100000
B(  0-C ,  1-C ) :   0.6539 B(  0-C ,  2-C ) :   0.1063 B(  0-C ,  3-C ) :   0.7250
B(  0-C ,  4-H ) :   1.2722 B(  0-C ,  6-H ) :  -0.1486 B(  0-C , 25-O ) :  -0.9992
B(  0-C , 29-C ) :  -0.6249 B(  0-C , 31-H ) :  -0.1027 B(  0-C , 32-H ) :  -0.1387
B(  1-C ,  2-C ) :   0.3034 B(  1-C ,  3-C ) :   0.1776 B(  1-C ,  4-H ) :  -0.2008
B(  1-C ,  5-C ) :   0.1001 B(  1-C , 10-C ) :   1.0554 B(  1-C , 11-C ) :  -0.8205
B(  1-C , 25-O ) :   0.5731 B(  1-C , 29-C ) :   0.2568 B(  1-C , 41-H ) :   0.9898
B(  2-C ,  8-C ) :   0.6847 B(  2-C , 11-C ) :   0.1408 B(  2-C , 12-C ) :   0.5357
B(  2-C , 19-H ) :  -0.1083 B(  2-C , 20-H ) :   0.1174 B(  2-C , 27-O ) :   0.1801
B(  2-C , 37-C ) :  -0.2068 B(  2-C , 42-H ) :   1.0518 B(  3-C ,  5-C ) :   1.0563
B(  3-C ,  6-H ) :   0.9891 B(  3-C ,  7-H ) :   0.9645 B(  3-C , 25-O ) :   0.4228
B(  3-C , 26-O ) :   0.2878 B(  5-C ,  8-C ) :   0.9312 B(  5-C ,  9-H ) :   1.1506
B(  5-C , 26-O ) :  -0.7743 B(  5-C , 33-C ) :  -0.6023 B(  5-C , 34-H ) :  -0.1235
B(  5-C , 35-H ) :  -0.1220 B(  8-C , 19-H ) :   0.8981 B(  8-C , 20-H ) :   0.8021
B(  8-C , 26-O ) :   0.5255 B(  8-C , 33-C ) :   0.1272 B( 10-C , 11-C ) :   1.1650
B( 10-C , 13-C ) :  -0.3165 B( 10-C , 14-H ) :  -0.1356 B( 10-C , 15-C ) :   0.3381
B( 10-C , 16-H ) :  -0.1904 B( 10-C , 17-H ) :  -0.1439 B( 10-C , 18-H ) :  -0.1512
B( 10-C , 41-H ) :  -0.1726 B( 11-C , 13-C ) :   1.1400 B( 11-C , 14-H ) :   1.2141
B( 11-C , 21-C ) :  -0.2523 B( 11-C , 28-O ) :   0.1452 B( 12-C , 13-C ) :   0.1471
B( 12-C , 21-C ) :  -0.1393 B( 12-C , 24-C ) :   1.3793 B( 12-C , 27-O ) :   0.7048
B( 12-C , 28-O ) :  -0.1505 B( 12-C , 37-C ) :   0.4616 B( 12-C , 38-H ) :  -0.1823
B( 12-C , 39-H ) :  -0.1741 B( 12-C , 40-H ) :  -0.1975 B( 12-C , 41-H ) :   0.1022
B( 13-C , 21-C ) :   0.9171 B( 13-C , 22-H ) :  -0.1734 B( 13-C , 41-H ) :  -0.1171
B( 13-C , 43-H ) :   1.0113 B( 15-C , 16-H ) :   1.1482 B( 15-C , 17-H ) :   1.0824
B( 15-C , 18-H ) :   1.1353 B( 19-H , 26-O ) :   0.1084 B( 21-C , 22-H ) :   1.1363
B( 21-C , 23-H ) :   1.0047 B( 21-C , 28-O ) :   0.5432 B( 24-C , 28-O ) :   0.6991
B( 25-O , 29-C ) :   1.1585 B( 26-O , 33-C ) :   1.1777 B( 27-O , 28-O ) :   0.1183
B( 29-C , 30-H ) :   0.8928 B( 29-C , 31-H ) :   0.9809 B( 29-C , 32-H ) :   0.9667
B( 33-C , 34-H ) :   0.9473 B( 33-C , 35-H ) :   0.9564 B( 33-C , 36-H ) :   0.8958
B( 37-C , 38-H ) :   1.1098 B( 37-C , 39-H ) :   1.1355 B( 37-C , 40-H ) :   1.0629

MP2 TOTAL ENERGY:     -923.461584388 Eh
FINAL SINGLE POINT ENERGY      -923.461584388082

DIPOLE MOMENT
-------------
                                X             Y             Z
Electronic contribution:     -9.80072       2.95187      -3.85242
Nuclear contribution   :      9.90637      -4.36634       5.19468
                        -----------------------------------------
Total Dipole Moment    :      0.10565      -1.41446       1.34227
                        -----------------------------------------
Magnitude (a.u.)       :      1.95283
Magnitude (Debye)      :      4.96370

Rotational constants in cm-1:     0.014145     0.009712     0.007032
Rotational constants in MHz :   424.051683   291.161880   210.826357

                             ****ORCA TERMINATED NORMALLY****
TOTAL RUN TIME: 0 days 13 hours 5 minutes 1 seconds 824 msec
