                         Program Version 4.2.1 -  RELEASE  -
|  1> %pal
|  2>  nprocs 32
|  3> end
|  4> !RI-MP2 aug-cc-pVQZ aug-cc-pVQZ/C TightSCF
|  5> %maxcore 4500
|  6> *xyzfile 0 1  10_52TS.xyz
|  7>
|  8>
|  9>                          ****END OF INPUT****

CARTESIAN COORDINATES (ANGSTROEM)
---------------------------------
  C      0.291595    1.425092    1.310916
  N     -0.223469    0.095964    1.023211
  C      0.453802   -1.035882    1.623291
  C      1.567583   -1.661149    0.776860
  C      2.703819   -0.713501    0.487421
  C      1.704094    0.305746   -1.213283
  C      1.864174    1.726927   -0.719197
  C      0.664008    2.242765    0.075051
  C      3.553093   -0.808987   -0.648805
  C      2.776769   -0.478293   -1.724801
  H      0.714548    0.166108   -1.663939
  H      3.143291   -0.338312    1.421729
  C     -1.449749   -0.070653    0.399922
  C     -1.842790   -1.324719   -0.097608
  C     -3.072730   -1.496538   -0.709789
  C     -3.951531   -0.433282   -0.864305
  C     -3.569802    0.812120   -0.387638
  C     -2.344855    0.998449    0.232975
  H     -0.426748    1.991100    1.918526
  H      1.178624    1.297665    1.932778
  H      0.883640   -0.705665    2.575057
  H     -0.283559   -1.799780    1.876049
  H      1.961105   -2.504223    1.364457
  H      1.168164   -2.072449   -0.150416
  H      1.949434    2.369630   -1.607108
  H      2.793293    1.846977   -0.160507
  H      0.867188    3.269251    0.395871
  H     -0.199823    2.297213   -0.591792
  H      4.618303   -1.024070   -0.620566
  H      2.867202   -0.814495   -2.754802
  H     -1.174203   -2.170756   -0.022483
  H     -3.340355   -2.479055   -1.081343
  H     -4.909158   -0.571599   -1.349451
  H     -4.237348    1.659776   -0.492440
  H     -2.094191    1.982354    0.601834

 Total Charge           Charge          ....    0
 Multiplicity           Mult            ....    1
 Number of Electrons    NEL             ....  116
 Basis Dimension        Dim             .... 2154

ORBITAL ENERGIES
----------------

  NO   OCC          E(Eh)            E(eV)
   0   2.0000     -15.556837      -423.3231
   1   2.0000     -11.273079      -306.7561
   2   2.0000     -11.255591      -306.2802
   3   2.0000     -11.254545      -306.2518
   4   2.0000     -11.248460      -306.0862
   5   2.0000     -11.243831      -305.9602
   6   2.0000     -11.227768      -305.5231
   7   2.0000     -11.227716      -305.5217
   8   2.0000     -11.223452      -305.4056
   9   2.0000     -11.223186      -305.3984
  10   2.0000     -11.222418      -305.3775
  11   2.0000     -11.219522      -305.2987
  12   2.0000     -11.217382      -305.2405
  13   2.0000     -11.215095      -305.1782
  14   2.0000     -11.214929      -305.1737
  15   2.0000     -11.210813      -305.0617
  16   2.0000      -1.257224       -34.2108
  17   2.0000      -1.137949       -30.9652
  18   2.0000      -1.126313       -30.6485
  19   2.0000      -1.071666       -29.1615
  20   2.0000      -1.029207       -28.0061
  21   2.0000      -1.009466       -27.4690
  22   2.0000      -0.986606       -26.8469
  23   2.0000      -0.968441       -26.3526
  24   2.0000      -0.889606       -24.2074
  25   2.0000      -0.869920       -23.6717
  26   2.0000      -0.834576       -22.7100
  27   2.0000      -0.817636       -22.2490
  28   2.0000      -0.772340       -21.0164
  29   2.0000      -0.767605       -20.8876
  30   2.0000      -0.713049       -19.4031
  31   2.0000      -0.700926       -19.0732
  32   2.0000      -0.678963       -18.4755
  33   2.0000      -0.655480       -17.8365
  34   2.0000      -0.650814       -17.7095
  35   2.0000      -0.634593       -17.2682
  36   2.0000      -0.614852       -16.7310
  37   2.0000      -0.601922       -16.3791
  38   2.0000      -0.592494       -16.1226
  39   2.0000      -0.581965       -15.8361
  40   2.0000      -0.575290       -15.6544
  41   2.0000      -0.569269       -15.4906
  42   2.0000      -0.555472       -15.1152
  43   2.0000      -0.544792       -14.8245
  44   2.0000      -0.524252       -14.2656
  45   2.0000      -0.518951       -14.1214
  46   2.0000      -0.505543       -13.7565
  47   2.0000      -0.498112       -13.5543
  48   2.0000      -0.496079       -13.4990
  49   2.0000      -0.489324       -13.3152
  50   2.0000      -0.479160       -13.0386
  51   2.0000      -0.470123       -12.7927
  52   2.0000      -0.466085       -12.6828
  53   2.0000      -0.398694       -10.8490
  54   2.0000      -0.338976        -9.2240
  55   2.0000      -0.333307        -9.0698
  56   2.0000      -0.295435        -8.0392
  57   2.0000      -0.274410        -7.4671
  58   0.0000       0.022029         0.5994
  59   0.0000       0.025946         0.7060
  60   0.0000       0.026276         0.7150
  61   0.0000       0.028233         0.7683
  62   0.0000       0.035292         0.9603

MULLIKEN ATOMIC CHARGES
-----------------------
   0 C :   -0.528249
   1 N :    0.570177
   2 C :   -0.737561
   3 C :   -0.329136
   4 C :   -0.130394
   5 C :   -0.024761
   6 C :   -0.583891
   7 C :   -0.426550
   8 C :   -0.562098
   9 C :   -0.564658
  10 H :    0.342108
  11 H :    0.162218
  12 C :    1.214604
  13 C :   -0.492084
  14 C :   -0.482869
  15 C :   -0.525413
  16 C :   -0.523852
  17 C :   -0.530099
  18 H :    0.140093
  19 H :    0.206734
  20 H :    0.278582
  21 H :    0.299258
  22 H :    0.266417
  23 H :    0.255650
  24 H :    0.280717
  25 H :    0.177082
  26 H :    0.211142
  27 H :    0.291633
  28 H :    0.356303
  29 H :    0.330628
  30 H :    0.178804
  31 H :    0.172349
  32 H :    0.342917
  33 H :    0.177456
  34 H :    0.186743
Sum of atomic charges:   -0.0000000

LOEWDIN ATOMIC CHARGES
----------------------
   0 C :    0.383502
   1 N :    0.500724
   2 C :    0.377163
   3 C :    0.521124
   4 C :    0.292037
   5 C :    0.298114
   6 C :    0.523045
   7 C :    0.548401
   8 C :    0.348835
   9 C :    0.354153
  10 H :   -0.270602
  11 H :   -0.270667
  12 C :   -0.218578
  13 C :    0.348722
  14 C :    0.342449
  15 C :    0.333648
  16 C :    0.343389
  17 C :    0.347296
  18 H :   -0.269238
  19 H :   -0.304020
  20 H :   -0.282098
  21 H :   -0.301575
  22 H :   -0.259951
  23 H :   -0.310485
  24 H :   -0.263939
  25 H :   -0.295783
  26 H :   -0.252609
  27 H :   -0.303318
  28 H :   -0.290314
  29 H :   -0.288415
  30 H :   -0.354464
  31 H :   -0.317231
  32 H :   -0.331327
  33 H :   -0.316614
  34 H :   -0.361373

  Mayer bond orders larger than 0.100000
B(  0-C ,  1-N ) :   0.6443 B(  0-C ,  7-C ) :   0.7800 B(  0-C , 12-C ) :  -0.1492
B(  0-C , 18-H ) :   1.1292 B(  0-C , 19-H ) :   1.0653 B(  1-N ,  2-C ) :   0.8202
B(  1-N ,  3-C ) :  -0.2926 B(  1-N ,  7-C ) :  -0.1663 B(  1-N , 12-C ) :   0.8923
B(  1-N , 13-C ) :  -0.1929 B(  1-N , 17-C ) :  -0.2075 B(  1-N , 23-H ) :  -0.1146
B(  2-C ,  3-C ) :   0.9466 B(  2-C , 13-C ) :  -0.1106 B(  2-C , 20-H ) :   0.9696
B(  2-C , 21-H ) :   0.9377 B(  3-C ,  4-C ) :   0.9018 B(  3-C , 22-H ) :   0.9424
B(  3-C , 23-H ) :   0.9323 B(  4-C ,  5-C ) :   0.4770 B(  4-C ,  8-C ) :   1.0666
B(  4-C ,  9-C ) :  -0.1915 B(  4-C , 11-H ) :   1.0716 B(  5-C ,  6-C ) :   0.8299
B(  5-C ,  8-C ) :  -0.1775 B(  5-C ,  9-C ) :   1.1146 B(  5-C , 10-H ) :   0.8973
B(  6-C ,  7-C ) :   0.8774 B(  6-C , 24-H ) :   0.9127 B(  6-C , 25-H ) :   0.9847
B(  7-C , 26-H ) :   1.0308 B(  7-C , 27-H ) :   0.9278 B(  8-C ,  9-C ) :   1.6248
B(  8-C , 28-H ) :   0.9643 B(  9-C , 29-H ) :   0.9708 B( 12-C , 13-C ) :   1.0793
B( 12-C , 14-C ) :  -0.4847 B( 12-C , 15-C ) :  -0.1521 B( 12-C , 16-C ) :  -0.4761
B( 12-C , 17-C ) :   0.8409 B( 13-C , 14-C ) :   1.3049 B( 13-C , 16-C ) :   0.1245
B( 13-C , 30-H ) :   1.0129 B( 13-C , 31-H ) :  -0.1719 B( 14-C , 15-C ) :   1.2108
B( 14-C , 17-C ) :   0.1512 B( 14-C , 31-H ) :   1.2369 B( 15-C , 16-C ) :   1.2144
B( 15-C , 31-H ) :  -0.1175 B( 15-C , 32-H ) :   1.0129 B( 15-C , 33-H ) :  -0.1251
B( 16-C , 17-C ) :   1.3065 B( 16-C , 33-H ) :   1.2599 B( 17-C , 32-H ) :  -0.1155
B( 17-C , 33-H ) :  -0.1846 B( 17-C , 34-H ) :   1.0555

MP2 TOTAL ENERGY:     -636.498610532 Eh
FINAL SINGLE POINT ENERGY      -636.498610532107

DIPOLE MOMENT
-------------
                                X             Y             Z
Electronic contribution:     -5.17072      -2.27155      -1.33156
Nuclear contribution   :      5.59449       2.45123       1.63140
                        -----------------------------------------
Total Dipole Moment    :      0.42377       0.17968       0.29984
                        -----------------------------------------
Magnitude (a.u.)       :      0.54933
Magnitude (Debye)      :      1.39630

Rotational constants in cm-1:     0.032388     0.012450     0.011440
Rotational constants in MHz :   970.970060   373.227968   342.967395

                             ****ORCA TERMINATED NORMALLY****
TOTAL RUN TIME: 0 days 5 hours 0 minutes 7 seconds 753 msec
