                         Program Version 4.2.1 -  RELEASE  -
|  1> %pal
|  2>  nprocs 32
|  3> end
|  4> !RI-MP2 aug-cc-pVQZ aug-cc-pVQZ/C TightSCF
|  5> %maxcore 4500
|  6> *xyzfile 0 1  10_4TS.xyz
|  7>
|  8>
|  9>                          ****END OF INPUT****

CARTESIAN COORDINATES (ANGSTROEM)
---------------------------------
  C      1.183265    0.545394   -1.279092
  C      0.939991    0.975722    0.028173
  C      1.983709    0.965442    0.956271
  C      3.244987    0.528512    0.591639
  C      3.481533    0.108393   -0.709448
  C      2.451187    0.124040   -1.640414
  C     -0.357133    1.481328    0.486811
  N     -1.404253    1.698726   -0.311445
  O     -1.723040    0.719497   -1.126537
  C     -2.540418    2.474015    0.164971
  C     -2.037741   -0.693753    0.004105
  C     -1.406487   -0.407729    1.222397
  H     -3.103857   -0.709107   -0.166518
  H     -0.322670    2.125517    1.358484
  H     -1.880327   -0.008259    2.106310
  C     -0.280679   -1.324842    1.367749
  C     -1.214483   -1.766039   -0.646607
  H     -3.186729    1.843672    0.784052
  H     -2.189961    3.329870    0.738500
  H     -3.099782    2.816803   -0.701996
  H      1.798920    1.286318    1.974797
  H      4.041144    0.511193    1.325017
  H      4.466698   -0.238116   -0.996755
  H      2.631327   -0.209339   -2.654738
  H      0.379098    0.532270   -2.000305
  O     -1.389864   -2.317122   -1.683564
  O     -0.152576   -2.048561    0.175664
  O      0.466670   -1.508164    2.276180

 Total Charge           Charge          ....    0
 Multiplicity           Mult            ....    1
 Number of Electrons    NEL             ....  122
 Basis Dimension        Dim             .... 1866

ORBITAL ENERGIES
----------------

  NO   OCC          E(Eh)            E(eV)
   0   2.0000     -20.615948      -560.9885
   1   2.0000     -20.599688      -560.5460
   2   2.0000     -20.559561      -559.4541
   3   2.0000     -20.543184      -559.0084
   4   2.0000     -15.685701      -426.8296
   5   2.0000     -11.393257      -310.0263
   6   2.0000     -11.383336      -309.7563
   7   2.0000     -11.349795      -308.8436
   8   2.0000     -11.313513      -307.8563
   9   2.0000     -11.294037      -307.3264
  10   2.0000     -11.263814      -306.5040
  11   2.0000     -11.255040      -306.2652
  12   2.0000     -11.249565      -306.1162
  13   2.0000     -11.248304      -306.0819
  14   2.0000     -11.243935      -305.9630
  15   2.0000     -11.243497      -305.9511
  16   2.0000     -11.241894      -305.9075
  17   2.0000      -1.492496       -40.6129
  18   2.0000      -1.472097       -40.0578
  19   2.0000      -1.414394       -38.4876
  20   2.0000      -1.366522       -37.1850
  21   2.0000      -1.199552       -32.6415
  22   2.0000      -1.168687       -31.8016
  23   2.0000      -1.113233       -30.2926
  24   2.0000      -1.068145       -29.0657
  25   2.0000      -1.033247       -28.1161
  26   2.0000      -0.998336       -27.1661
  27   2.0000      -0.934886       -25.4395
  28   2.0000      -0.883156       -24.0319
  29   2.0000      -0.845881       -23.0176
  30   2.0000      -0.838994       -22.8302
  31   2.0000      -0.810805       -22.0631
  32   2.0000      -0.794441       -21.6178
  33   2.0000      -0.732671       -19.9370
  34   2.0000      -0.730589       -19.8803
  35   2.0000      -0.701263       -19.0823
  36   2.0000      -0.696199       -18.9445
  37   2.0000      -0.688781       -18.7427
  38   2.0000      -0.667060       -18.1516
  39   2.0000      -0.663897       -18.0656
  40   2.0000      -0.643008       -17.4971
  41   2.0000      -0.630382       -17.1536
  42   2.0000      -0.627769       -17.0825
  43   2.0000      -0.614878       -16.7317
  44   2.0000      -0.603665       -16.4266
  45   2.0000      -0.596507       -16.2318
  46   2.0000      -0.590787       -16.0761
  47   2.0000      -0.585754       -15.9392
  48   2.0000      -0.572783       -15.5862
  49   2.0000      -0.559349       -15.2207
  50   2.0000      -0.526159       -14.3175
  51   2.0000      -0.521931       -14.2025
  52   2.0000      -0.510420       -13.8892
  53   2.0000      -0.489206       -13.3120
  54   2.0000      -0.475180       -12.9303
  55   2.0000      -0.471996       -12.8437
  56   2.0000      -0.445299       -12.1172
  57   2.0000      -0.425757       -11.5854
  58   2.0000      -0.368365       -10.0237
  59   2.0000      -0.350228        -9.5302
  60   2.0000      -0.331282        -9.0146
  61   0.0000       0.012545         0.3414
  62   0.0000       0.023658         0.6438
  63   0.0000       0.027436         0.7466
  64   0.0000       0.027583         0.7506
  65   0.0000       0.036172         0.9843

MULLIKEN ATOMIC CHARGES
-----------------------
   0 C :   -0.480865
   1 C :    0.448830
   2 C :   -0.560813
   3 C :   -0.342684
   4 C :   -0.356656
   5 C :   -0.293742
   6 C :    0.868684
   7 N :    0.063310
   8 O :   -1.014730
   9 C :   -1.058532
  10 C :   -0.117589
  11 C :   -0.736754
  12 H :    0.489220
  13 H :    0.479959
  14 H :    0.282785
  15 C :    1.639878
  16 C :    1.396186
  17 H :    0.307253
  18 H :    0.338654
  19 H :    0.349501
  20 H :    0.223415
  21 H :    0.230384
  22 H :    0.340093
  23 H :    0.233517
  24 H :    0.239366
  25 O :   -0.932273
  26 O :   -1.019765
  27 O :   -1.016633
Sum of atomic charges:   -0.0000000

LOEWDIN ATOMIC CHARGES
----------------------
   0 C :    0.338327
   1 C :   -0.109153
   2 C :    0.321088
   3 C :    0.366674
   4 C :    0.359129
   5 C :    0.371474
   6 C :    0.100899
   7 N :   -0.034644
   8 O :    0.686166
   9 C :    0.787392
  10 C :   -0.009589
  11 C :    0.187393
  12 H :   -0.300394
  13 H :   -0.299602
  14 H :   -0.303577
  15 C :   -1.123112
  16 C :   -1.100052
  17 H :   -0.282001
  18 H :   -0.284489
  19 H :   -0.282806
  20 H :   -0.303458
  21 H :   -0.312355
  22 H :   -0.311521
  23 H :   -0.311692
  24 H :   -0.366800
  25 O :    0.697618
  26 O :    0.825541
  27 O :    0.693543

  Mayer bond orders larger than 0.100000
B(  0-C ,  1-C ) :   1.1318 B(  0-C ,  3-C ) :   0.1025 B(  0-C ,  5-C ) :   1.3115
B(  0-C ,  6-C ) :  -0.2414 B(  0-C , 23-H ) :  -0.1226 B(  0-C , 24-H ) :   0.9353
B(  1-C ,  2-C ) :   0.9873 B(  1-C ,  3-C ) :  -0.2835 B(  1-C ,  5-C ) :  -0.4147
B(  1-C ,  6-C ) :   0.5926 B(  1-C , 13-H ) :  -0.1645 B(  2-C ,  3-C ) :   1.2952
B(  2-C ,  5-C ) :   0.1499 B(  2-C ,  6-C ) :  -0.3386 B(  2-C , 20-H ) :   1.0672
B(  2-C , 21-H ) :  -0.1495 B(  3-C ,  4-C ) :   1.1569 B(  3-C , 21-H ) :   1.1696
B(  4-C ,  5-C ) :   1.1438 B(  4-C , 21-H ) :  -0.1007 B(  4-C , 22-H ) :   1.0148
B(  5-C , 23-H ) :   1.1383 B(  6-C ,  7-N ) :   1.1613 B(  6-C ,  8-O ) :  -0.1202
B(  6-C ,  9-C ) :  -0.1879 B(  6-C , 11-C ) :   0.3081 B(  6-C , 13-H ) :   0.9388
B(  7-N ,  8-O ) :   0.5139 B(  7-N ,  9-C ) :   0.7882 B(  7-N , 13-H ) :  -0.1457
B(  8-O , 10-C ) :   0.3659 B(  8-O , 11-C ) :   0.1221 B(  8-O , 24-H ) :   0.1248
B(  9-C , 17-H ) :   0.9235 B(  9-C , 18-H ) :   0.9350 B(  9-C , 19-H ) :   0.9745
B( 10-C , 11-C ) :   1.4873 B( 10-C , 12-H ) :   0.7202 B( 10-C , 16-C ) :   1.1470
B( 10-C , 25-O ) :   0.3449 B( 11-C , 14-H ) :   0.8983 B( 11-C , 15-C ) :   1.2848
B( 11-C , 27-O ) :   0.3117 B( 15-C , 26-O ) :   0.4683 B( 15-C , 27-O ) :   0.8419
B( 16-C , 25-O ) :   0.8893 B( 16-C , 26-O ) :   0.8156 B( 25-O , 26-O ) :   0.1358
B( 26-O , 27-O ) :   0.1471

MP2 TOTAL ENERGY:     -818.230948831 Eh
FINAL SINGLE POINT ENERGY      -818.230948830877

DIPOLE MOMENT
-------------
                                X             Y             Z
Electronic contribution:     -0.06989      -8.50123      -1.02112
Nuclear contribution   :     -0.50939      11.01257       1.72846
                        -----------------------------------------
Total Dipole Moment    :     -0.57928       2.51134       0.70734
                        -----------------------------------------
Magnitude (a.u.)       :      2.67259
Magnitude (Debye)      :      6.79317

Rotational constants in cm-1:     0.022162     0.015554     0.013492
Rotational constants in MHz :   664.401398   466.293723   404.474985

                             ****ORCA TERMINATED NORMALLY****
TOTAL RUN TIME: 0 days 4 hours 12 minutes 51 seconds 549 msec
