                         Program Version 4.2.1 -  RELEASE  -
|  1> %pal
|  2>  nprocs 32
|  3> end
|  4> !RI-MP2 aug-cc-pVQZ aug-cc-pVQZ/C TightSCF
|  5> %maxcore 4500
|  6> *xyzfile 0 1  04_54P2.xyz
|  7>
|  8>
|  9>                          ****END OF INPUT****

CARTESIAN COORDINATES (ANGSTROEM)
---------------------------------
  H      1.520659    1.763747    0.027283
  N      0.648351    1.262780    0.050174
  C      0.662831   -0.087241    0.006248
  C     -0.709214   -0.744628    0.114273
  O      1.670544   -0.759020   -0.089845
  N     -1.817788    0.186166   -0.070461
  H     -0.758448   -1.165389    1.120981
  H     -0.704927   -1.590402   -0.579257
  H     -2.635352   -0.089278    0.455995
  H     -2.086312    0.265115   -1.043313
  H     -0.235614    1.736955    0.155957

 Total Charge           Charge          ....    0
 Multiplicity           Mult            ....    1
 Number of Electrons    NEL             ....   40
 Basis Dimension        Dim             ....  676

ORBITAL ENERGIES
----------------

  NO   OCC          E(Eh)            E(eV)
   0   2.0000     -20.506986      -558.0235
   1   2.0000     -15.573352      -423.7724
   2   2.0000     -15.564605      -423.5344
   3   2.0000     -11.340584      -308.5930
   4   2.0000     -11.270063      -306.6740
   5   2.0000      -1.374555       -37.4035
   6   2.0000      -1.220548       -33.2128
   7   2.0000      -1.185583       -32.2613
   8   2.0000      -0.957234       -26.0477
   9   2.0000      -0.788563       -21.4579
  10   2.0000      -0.730074       -19.8663
  11   2.0000      -0.694826       -18.9072
  12   2.0000      -0.658152       -17.9092
  13   2.0000      -0.611092       -16.6286
  14   2.0000      -0.593160       -16.1407
  15   2.0000      -0.575713       -15.6659
  16   2.0000      -0.520074       -14.1519
  17   2.0000      -0.442244       -12.0341
  18   2.0000      -0.407302       -11.0833
  19   2.0000      -0.402167       -10.9435
  20   0.0000       0.019177         0.5218
  21   0.0000       0.030705         0.8355
  22   0.0000       0.034850         0.9483
  23   0.0000       0.040028         1.0892
  24   0.0000       0.054695         1.4883

MULLIKEN ATOMIC CHARGES
-----------------------
   0 H :    0.174717
   1 N :   -0.682942
   2 C :    0.799532
   3 C :   -0.289763
   4 O :   -0.794566
   5 N :   -0.651167
   6 H :    0.299069
   7 H :    0.271800
   8 H :    0.216500
   9 H :    0.273008
  10 H :    0.383812
Sum of atomic charges:   -0.0000000

LOEWDIN ATOMIC CHARGES
----------------------
   0 H :   -0.488100
   1 N :    1.230360
   2 C :   -0.851234
   3 C :    0.321803
   4 O :    0.672810
   5 N :    1.261506
   6 H :   -0.300871
   7 H :   -0.301491
   8 H :   -0.493775
   9 H :   -0.487150
  10 H :   -0.563860

  Mayer bond orders larger than 0.100000
B(  0-H ,  1-N ) :   1.0582 B(  1-N ,  2-C ) :   1.0921 B(  1-N ,  4-O ) :   0.1299
B(  1-N , 10-H ) :   0.8421 B(  2-C ,  3-C ) :   1.0402 B(  2-C ,  4-O ) :   1.3637
B(  3-C ,  4-O ) :   0.1001 B(  3-C ,  5-N ) :   1.0089 B(  3-C ,  6-H ) :   0.8565
B(  3-C ,  7-H ) :   0.9153 B(  5-N ,  8-H ) :   0.9922 B(  5-N ,  9-H ) :   0.9116

MP2 TOTAL ENERGY:     -264.192281111 Eh
FINAL SINGLE POINT ENERGY      -264.192281111198

DIPOLE MOMENT
-------------
                                X             Y             Z
Electronic contribution:      3.38103      -0.23153      -0.13067
Nuclear contribution   :     -4.94903       0.93016       0.13802
                        -----------------------------------------
Total Dipole Moment    :     -1.56800       0.69864       0.00735
                        -----------------------------------------
Magnitude (a.u.)       :      1.71662
Magnitude (Debye)      :      4.36329

Rotational constants in cm-1:     0.323708     0.133575     0.098218
Rotational constants in MHz :  9704.511427  4004.467309  2944.499699

                             ****ORCA TERMINATED NORMALLY****
TOTAL RUN TIME: 0 days 0 hours 6 minutes 39 seconds 809 msec
