                         Program Version 4.2.1 -  RELEASE  -
|  1> %pal
|  2>  nprocs 32
|  3> end
|  4> !RI-MP2 aug-cc-pVQZ aug-cc-pVQZ/C TightSCF
|  5> %maxcore 4500
|  6> *xyzfile 0 1  03_29R1.xyz
|  7>
|  8>
|  9>                          ****END OF INPUT****

CARTESIAN COORDINATES (ANGSTROEM)
---------------------------------
  C     -1.447175    0.014539    0.000005
  C     -2.016877   -0.604652   -1.264660
  C     -2.016868   -0.604583    1.264708
  C      0.069548    0.009376   -0.000001
  C      0.791163    1.196845   -0.000036
  C      2.180418    1.174780   -0.000040
  C      2.863362   -0.031612   -0.000009
  C      2.147716   -1.221838    0.000026
  C      0.761757   -1.200213    0.000030
  H      0.260186    2.138503   -0.000060
  H      2.729406    2.108912   -0.000068
  H      3.946461   -0.046842   -0.000012
  H      2.670342   -2.170867    0.000051
  H      0.218686   -2.138372    0.000058
  H     -3.105753   -0.535834    1.253980
  H     -1.635704   -0.080059    2.141341
  H     -1.732886   -1.655007    1.340980
  H     -3.105762   -0.535908   -1.253927
  H     -1.732890   -1.655079   -1.340880
  H     -1.635724   -0.080172   -2.141325
  F     -1.874959    1.361653   -0.000031

 Total Charge           Charge          ....    0
 Multiplicity           Mult            ....    1
 Number of Electrons    NEL             ....   74
 Basis Dimension        Dim             .... 1306

ORBITAL ENERGIES
----------------

  NO   OCC          E(Eh)            E(eV)
   0   2.0000     -26.265146      -714.7109
   1   2.0000     -11.322308      -308.0957
   2   2.0000     -11.241768      -305.9040
   3   2.0000     -11.236373      -305.7572
   4   2.0000     -11.235080      -305.7221
   5   2.0000     -11.233783      -305.6868
   6   2.0000     -11.231822      -305.6334
   7   2.0000     -11.229213      -305.5624
   8   2.0000     -11.223234      -305.3997
   9   2.0000     -11.223220      -305.3993
  10   2.0000      -1.577957       -42.9384
  11   2.0000      -1.163614       -31.6635
  12   2.0000      -1.087608       -29.5953
  13   2.0000      -1.018297       -27.7093
  14   2.0000      -1.004710       -27.3396
  15   2.0000      -0.954737       -25.9797
  16   2.0000      -0.857609       -23.3367
  17   2.0000      -0.829742       -22.5784
  18   2.0000      -0.783504       -21.3202
  19   2.0000      -0.724316       -19.7096
  20   2.0000      -0.672103       -18.2889
  21   2.0000      -0.667120       -18.1533
  22   2.0000      -0.663468       -18.0539
  23   2.0000      -0.627807       -17.0835
  24   2.0000      -0.613372       -16.6907
  25   2.0000      -0.593016       -16.1368
  26   2.0000      -0.580803       -15.8045
  27   2.0000      -0.568374       -15.4662
  28   2.0000      -0.551376       -15.0037
  29   2.0000      -0.541163       -14.7258
  30   2.0000      -0.534850       -14.5540
  31   2.0000      -0.507940       -13.8218
  32   2.0000      -0.494358       -13.4522
  33   2.0000      -0.485162       -13.2019
  34   2.0000      -0.471297       -12.8246
  35   2.0000      -0.340110        -9.2549
  36   2.0000      -0.333914        -9.0863
  37   0.0000       0.023445         0.6380
  38   0.0000       0.027693         0.7536
  39   0.0000       0.031146         0.8475
  40   0.0000       0.034659         0.9431
  41   0.0000       0.039892         1.0855

MULLIKEN ATOMIC CHARGES
-----------------------
   0 C :    1.546622
   1 C :   -0.982336
   2 C :   -0.982349
   3 C :    0.395801
   4 C :   -0.728911
   5 C :   -0.246923
   6 C :   -0.339348
   7 C :   -0.228585
   8 C :   -0.459497
   9 H :    0.229761
  10 H :    0.224637
  11 H :    0.323502
  12 H :    0.212531
  13 H :    0.239114
  14 H :    0.311669
  15 H :    0.285027
  16 H :    0.228275
  17 H :    0.311633
  18 H :    0.228285
  19 H :    0.285019
  20 F :   -0.853928
Sum of atomic charges:   -0.0000000

LOEWDIN ATOMIC CHARGES
----------------------
   0 C :   -0.854168
   1 C :    0.889057
   2 C :    0.889058
   3 C :   -0.130640
   4 C :    0.338841
   5 C :    0.348663
   6 C :    0.338412
   7 C :    0.352845
   8 C :    0.330666
   9 H :   -0.354217
  10 H :   -0.319200
  11 H :   -0.322295
  12 H :   -0.318122
  13 H :   -0.320445
  14 H :   -0.280574
  15 H :   -0.272917
  16 H :   -0.287414
  17 H :   -0.280574
  18 H :   -0.287413
  19 H :   -0.272916
  20 F :    0.813352

  Mayer bond orders larger than 0.100000
B(  0-C ,  1-C ) :   0.7022 B(  0-C ,  2-C ) :   0.7022 B(  0-C ,  3-C ) :   0.7004
B(  0-C ,  4-C ) :  -0.2614 B(  0-C ,  8-C ) :  -0.1119 B(  0-C , 20-F ) :  -0.2954
B(  1-C ,  2-C ) :   0.1010 B(  1-C , 17-H ) :   0.9563 B(  1-C , 18-H ) :   1.0012
B(  1-C , 19-H ) :   0.9695 B(  1-C , 20-F ) :   0.1080 B(  2-C , 14-H ) :   0.9563
B(  2-C , 15-H ) :   0.9695 B(  2-C , 16-H ) :   1.0013 B(  2-C , 20-F ) :   0.1080
B(  3-C ,  4-C ) :   0.8720 B(  3-C ,  5-C ) :  -0.4034 B(  3-C ,  7-C ) :  -0.3903
B(  3-C ,  8-C ) :   0.8381 B(  3-C , 13-H ) :  -0.1074 B(  3-C , 20-F ) :   0.2318
B(  4-C ,  5-C ) :   1.4676 B(  4-C ,  7-C ) :   0.1743 B(  4-C ,  8-C ) :   0.1063
B(  4-C ,  9-H ) :   0.9953 B(  4-C , 10-H ) :  -0.1291 B(  5-C ,  6-C ) :   1.1003
B(  5-C ,  8-C ) :   0.1262 B(  5-C , 10-H ) :   1.1349 B(  5-C , 11-H ) :  -0.1025
B(  6-C ,  7-C ) :   1.1225 B(  6-C , 10-H ) :  -0.1087 B(  6-C , 11-H ) :   1.0474
B(  7-C ,  8-C ) :   1.3745 B(  7-C , 12-H ) :   1.1393 B(  8-C , 12-H ) :  -0.1129
B(  8-C , 13-H ) :   1.0207 B(  9-H , 20-F ) :   0.1268

MP2 TOTAL ENERGY:     -448.698039015 Eh
FINAL SINGLE POINT ENERGY      -448.698039014995

DIPOLE MOMENT
-------------
                                X             Y             Z
Electronic contribution:      1.43794       5.30834      -0.00015
Nuclear contribution   :     -1.27924      -6.02986       0.00017
                        -----------------------------------------
Total Dipole Moment    :      0.15870      -0.72152       0.00002
                        -----------------------------------------
Magnitude (a.u.)       :      0.73877
Magnitude (Debye)      :      1.87780

Rotational constants in cm-1:     0.088073     0.031720     0.027459
Rotational constants in MHz :  2640.363015   950.956240   823.189906

                             ****ORCA TERMINATED NORMALLY****
TOTAL RUN TIME: 0 days 0 hours 58 minutes 46 seconds 713 msec
