                         Program Version 4.2.1 -  RELEASE  -
|  1> %pal
|  2>  nprocs 32
|  3> end
|  4> !RI-MP2 aug-cc-pVQZ aug-cc-pVQZ/C TightSCF
|  5> %maxcore 4500
|  6> *xyzfile 0 1  10_7P.xyz
|  7>
|  8>
|  9>                          ****END OF INPUT****

CARTESIAN COORDINATES (ANGSTROEM)
---------------------------------
  C     -0.270436   -0.982540    0.360558
  C     -0.792882    0.288106    0.253878
  C      1.089047   -1.499298    0.713272
  H      1.449010   -1.058388    1.646541
  H      0.949723   -2.563405    0.909901
  C     -0.255867    1.662282    0.479913
  H     -0.710799    2.084485    1.383229
  H     -0.573753    2.307326   -0.347115
  C      2.147572   -1.339025   -0.390635
  H      2.899386   -2.122187   -0.256994
  H      1.672219   -1.535656   -1.356781
  C      2.884121   -0.000701   -0.444258
  H      3.471458    0.125078    0.473343
  H      3.612345   -0.058788   -1.258867
  C      1.264245    1.732577    0.600829
  H      1.525752    2.771709    0.812642
  H      1.584707    1.165707    1.477379
  C      2.026093    1.250699   -0.650701
  H      2.681669    2.055019   -0.992745
  H      1.320629    1.072540   -1.469464
  N     -1.252551   -1.865595    0.026978
  N     -2.334061   -1.226484   -0.270855
  N     -2.075337    0.079104   -0.140594
  C     -3.110285    1.052374   -0.406389
  H     -3.305690    1.658715    0.479086
  H     -2.825538    1.702903   -1.234662
  H     -4.007113    0.498922   -0.672997

 Total Charge           Charge          ....    0
 Multiplicity           Mult            ....    1
 Number of Electrons    NEL             ....   90
 Basis Dimension        Dim             .... 1650

ORBITAL ENERGIES
----------------

  NO   OCC          E(Eh)            E(eV)
   0   2.0000     -15.642286      -425.6483
   1   2.0000     -15.618379      -424.9977
   2   2.0000     -15.573496      -423.7764
   3   2.0000     -11.279247      -306.9239
   4   2.0000     -11.267957      -306.6167
   5   2.0000     -11.248033      -306.0745
   6   2.0000     -11.239386      -305.8392
   7   2.0000     -11.231038      -305.6121
   8   2.0000     -11.222622      -305.3831
   9   2.0000     -11.221866      -305.3625
  10   2.0000     -11.219156      -305.2887
  11   2.0000     -11.216810      -305.2249
  12   2.0000      -1.429540       -38.8998
  13   2.0000      -1.211506       -32.9667
  14   2.0000      -1.125438       -30.6247
  15   2.0000      -1.068148       -29.0658
  16   2.0000      -1.056339       -28.7444
  17   2.0000      -0.986710       -26.8497
  18   2.0000      -0.960326       -26.1318
  19   2.0000      -0.920694       -25.0533
  20   2.0000      -0.828425       -22.5426
  21   2.0000      -0.806184       -21.9374
  22   2.0000      -0.787768       -21.4363
  23   2.0000      -0.763342       -20.7716
  24   2.0000      -0.689523       -18.7629
  25   2.0000      -0.674058       -18.3421
  26   2.0000      -0.630718       -17.1627
  27   2.0000      -0.623339       -16.9619
  28   2.0000      -0.617700       -16.8085
  29   2.0000      -0.602123       -16.3846
  30   2.0000      -0.599507       -16.3134
  31   2.0000      -0.580172       -15.7873
  32   2.0000      -0.570380       -15.5208
  33   2.0000      -0.546484       -14.8706
  34   2.0000      -0.533800       -14.5254
  35   2.0000      -0.520186       -14.1550
  36   2.0000      -0.511649       -13.9227
  37   2.0000      -0.497176       -13.5288
  38   2.0000      -0.482778       -13.1370
  39   2.0000      -0.464347       -12.6355
  40   2.0000      -0.457069       -12.4375
  41   2.0000      -0.445705       -12.1283
  42   2.0000      -0.418517       -11.3884
  43   2.0000      -0.385248       -10.4831
  44   2.0000      -0.327824        -8.9205
  45   0.0000       0.018736         0.5098
  46   0.0000       0.025955         0.7063
  47   0.0000       0.028034         0.7628
  48   0.0000       0.030953         0.8423
  49   0.0000       0.040634         1.1057

MULLIKEN ATOMIC CHARGES
-----------------------
   0 C :    0.207277
   1 C :    0.636281
   2 C :   -0.341208
   3 H :    0.249365
   4 H :    0.308884
   5 C :   -0.382177
   6 H :    0.288029
   7 H :    0.194998
   8 C :   -0.513894
   9 H :    0.241250
  10 H :    0.260355
  11 C :   -0.565985
  12 H :    0.228729
  13 H :    0.194425
  14 C :   -0.463457
  15 H :    0.261690
  16 H :    0.328296
  17 C :   -0.471653
  18 H :    0.255700
  19 H :    0.262846
  20 N :   -0.670407
  21 N :   -0.406304
  22 N :   -0.091722
  23 C :   -1.099757
  24 H :    0.352222
  25 H :    0.315018
  26 H :    0.421196
Sum of atomic charges:   -0.0000000

LOEWDIN ATOMIC CHARGES
----------------------
   0 C :   -0.350703
   1 C :   -0.233300
   2 C :    0.509134
   3 H :   -0.286631
   4 H :   -0.309274
   5 C :    0.529865
   6 H :   -0.260258
   7 H :   -0.284651
   8 C :    0.549863
   9 H :   -0.268793
  10 H :   -0.267193
  11 C :    0.545341
  12 H :   -0.269537
  13 H :   -0.269093
  14 C :    0.550036
  15 H :   -0.260525
  16 H :   -0.298229
  17 C :    0.559479
  18 H :   -0.266634
  19 H :   -0.275916
  20 N :    0.340504
  21 N :    0.242876
  22 N :    0.138573
  23 C :    0.799787
  24 H :   -0.275360
  25 H :   -0.278171
  26 H :   -0.311189

  Mayer bond orders larger than 0.100000
B(  0-C ,  1-C ) :   1.6921 B(  0-C ,  2-C ) :   0.7579 B(  0-C ,  5-C ) :  -0.1250
B(  0-C , 20-N ) :   0.2859 B(  0-C , 22-N ) :   0.1774 B(  1-C ,  2-C ) :  -0.1091
B(  1-C ,  5-C ) :   0.6205 B(  1-C , 14-C ) :  -0.1680 B(  1-C , 20-N ) :   0.3588
B(  1-C , 22-N ) :   0.6864 B(  1-C , 23-C ) :  -0.1225 B(  2-C ,  3-H ) :   1.0126
B(  2-C ,  4-H ) :   0.9762 B(  2-C ,  8-C ) :   0.8845 B(  5-C ,  6-H ) :   0.9451
B(  5-C ,  7-H ) :   0.9817 B(  5-C , 14-C ) :   0.9278 B(  5-C , 22-N ) :  -0.1123
B(  8-C ,  9-H ) :   0.9619 B(  8-C , 10-H ) :   0.9397 B(  8-C , 11-C ) :   0.8068
B( 11-C , 12-H ) :   0.9738 B( 11-C , 13-H ) :   1.0199 B( 11-C , 17-C ) :   0.8426
B( 14-C , 15-H ) :   0.9925 B( 14-C , 16-H ) :   0.9149 B( 14-C , 17-C ) :   0.8979
B( 17-C , 18-H ) :   0.9759 B( 17-C , 19-H ) :   0.9717 B( 20-N , 21-N ) :   1.1382
B( 21-N , 22-N ) :   0.9175 B( 22-N , 23-C ) :   0.7166 B( 23-C , 24-H ) :   0.9611
B( 23-C , 25-H ) :   0.9720 B( 23-C , 26-H ) :   0.8342

MP2 TOTAL ENERGY:     -515.335188843 Eh
FINAL SINGLE POINT ENERGY      -515.335188843154

DIPOLE MOMENT
-------------
                                X             Y             Z
Electronic contribution:     -9.47916      -6.38655       0.54697
Nuclear contribution   :      9.93330       8.27160      -0.41915
                        -----------------------------------------
Total Dipole Moment    :      0.45413       1.88505       0.12782
                        -----------------------------------------
Magnitude (a.u.)       :      1.94319
Magnitude (Debye)      :      4.93919

Rotational constants in cm-1:     0.052342     0.025641     0.018984
Rotational constants in MHz :  1569.182080   768.704983   569.124331

                             ****ORCA TERMINATED NORMALLY****
TOTAL RUN TIME: 0 days 2 hours 24 minutes 5 seconds 228 msec
