                         Program Version 4.2.1 -  RELEASE  -
|  1> %pal
|  2>  nprocs 32
|  3> end
|  4> !RI-MP2 aug-cc-pVQZ aug-cc-pVQZ/C TightSCF
|  5> %maxcore 4500
|  6> *xyzfile 1 1  05_22TS.xyz
|  7>
|  8>
|  9>                          ****END OF INPUT****

CARTESIAN COORDINATES (ANGSTROEM)
---------------------------------
  C      1.261461   -0.770297   -0.448912
  C      2.149841    1.737848   -0.447677
  C      3.538295    1.151252   -0.729140
  C      3.729107   -0.229406   -0.129815
  C      2.705206   -1.176321   -0.744594
  H      3.686701    1.096786   -1.812773
  H      4.278573    1.849753   -0.334265
  H      3.584026   -0.198830    0.951437
  H      2.859516   -1.207201   -1.827382
  H      2.859839   -2.183402   -0.357628
  N      1.116322    0.692301   -0.701448
  O     -0.087306    1.117631   -0.810194
  C      0.308956   -1.509201   -1.387647
  H      0.483939   -2.580782   -1.287515
  H     -0.735349   -1.311218   -1.148727
  H      0.489231   -1.227659   -2.425650
  C      0.885623   -1.082082    1.010045
  H     -0.142774   -0.787674    1.222247
  H      0.948065   -2.160970    1.154434
  H      1.553009   -0.617210    1.732684
  C      1.884753    2.904225   -1.398954
  H      0.950547    3.412550   -1.165793
  H      2.695966    3.626725   -1.302762
  H      1.849393    2.562390   -2.433945
  C      2.035955    2.226740    1.006144
  H      2.747862    3.040068    1.152130
  H      1.044002    2.631222    1.210831
  H      2.264916    1.449796    1.733290
  C     -1.580635    1.668604    1.162475
  H     -1.009863    1.334613    2.029215
  H     -0.642157    1.270863    0.184359
  C     -2.670003    0.781558    0.735980
  C     -3.312021    0.883391   -0.505335
  C     -2.987685   -0.278759    1.594229
  C     -4.276711   -0.038034   -0.864937
  H     -3.041983    1.656523   -1.209624
  C     -3.960426   -1.197034    1.245357
  H     -2.486184   -0.372082    2.549779
  C     -4.585177   -1.056154    0.020065
  H     -4.785401    0.013625   -1.817279
  H     -4.237061   -2.012345    1.899035
  O     -1.579930    2.990785    1.119606
  C     -2.479409    3.754880    0.300876
  H     -2.178389    3.691245   -0.745110
  H     -3.503843    3.409467    0.433755
  H     -2.377180    4.777438    0.650810
  N     -5.618068   -2.046545   -0.369718
  O     -6.158270   -1.884386   -1.441961
  O     -5.841704   -2.944162    0.412091
  N      5.082225   -0.701952   -0.330542
  C      5.578093   -1.697014    0.465433
  O      4.898284   -2.179919    1.351516
  C      6.988119   -2.141703    0.185288
  H      6.980071   -3.208111   -0.041596
  H      7.581053   -2.004832    1.089943
  H      7.458802   -1.602250   -0.636812
  H      5.632689   -0.349663   -1.096881

 Total Charge           Charge          ....    1
 Multiplicity           Mult            ....    1
 Number of Electrons    NEL             ....  204
 Basis Dimension        Dim             .... 3540

ORBITAL ENERGIES
----------------

  NO   OCC          E(Eh)            E(eV)
   0   2.0000     -20.810027      -566.2696
   1   2.0000     -20.776617      -565.3605
   2   2.0000     -20.702245      -563.3367
   3   2.0000     -20.702108      -563.3330
   4   2.0000     -20.598002      -560.5001
   5   2.0000     -15.955708      -434.1769
   6   2.0000     -15.791955      -429.7209
   7   2.0000     -15.674131      -426.5148
   8   2.0000     -11.529619      -313.7369
   9   2.0000     -11.438249      -311.2506
  10   2.0000     -11.433957      -311.1338
  11   2.0000     -11.432962      -311.1067
  12   2.0000     -11.419998      -310.7539
  13   2.0000     -11.410686      -310.5006
  14   2.0000     -11.405312      -310.3543
  15   2.0000     -11.404008      -310.3188
  16   2.0000     -11.403254      -310.2983
  17   2.0000     -11.393610      -310.0359
  18   2.0000     -11.393534      -310.0338
  19   2.0000     -11.373230      -309.4813
  20   2.0000     -11.346338      -308.7495
  21   2.0000     -11.342134      -308.6351
  22   2.0000     -11.340450      -308.5893
  23   2.0000     -11.335119      -308.4443
  24   2.0000     -11.332735      -308.3794
  25   2.0000     -11.330686      -308.3236
  26   2.0000     -11.311122      -307.7913
  27   2.0000      -1.718573       -46.7648
  28   2.0000      -1.643742       -44.7285
  29   2.0000      -1.603880       -43.6438
  30   2.0000      -1.511351       -41.1260
  31   2.0000      -1.469908       -39.9982
  32   2.0000      -1.338247       -36.4155
  33   2.0000      -1.335773       -36.3482
  34   2.0000      -1.304705       -35.5028
  35   2.0000      -1.245859       -33.9016
  36   2.0000      -1.231688       -33.5159
  37   2.0000      -1.186831       -32.2953
  38   2.0000      -1.172356       -31.9014
  39   2.0000      -1.159985       -31.5648
  40   2.0000      -1.119607       -30.4660
  41   2.0000      -1.101189       -29.9649
  42   2.0000      -1.078028       -29.3346
  43   2.0000      -1.070420       -29.1276
  44   2.0000      -1.060191       -28.8493
  45   2.0000      -1.052865       -28.6499
  46   2.0000      -1.014063       -27.5940
  47   2.0000      -1.002729       -27.2856
  48   2.0000      -0.959918       -26.1207
  49   2.0000      -0.948459       -25.8089
  50   2.0000      -0.945100       -25.7175
  51   2.0000      -0.913906       -24.8687
  52   2.0000      -0.897433       -24.4204
  53   2.0000      -0.885458       -24.0945
  54   2.0000      -0.874999       -23.8099
  55   2.0000      -0.863631       -23.5006
  56   2.0000      -0.837254       -22.7828
  57   2.0000      -0.830015       -22.5859
  58   2.0000      -0.828973       -22.5575
  59   2.0000      -0.813001       -22.1229
  60   2.0000      -0.812232       -22.1020
  61   2.0000      -0.802868       -21.8471
  62   2.0000      -0.786582       -21.4040
  63   2.0000      -0.780205       -21.2305
  64   2.0000      -0.777056       -21.1448
  65   2.0000      -0.762328       -20.7440
  66   2.0000      -0.754380       -20.5277
  67   2.0000      -0.748547       -20.3690
  68   2.0000      -0.737898       -20.0792
  69   2.0000      -0.727630       -19.7998
  70   2.0000      -0.718386       -19.5483
  71   2.0000      -0.714697       -19.4479
  72   2.0000      -0.709847       -19.3159
  73   2.0000      -0.702084       -19.1047
  74   2.0000      -0.696012       -18.9394
  75   2.0000      -0.689371       -18.7587
  76   2.0000      -0.686550       -18.6820
  77   2.0000      -0.676798       -18.4166
  78   2.0000      -0.665874       -18.1193
  79   2.0000      -0.663679       -18.0596
  80   2.0000      -0.661724       -18.0064
  81   2.0000      -0.658775       -17.9262
  82   2.0000      -0.654597       -17.8125
  83   2.0000      -0.652626       -17.7588
  84   2.0000      -0.643480       -17.5100
  85   2.0000      -0.640747       -17.4356
  86   2.0000      -0.635515       -17.2932
  87   2.0000      -0.624429       -16.9916
  88   2.0000      -0.616194       -16.7675
  89   2.0000      -0.604139       -16.4395
  90   2.0000      -0.600812       -16.3489
  91   2.0000      -0.598965       -16.2987
  92   2.0000      -0.597414       -16.2565
  93   2.0000      -0.596154       -16.2222
  94   2.0000      -0.577715       -15.7204
  95   2.0000      -0.572217       -15.5708
  96   2.0000      -0.554865       -15.0986
  97   2.0000      -0.527262       -14.3475
  98   2.0000      -0.509154       -13.8548
  99   2.0000      -0.497745       -13.5443
 100   2.0000      -0.484253       -13.1772
 101   2.0000      -0.458121       -12.4661
 102   0.0000      -0.165780        -4.5111
 103   0.0000      -0.065077        -1.7708
 104   0.0000      -0.063206        -1.7199
 105   0.0000      -0.056361        -1.5337
 106   0.0000      -0.050719        -1.3801

MULLIKEN ATOMIC CHARGES
-----------------------
   0 C :    1.477877
   1 C :    1.151212
   2 C :   -0.783186
   3 C :    1.816232
   4 C :   -1.096988
   5 H :    0.176311
   6 H :    0.149075
   7 H :    0.146586
   8 H :    0.246832
   9 H :    0.231856
  10 N :    1.448081
  11 O :   -1.508401
  12 C :   -1.333940
  13 H :    0.203088
  14 H :    0.318678
  15 H :    0.243782
  16 C :   -1.618673
  17 H :    0.510396
  18 H :    0.105158
  19 H :    0.272804
  20 C :   -1.318495
  21 H :    0.293572
  22 H :    0.233564
  23 H :    0.246262
  24 C :   -1.349273
  25 H :    0.091333
  26 H :    0.276091
  27 H :    0.299161
  28 C :    1.738832
  29 H :    0.140668
  30 H :    0.792469
  31 C :    0.433250
  32 C :   -0.482106
  33 C :   -0.412982
  34 C :   -0.173527
  35 H :    0.059736
  36 C :   -0.224335
  37 H :    0.231773
  38 C :   -0.108158
  39 H :    0.315220
  40 H :    0.321022
  41 O :   -1.131582
  42 C :   -0.892552
  43 H :    0.323547
  44 H :    0.354613
  45 H :    0.397499
  46 N :    0.733925
  47 O :   -0.609138
  48 O :   -0.611146
  49 N :   -1.096757
  50 C :    0.999311
  51 O :   -0.936279
  52 C :   -0.906542
  53 H :    0.285941
  54 H :    0.288475
  55 H :    0.212328
  56 H :    0.027500
Sum of atomic charges:    1.0000000

LOEWDIN ATOMIC CHARGES
----------------------
   0 C :   -0.364605
   1 C :   -0.368236
   2 C :    0.535110
   3 C :   -0.021931
   4 C :    0.533197
   5 H :   -0.253669
   6 H :   -0.244490
   7 H :   -0.339618
   8 H :   -0.249988
   9 H :   -0.270063
  10 N :    0.206119
  11 O :    1.120361
  12 C :    0.928431
  13 H :   -0.256123
  14 H :   -0.283445
  15 H :   -0.254848
  16 C :    0.953606
  17 H :   -0.311304
  18 H :   -0.245097
  19 H :   -0.278893
  20 C :    0.925253
  21 H :   -0.280480
  22 H :   -0.258415
  23 H :   -0.256481
  24 C :    0.951204
  25 H :   -0.250513
  26 H :   -0.303511
  27 H :   -0.282094
  28 C :    0.039925
  29 H :   -0.290521
  30 H :   -0.949089
  31 C :   -0.041743
  32 C :    0.374182
  33 C :    0.390309
  34 C :    0.370815
  35 H :   -0.326761
  36 C :    0.369269
  37 H :   -0.291629
  38 C :   -0.261954
  39 H :   -0.332772
  40 H :   -0.331797
  41 O :    0.993119
  42 C :    0.688608
  43 H :   -0.288407
  44 H :   -0.300664
  45 H :   -0.289758
  46 N :   -0.818800
  47 O :    0.574647
  48 O :    0.575467
  49 N :    0.879260
  50 C :   -0.806156
  51 O :    0.742724
  52 C :    0.914402
  53 H :   -0.289673
  54 H :   -0.290277
  55 H :   -0.304214
  56 H :   -0.477993

  Mayer bond orders larger than 0.100000
B(  0-C ,  1-C ) :   0.2740 B(  0-C ,  8-H ) :  -0.1066 B(  0-C , 10-N ) :   0.9293
B(  0-C , 11-O ) :   0.1221 B(  0-C , 12-C ) :  -0.1187 B(  0-C , 13-H ) :  -0.2412
B(  0-C , 14-H ) :  -0.2754 B(  0-C , 15-H ) :  -0.2662 B(  0-C , 16-C ) :   0.2474
B(  0-C , 17-H ) :  -0.1280 B(  0-C , 18-H ) :  -0.1034 B(  0-C , 19-H ) :  -0.2098
B(  1-C ,  2-C ) :   0.5046 B(  1-C ,  6-H ) :  -0.1006 B(  1-C ,  7-H ) :   0.1029
B(  1-C , 10-N ) :   0.8012 B(  1-C , 21-H ) :  -0.2245 B(  1-C , 22-H ) :  -0.2091
B(  1-C , 23-H ) :  -0.2663 B(  1-C , 24-C ) :   0.2885 B(  1-C , 26-H ) :  -0.1533
B(  1-C , 27-H ) :  -0.2088 B(  2-C ,  3-C ) :   0.3587 B(  2-C ,  4-C ) :  -0.1189
B(  2-C ,  5-H ) :   1.1770 B(  2-C ,  6-H ) :   1.1582 B(  3-C ,  4-C ) :   0.8066
B(  3-C ,  5-H ) :  -0.1472 B(  3-C ,  6-H ) :  -0.1355 B(  3-C ,  7-H ) :   1.0617
B(  3-C , 10-N ) :  -0.1280 B(  3-C , 49-N ) :  -1.0946 B(  3-C , 56-H ) :  -0.4058
B(  4-C ,  8-H ) :   1.1023 B(  4-C ,  9-H ) :   1.0983 B(  4-C , 49-N ) :   0.5690
B(  9-H , 51-O ) :  -0.1205 B( 10-N , 28-C ) :   0.2676 B( 11-O , 12-C ) :  -0.1211
B( 11-O , 41-O ) :   0.1577 B( 12-C , 13-H ) :   1.1654 B( 12-C , 14-H ) :   1.0601
B( 12-C , 15-H ) :   1.2079 B( 12-C , 16-C ) :   0.1321 B( 16-C , 17-H ) :   0.6915
B( 16-C , 18-H ) :   1.2482 B( 16-C , 19-H ) :   1.1761 B( 16-C , 51-O ) :   0.1048
B( 20-C , 21-H ) :   1.0329 B( 20-C , 22-H ) :   1.1346 B( 20-C , 23-H ) :   1.1955
B( 20-C , 24-C ) :   0.1495 B( 24-C , 25-H ) :   1.1928 B( 24-C , 26-H ) :   1.0295
B( 24-C , 27-H ) :   1.0980 B( 28-C , 29-H ) :   1.2380 B( 28-C , 30-H ) :   0.3724
B( 28-C , 31-C ) :   0.1598 B( 28-C , 32-C ) :  -0.1752 B( 28-C , 33-C ) :  -0.3582
B( 28-C , 41-O ) :  -0.2518 B( 28-C , 42-C ) :  -0.3258 B( 29-H , 31-C ) :  -0.1572
B( 30-H , 32-C ) :  -0.1122 B( 30-H , 41-O ) :   0.3023 B( 31-C , 32-C ) :   1.0474
B( 31-C , 33-C ) :   1.1645 B( 31-C , 34-C ) :  -0.1025 B( 31-C , 35-H ) :  -0.1465
B( 31-C , 36-C ) :  -0.1970 B( 31-C , 38-C ) :  -0.1052 B( 32-C , 33-C ) :  -0.1945
B( 32-C , 34-C ) :   1.3099 B( 32-C , 35-H ) :   1.2203 B( 32-C , 38-C ) :  -0.1737
B( 32-C , 39-H ) :  -0.1289 B( 33-C , 34-C ) :   0.1635 B( 33-C , 36-C ) :   1.4166
B( 33-C , 37-H ) :   1.0526 B( 33-C , 40-H ) :  -0.1153 B( 33-C , 48-O ) :  -0.1248
B( 34-C , 35-H ) :  -0.1170 B( 34-C , 38-C ) :   1.1789 B( 34-C , 39-H ) :   0.9278
B( 34-C , 46-N ) :  -0.1497 B( 36-C , 37-H ) :  -0.1634 B( 36-C , 38-C ) :   1.0750
B( 36-C , 40-H ) :   0.9453 B( 38-C , 39-H ) :  -0.1023 B( 38-C , 40-H ) :  -0.1181
B( 38-C , 46-N ) :   0.6782 B( 38-C , 47-O ) :   0.3948 B( 38-C , 48-O ) :   0.4206
B( 41-O , 42-C ) :   1.0878 B( 42-C , 43-H ) :   0.8961 B( 42-C , 44-H ) :   0.8213
B( 42-C , 45-H ) :   0.8967 B( 46-N , 47-O ) :   1.1426 B( 46-N , 48-O ) :   1.1464
B( 49-N , 50-C ) :   1.1222 B( 49-N , 51-O ) :   0.1553 B( 49-N , 56-H ) :   1.4057
B( 50-C , 51-O ) :   0.9590 B( 50-C , 52-C ) :   0.7229 B( 50-C , 55-H ) :  -0.1616
B( 52-C , 53-H ) :   0.9518 B( 52-C , 54-H ) :   0.9770 B( 52-C , 55-H ) :   1.0486

MP2 TOTAL ENERGY:    -1280.048242611 Eh
FINAL SINGLE POINT ENERGY     -1280.048242610522

DIPOLE MOMENT
-------------
                                X             Y             Z
Electronic contribution:    -34.25502     -10.69082       1.42785
Nuclear contribution   :     35.08693      14.10740      -1.66774
                        -----------------------------------------
Total Dipole Moment    :      0.83191       3.41658      -0.23989
                        -----------------------------------------
Magnitude (a.u.)       :      3.52458
Magnitude (Debye)      :      8.95877

Rotational constants in cm-1:     0.010393     0.002937     0.002526
Rotational constants in MHz :   311.576163    88.055641    75.728776

                             ****ORCA TERMINATED NORMALLY****
TOTAL RUN TIME: 1 days 11 hours 5 minutes 56 seconds 204 msec
