                         Program Version 4.2.1 -  RELEASE  -
|  1> %pal
|  2>  nprocs 32
|  3> end
|  4> !RI-MP2 aug-cc-pVQZ aug-cc-pVQZ/C TightSCF
|  5> %maxcore 4500
|  6> *xyzfile 0 1  04_54R1.xyz
|  7>
|  8>
|  9>                          ****END OF INPUT****

CARTESIAN COORDINATES (ANGSTROEM)
---------------------------------
  N      2.001316    0.403372   -0.610798
  C      1.470324    1.667101   -0.126034
  C     -0.053970    1.623693   -0.102794
  H      1.874059    1.848938    0.870042
  H      1.778061    2.466208   -0.795996
  O     -0.731602    2.165430   -0.953455
  N     -0.571940    0.884657    0.916086
  H      0.093533    0.331836    1.449057
  C     -1.925658    0.419087    0.827017
  C     -2.051572   -0.790600   -0.078580
  H     -2.306959    0.153754    1.814240
  H     -2.562407    1.208806    0.427672
  O     -1.144831   -1.346630   -0.634196
  O     -3.330307   -1.185524   -0.181485
  H     -3.356837   -1.953403   -0.769459
  C      2.082274   -0.687894    0.193914
  C      2.443107   -1.981640   -0.481181
  O      1.846811   -0.620748    1.392496
  H      2.033013    0.262267   -1.607855
  H      2.991985   -1.836742   -1.412150
  H      1.511269   -2.508867   -0.698637
  H      3.031053   -2.587709    0.205120

 Total Charge           Charge          ....    0
 Multiplicity           Mult            ....    1
 Number of Electrons    NEL             ....   92
 Basis Dimension        Dim             .... 1420

ORBITAL ENERGIES
----------------

  NO   OCC          E(Eh)            E(eV)
   0   2.0000     -20.619975      -561.0980
   1   2.0000     -20.557060      -559.3860
   2   2.0000     -20.527041      -558.5692
   3   2.0000     -20.524319      -558.4951
   4   2.0000     -15.599453      -424.4827
   5   2.0000     -15.578926      -423.9241
   6   2.0000     -11.392235      -309.9985
   7   2.0000     -11.361479      -309.1616
   8   2.0000     -11.349355      -308.8316
   9   2.0000     -11.286636      -307.1250
  10   2.0000     -11.282093      -307.0014
  11   2.0000     -11.238448      -305.8137
  12   2.0000      -1.478915       -40.2433
  13   2.0000      -1.399462       -38.0813
  14   2.0000      -1.389119       -37.7999
  15   2.0000      -1.374727       -37.4082
  16   2.0000      -1.250422       -34.0257
  17   2.0000      -1.237175       -33.6652
  18   2.0000      -1.045493       -28.4493
  19   2.0000      -1.011126       -27.5141
  20   2.0000      -0.958077       -26.0706
  21   2.0000      -0.847113       -23.0511
  22   2.0000      -0.805085       -21.9075
  23   2.0000      -0.785308       -21.3693
  24   2.0000      -0.732142       -19.9226
  25   2.0000      -0.718959       -19.5639
  26   2.0000      -0.714160       -19.4333
  27   2.0000      -0.693545       -18.8723
  28   2.0000      -0.672041       -18.2872
  29   2.0000      -0.657073       -17.8799
  30   2.0000      -0.651024       -17.7153
  31   2.0000      -0.621858       -16.9216
  32   2.0000      -0.605209       -16.4686
  33   2.0000      -0.597673       -16.2635
  34   2.0000      -0.594152       -16.1677
  35   2.0000      -0.570043       -15.5117
  36   2.0000      -0.563684       -15.3386
  37   2.0000      -0.552321       -15.0294
  38   2.0000      -0.538520       -14.6539
  39   2.0000      -0.526803       -14.3350
  40   2.0000      -0.496061       -13.4985
  41   2.0000      -0.471096       -12.8192
  42   2.0000      -0.452555       -12.3147
  43   2.0000      -0.438498       -11.9321
  44   2.0000      -0.408999       -11.1294
  45   2.0000      -0.395774       -10.7696
  46   0.0000       0.021984         0.5982
  47   0.0000       0.026741         0.7277
  48   0.0000       0.031960         0.8697
  49   0.0000       0.034316         0.9338
  50   0.0000       0.042595         1.1591

MULLIKEN ATOMIC CHARGES
-----------------------
   0 N :   -0.568801
   1 C :   -0.463755
   2 C :    1.033392
   3 H :    0.384443
   4 H :    0.368422
   5 O :   -0.907004
   6 N :   -0.717196
   7 H :    0.356180
   8 C :   -0.452098
   9 C :    1.097464
  10 H :    0.376576
  11 H :    0.348713
  12 O :   -0.907551
  13 O :   -0.759656
  14 H :    0.382442
  15 C :    1.066654
  16 C :   -0.794934
  17 O :   -0.953975
  18 H :    0.259695
  19 H :    0.246160
  20 H :    0.310139
  21 H :    0.294688
Sum of atomic charges:   -0.0000000

LOEWDIN ATOMIC CHARGES
----------------------
   0 N :    0.849696
   1 C :    0.356917
   2 C :   -0.835329
   3 H :   -0.305736
   4 H :   -0.303901
   5 O :    0.728397
   6 N :    0.809506
   7 H :   -0.675909
   8 C :    0.308222
   9 C :   -1.012919
  10 H :   -0.282735
  11 H :   -0.325210
  12 O :    0.727788
  13 O :    1.262299
  14 H :   -0.805329
  15 C :   -0.808053
  16 C :    0.904822
  17 O :    0.787773
  18 H :   -0.481944
  19 H :   -0.297973
  20 H :   -0.296993
  21 H :   -0.303389

  Mayer bond orders larger than 0.100000
B(  0-N ,  1-C ) :   0.9085 B(  0-N , 15-C ) :   1.1402 B(  0-N , 17-O ) :   0.1944
B(  0-N , 18-H ) :   0.9381 B(  1-C ,  2-C ) :   0.9447 B(  1-C ,  3-H ) :   0.9039
B(  1-C ,  4-H ) :   0.8863 B(  1-C ,  5-O ) :   0.1441 B(  2-C ,  5-O ) :   0.9415
B(  2-C ,  6-N ) :   1.1397 B(  5-O ,  6-N ) :   0.1991 B(  6-N ,  7-H ) :   0.8206
B(  6-N ,  8-C ) :   1.0262 B(  8-C ,  9-C ) :   1.1426 B(  8-C , 10-H ) :   0.8123
B(  8-C , 11-H ) :   0.8507 B(  8-C , 12-O ) :   0.1428 B(  9-C , 12-O ) :   1.3550
B(  9-C , 13-O ) :   0.7653 B( 13-O , 14-H ) :   0.9001 B( 15-C , 16-C ) :   0.8001
B( 15-C , 17-O ) :   0.9948 B( 15-C , 19-H ) :  -0.1137 B( 16-C , 19-H ) :   1.0181
B( 16-C , 20-H ) :   0.8569 B( 16-C , 21-H ) :   0.9937

MP2 TOTAL ENERGY:     -644.232195900 Eh
FINAL SINGLE POINT ENERGY      -644.232195899509

DIPOLE MOMENT
-------------
                                X             Y             Z
Electronic contribution:     -4.72391       1.87369       0.21244
Nuclear contribution   :      5.00243      -2.60224      -0.51799
                        -----------------------------------------
Total Dipole Moment    :      0.27852      -0.72854      -0.30556
                        -----------------------------------------
Magnitude (a.u.)       :      0.83768
Magnitude (Debye)      :      2.12922

Rotational constants in cm-1:     0.042269     0.023550     0.018183
Rotational constants in MHz :  1267.189045   706.011592   545.100657

                             ****ORCA TERMINATED NORMALLY****
TOTAL RUN TIME: 0 days 1 hours 10 minutes 45 seconds 940 msec
