                         Program Version 4.2.1 -  RELEASE  -
|  1> %pal
|  2>  nprocs 32
|  3> end
|  4> !RI-MP2 aug-cc-pVQZ aug-cc-pVQZ/C TightSCF
|  5> %maxcore 4500
|  6> *xyzfile 0 1  05_36R1.xyz
|  7>
|  8>
|  9>                          ****END OF INPUT****

CARTESIAN COORDINATES (ANGSTROEM)
---------------------------------
  O     -3.474576   -0.166464    0.312714
  C     -2.351196   -0.511795    0.030119
  O     -2.012130   -1.813305   -0.083993
  C     -3.063001   -2.752796    0.146947
  C     -1.196309    0.349630   -0.246576
  C      1.196311    0.349630   -0.246576
  C      1.208545    1.686174   -0.114950
  N      0.000001    2.351799   -0.383769
  C     -1.208543    1.686174   -0.114950
  C      2.338362    2.570190    0.287150
  C      2.351197   -0.511797    0.030118
  O      2.012127   -1.813306   -0.083992
  C      3.062996   -2.752800    0.146949
  C     -2.338361    2.570189    0.287151
  O      3.474577   -0.166468    0.312714
  H      3.450855   -2.648307    1.159978
  H      3.874954   -2.596272   -0.562677
  H      2.615230   -3.733131    0.007107
  H      0.000001    3.335525   -0.161169
  H      0.000001   -1.265791   -0.590753
  H      2.101591    3.082070    1.225350
  H      2.489474    3.336963   -0.479511
  H      3.256792    2.007694    0.411702
  H     -2.101590    3.082069    1.225351
  H     -3.256790    2.007692    0.411702
  H     -2.489473    3.336962   -0.479510
  H     -3.874958   -2.596266   -0.562678
  H     -3.450860   -2.648303    1.159976
  H     -2.615237   -3.733129    0.007105
  N      0.000001   -0.264402   -0.711060

 Total Charge           Charge          ....    0
 Multiplicity           Mult            ....    1
 Number of Electrons    NEL             ....  120
 Basis Dimension        Dim             .... 1924

ORBITAL ENERGIES
----------------

  NO   OCC          E(Eh)            E(eV)
   0   2.0000     -20.600841      -560.5774
   1   2.0000     -20.600841      -560.5774
   2   2.0000     -20.533144      -558.7353
   3   2.0000     -20.533144      -558.7353
   4   2.0000     -15.594298      -424.3424
   5   2.0000     -15.557590      -423.3435
   6   2.0000     -11.380869      -309.6892
   7   2.0000     -11.380868      -309.6892
   8   2.0000     -11.295270      -307.3599
   9   2.0000     -11.295256      -307.3596
  10   2.0000     -11.284044      -307.0544
  11   2.0000     -11.284044      -307.0544
  12   2.0000     -11.261077      -306.4295
  13   2.0000     -11.261067      -306.4292
  14   2.0000     -11.230764      -305.6046
  15   2.0000     -11.230763      -305.6046
  16   2.0000      -1.462884       -39.8071
  17   2.0000      -1.461848       -39.7789
  18   2.0000      -1.356179       -36.9035
  19   2.0000      -1.355875       -36.8952
  20   2.0000      -1.300955       -35.4008
  21   2.0000      -1.215403       -33.0728
  22   2.0000      -1.106141       -30.0996
  23   2.0000      -1.012333       -27.5470
  24   2.0000      -1.009364       -27.4662
  25   2.0000      -0.983468       -26.7615
  26   2.0000      -0.947105       -25.7720
  27   2.0000      -0.941020       -25.6065
  28   2.0000      -0.844103       -22.9692
  29   2.0000      -0.836186       -22.7538
  30   2.0000      -0.771141       -20.9838
  31   2.0000      -0.754597       -20.5336
  32   2.0000      -0.708459       -19.2782
  33   2.0000      -0.691140       -18.8069
  34   2.0000      -0.689722       -18.7683
  35   2.0000      -0.677240       -18.4286
  36   2.0000      -0.673307       -18.3216
  37   2.0000      -0.669647       -18.2220
  38   2.0000      -0.658004       -17.9052
  39   2.0000      -0.651914       -17.7395
  40   2.0000      -0.625146       -17.0111
  41   2.0000      -0.596182       -16.2229
  42   2.0000      -0.589568       -16.0430
  43   2.0000      -0.586296       -15.9539
  44   2.0000      -0.574086       -15.6217
  45   2.0000      -0.561209       -15.2713
  46   2.0000      -0.554530       -15.0895
  47   2.0000      -0.550744       -14.9865
  48   2.0000      -0.549245       -14.9457
  49   2.0000      -0.542675       -14.7669
  50   2.0000      -0.530077       -14.4241
  51   2.0000      -0.528426       -14.3792
  52   2.0000      -0.527413       -14.3516
  53   2.0000      -0.475648       -12.9430
  54   2.0000      -0.465026       -12.6540
  55   2.0000      -0.464991       -12.6531
  56   2.0000      -0.449297       -12.2260
  57   2.0000      -0.442189       -12.0326
  58   2.0000      -0.368765       -10.0346
  59   2.0000      -0.267429        -7.2771
  60   0.0000       0.021283         0.5791
  61   0.0000       0.024134         0.6567
  62   0.0000       0.029747         0.8094
  63   0.0000       0.034890         0.9494
  64   0.0000       0.036190         0.9848

MULLIKEN ATOMIC CHARGES
-----------------------
   0 O :   -0.960509
   1 C :    1.840522
   2 O :   -0.645745
   3 C :   -0.817676
   4 C :   -0.781581
   5 C :   -0.782859
   6 C :    0.860217
   7 N :   -0.900156
   8 C :    0.858669
   9 C :   -0.852542
  10 C :    1.840736
  11 O :   -0.645853
  12 C :   -0.817707
  13 C :   -0.852324
  14 O :   -0.960444
  15 H :    0.325363
  16 H :    0.332890
  17 H :    0.406719
  18 H :    0.214386
  19 H :    0.472984
  20 H :    0.208156
  21 H :    0.229932
  22 H :    0.361822
  23 H :    0.208122
  24 H :    0.361941
  25 H :    0.230013
  26 H :    0.332878
  27 H :    0.325354
  28 H :    0.406723
  29 N :   -0.800030
Sum of atomic charges:    0.0000000

LOEWDIN ATOMIC CHARGES
----------------------
   0 O :    0.751407
   1 C :   -1.045797
   2 O :    0.860631
   3 C :    0.588938
   4 C :   -0.249502
   5 C :   -0.249503
   6 C :   -0.188564
   7 N :    0.876561
   8 C :   -0.188564
   9 C :    0.924990
  10 C :   -1.045798
  11 O :    0.860631
  12 C :    0.588939
  13 C :    0.924990
  14 O :    0.751407
  15 H :   -0.314543
  16 H :   -0.315039
  17 H :   -0.320274
  18 H :   -0.516601
  19 H :   -0.688452
  20 H :   -0.267255
  21 H :   -0.270148
  22 H :   -0.398955
  23 H :   -0.267255
  24 H :   -0.398957
  25 H :   -0.270149
  26 H :   -0.315040
  27 H :   -0.314543
  28 H :   -0.320273
  29 N :    0.816718

  Mayer bond orders larger than 0.100000
B(  0-O ,  1-C ) :   0.7393 B(  0-O ,  2-O ) :   0.1857 B(  0-O ,  4-C ) :   0.5950
B(  0-O ,  8-C ) :  -0.1292 B(  1-C ,  2-O ) :   0.8337 B(  1-C ,  3-C ) :  -0.1786
B(  1-C ,  4-C ) :   1.4768 B(  1-C ,  8-C ) :  -0.2654 B(  1-C , 29-N ) :  -0.1653
B(  2-O ,  3-C ) :   0.8802 B(  2-O ,  4-C ) :   0.1374 B(  2-O , 29-N ) :  -0.1566
B(  3-C , 26-H ) :   0.9185 B(  3-C , 27-H ) :   0.9174 B(  3-C , 28-H ) :   0.8764
B(  4-C ,  5-C ) :  -0.1580 B(  4-C ,  7-N ) :   0.2394 B(  4-C ,  8-C ) :   1.3046
B(  4-C , 29-N ) :   0.6063 B(  5-C ,  6-C ) :   1.3044 B(  5-C ,  7-N ) :   0.2388
B(  5-C , 10-C ) :   1.4764 B(  5-C , 11-O ) :   0.1372 B(  5-C , 14-O ) :   0.5949
B(  5-C , 29-N ) :   0.6089 B(  6-C ,  7-N ) :   0.4889 B(  6-C ,  9-C ) :   0.4838
B(  6-C , 10-C ) :  -0.2651 B(  6-C , 14-O ) :  -0.1294 B(  6-C , 20-H ) :  -0.1527
B(  6-C , 21-H ) :  -0.1468 B(  6-C , 29-N ) :   0.1963 B(  7-N ,  8-C ) :   0.4885
B(  7-N , 18-H ) :   1.0854 B(  7-N , 29-N ) :  -0.1406 B(  8-C , 13-C ) :   0.4845
B(  8-C , 23-H ) :  -0.1527 B(  8-C , 25-H ) :  -0.1466 B(  8-C , 29-N ) :   0.1984
B(  9-C , 20-H ) :   1.0319 B(  9-C , 21-H ) :   1.0481 B(  9-C , 22-H ) :   0.9471
B( 10-C , 11-O ) :   0.8337 B( 10-C , 12-C ) :  -0.1787 B( 10-C , 14-O ) :   0.7394
B( 10-C , 29-N ) :  -0.1652 B( 11-O , 12-C ) :   0.8801 B( 11-O , 14-O ) :   0.1858
B( 11-O , 29-N ) :  -0.1565 B( 12-C , 15-H ) :   0.9174 B( 12-C , 16-H ) :   0.9185
B( 12-C , 17-H ) :   0.8764 B( 13-C , 23-H ) :   1.0320 B( 13-C , 24-H ) :   0.9469
B( 13-C , 25-H ) :   1.0479 B( 19-H , 29-N ) :   0.7287

MP2 TOTAL ENERGY:     -798.712028233 Eh
FINAL SINGLE POINT ENERGY      -798.712028232751

DIPOLE MOMENT
-------------
                                X             Y             Z
Electronic contribution:      0.00001      -0.89608      -2.43434
Nuclear contribution   :     -0.00001       0.91411       2.76218
                        -----------------------------------------
Total Dipole Moment    :      0.00000       0.01803       0.32784
                        -----------------------------------------
Magnitude (a.u.)       :      0.32833
Magnitude (Debye)      :      0.83456

Rotational constants in cm-1:     0.022612     0.013932     0.008840
Rotational constants in MHz :   677.905026   417.669399   265.030606

                             ****ORCA TERMINATED NORMALLY****
TOTAL RUN TIME: 0 days 2 hours 54 minutes 13 seconds 81 msec
