                         Program Version 4.2.1 -  RELEASE  -
|  1> %pal
|  2>  nprocs 32
|  3> end
|  4> !RI-MP2 aug-cc-pVQZ aug-cc-pVQZ/C TightSCF
|  5> %maxcore 4500
|  6> *xyzfile 1 1  10_29R.xyz
|  7>
|  8>
|  9>                          ****END OF INPUT****

CARTESIAN COORDINATES (ANGSTROEM)
---------------------------------
  C      0.058704    3.022718    1.238953
  C      1.413753    3.213274    0.543902
  C      0.233297    2.164531   -1.005776
  C     -0.766661    2.272518    0.154267
  H      0.166722    2.451610    2.159192
  H     -0.381504    3.988008    1.487258
  H     -1.128661    1.297183    0.472144
  H     -1.630095    2.848178   -0.178612
  C      1.011163    3.476209   -0.912901
  H      1.852911    3.542940   -1.603080
  H      0.364115    4.343433   -1.032090
  H      2.103287    3.905235    1.018712
  H     -0.156522    1.838432   -1.965243
  N      1.305576    1.224013   -0.549692
  N      2.035108    1.864103    0.466690
  C     -0.635770   -1.850624    0.496341
  C     -1.955024   -1.263910    0.221334
  C     -2.452360   -1.094365   -1.073976
  C     -2.723635   -0.802989    1.291719
  C     -3.680452   -0.490182   -1.287395
  H     -1.878575   -1.438331   -1.926693
  C     -3.955208   -0.200533    1.080054
  H     -2.353551   -0.928662    2.303432
  C     -4.436516   -0.039499   -0.211116
  H     -4.053714   -0.372157   -2.297433
  H     -4.541115    0.139626    1.924986
  H     -5.397680    0.429510   -0.380354
  C      1.504909    0.025300   -0.947140
  C      0.119072   -2.550641   -0.348842
  H      3.019934    1.886152    0.213171
  C      2.591170   -0.868724   -0.453828
  C      1.532303   -3.011547   -0.111306
  C      2.470205   -2.268208   -1.081755
  H      2.113458   -2.246705   -2.114039
  H      3.450479   -2.747266   -1.086759
  C      2.527799   -1.122565    1.089236
  C      2.121323   -2.604155    1.241432
  H      1.818369   -0.451276    1.568029
  H      3.497346   -0.924941    1.544591
  H      1.439467   -2.765430    2.075736
  H      3.004949   -3.213968    1.435203
  H      3.541398   -0.396873   -0.730197
  H      1.591642   -4.090651   -0.271289
  H      0.840175   -0.300024   -1.738050
  H     -0.273488   -2.789268   -1.335268
  H     -0.262565   -1.661232    1.498443

 Total Charge           Charge          ....    1
 Multiplicity           Mult            ....    1
 Number of Electrons    NEL             ....  152
 Basis Dimension        Dim             .... 2830

ORBITAL ENERGIES
----------------

  NO   OCC          E(Eh)            E(eV)
   0   2.0000     -15.828745      -430.7221
   1   2.0000     -15.750414      -428.5906
   2   2.0000     -11.478577      -312.3480
   3   2.0000     -11.428403      -310.9827
   4   2.0000     -11.407017      -310.4007
   5   2.0000     -11.386785      -309.8502
   6   2.0000     -11.368276      -309.3465
   7   2.0000     -11.355075      -308.9873
   8   2.0000     -11.351402      -308.8874
   9   2.0000     -11.350050      -308.8506
  10   2.0000     -11.349517      -308.8361
  11   2.0000     -11.346635      -308.7576
  12   2.0000     -11.344398      -308.6968
  13   2.0000     -11.343692      -308.6776
  14   2.0000     -11.341800      -308.6261
  15   2.0000     -11.333662      -308.4046
  16   2.0000     -11.331531      -308.3466
  17   2.0000     -11.330993      -308.3320
  18   2.0000     -11.330924      -308.3301
  19   2.0000     -11.328846      -308.2736
  20   2.0000     -11.327104      -308.2262
  21   2.0000      -1.540670       -41.9237
  22   2.0000      -1.333266       -36.2800
  23   2.0000      -1.273833       -34.6628
  24   2.0000      -1.262922       -34.3659
  25   2.0000      -1.258358       -34.2417
  26   2.0000      -1.186842       -32.2956
  27   2.0000      -1.148069       -31.2405
  28   2.0000      -1.117121       -30.3984
  29   2.0000      -1.115009       -30.3409
  30   2.0000      -1.108596       -30.1664
  31   2.0000      -1.090639       -29.6778
  32   2.0000      -1.070007       -29.1164
  33   2.0000      -1.000391       -27.2220
  34   2.0000      -0.970576       -26.4107
  35   2.0000      -0.961039       -26.1512
  36   2.0000      -0.930147       -25.3106
  37   2.0000      -0.925947       -25.1963
  38   2.0000      -0.906074       -24.6555
  39   2.0000      -0.902418       -24.5560
  40   2.0000      -0.874387       -23.7933
  41   2.0000      -0.845108       -22.9966
  42   2.0000      -0.828269       -22.5384
  43   2.0000      -0.809522       -22.0282
  44   2.0000      -0.800196       -21.7744
  45   2.0000      -0.790139       -21.5008
  46   2.0000      -0.787182       -21.4203
  47   2.0000      -0.761888       -20.7320
  48   2.0000      -0.755465       -20.5573
  49   2.0000      -0.745409       -20.2836
  50   2.0000      -0.734075       -19.9752
  51   2.0000      -0.721302       -19.6276
  52   2.0000      -0.704918       -19.1818
  53   2.0000      -0.697846       -18.9893
  54   2.0000      -0.689196       -18.7540
  55   2.0000      -0.682978       -18.5848
  56   2.0000      -0.672783       -18.3074
  57   2.0000      -0.658997       -17.9322
  58   2.0000      -0.653329       -17.7780
  59   2.0000      -0.640253       -17.4222
  60   2.0000      -0.633714       -17.2442
  61   2.0000      -0.630857       -17.1665
  62   2.0000      -0.618446       -16.8288
  63   2.0000      -0.613346       -16.6900
  64   2.0000      -0.611541       -16.6409
  65   2.0000      -0.607901       -16.5418
  66   2.0000      -0.605411       -16.4741
  67   2.0000      -0.598767       -16.2933
  68   2.0000      -0.592506       -16.1229
  69   2.0000      -0.591070       -16.0838
  70   2.0000      -0.580700       -15.8017
  71   2.0000      -0.573036       -15.5931
  72   2.0000      -0.532002       -14.4765
  73   2.0000      -0.503737       -13.7074
  74   2.0000      -0.438552       -11.9336
  75   2.0000      -0.406831       -11.0704
  76   0.0000      -0.071419        -1.9434
  77   0.0000      -0.059758        -1.6261
  78   0.0000      -0.053256        -1.4492
  79   0.0000      -0.050472        -1.3734
  80   0.0000      -0.043419        -1.1815

MULLIKEN ATOMIC CHARGES
-----------------------
   0 C :   -0.645888
   1 C :   -0.070597
   2 C :    0.059522
   3 C :   -0.838464
   4 H :    0.318624
   5 H :    0.238031
   6 H :    0.523586
   7 H :    0.124741
   8 C :   -0.882926
   9 H :    0.283122
  10 H :    0.233638
  11 H :    0.411108
  12 H :    0.269606
  13 N :    0.282407
  14 N :   -0.648274
  15 C :    0.064291
  16 C :    0.676658
  17 C :   -0.503106
  18 C :   -0.491467
  19 C :   -0.308636
  20 H :    0.244770
  21 C :   -0.424555
  22 H :    0.263166
  23 C :   -0.261567
  24 H :    0.195858
  25 H :    0.210304
  26 H :    0.340030
  27 C :    0.328535
  28 C :   -0.113733
  29 H :    0.076500
  30 C :    0.451936
  31 C :    0.068282
  32 C :   -0.819295
  33 H :    0.247753
  34 H :    0.158978
  35 C :   -0.611697
  36 C :   -0.685732
  37 H :    0.322843
  38 H :    0.192740
  39 H :    0.251368
  40 H :    0.161692
  41 H :    0.368153
  42 H :    0.356807
  43 H :    0.279294
  44 H :    0.138775
  45 H :    0.162820
Sum of atomic charges:    1.0000000

LOEWDIN ATOMIC CHARGES
----------------------
   0 C :    0.588965
   1 C :    0.035906
   2 C :    0.075353
   3 C :    0.584449
   4 H :   -0.248099
   5 H :   -0.241802
   6 H :   -0.298994
   7 H :   -0.232575
   8 C :    0.578871
   9 H :   -0.229177
  10 H :   -0.232304
  11 H :   -0.223484
  12 H :   -0.224609
  13 N :    0.407548
  14 N :    0.854259
  15 C :    0.381579
  16 C :   -0.098840
  17 C :    0.332118
  18 C :    0.333864
  19 C :    0.360736
  20 H :   -0.330534
  21 C :    0.360649
  22 H :   -0.306567
  23 C :    0.354934
  24 H :   -0.310811
  25 H :   -0.308777
  26 H :   -0.311605
  27 C :    0.327214
  28 C :    0.405054
  29 H :   -0.463159
  30 C :    0.190883
  31 C :    0.151687
  32 C :    0.551578
  33 H :   -0.246676
  34 H :   -0.235940
  35 C :    0.584592
  36 C :    0.559807
  37 H :   -0.298743
  38 H :   -0.235243
  39 H :   -0.260964
  40 H :   -0.244385
  41 H :   -0.244924
  42 H :   -0.243564
  43 H :   -0.276717
  44 H :   -0.307843
  45 H :   -0.363712

  Mayer bond orders larger than 0.100000
B(  0-C ,  1-C ) :   0.9413 B(  0-C ,  2-C ) :  -0.1218 B(  0-C ,  3-C ) :   1.0107
B(  0-C ,  4-H ) :   0.9667 B(  0-C ,  5-H ) :   0.9973 B(  0-C ,  6-H ) :  -0.1621
B(  0-C ,  7-H ) :   0.1376 B(  0-C , 14-N ) :   0.1147 B(  1-C ,  2-C ) :  -0.1555
B(  1-C ,  3-C ) :  -0.1186 B(  1-C ,  8-C ) :   1.0913 B(  1-C , 11-H ) :   0.8175
B(  1-C , 13-N ) :  -0.1127 B(  1-C , 14-N ) :   0.8708 B(  2-C ,  3-C ) :   0.7674
B(  2-C ,  8-C ) :   0.7553 B(  2-C , 12-H ) :   0.9515 B(  2-C , 13-N ) :   0.7426
B(  3-C ,  6-H ) :   0.3339 B(  3-C ,  7-H ) :   1.1070 B(  6-H ,  7-H ) :  -0.1031
B(  6-H , 19-C ) :   0.1301 B(  8-C ,  9-H ) :   0.9864 B(  8-C , 10-H ) :   1.0467
B(  8-C , 13-N ) :  -0.1266 B( 13-N , 14-N ) :   0.2964 B( 13-N , 27-C ) :   1.8082
B( 13-N , 30-C ) :  -0.1142 B( 13-N , 43-H ) :   0.2095 B( 14-N , 27-C ) :   0.1302
B( 14-N , 29-H ) :   1.1321 B( 15-C , 16-C ) :   0.1905 B( 15-C , 17-C ) :  -0.3558
B( 15-C , 18-C ) :  -0.5051 B( 15-C , 28-C ) :   1.5321 B( 15-C , 31-C ) :  -0.5167
B( 15-C , 45-H ) :   1.1080 B( 16-C , 17-C ) :   1.0814 B( 16-C , 18-C ) :   1.2074
B( 16-C , 19-C ) :  -0.3020 B( 16-C , 21-C ) :  -0.3205 B( 16-C , 22-H ) :  -0.1220
B( 16-C , 23-C ) :   0.1340 B( 16-C , 28-C ) :  -0.4546 B( 16-C , 45-H ) :  -0.1432
B( 17-C , 19-C ) :   1.2213 B( 17-C , 20-H ) :   0.9880 B( 17-C , 24-H ) :  -0.1167
B( 18-C , 19-C ) :   0.1511 B( 18-C , 21-C ) :   1.3506 B( 18-C , 22-H ) :   1.0432
B( 18-C , 25-H ) :  -0.1459 B( 19-C , 23-C ) :   1.1714 B( 19-C , 24-H ) :   1.1738
B( 21-C , 23-C ) :   1.1449 B( 21-C , 25-H ) :   1.2071 B( 23-C , 26-H ) :   1.0326
B( 27-C , 30-C ) :   0.4776 B( 27-C , 32-C ) :  -0.2316 B( 27-C , 43-H ) :   0.9589
B( 28-C , 31-C ) :   0.8321 B( 28-C , 36-C ) :  -0.1049 B( 28-C , 42-H ) :  -0.1204
B( 28-C , 44-H ) :   1.0762 B( 30-C , 32-C ) :   0.8066 B( 30-C , 34-H ) :  -0.1619
B( 30-C , 35-C ) :   0.6337 B( 30-C , 41-H ) :   0.9109 B( 30-C , 43-H ) :  -0.1514
B( 31-C , 32-C ) :   0.9238 B( 31-C , 36-C ) :   0.8516 B( 31-C , 42-H ) :   0.9419
B( 32-C , 33-H ) :   1.0796 B( 32-C , 34-H ) :   1.1829 B( 35-C , 36-C ) :   0.7630
B( 35-C , 37-H ) :   0.9114 B( 35-C , 38-H ) :   1.0928 B( 35-C , 40-H ) :  -0.1284
B( 36-C , 39-H ) :   1.0640 B( 36-C , 40-H ) :   1.1583

MP2 TOTAL ENERGY:     -846.775384748 Eh
FINAL SINGLE POINT ENERGY      -846.775384748379

DIPOLE MOMENT
-------------
                                X             Y             Z
Electronic contribution:     -4.94081      -0.74425      -1.92925
Nuclear contribution   :      6.90878       2.41135       1.06322
                        -----------------------------------------
Total Dipole Moment    :      1.96796       1.66710      -0.86603
                        -----------------------------------------
Magnitude (a.u.)       :      2.72068
Magnitude (Debye)      :      6.91542

Rotational constants in cm-1:     0.012053     0.010109     0.006539
Rotational constants in MHz :   361.333408   303.062782   196.036043

                             ****ORCA TERMINATED NORMALLY****
TOTAL RUN TIME: 0 days 10 hours 44 minutes 2 seconds 556 msec
