                         Program Version 4.2.1 -  RELEASE  -
|  1> %pal
|  2>  nprocs 32
|  3> end
|  4> !RI-MP2 aug-cc-pVQZ aug-cc-pVQZ/C TightSCF
|  5> %maxcore 4500
|  6> *xyzfile 0 1  10_5R2.xyz
|  7>
|  8>
|  9>                          ****END OF INPUT****

CARTESIAN COORDINATES (ANGSTROEM)
---------------------------------
  C     -1.362417    0.402101    0.000033
  C     -2.216711   -0.595755    0.000036
  O     -2.978399   -1.469247    0.000038
  C      0.086920    0.136574    0.000000
  C      0.599287   -1.166565    0.000045
  C      0.991926    1.198604   -0.000074
  C      1.963007   -1.394423    0.000010
  H     -0.077278   -2.014696    0.000110
  C      2.361202    0.965565   -0.000106
  H      0.631397    2.218748   -0.000108
  C      2.855918   -0.328327   -0.000065
  H      2.333257   -2.412647    0.000046
  H      3.043153    1.807602   -0.000164
  H      3.923688   -0.508161   -0.000091
  C     -1.919346    1.807247    0.000066
  H     -1.588300    2.354960   -0.885619
  H     -1.588206    2.354950    0.885723
  H     -3.009242    1.803093    0.000123

 Total Charge           Charge          ....    0
 Multiplicity           Mult            ....    1
 Number of Electrons    NEL             ....   70
 Basis Dimension        Dim             .... 1168

ORBITAL ENERGIES
----------------

  NO   OCC          E(Eh)            E(eV)
   0   2.0000     -20.625536      -561.2494
   1   2.0000     -11.373082      -309.4773
   2   2.0000     -11.261336      -306.4365
   3   2.0000     -11.250533      -306.1426
   4   2.0000     -11.246181      -306.0241
   5   2.0000     -11.238184      -305.8065
   6   2.0000     -11.237846      -305.7973
   7   2.0000     -11.235088      -305.7223
   8   2.0000     -11.233742      -305.6857
   9   2.0000     -11.230829      -305.6064
  10   2.0000      -1.473987       -40.1092
  11   2.0000      -1.171264       -31.8717
  12   2.0000      -1.107557       -30.1382
  13   2.0000      -1.022272       -27.8174
  14   2.0000      -1.008267       -27.4363
  15   2.0000      -0.938062       -25.5260
  16   2.0000      -0.839117       -22.8335
  17   2.0000      -0.825348       -22.4589
  18   2.0000      -0.747425       -20.3385
  19   2.0000      -0.719906       -19.5896
  20   2.0000      -0.667853       -18.1732
  21   2.0000      -0.651609       -17.7312
  22   2.0000      -0.644387       -17.5347
  23   2.0000      -0.625396       -17.0179
  24   2.0000      -0.603296       -16.4165
  25   2.0000      -0.591099       -16.0846
  26   2.0000      -0.586565       -15.9613
  27   2.0000      -0.557487       -15.1700
  28   2.0000      -0.550459       -14.9787
  29   2.0000      -0.515272       -14.0213
  30   2.0000      -0.503967       -13.7137
  31   2.0000      -0.494150       -13.4465
  32   2.0000      -0.398441       -10.8421
  33   2.0000      -0.344230        -9.3670
  34   2.0000      -0.294860        -8.0236
  35   0.0000       0.022885         0.6227
  36   0.0000       0.026069         0.7094
  37   0.0000       0.030254         0.8233
  38   0.0000       0.039794         1.0829
  39   0.0000       0.040354         1.0981

MULLIKEN ATOMIC CHARGES
-----------------------
   0 C :   -0.738610
   1 C :    1.268373
   2 O :   -0.894114
   3 C :    0.702051
   4 C :   -0.362465
   5 C :   -0.211678
   6 C :   -0.437423
   7 H :    0.309309
   8 C :   -0.356318
   9 H :    0.320408
  10 C :   -0.349231
  11 H :    0.237692
  12 H :    0.228886
  13 H :    0.314148
  14 C :   -0.725212
  15 H :    0.208360
  16 H :    0.208374
  17 H :    0.277452
Sum of atomic charges:   -0.0000000

LOEWDIN ATOMIC CHARGES
----------------------
   0 C :   -0.128635
   1 C :   -0.442275
   2 O :    0.675330
   3 C :   -0.136664
   4 C :    0.325491
   5 C :    0.330806
   6 C :    0.344549
   7 H :   -0.334074
   8 C :    0.346811
   9 H :   -0.347362
  10 C :    0.337990
  11 H :   -0.317642
  12 H :   -0.318062
  13 H :   -0.324390
  14 C :    0.856193
  15 H :   -0.285093
  16 H :   -0.285092
  17 H :   -0.297882

  Mayer bond orders larger than 0.100000
B(  0-C ,  1-C ) :   2.3369 B(  0-C ,  2-O ) :   0.6665 B(  0-C ,  3-C ) :   0.2610
B(  0-C ,  4-C ) :  -0.1280 B(  0-C ,  5-C ) :  -0.4365 B(  0-C , 14-C ) :   0.6202
B(  1-C ,  2-O ) :   0.9497 B(  1-C ,  3-C ) :  -0.4311 B(  2-O ,  3-C ) :  -0.1436
B(  3-C ,  4-C ) :   0.9817 B(  3-C ,  5-C ) :   1.0290 B(  3-C ,  6-C ) :  -0.2911
B(  3-C ,  7-H ) :  -0.1814 B(  3-C ,  8-C ) :  -0.3174 B(  3-C ,  9-H ) :  -0.1701
B(  4-C ,  6-C ) :   1.3042 B(  4-C ,  7-H ) :   0.9218 B(  4-C ,  8-C ) :   0.1308
B(  4-C , 11-H ) :  -0.1450 B(  5-C ,  8-C ) :   1.1487 B(  5-C ,  9-H ) :   0.9524
B(  5-C , 12-H ) :  -0.1390 B(  6-C ,  7-H ) :  -0.1294 B(  6-C , 10-C ) :   1.2002
B(  6-C , 11-H ) :   1.1558 B(  8-C ,  9-H ) :  -0.1269 B(  8-C , 10-C ) :   1.2192
B(  8-C , 12-H ) :   1.1517 B( 10-C , 13-H ) :   1.0112 B( 14-C , 15-H ) :   1.0154
B( 14-C , 16-H ) :   1.0154 B( 14-C , 17-H ) :   0.9849

MP2 TOTAL ENERGY:     -422.246659242 Eh
FINAL SINGLE POINT ENERGY      -422.246659242200

DIPOLE MOMENT
-------------
                                X             Y             Z
Electronic contribution:     -3.27297      -4.90108      -0.00001
Nuclear contribution   :      3.60242       5.55126       0.00002
                        -----------------------------------------
Total Dipole Moment    :      0.32945       0.65018       0.00001
                        -----------------------------------------
Magnitude (a.u.)       :      0.72888
Magnitude (Debye)      :      1.85267

Rotational constants in cm-1:     0.091897     0.031111     0.023344
Rotational constants in MHz :  2755.007691   932.689827   699.846376

                             ****ORCA TERMINATED NORMALLY****
TOTAL RUN TIME: 0 days 0 hours 46 minutes 7 seconds 174 msec
