                         Program Version 4.2.1 -  RELEASE  -
|  1> %pal
|  2>  nprocs 32
|  3> end
|  4> !RI-MP2 aug-cc-pVQZ aug-cc-pVQZ/C TightSCF
|  5> %maxcore 4500
|  6> *xyzfile -1 1  08_15TS.xyz
|  7>
|  8>
|  9>                          ****END OF INPUT****

CARTESIAN COORDINATES (ANGSTROEM)
---------------------------------
  C      0.961186    1.880594    1.598927
  C     -0.008952    0.822692    0.994785
  C      0.223519    0.553424   -0.452893
  O      0.463061    1.536847   -1.261677
  C      0.649956    2.838675   -0.665252
  C      1.612424    2.761561    0.510817
  H     -0.337442    3.205937   -0.373327
  C     -3.290430    0.114829   -0.630731
  C     -3.931878   -0.114647    0.758657
  C     -5.276092   -0.852813    0.681331
  C     -6.179195   -0.151243   -0.325341
  O     -5.587444   -0.111601   -1.594728
  C     -4.376625    0.668529   -1.570251
  H     -4.608835    1.697423   -1.262903
  O      1.930428    1.269761    2.404937
  H      0.340356    2.547877    2.212960
  H      1.486730    0.453371    2.705533
  O      2.876678    2.313870    0.089663
  H      1.755413    3.772789    0.900207
  H      2.811780    1.344052    0.005311
  O     -2.233094    0.953097   -0.603308
  H     -3.030799   -0.901927   -1.018303
  O     -3.080422   -0.830950    1.646455
  H     -4.078061    0.875935    1.201440
  H     -3.267816   -1.764944    1.470656
  O     -7.388136   -0.854306   -0.438425
  H     -6.370912    0.883110    0.009043
  H     -7.767797   -0.607278   -1.287321
  O      2.065631   -0.187282   -0.369073
  C      2.348935   -1.429654   -0.183287
  O      1.544612   -2.304622    0.111458
  C      3.817452   -1.803370   -0.385848
  C      4.820314   -0.656507   -0.245462
  H      3.904738   -2.247029   -1.384421
  H      4.060077   -2.587211    0.329916
  C      6.233746   -1.252593   -0.225619
  O      6.660129   -1.924207    0.674367
  O      6.937747   -0.975004   -1.323405
  H      6.329887   -0.396587   -1.849914
  N      4.730845    0.298108   -1.359907
  H      4.664727   -0.171884    0.722450
  H      4.845340    1.249123   -1.023871
  H      3.799889    0.267837   -1.760686
  N     -5.031392   -2.258196    0.362189
  H     -5.756567   -0.816285    1.663932
  H     -5.886985   -2.789432    0.467713
  H     -4.751177   -2.339968   -0.610033
  N     -0.060613   -0.370417    1.817105
  H      0.391264   -1.159760    1.359024
  H     -1.035309   -0.615460    1.971797
  H      1.057941    3.452865   -1.464149
  H     -4.000650    0.687512   -2.590931
  H     -1.016320    1.255035    0.937013
  H     -0.151012   -0.343243   -0.915949

 Total Charge           Charge          ....   -1
 Multiplicity           Mult            ....    1
 Number of Electrons    NEL             ....  220
 Basis Dimension        Dim             .... 3436

ORBITAL ENERGIES
----------------

  NO   OCC          E(Eh)            E(eV)
   0   2.0000     -20.517113      -558.2990
   1   2.0000     -20.505025      -557.9701
   2   2.0000     -20.482432      -557.3553
   3   2.0000     -20.463721      -556.8462
   4   2.0000     -20.446806      -556.3859
   5   2.0000     -20.444710      -556.3288
   6   2.0000     -20.442404      -556.2661
   7   2.0000     -20.440356      -556.2104
   8   2.0000     -20.429425      -555.9129
   9   2.0000     -20.410121      -555.3876
  10   2.0000     -20.299325      -552.3727
  11   2.0000     -15.476187      -421.1285
  12   2.0000     -15.454057      -420.5263
  13   2.0000     -15.426448      -419.7750
  14   2.0000     -11.282436      -307.0107
  15   2.0000     -11.279076      -306.9193
  16   2.0000     -11.255692      -306.2830
  17   2.0000     -11.240626      -305.8730
  18   2.0000     -11.201858      -304.8180
  19   2.0000     -11.193718      -304.5966
  20   2.0000     -11.193230      -304.5833
  21   2.0000     -11.184210      -304.3378
  22   2.0000     -11.159387      -303.6623
  23   2.0000     -11.156358      -303.5799
  24   2.0000     -11.154378      -303.5261
  25   2.0000     -11.154356      -303.5255
  26   2.0000     -11.149223      -303.3858
  27   2.0000     -11.127640      -302.7985
  28   2.0000      -1.367250       -37.2048
  29   2.0000      -1.365644       -37.1611
  30   2.0000      -1.331253       -36.2252
  31   2.0000      -1.308329       -35.6014
  32   2.0000      -1.275006       -34.6947
  33   2.0000      -1.268252       -34.5109
  34   2.0000      -1.253982       -34.1226
  35   2.0000      -1.249528       -34.0014
  36   2.0000      -1.248895       -33.9841
  37   2.0000      -1.204192       -32.7677
  38   2.0000      -1.122738       -30.5512
  39   2.0000      -1.114263       -30.3206
  40   2.0000      -1.096010       -29.8239
  41   2.0000      -1.082591       -29.4588
  42   2.0000      -0.962183       -26.1823
  43   2.0000      -0.947131       -25.7727
  44   2.0000      -0.918323       -24.9888
  45   2.0000      -0.912026       -24.8175
  46   2.0000      -0.872639       -23.7457
  47   2.0000      -0.825963       -22.4756
  48   2.0000      -0.795616       -21.6498
  49   2.0000      -0.776784       -21.1374
  50   2.0000      -0.771549       -20.9949
  51   2.0000      -0.728980       -19.8366
  52   2.0000      -0.714760       -19.4496
  53   2.0000      -0.680386       -18.5142
  54   2.0000      -0.666405       -18.1338
  55   2.0000      -0.653165       -17.7735
  56   2.0000      -0.642888       -17.4939
  57   2.0000      -0.633960       -17.2509
  58   2.0000      -0.632800       -17.2194
  59   2.0000      -0.620491       -16.8844
  60   2.0000      -0.613705       -16.6998
  61   2.0000      -0.596934       -16.2434
  62   2.0000      -0.585884       -15.9427
  63   2.0000      -0.583600       -15.8806
  64   2.0000      -0.577903       -15.7255
  65   2.0000      -0.574555       -15.6344
  66   2.0000      -0.572131       -15.5685
  67   2.0000      -0.558694       -15.2028
  68   2.0000      -0.552582       -15.0365
  69   2.0000      -0.543201       -14.7812
  70   2.0000      -0.540551       -14.7091
  71   2.0000      -0.538030       -14.6406
  72   2.0000      -0.533898       -14.5281
  73   2.0000      -0.523466       -14.2442
  74   2.0000      -0.522091       -14.2068
  75   2.0000      -0.515080       -14.0160
  76   2.0000      -0.505594       -13.7579
  77   2.0000      -0.492740       -13.4081
  78   2.0000      -0.485148       -13.2015
  79   2.0000      -0.481042       -13.0898
  80   2.0000      -0.472048       -12.8451
  81   2.0000      -0.470459       -12.8018
  82   2.0000      -0.464966       -12.6524
  83   2.0000      -0.458871       -12.4865
  84   2.0000      -0.452358       -12.3093
  85   2.0000      -0.442030       -12.0282
  86   2.0000      -0.437035       -11.8923
  87   2.0000      -0.427294       -11.6273
  88   2.0000      -0.426068       -11.5939
  89   2.0000      -0.418151       -11.3785
  90   2.0000      -0.410704       -11.1758
  91   2.0000      -0.398779       -10.8513
  92   2.0000      -0.394600       -10.7376
  93   2.0000      -0.382601       -10.4111
  94   2.0000      -0.381842       -10.3904
  95   2.0000      -0.373510       -10.1637
  96   2.0000      -0.370177       -10.0730
  97   2.0000      -0.358551        -9.7567
  98   2.0000      -0.357502        -9.7281
  99   2.0000      -0.347289        -9.4502
 100   2.0000      -0.345346        -9.3973
 101   2.0000      -0.341231        -9.2854
 102   2.0000      -0.334826        -9.1111
 103   2.0000      -0.331750        -9.0274
 104   2.0000      -0.317772        -8.6470
 105   2.0000      -0.312866        -8.5135
 106   2.0000      -0.303272        -8.2525
 107   2.0000      -0.291534        -7.9330
 108   2.0000      -0.217482        -5.9180
 109   2.0000      -0.212283        -5.7765
 110   0.0000       0.082745         2.2516
 111   0.0000       0.084492         2.2992
 112   0.0000       0.090700         2.4681
 113   0.0000       0.093521         2.5448
 114   0.0000       0.095304         2.5933

MULLIKEN ATOMIC CHARGES
-----------------------
   0 C :    0.597558
   1 C :    0.435967
   2 C :    1.445078
   3 O :   -1.499114
   4 C :   -0.717305
   5 C :    0.340778
   6 H :    0.425448
   7 C :    0.627372
   8 C :    0.998922
   9 C :   -0.111914
  10 C :    1.181421
  11 O :   -1.224257
  12 C :    0.043639
  13 H :    0.073606
  14 O :   -1.232038
  15 H :    0.227368
  16 H :    0.311086
  17 O :   -1.352149
  18 H :    0.466728
  19 H :    0.911610
  20 O :   -1.407062
  21 H :    0.039402
  22 O :   -1.363381
  23 H :    0.183958
  24 H :    0.452662
  25 O :   -1.038888
  26 H :    0.094728
  27 H :    0.318707
  28 O :   -0.861432
  29 C :    1.464247
  30 O :   -1.179068
  31 C :   -0.721860
  32 C :   -0.170724
  33 H :    0.345837
  34 H :    0.286419
  35 C :    1.436888
  36 O :   -0.890333
  37 O :   -1.017834
  38 H :    0.367230
  39 N :   -0.638948
  40 H :    0.292783
  41 H :    0.253803
  42 H :    0.182113
  43 N :   -0.753439
  44 H :    0.301450
  45 H :    0.127141
  46 H :    0.243948
  47 N :   -1.033567
  48 H :    0.211614
  49 H :   -0.072724
  50 H :    0.324213
  51 H :    0.348228
  52 H :    0.476541
  53 H :    0.447543
Sum of atomic charges:   -1.0000000

LOEWDIN ATOMIC CHARGES
----------------------
   0 C :   -0.197139
   1 C :   -0.042669
   2 C :   -0.225769
   3 O :    0.985017
   4 C :    0.246444
   5 C :   -0.204608
   6 H :   -0.280262
   7 C :   -0.525182
   8 C :   -0.244282
   9 C :   -0.079133
  10 C :   -0.622964
  11 O :    0.901289
  12 C :    0.142694
  13 H :   -0.312887
  14 O :    1.305170
  15 H :   -0.287529
  16 H :   -0.919814
  17 O :    1.321807
  18 H :   -0.304469
  19 H :   -1.149474
  20 O :    0.721842
  21 H :   -0.340962
  22 O :    1.336279
  23 H :   -0.312451
  24 H :   -0.847413
  25 O :    1.273240
  26 H :   -0.311381
  27 H :   -0.811306
  28 O :    0.854294
  29 C :   -1.138002
  30 O :    0.718556
  31 C :    0.441301
  32 C :   -0.069370
  33 H :   -0.274952
  34 H :   -0.320162
  35 C :   -1.041849
  36 O :    0.668923
  37 O :    1.245406
  38 H :   -0.985154
  39 N :    1.306665
  40 H :   -0.285952
  41 H :   -0.480153
  42 H :   -0.541740
  43 N :    1.302058
  44 H :   -0.281289
  45 H :   -0.491897
  46 H :   -0.512256
  47 N :    1.332129
  48 H :   -0.659486
  49 H :   -0.589324
  50 H :   -0.292681
  51 H :   -0.315961
  52 H :   -0.482177
  53 H :   -0.321017

  Mayer bond orders larger than 0.100000
B(  0-C ,  1-C ) :   0.7744 B(  0-C ,  5-C ) :   0.9357 B(  0-C , 14-O ) :  -0.1785
B(  0-C , 15-H ) :   1.1244 B(  0-C , 17-O ) :   0.1870 B(  1-C ,  2-C ) :   1.0273
B(  1-C ,  3-O ) :   0.1433 B(  1-C ,  4-C ) :  -0.1721 B(  1-C ,  5-C ) :  -0.1122
B(  1-C ,  6-H ) :  -0.1082 B(  1-C , 14-O ) :   0.3163 B(  1-C , 15-H ) :  -0.1688
B(  1-C , 49-H ) :  -0.1163 B(  1-C , 52-H ) :   0.6335 B(  2-C ,  3-O ) :  -0.2679
B(  2-C , 53-H ) :   0.7916 B(  3-O ,  4-C ) :   0.8250 B(  3-O , 53-H ) :  -0.1084
B(  4-C ,  5-C ) :   1.1538 B(  4-C ,  6-H ) :   0.8335 B(  4-C , 17-O ) :   0.2577
B(  4-C , 50-H ) :   0.9020 B(  5-C , 14-O ) :   0.1473 B(  5-C , 17-O ) :   0.3031
B(  5-C , 18-H ) :   0.7633 B(  5-C , 19-H ) :  -0.1126 B(  7-C ,  8-C ) :   0.9098
B(  7-C , 11-O ) :   0.1168 B(  7-C , 12-C ) :   0.4793 B(  7-C , 13-H ) :  -0.2043
B(  7-C , 20-O ) :   0.5328 B(  7-C , 21-H ) :   1.0536 B(  7-C , 22-O ) :   0.2086
B(  7-C , 51-H ) :  -0.1091 B(  8-C ,  9-C ) :   0.7008 B(  8-C , 10-C ) :  -0.1027
B(  8-C , 22-O ) :  -0.1508 B(  8-C , 23-H ) :   0.9712 B(  8-C , 43-N ) :  -0.1085
B(  9-C , 10-C ) :   0.8143 B(  9-C , 22-O ) :   0.1047 B(  9-C , 25-O ) :   0.1147
B(  9-C , 43-N ) :   0.7379 B(  9-C , 44-H ) :   0.8996 B( 10-C , 11-O ) :   0.4349
B( 10-C , 25-O ) :   0.1151 B( 10-C , 26-H ) :   1.1916 B( 11-O , 12-C ) :   0.4418
B( 11-O , 25-O ) :   0.1545 B( 12-C , 13-H ) :   1.1895 B( 12-C , 20-O ) :   0.1166
B( 12-C , 51-H ) :   0.9818 B( 14-O , 16-H ) :   0.8363 B( 16-H , 47-N ) :   0.1936
B( 17-O , 19-H ) :   0.2856 B( 20-O , 22-O ) :   0.1042 B( 20-O , 52-H ) :   0.1390
B( 22-O , 24-H ) :   0.7337 B( 25-O , 27-H ) :   0.9484 B( 28-O , 29-C ) :   1.3530
B( 28-O , 30-O ) :   0.2169 B( 29-C , 30-O ) :   0.4586 B( 29-C , 31-C ) :   0.8478
B( 30-O , 31-C ) :   0.2914 B( 30-O , 48-H ) :   0.1428 B( 31-C , 32-C ) :   0.8563
B( 31-C , 33-H ) :   0.8706 B( 31-C , 34-H ) :   1.0589 B( 32-C , 35-C ) :   1.1536
B( 32-C , 36-O ) :   0.3948 B( 32-C , 39-N ) :   0.7773 B( 32-C , 40-H ) :   0.9707
B( 35-C , 36-O ) :   1.0559 B( 35-C , 37-O ) :   0.6187 B( 36-O , 37-O ) :   0.2218
B( 37-O , 38-H ) :   0.7191 B( 38-H , 39-N ) :   0.1883 B( 39-N , 41-H ) :   0.9347
B( 39-N , 42-H ) :   1.0399 B( 43-N , 45-H ) :   1.0431 B( 43-N , 46-H ) :   0.9330
B( 47-N , 48-H ) :   0.8854 B( 47-N , 49-H ) :   1.5812

MP2 TOTAL ENERGY:    -1538.845915019 Eh
FINAL SINGLE POINT ENERGY     -1538.845915018836

DIPOLE MOMENT
-------------
                                X             Y             Z
Electronic contribution:     14.55170      -3.24859      -1.46659
Nuclear contribution   :    -16.50452       4.90779       0.40847
                        -----------------------------------------
Total Dipole Moment    :     -1.95283       1.65920      -1.05812
                        -----------------------------------------
Magnitude (a.u.)       :      2.77238
Magnitude (Debye)      :      7.04683

Rotational constants in cm-1:     0.012665     0.002302     0.002190
Rotational constants in MHz :   379.694363    69.009933    65.668127

                             ****ORCA TERMINATED NORMALLY****
TOTAL RUN TIME: 0 days 15 hours 30 minutes 31 seconds 981 msec
