                         Program Version 4.2.1 -  RELEASE  -
|  1> %pal
|  2>  nprocs 32
|  3> end
|  4> !RI-MP2 aug-cc-pVQZ aug-cc-pVQZ/C TightSCF
|  5> %maxcore 4500
|  6> *xyzfile -1 1  08_14P2.xyz
|  7>
|  8>
|  9>                          ****END OF INPUT****

CARTESIAN COORDINATES (ANGSTROEM)
---------------------------------
  C     -1.494859    1.213853    0.000000
  C     -0.129476    1.232786    0.000002
  C      0.632225    0.042640    0.000004
  C     -0.074205   -1.181600    0.000000
  C     -1.440076   -1.221228   -0.000001
  C     -2.250867   -0.021496    0.000006
  H      0.407227    2.175687    0.000001
  H      0.491799   -2.106368   -0.000001
  H     -1.970110   -2.167892   -0.000006
  C      2.063074    0.118671    0.000007
  O      2.760798    1.123330    0.000001
  O      2.698788   -1.105597   -0.000002
  H      3.636440   -0.880783   -0.000005
  O     -3.501312   -0.050035   -0.000012
  H     -2.066428    2.136016   -0.000003

 Total Charge           Charge          ....   -1
 Multiplicity           Mult            ....    1
 Number of Electrons    NEL             ....   72
 Basis Dimension        Dim             .... 1030

ORBITAL ENERGIES
----------------

  NO   OCC          E(Eh)            E(eV)
   0   2.0000     -20.466694      -556.9271
   1   2.0000     -20.388984      -554.8125
   2   2.0000     -20.327333      -553.1349
   3   2.0000     -11.235184      -305.7249
   4   2.0000     -11.139338      -303.1168
   5   2.0000     -11.100466      -302.0590
   6   2.0000     -11.097571      -301.9803
   7   2.0000     -11.066394      -301.1319
   8   2.0000     -11.059697      -300.9497
   9   2.0000     -11.059296      -300.9387
  10   2.0000      -1.313731       -35.7484
  11   2.0000      -1.202126       -32.7115
  12   2.0000      -1.164549       -31.6890
  13   2.0000      -0.989320       -26.9208
  14   2.0000      -0.867842       -23.6152
  15   2.0000      -0.854730       -23.2584
  16   2.0000      -0.717597       -19.5268
  17   2.0000      -0.675264       -18.3749
  18   2.0000      -0.630801       -17.1650
  19   2.0000      -0.567194       -15.4341
  20   2.0000      -0.556616       -15.1463
  21   2.0000      -0.489095       -13.3090
  22   2.0000      -0.487649       -13.2696
  23   2.0000      -0.483646       -13.1607
  24   2.0000      -0.471966       -12.8428
  25   2.0000      -0.436296       -11.8722
  26   2.0000      -0.424982       -11.5644
  27   2.0000      -0.387224       -10.5369
  28   2.0000      -0.381131       -10.3711
  29   2.0000      -0.349748        -9.5171
  30   2.0000      -0.348411        -9.4807
  31   2.0000      -0.308615        -8.3978
  32   2.0000      -0.294322        -8.0089
  33   2.0000      -0.230874        -6.2824
  34   2.0000      -0.203421        -5.5354
  35   2.0000      -0.121551        -3.3076
  36   0.0000       0.102659         2.7935
  37   0.0000       0.111074         3.0225
  38   0.0000       0.117483         3.1969
  39   0.0000       0.123321         3.3557
  40   0.0000       0.126539         3.4433

MULLIKEN ATOMIC CHARGES
-----------------------
   0 C :   -0.649583
   1 C :   -0.176372
   2 C :   -0.747889
   3 C :   -0.252226
   4 C :   -0.696841
   5 C :    1.255666
   6 H :    0.193746
   7 H :    0.216674
   8 H :    0.236874
   9 C :    1.674092
  10 O :   -0.901421
  11 O :   -0.707233
  12 H :    0.282797
  13 O :   -0.976385
  14 H :    0.248100
Sum of atomic charges:   -1.0000000

LOEWDIN ATOMIC CHARGES
----------------------
   0 C :    0.269614
   1 C :    0.251363
   2 C :   -0.220854
   3 C :    0.256151
   4 C :    0.266819
   5 C :   -0.826903
   6 H :   -0.348261
   7 H :   -0.358628
   8 H :   -0.371414
   9 C :   -1.101941
  10 O :    0.648373
  11 O :    1.212790
  12 H :   -0.876440
  13 O :    0.569816
  14 H :   -0.370486

  Mayer bond orders larger than 0.100000
B(  0-C ,  1-C ) :   1.3201 B(  0-C ,  2-C ) :  -0.2507 B(  0-C ,  5-C ) :   1.1736
B(  0-C ,  6-H ) :  -0.1234 B(  0-C , 13-O ) :   0.3658 B(  0-C , 14-H ) :   1.0347
B(  1-C ,  2-C ) :   1.0403 B(  1-C ,  6-H ) :   1.0308 B(  1-C ,  9-C ) :  -0.2845
B(  1-C , 14-H ) :  -0.1223 B(  2-C ,  3-C ) :   1.0733 B(  2-C ,  4-C ) :  -0.2266
B(  2-C ,  9-C ) :   1.2375 B(  2-C , 10-O ) :   0.3993 B(  2-C , 11-O ) :   0.1376
B(  3-C ,  4-C ) :   1.2826 B(  3-C ,  7-H ) :   1.0255 B(  3-C ,  8-H ) :  -0.1253
B(  3-C ,  9-C ) :  -0.2355 B(  3-C , 13-O ) :   0.1067 B(  4-C ,  5-C ) :   1.1714
B(  4-C ,  7-H ) :  -0.1219 B(  4-C ,  8-H ) :   1.0504 B(  4-C , 13-O ) :   0.3664
B(  5-C , 13-O ) :   0.1899 B(  9-C , 10-O ) :   0.9828 B(  9-C , 11-O ) :   0.6687
B( 11-O , 12-H ) :   0.9467

MP2 TOTAL ENERGY:     -494.790165192 Eh
FINAL SINGLE POINT ENERGY      -494.790165191999

DIPOLE MOMENT
-------------
                                X             Y             Z
Electronic contribution:      1.67807       0.26166       0.00003
Nuclear contribution   :      0.51523      -0.82064      -0.00001
                        -----------------------------------------
Total Dipole Moment    :      2.19330      -0.55898       0.00001
                        -----------------------------------------
Magnitude (a.u.)       :      2.26341
Magnitude (Debye)      :      5.75312

Rotational constants in cm-1:     0.129726     0.026956     0.022318
Rotational constants in MHz :  3889.082647   808.118210   669.087528

                             ****ORCA TERMINATED NORMALLY****
TOTAL RUN TIME: 0 days 0 hours 30 minutes 54 seconds 146 msec
