                         Program Version 4.2.1 -  RELEASE  -
|  1> %pal
|  2>  nprocs 32
|  3> end
|  4> !RI-MP2 aug-cc-pVQZ aug-cc-pVQZ/C TightSCF
|  5> %maxcore 4500
|  6> *xyzfile 0 1  09_5R1.xyz
|  7>
|  8>
|  9>                          ****END OF INPUT****

CARTESIAN COORDINATES (ANGSTROEM)
---------------------------------
  C      0.985703   -0.397969    0.746634
  C     -0.000002   -0.000001    0.000002
  C     -0.985702    0.397970   -0.746635
  H     -1.530301    1.306763   -0.517404
  H     -1.290826   -0.167755   -1.619501
  H      2.003135   -0.082540    0.545693
  H      0.817999   -1.056463    1.591206

 Total Charge           Charge          ....    0
 Multiplicity           Mult            ....    1
 Number of Electrons    NEL             ....   22
 Basis Dimension        Dim             ....  424

ORBITAL ENERGIES
----------------

  NO   OCC          E(Eh)            E(eV)
   0   2.0000     -11.259738      -306.3930
   1   2.0000     -11.234799      -305.7144
   2   2.0000     -11.234687      -305.7114
   3   2.0000      -1.077005       -29.3068
   4   2.0000      -0.960403       -26.1339
   5   2.0000      -0.715403       -19.4671
   6   2.0000      -0.630408       -17.1543
   7   2.0000      -0.609039       -16.5728
   8   2.0000      -0.609039       -16.5728
   9   2.0000      -0.379837       -10.3359
  10   2.0000      -0.379836       -10.3359
  11   0.0000       0.026767         0.7284
  12   0.0000       0.035648         0.9700
  13   0.0000       0.040853         1.1117
  14   0.0000       0.040853         1.1117
  15   0.0000       0.069596         1.8938

MULLIKEN ATOMIC CHARGES
-----------------------
   0 C :   -0.629315
   1 C :   -0.264541
   2 C :   -0.629317
   3 H :    0.380794
   4 H :    0.380793
   5 H :    0.380792
   6 H :    0.380795
Sum of atomic charges:    0.0000000

LOEWDIN ATOMIC CHARGES
----------------------
   0 C :    0.706408
   1 C :    0.166339
   2 C :    0.706409
   3 H :   -0.394789
   4 H :   -0.394789
   5 H :   -0.394789
   6 H :   -0.394788

  Mayer bond orders larger than 0.100000
B(  0-C ,  1-C ) :   1.9950 B(  0-C ,  5-H ) :   0.8361 B(  0-C ,  6-H ) :   0.8361
B(  1-C ,  2-C ) :   1.9950 B(  2-C ,  3-H ) :   0.8361 B(  2-C ,  4-H ) :   0.8361

MP2 TOTAL ENERGY:     -116.423327926 Eh
FINAL SINGLE POINT ENERGY      -116.423327926291

DIPOLE MOMENT
-------------
                                X             Y             Z
Electronic contribution:     -0.00001      -0.00000       0.00001
Nuclear contribution   :      0.00001       0.00000      -0.00001
                        -----------------------------------------
Total Dipole Moment    :      0.00000       0.00000      -0.00000
                        -----------------------------------------
Magnitude (a.u.)       :      0.00000
Magnitude (Debye)      :      0.00000

Rotational constants in cm-1:     4.852881     0.299927     0.299927
Rotational constants in MHz : 145485.718297  8991.575521  8991.575406

                             ****ORCA TERMINATED NORMALLY****
TOTAL RUN TIME: 0 days 0 hours 1 minutes 12 seconds 811 msec
