                         Program Version 4.2.1 -  RELEASE  -
|  1> %pal
|  2>  nprocs 32
|  3> end
|  4> !RI-MP2 aug-cc-pVQZ aug-cc-pVQZ/C TightSCF
|  5> %maxcore 4500
|  6> *xyzfile 0 2  04_22TS.xyz
|  7>
|  8>
|  9>                          ****END OF INPUT****

CARTESIAN COORDINATES (ANGSTROEM)
---------------------------------
  C      2.517543   -2.127436   -0.340433
  C      0.282114   -1.435936   -0.233505
  C     -0.622592   -0.404628    0.380873
  C     -0.502448   -0.159115    1.857477
  C     -1.968502   -0.378030   -0.231828
  O     -2.856425    0.349789    0.472305
  O     -2.258810   -0.920295   -1.270259
  S      0.549791    2.040783   -0.783612
  C      1.896423    2.101747    0.432939
  H      2.569438   -1.970459   -1.424303
  H      2.256123   -3.174918   -0.145864
  H      3.490938   -1.916242    0.099366
  H      0.544905   -0.064088    2.137794
  H     -1.048716    0.734367    2.154399
  H     -0.920035   -1.007207    2.412872
  H     -0.082384   -2.443579    0.028499
  H      0.253961   -1.354407   -1.325135
  H      2.621987    2.827423    0.064499
  H      2.374414    1.127649    0.511291
  H      1.539209    2.429238    1.408036
  H     -0.117700    0.803347   -0.206565
  H     -3.683959    0.349841   -0.028202
  O      1.588976   -1.251131    0.255200

 Total Charge           Charge          ....    0
 Multiplicity           Mult            ....    2
 Number of Electrons    NEL             ....   89
 Basis Dimension        Dim             .... 1402

ORBITAL ENERGIES
----------------
                 SPIN UP ORBITALS
  NO   OCC          E(Eh)            E(eV)
   0   1.0000     -91.944280     -2501.9311
   1   1.0000     -20.614806      -560.9574
   2   1.0000     -20.568448      -559.6959
   3   1.0000     -20.556789      -559.3787
   4   1.0000     -11.389202      -309.9159
   5   1.0000     -11.290262      -307.2236
   6   1.0000     -11.283549      -307.0410
   7   1.0000     -11.279689      -306.9360
   8   1.0000     -11.245499      -306.0056
   9   1.0000     -11.231606      -305.6275
  10   1.0000      -8.946351      -243.4426
  11   1.0000      -6.636128      -180.5782
  12   1.0000      -6.625260      -180.2825
  13   1.0000      -6.624208      -180.2539
  14   1.0000      -1.475082       -40.1390
  15   1.0000      -1.394270       -37.9400
  16   1.0000      -1.372889       -37.3582
  17   1.0000      -1.121521       -30.5181
  18   1.0000      -1.030065       -28.0295
  19   1.0000      -0.974155       -26.5081
  20   1.0000      -0.932476       -25.3740
  21   1.0000      -0.883693       -24.0465
  22   1.0000      -0.857832       -23.3428
  23   1.0000      -0.788032       -21.4434
  24   1.0000      -0.716309       -19.4917
  25   1.0000      -0.708818       -19.2879
  26   1.0000      -0.695909       -18.9366
  27   1.0000      -0.660789       -17.9810
  28   1.0000      -0.649523       -17.6744
  29   1.0000      -0.637849       -17.3568
  30   1.0000      -0.612936       -16.6788
  31   1.0000      -0.584267       -15.8987
  32   1.0000      -0.583478       -15.8772
  33   1.0000      -0.580398       -15.7934
  34   1.0000      -0.572514       -15.5789
  35   1.0000      -0.558214       -15.1898
  36   1.0000      -0.525979       -14.3126
  37   1.0000      -0.521003       -14.1772
  38   1.0000      -0.505332       -13.7508
  39   1.0000      -0.495247       -13.4763
  40   1.0000      -0.466500       -12.6941
  41   1.0000      -0.464392       -12.6367
  42   1.0000      -0.439648       -11.9634
  43   1.0000      -0.351314        -9.5597
  44   1.0000      -0.345527        -9.4023
  45   0.0000       0.022058         0.6002
  46   0.0000       0.028014         0.7623
  47   0.0000       0.030838         0.8391
  48   0.0000       0.033881         0.9219
  49   0.0000       0.042189         1.1480

                 SPIN DOWN ORBITALS
  NO   OCC          E(Eh)            E(eV)
   0   1.0000     -91.939056     -2501.7889
   1   1.0000     -20.615150      -560.9668
   2   1.0000     -20.568335      -559.6929
   3   1.0000     -20.550925      -559.2191
   4   1.0000     -11.392275      -309.9996
   5   1.0000     -11.292102      -307.2737
   6   1.0000     -11.279734      -306.9372
   7   1.0000     -11.265157      -306.5405
   8   1.0000     -11.245924      -306.0172
   9   1.0000     -11.233328      -305.6744
  10   1.0000      -8.940595      -243.2860
  11   1.0000      -6.622706      -180.2130
  12   1.0000      -6.621069      -180.1685
  13   1.0000      -6.612604      -179.9381
  14   1.0000      -1.472602       -40.0715
  15   1.0000      -1.393795       -37.9271
  16   1.0000      -1.363840       -37.1120
  17   1.0000      -1.087911       -29.6036
  18   1.0000      -1.010764       -27.5043
  19   1.0000      -0.973467       -26.4894
  20   1.0000      -0.926278       -25.2053
  21   1.0000      -0.882354       -24.0101
  22   1.0000      -0.831146       -22.6166
  23   1.0000      -0.771318       -20.9886
  24   1.0000      -0.712816       -19.3967
  25   1.0000      -0.694329       -18.8937
  26   1.0000      -0.684062       -18.6143
  27   1.0000      -0.653208       -17.7747
  28   1.0000      -0.641271       -17.4499
  29   1.0000      -0.632363       -17.2075
  30   1.0000      -0.597266       -16.2524
  31   1.0000      -0.581591       -15.8259
  32   1.0000      -0.578832       -15.7508
  33   1.0000      -0.571562       -15.5530
  34   1.0000      -0.567919       -15.4539
  35   1.0000      -0.552282       -15.0284
  36   1.0000      -0.518134       -14.0991
  37   1.0000      -0.505888       -13.7659
  38   1.0000      -0.492317       -13.3966
  39   1.0000      -0.476613       -12.9693
  40   1.0000      -0.458451       -12.4751
  41   1.0000      -0.441879       -12.0241
  42   1.0000      -0.432903       -11.7799
  43   1.0000      -0.341849        -9.3022
  44   0.0000       0.021236         0.5779
  45   0.0000       0.027910         0.7595
  46   0.0000       0.029138         0.7929
  47   0.0000       0.031039         0.8446
  48   0.0000       0.034064         0.9269

MULLIKEN ATOMIC CHARGES AND SPIN POPULATIONS
--------------------------------------------
   0 C :   -0.813541   -0.001155
   1 C :    0.236177   -0.078075
   2 C :    0.058578    0.792845
   3 C :   -1.118431   -0.079614
   4 C :    1.532817   -0.114041
   5 O :   -0.784569   -0.004694
   6 O :   -0.904937    0.136155
   7 S :    0.057567    0.578328
   8 C :   -1.040863   -0.052201
   9 H :    0.278617   -0.000027
  10 H :    0.274931   -0.000768
  11 H :    0.363610   -0.000131
  12 H :    0.306277    0.010753
  13 H :    0.258914    0.011469
  14 H :    0.275977    0.055424
  15 H :    0.407762    0.054312
  16 H :    0.286032    0.013791
  17 H :    0.351555    0.010454
  18 H :    0.380595    0.007099
  19 H :    0.256170    0.000959
  20 H :   -0.135621   -0.346944
  21 H :    0.316969   -0.000378
  22 O :   -0.844587    0.006436
Sum of atomic charges         :   -0.0000000

LOEWDIN ATOMIC CHARGES AND SPIN POPULATIONS
-------------------------------------------
   0 C :    0.583489    0.000949
   1 C :    0.085895    0.056391
   2 C :   -0.170835    0.262724
   3 C :    0.898041    0.061615
   4 C :   -1.042809    0.050660
   5 O :    1.271370   -0.008809
   6 O :    0.744544    0.086740
   7 S :    1.537047    0.277879
   8 C :    0.506642    0.066157
   9 H :   -0.301152   -0.000017
  10 H :   -0.301532    0.000631
  11 H :   -0.318482   -0.000054
  12 H :   -0.313333    0.003383
  13 H :   -0.294522    0.003217
  14 H :   -0.257321    0.017157
  15 H :   -0.273117    0.015218
  16 H :   -0.317461    0.002970
  17 H :   -0.395937    0.016006
  18 H :   -0.411868    0.002550
  19 H :   -0.373261    0.002233
  20 H :   -0.942643    0.084625
  21 H :   -0.799300   -0.002349
  22 O :    0.886546    0.000124

  Mayer bond orders larger than 0.100000
B(  0-C ,  1-C ) :  -0.1578 B(  0-C ,  9-H ) :   0.9260 B(  0-C , 10-H ) :   0.9454
B(  0-C , 11-H ) :   0.9311 B(  0-C , 22-O ) :   0.9855 B(  1-C ,  2-C ) :   0.9011
B(  1-C ,  4-C ) :  -0.1260 B(  1-C , 15-H ) :   0.8005 B(  1-C , 16-H ) :   0.9175
B(  1-C , 22-O ) :   0.7798 B(  2-C ,  3-C ) :   0.6661 B(  2-C ,  4-C ) :   1.2792
B(  2-C ,  6-O ) :   0.3836 B(  3-C , 12-H ) :   1.0010 B(  3-C , 13-H ) :   1.0159
B(  3-C , 14-H ) :   0.9631 B(  4-C ,  5-O ) :   0.7471 B(  4-C ,  6-O ) :   0.8959
B(  5-O ,  6-O ) :   0.1822 B(  5-O , 21-H ) :   0.9644 B(  7-S ,  8-C ) :   1.0459
B(  7-S , 20-H ) :   0.6704 B(  8-C , 17-H ) :   0.9097 B(  8-C , 18-H ) :   0.8386
B(  8-C , 19-H ) :   0.9185

MP2 TOTAL ENERGY:     -859.117243574 Eh
FINAL SINGLE POINT ENERGY      -859.117243574391

DIPOLE MOMENT
-------------
                                X             Y             Z
Electronic contribution:     -9.41691       3.23949      -4.88725
Nuclear contribution   :      9.83873      -3.79434       5.76862
                        -----------------------------------------
Total Dipole Moment    :      0.42182      -0.55485       0.88137
                        -----------------------------------------
Magnitude (a.u.)       :      1.12366
Magnitude (Debye)      :      2.85611

Rotational constants in cm-1:     0.035682     0.027603     0.019949
Rotational constants in MHz :  1069.709107   827.521706   598.068247

                             ****ORCA TERMINATED NORMALLY****
TOTAL RUN TIME: 0 days 2 hours 22 minutes 6 seconds 834 msec
