                         Program Version 4.2.1 -  RELEASE  -
|  1> %pal
|  2>  nprocs 32
|  3> end
|  4> !RI-MP2 aug-cc-pVQZ aug-cc-pVQZ/C TightSCF
|  5> %maxcore 4500
|  6> *xyzfile 0 2  03_28P1.xyz
|  7>
|  8>
|  9>                          ****END OF INPUT****

CARTESIAN COORDINATES (ANGSTROEM)
---------------------------------
  C     -2.205232    0.000002   -0.405600
  C     -0.819624    0.000000   -0.956668
  C      0.259439   -0.000003    0.112825
  O      1.482613    0.000000   -0.436752
  O      0.069190   -0.000006    1.300300
  C      2.595474   -0.000001    0.476275
  C      3.858759    0.000002   -0.348536
  C     -2.776312   -1.283942    0.087327
  C     -2.776306    1.283947    0.087333
  H     -0.636470   -0.875043   -1.588424
  H      2.521907   -0.881202    1.115908
  H      2.521905    0.881197    1.115912
  H      3.907912   -0.885111   -0.984563
  H      4.730222    0.000003    0.309236
  H      3.907909    0.885118   -0.984561
  H     -2.492635   -2.126198   -0.549676
  H     -3.867433   -1.244694    0.137584
  H     -2.414206   -1.510661    1.101484
  H     -2.492624    2.126204   -0.549667
  H     -2.414199    1.510659    1.101490
  H     -3.867426    1.244705    0.137589
  H     -0.636466    0.875042   -1.588424

 Total Charge           Charge          ....    0
 Multiplicity           Mult            ....    2
 Number of Electrons    NEL             ....   71
 Basis Dimension        Dim             .... 1318

ORBITAL ENERGIES
----------------
                 SPIN UP ORBITALS
  NO   OCC          E(Eh)            E(eV)
   0   1.0000     -20.595070      -560.4203
   1   1.0000     -20.537348      -558.8497
   2   1.0000     -11.373721      -309.4947
   3   1.0000     -11.286544      -307.1225
   4   1.0000     -11.238388      -305.8121
   5   1.0000     -11.231681      -305.6296
   6   1.0000     -11.223658      -305.4113
   7   1.0000     -11.209907      -305.0371
   8   1.0000     -11.209880      -305.0363
   9   1.0000      -1.459710       -39.7207
  10   1.0000      -1.357267       -36.9331
  11   1.0000      -1.107829       -30.1455
  12   1.0000      -1.046684       -28.4817
  13   1.0000      -0.977688       -26.6042
  14   1.0000      -0.937010       -25.4973
  15   1.0000      -0.869020       -23.6472
  16   1.0000      -0.790978       -21.5236
  17   1.0000      -0.745852       -20.2957
  18   1.0000      -0.698558       -19.0087
  19   1.0000      -0.686795       -18.6887
  20   1.0000      -0.664267       -18.0756
  21   1.0000      -0.626522       -17.0485
  22   1.0000      -0.612550       -16.6683
  23   1.0000      -0.591294       -16.0899
  24   1.0000      -0.576088       -15.6762
  25   1.0000      -0.560292       -15.2463
  26   1.0000      -0.549500       -14.9527
  27   1.0000      -0.537217       -14.6184
  28   1.0000      -0.524541       -14.2735
  29   1.0000      -0.511673       -13.9233
  30   1.0000      -0.502930       -13.6854
  31   1.0000      -0.490113       -13.3366
  32   1.0000      -0.486693       -13.2436
  33   1.0000      -0.457347       -12.4450
  34   1.0000      -0.449127       -12.2214
  35   1.0000      -0.320568        -8.7231
  36   0.0000       0.024142         0.6569
  37   0.0000       0.029176         0.7939
  38   0.0000       0.031743         0.8638
  39   0.0000       0.033566         0.9134
  40   0.0000       0.042390         1.1535

                 SPIN DOWN ORBITALS
  NO   OCC          E(Eh)            E(eV)
   0   1.0000     -20.594828      -560.4138
   1   1.0000     -20.537917      -558.8651
   2   1.0000     -11.370990      -309.4204
   3   1.0000     -11.286475      -307.1206
   4   1.0000     -11.241356      -305.8929
   5   1.0000     -11.223651      -305.4111
   6   1.0000     -11.212944      -305.1197
   7   1.0000     -11.212915      -305.1189
   8   1.0000     -11.206876      -304.9546
   9   1.0000      -1.458687       -39.6929
  10   1.0000      -1.357612       -36.9425
  11   1.0000      -1.076582       -29.2953
  12   1.0000      -1.040238       -28.3063
  13   1.0000      -0.973863       -26.5002
  14   1.0000      -0.936461       -25.4824
  15   1.0000      -0.866740       -23.5852
  16   1.0000      -0.782591       -21.2954
  17   1.0000      -0.711683       -19.3659
  18   1.0000      -0.690456       -18.7882
  19   1.0000      -0.686142       -18.6709
  20   1.0000      -0.656639       -17.8680
  21   1.0000      -0.623264       -16.9599
  22   1.0000      -0.598121       -16.2757
  23   1.0000      -0.572819       -15.5872
  24   1.0000      -0.572126       -15.5683
  25   1.0000      -0.553897       -15.0723
  26   1.0000      -0.544565       -14.8184
  27   1.0000      -0.527255       -14.3473
  28   1.0000      -0.522809       -14.2263
  29   1.0000      -0.511262       -13.9122
  30   1.0000      -0.502190       -13.6653
  31   1.0000      -0.483694       -13.1620
  32   1.0000      -0.480664       -13.0795
  33   1.0000      -0.458505       -12.4766
  34   1.0000      -0.444931       -12.1072
  35   0.0000       0.024193         0.6583
  36   0.0000       0.029344         0.7985
  37   0.0000       0.031775         0.8647
  38   0.0000       0.033525         0.9123
  39   0.0000       0.042375         1.1531

MULLIKEN ATOMIC CHARGES AND SPIN POPULATIONS
--------------------------------------------
   0 C :    0.160315    1.226279
   1 C :   -0.472186   -0.234967
   2 C :    1.276574    0.070647
   3 O :   -0.864570   -0.002966
   4 O :   -0.879946   -0.009851
   5 C :   -0.105997    0.001390
   6 C :   -0.827968    0.000128
   7 C :   -0.867865   -0.155861
   8 C :   -0.867783   -0.155854
   9 H :    0.300090    0.019479
  10 H :    0.294540   -0.000387
  11 H :    0.294461   -0.000386
  12 H :    0.227039   -0.000003
  13 H :    0.272875    0.000167
  14 H :    0.227050   -0.000004
  15 H :    0.236960    0.016835
  16 H :    0.296481    0.017721
  17 H :    0.233258    0.076801
  18 H :    0.236915    0.016835
  19 H :    0.233216    0.076798
  20 H :    0.296510    0.017718
  21 H :    0.300031    0.019481
Sum of atomic charges         :    0.0000000

LOEWDIN ATOMIC CHARGES AND SPIN POPULATIONS
-------------------------------------------
   0 C :   -0.007447    0.460533
   1 C :    0.437146    0.120061
   2 C :   -1.057792    0.028294
   3 O :    0.869522    0.007448
   4 O :    0.745029   -0.000749
   5 C :    0.151578    0.001200
   6 C :    0.909226    0.000361
   7 C :    0.895201    0.125915
   8 C :    0.895202    0.125915
   9 H :   -0.302918    0.012684
  10 H :   -0.304793    0.000165
  11 H :   -0.304793    0.000165
  12 H :   -0.290164    0.000035
  13 H :   -0.289324    0.000126
  14 H :   -0.290162    0.000035
  15 H :   -0.297136    0.011920
  16 H :   -0.297905    0.012408
  17 H :   -0.281254    0.028236
  18 H :   -0.297135    0.011920
  19 H :   -0.281255    0.028236
  20 H :   -0.297906    0.012408
  21 H :   -0.302918    0.012684

  Mayer bond orders larger than 0.100000
B(  0-C ,  1-C ) :   0.9429 B(  0-C ,  7-C ) :   0.7412 B(  0-C ,  8-C ) :   0.7412
B(  0-C , 16-H ) :  -0.1035 B(  0-C , 20-H ) :  -0.1035 B(  1-C ,  2-C ) :   0.8844
B(  1-C ,  4-O ) :   0.1427 B(  1-C ,  9-H ) :   0.8930 B(  1-C , 21-H ) :   0.8930
B(  2-C ,  3-O ) :   0.9295 B(  2-C ,  4-O ) :   1.2373 B(  2-C ,  5-C ) :  -0.1035
B(  3-O ,  5-C ) :   0.8547 B(  5-C ,  6-C ) :   0.9355 B(  5-C , 10-H ) :   0.8562
B(  5-C , 11-H ) :   0.8562 B(  6-C , 12-H ) :   0.9499 B(  6-C , 13-H ) :   0.9947
B(  6-C , 14-H ) :   0.9499 B(  7-C , 15-H ) :   1.0311 B(  7-C , 16-H ) :   0.9895
B(  7-C , 17-H ) :   0.9116 B(  8-C , 18-H ) :   1.0311 B(  8-C , 19-H ) :   0.9117
B(  8-C , 20-H ) :   0.9894

MP2 TOTAL ENERGY:     -424.291378776 Eh
FINAL SINGLE POINT ENERGY      -424.291378776089

DIPOLE MOMENT
-------------
                                X             Y             Z
Electronic contribution:      1.66146      -0.00002       0.67813
Nuclear contribution   :     -1.24606       0.00002      -1.25159
                        -----------------------------------------
Total Dipole Moment    :      0.41540       0.00000      -0.57346
                        -----------------------------------------
Magnitude (a.u.)       :      0.70811
Magnitude (Debye)      :      1.79986

Rotational constants in cm-1:     0.138815     0.023119     0.023093
Rotational constants in MHz :  4161.576360   693.092717   692.319472

                             ****ORCA TERMINATED NORMALLY****
TOTAL RUN TIME: 0 days 1 hours 6 minutes 42 seconds 822 msec
