                         Program Version 4.2.1 -  RELEASE  -
|  1> %pal
|  2>  nprocs 32
|  3> end
|  4> !RI-MP2 aug-cc-pVQZ aug-cc-pVQZ/C TightSCF
|  5> %maxcore 4500
|  6> *xyzfile 0 2  04_71R2.xyz
|  7>
|  8>
|  9>                          ****END OF INPUT****

CARTESIAN COORDINATES (ANGSTROEM)
---------------------------------
  O     -1.958174    0.000003   -0.194247
  O     -0.830273    0.000041   -0.842925
  C      0.360909   -0.000003    0.045517
  C      1.511248    0.000045   -0.942592
  C      0.316802   -1.262572    0.887085
  C      0.316793    1.262493    0.887196
  H      0.308910    2.149779    0.251873
  H      1.197086    1.305769    1.531049
  H     -0.574285    1.271360    1.514310
  H      0.308926   -2.149803    0.251684
  H     -0.574275   -1.271502    1.514199
  H      1.197097   -1.305896    1.530933
  H      1.474756   -0.885946   -1.578130
  H      2.460100    0.000027   -0.403721
  H      1.474748    0.886089   -1.578056

 Total Charge           Charge          ....    0
 Multiplicity           Mult            ....    2
 Number of Electrons    NEL             ....   49
 Basis Dimension        Dim             ....  894

ORBITAL ENERGIES
----------------
                 SPIN UP ORBITALS
  NO   OCC          E(Eh)            E(eV)
   0   1.0000     -20.658103      -562.1355
   1   1.0000     -20.644518      -561.7659
   2   1.0000     -11.302011      -307.5433
   3   1.0000     -11.225776      -305.4689
   4   1.0000     -11.223036      -305.3943
   5   1.0000     -11.223020      -305.3939
   6   1.0000      -1.566608       -42.6296
   7   1.0000      -1.208371       -32.8814
   8   1.0000      -1.065135       -28.9838
   9   1.0000      -0.954915       -25.9846
  10   1.0000      -0.953812       -25.9545
  11   1.0000      -0.788026       -21.4433
  12   1.0000      -0.746640       -20.3171
  13   1.0000      -0.686821       -18.6893
  14   1.0000      -0.681030       -18.5318
  15   1.0000      -0.622641       -16.9429
  16   1.0000      -0.601301       -16.3622
  17   1.0000      -0.571439       -15.5496
  18   1.0000      -0.553972       -15.0744
  19   1.0000      -0.549654       -14.9568
  20   1.0000      -0.529306       -14.4031
  21   1.0000      -0.514484       -13.9998
  22   1.0000      -0.493328       -13.4242
  23   1.0000      -0.463322       -12.6076
  24   1.0000      -0.459451       -12.5023
  25   0.0000       0.024759         0.6737
  26   0.0000       0.031998         0.8707
  27   0.0000       0.032096         0.8734
  28   0.0000       0.040059         1.0901
  29   0.0000       0.053114         1.4453

                 SPIN DOWN ORBITALS
  NO   OCC          E(Eh)            E(eV)
   0   1.0000     -20.634151      -561.4838
   1   1.0000     -20.618852      -561.0675
   2   1.0000     -11.302735      -307.5630
   3   1.0000     -11.225803      -305.4696
   4   1.0000     -11.222875      -305.3900
   5   1.0000     -11.222860      -305.3896
   6   1.0000      -1.503382       -40.9091
   7   1.0000      -1.147152       -31.2156
   8   1.0000      -1.026776       -27.9400
   9   1.0000      -0.953348       -25.9419
  10   1.0000      -0.952220       -25.9112
  11   1.0000      -0.775622       -21.1058
  12   1.0000      -0.678654       -18.4671
  13   1.0000      -0.662546       -18.0288
  14   1.0000      -0.635879       -17.3032
  15   1.0000      -0.597777       -16.2663
  16   1.0000      -0.574460       -15.6319
  17   1.0000      -0.562078       -15.2949
  18   1.0000      -0.548137       -14.9156
  19   1.0000      -0.529062       -14.3965
  20   1.0000      -0.523537       -14.2462
  21   1.0000      -0.489912       -13.3312
  22   1.0000      -0.469998       -12.7893
  23   1.0000      -0.436266       -11.8714
  24   0.0000       0.024775         0.6742
  25   0.0000       0.032010         0.8710
  26   0.0000       0.032123         0.8741
  27   0.0000       0.040102         1.0912
  28   0.0000       0.053116         1.4454

MULLIKEN ATOMIC CHARGES AND SPIN POPULATIONS
--------------------------------------------
   0 O :   -0.278537    0.930565
   1 O :   -0.482061    0.091344
   2 C :    1.395949   -0.024106
   3 C :   -0.976171    0.001906
   4 C :   -1.005546    0.004461
   5 C :   -1.005554    0.004462
   6 H :    0.268422   -0.002738
   7 H :    0.246056   -0.001233
   8 H :    0.264220    0.001711
   9 H :    0.268444   -0.002738
  10 H :    0.264215    0.001711
  11 H :    0.246044   -0.001233
  12 H :    0.263504   -0.001362
  13 H :    0.267501   -0.001386
  14 H :    0.263512   -0.001362
Sum of atomic charges         :    0.0000000

LOEWDIN ATOMIC CHARGES AND SPIN POPULATIONS
-------------------------------------------
   0 O :    0.318748    0.761112
   1 O :    0.302977    0.249847
   2 C :   -0.693693   -0.003055
   3 C :    0.873464   -0.002437
   4 C :    0.874892   -0.000983
   5 C :    0.874891   -0.000983
   6 H :   -0.279137   -0.000610
   7 H :   -0.274398   -0.000015
   8 H :   -0.304769   -0.000403
   9 H :   -0.279136   -0.000610
  10 H :   -0.304769   -0.000403
  11 H :   -0.274397   -0.000015
  12 H :   -0.280319   -0.000319
  13 H :   -0.274035   -0.000807
  14 H :   -0.280319   -0.000319

  Mayer bond orders larger than 0.100000
B(  0-O ,  1-O ) :   1.0259 B(  0-O ,  2-C ) :  -0.2144 B(  1-O ,  2-C ) :   0.1604
B(  1-O ,  4-C ) :   0.1099 B(  1-O ,  5-C ) :   0.1099 B(  2-C ,  3-C ) :   0.5254
B(  2-C ,  4-C ) :   0.6552 B(  2-C ,  5-C ) :   0.6552 B(  3-C , 12-H ) :   0.9955
B(  3-C , 13-H ) :   0.9736 B(  3-C , 14-H ) :   0.9954 B(  4-C ,  9-H ) :   0.9749
B(  4-C , 10-H ) :   0.9738 B(  4-C , 11-H ) :   0.9858 B(  5-C ,  6-H ) :   0.9749
B(  5-C ,  7-H ) :   0.9858 B(  5-C ,  8-H ) :   0.9738

MP2 TOTAL ENERGY:     -307.687231516 Eh
FINAL SINGLE POINT ENERGY      -307.687231516047

DIPOLE MOMENT
-------------
                                X             Y             Z
Electronic contribution:     -6.51261       0.00011      -2.66941
Nuclear contribution   :      7.46530      -0.00013       3.11639
                        -----------------------------------------
Total Dipole Moment    :      0.95269      -0.00002       0.44698
                        -----------------------------------------
Magnitude (a.u.)       :      1.05233
Magnitude (Debye)      :      2.67482

Rotational constants in cm-1:     0.150723     0.097163     0.097124
Rotational constants in MHz :  4518.576373  2912.883286  2911.699972

                             ****ORCA TERMINATED NORMALLY****
TOTAL RUN TIME: 0 days 0 hours 34 minutes 38 seconds 803 msec
