                         Program Version 4.2.1 -  RELEASE  -
|  1> %pal
|  2>  nprocs 32
|  3> end
|  4> !RI-MP2 aug-cc-pVQZ aug-cc-pVQZ/C TightSCF
|  5> %maxcore 4500
|  6> *xyzfile 0 1  10_82TS.xyz
|  7>
|  8>
|  9>                          ****END OF INPUT****

CARTESIAN COORDINATES (ANGSTROEM)
---------------------------------
  C      0.050794    2.125408   -0.964355
  C     -0.308423    0.676883   -0.763438
  C     -1.584704    0.306169   -0.385083
  C     -2.523604    1.300975    0.248101
  C     -2.233110    2.742164   -0.162445
  C     -0.745004    3.056151   -0.057133
  H     -0.164648    2.368407   -2.012408
  H      1.125525    2.267548   -0.854021
  H     -3.556924    1.039251    0.013872
  H     -2.428557    1.202030    1.338185
  H     -2.560799    2.898064   -1.195463
  H     -2.819233    3.421721    0.459501
  H     -0.421628    2.929862    0.982308
  H     -0.551055    4.096700   -0.326070
  C     -1.907985   -1.069178   -0.305273
  H      0.283686   -0.038551   -1.321972
  C     -3.257174   -1.465341   -0.013873
  C     -0.985010   -1.696389    1.584744
  C     -1.170445   -1.994133   -1.121847
  N     -4.329225   -1.777119    0.255836
  N     -0.548504   -2.719354   -1.759094
  H     -1.789664   -1.482707    2.280915
  C      0.092900   -0.873681    1.552622
  H     -0.864312   -2.739905    1.316731
  C      0.773196    0.055907    1.100943
  C      1.998577    0.863279    1.155589
  H      1.786211    1.929705    1.179114
  H      2.562547    0.585127    2.045996
  O      2.804938    0.656936   -0.011271
  C      3.659831   -0.397077    0.026443
  C      4.321444   -0.593895   -1.301816
  O      3.826471   -1.066419    1.005706
  H      4.610749    0.362296   -1.736045
  H      5.185436   -1.242733   -1.183709
  H      3.607788   -1.069095   -1.978673

 Total Charge           Charge          ....    0
 Multiplicity           Mult            ....    1
 Number of Electrons    NEL             ....  136
 Basis Dimension        Dim             .... 2256

ORBITAL ENERGIES
----------------

  NO   OCC          E(Eh)            E(eV)
   0   2.0000     -20.618878      -561.0682
   1   2.0000     -20.555335      -559.3391
   2   2.0000     -15.579468      -423.9389
   3   2.0000     -15.578241      -423.9055
   4   2.0000     -11.392639      -310.0095
   5   2.0000     -11.330775      -308.3261
   6   2.0000     -11.328723      -308.2702
   7   2.0000     -11.299087      -307.4638
   8   2.0000     -11.288070      -307.1640
   9   2.0000     -11.287133      -307.1385
  10   2.0000     -11.278373      -306.9001
  11   2.0000     -11.278159      -306.8943
  12   2.0000     -11.272625      -306.7437
  13   2.0000     -11.256872      -306.3151
  14   2.0000     -11.249439      -306.1128
  15   2.0000     -11.249062      -306.1026
  16   2.0000     -11.246943      -306.0449
  17   2.0000     -11.241105      -305.8860
  18   2.0000     -11.240319      -305.8646
  19   2.0000      -1.479231       -40.2519
  20   2.0000      -1.378769       -37.5182
  21   2.0000      -1.248141       -33.9636
  22   2.0000      -1.230480       -33.4831
  23   2.0000      -1.177642       -32.0453
  24   2.0000      -1.116938       -30.3934
  25   2.0000      -1.100729       -29.9524
  26   2.0000      -1.056587       -28.7512
  27   2.0000      -1.038165       -28.2499
  28   2.0000      -1.013935       -27.5906
  29   2.0000      -0.996259       -27.1096
  30   2.0000      -0.933750       -25.4086
  31   2.0000      -0.883275       -24.0351
  32   2.0000      -0.852857       -23.2074
  33   2.0000      -0.805459       -21.9176
  34   2.0000      -0.780101       -21.2276
  35   2.0000      -0.756250       -20.5786
  36   2.0000      -0.731335       -19.9006
  37   2.0000      -0.718908       -19.5625
  38   2.0000      -0.708752       -19.2861
  39   2.0000      -0.701321       -19.0839
  40   2.0000      -0.680148       -18.5078
  41   2.0000      -0.655849       -17.8466
  42   2.0000      -0.642854       -17.4930
  43   2.0000      -0.629612       -17.1326
  44   2.0000      -0.624222       -16.9859
  45   2.0000      -0.612632       -16.6706
  46   2.0000      -0.602967       -16.4076
  47   2.0000      -0.593763       -16.1571
  48   2.0000      -0.582540       -15.8517
  49   2.0000      -0.576040       -15.6748
  50   2.0000      -0.574673       -15.6377
  51   2.0000      -0.567932       -15.4542
  52   2.0000      -0.559401       -15.2221
  53   2.0000      -0.556767       -15.1504
  54   2.0000      -0.551515       -15.0075
  55   2.0000      -0.541882       -14.7454
  56   2.0000      -0.495651       -13.4874
  57   2.0000      -0.493838       -13.4380
  58   2.0000      -0.488664       -13.2972
  59   2.0000      -0.487694       -13.2708
  60   2.0000      -0.484139       -13.1741
  61   2.0000      -0.480370       -13.0715
  62   2.0000      -0.473946       -12.8967
  63   2.0000      -0.469507       -12.7759
  64   2.0000      -0.465090       -12.6557
  65   2.0000      -0.408689       -11.1210
  66   2.0000      -0.352708        -9.5977
  67   2.0000      -0.343077        -9.3356
  68   0.0000       0.014363         0.3908
  69   0.0000       0.021790         0.5929
  70   0.0000       0.024352         0.6626
  71   0.0000       0.028265         0.7691
  72   0.0000       0.033667         0.9161

MULLIKEN ATOMIC CHARGES
-----------------------
   0 C :   -0.665156
   1 C :    0.385042
   2 C :    1.025116
   3 C :   -0.523753
   4 C :   -0.597855
   5 C :   -0.480058
   6 H :    0.188617
   7 H :    0.324882
   8 H :    0.305003
   9 H :    0.142938
  10 H :    0.158440
  11 H :    0.226683
  12 H :    0.148765
  13 H :    0.267990
  14 C :   -0.523057
  15 H :    0.206849
  16 C :    0.861054
  17 C :   -0.660808
  18 C :    0.734543
  19 N :   -1.046885
  20 N :   -1.024298
  21 H :    0.341498
  22 C :   -0.122336
  23 H :    0.399506
  24 C :   -0.478114
  25 C :    0.332424
  26 H :    0.220781
  27 H :    0.372105
  28 O :   -0.839146
  29 C :    1.024461
  30 C :   -0.777962
  31 O :   -0.849848
  32 H :    0.279106
  33 H :    0.340067
  34 H :    0.303403
Sum of atomic charges:   -0.0000000

LOEWDIN ATOMIC CHARGES
----------------------
   0 C :    0.529259
   1 C :    0.298765
   2 C :   -0.108583
   3 C :    0.519981
   4 C :    0.555725
   5 C :    0.541963
   6 H :   -0.248684
   7 H :   -0.326381
   8 H :   -0.294868
   9 H :   -0.247580
  10 H :   -0.254444
  11 H :   -0.250586
  12 H :   -0.266436
  13 H :   -0.246977
  14 C :   -0.354720
  15 H :   -0.327346
  16 C :   -0.358246
  17 C :    0.637916
  18 C :   -0.375696
  19 N :    0.471385
  20 N :    0.488457
  21 H :   -0.309189
  22 C :    0.182513
  23 H :   -0.324760
  24 C :    0.114111
  25 C :    0.112687
  26 H :   -0.346720
  27 H :   -0.355158
  28 O :    0.872578
  29 C :   -1.041683
  30 C :    0.880468
  31 O :    0.741025
  32 H :   -0.303633
  33 H :   -0.313767
  34 H :   -0.291377

  Mayer bond orders larger than 0.100000
B(  0-C ,  1-C ) :   0.4334 B(  0-C ,  4-C ) :  -0.1040 B(  0-C ,  5-C ) :   0.7763
B(  0-C ,  6-H ) :   1.0984 B(  0-C ,  7-H ) :   0.9986 B(  1-C ,  2-C ) :   1.1854
B(  1-C ,  6-H ) :  -0.1564 B(  1-C ,  7-H ) :  -0.1530 B(  1-C , 14-C ) :  -0.4489
B(  1-C , 15-H ) :   0.9725 B(  1-C , 17-C ) :   0.1388 B(  1-C , 18-C ) :   0.1091
B(  1-C , 24-C ) :   0.1464 B(  1-C , 28-O ) :  -0.1539 B(  2-C ,  3-C ) :   0.6524
B(  2-C ,  4-C ) :  -0.1813 B(  2-C ,  8-H ) :  -0.1053 B(  2-C , 14-C ) :   0.3420
B(  2-C , 15-H ) :  -0.1765 B(  2-C , 16-C ) :  -0.4923 B(  2-C , 18-C ) :  -0.4930
B(  3-C ,  4-C ) :   0.8324 B(  3-C ,  8-H ) :   0.9446 B(  3-C ,  9-H ) :   0.9865
B(  3-C , 11-H ) :  -0.1037 B(  4-C ,  5-C ) :   0.9315 B(  4-C , 10-H ) :   1.0656
B(  4-C , 11-H ) :   1.0190 B(  5-C , 12-H ) :   1.0723 B(  5-C , 13-H ) :   0.9511
B( 14-C , 16-C ) :   1.6040 B( 14-C , 17-C ) :   0.3080 B( 14-C , 18-C ) :   1.5017
B( 14-C , 19-N ) :   0.3070 B( 14-C , 20-N ) :   0.1089 B( 14-C , 22-C ) :   0.1037
B( 15-H , 24-C ) :   0.1138 B( 16-C , 19-N ) :   1.7219 B( 17-C , 21-H ) :   0.9646
B( 17-C , 22-C ) :   1.3391 B( 17-C , 23-H ) :   0.9215 B( 17-C , 24-C ) :  -0.2764
B( 18-C , 20-N ) :   1.9014 B( 21-H , 22-C ) :  -0.1318 B( 22-C , 24-C ) :   2.0826
B( 22-C , 25-C ) :  -0.2132 B( 24-C , 25-C ) :   0.4851 B( 24-C , 27-H ) :  -0.1400
B( 25-C , 26-H ) :   0.9553 B( 25-C , 27-H ) :   0.9108 B( 25-C , 28-O ) :   0.4316
B( 25-C , 31-O ) :   0.1068 B( 26-H , 28-O ) :   0.1076 B( 28-O , 29-C ) :   0.9400
B( 29-C , 30-C ) :   0.8160 B( 29-C , 31-O ) :   1.2595 B( 30-C , 32-H ) :   0.9573
B( 30-C , 33-H ) :   0.9499 B( 30-C , 34-H ) :   0.8844

MP2 TOTAL ENERGY:     -839.677235463 Eh
FINAL SINGLE POINT ENERGY      -839.677235463331

DIPOLE MOMENT
-------------
                                X             Y             Z
Electronic contribution:     -3.08122     -13.96446       1.13536
Nuclear contribution   :      4.06691      16.43778      -0.98148
                        -----------------------------------------
Total Dipole Moment    :      0.98568       2.47332       0.15388
                        -----------------------------------------
Magnitude (a.u.)       :      2.66694
Magnitude (Debye)      :      6.77883

Rotational constants in cm-1:     0.018391     0.009407     0.007561
Rotational constants in MHz :   551.356566   282.012901   226.662947

                             ****ORCA TERMINATED NORMALLY****
TOTAL RUN TIME: 0 days 6 hours 34 minutes 0 seconds 282 msec
