                         Program Version 4.2.1 -  RELEASE  -
|  1> %pal
|  2>  nprocs 32
|  3> end
|  4> !RI-MP2 aug-cc-pVQZ aug-cc-pVQZ/C TightSCF
|  5> %maxcore 4500
|  6> *xyzfile 0 1  10_80TS.xyz
|  7>
|  8>
|  9>                          ****END OF INPUT****

CARTESIAN COORDINATES (ANGSTROEM)
---------------------------------
  C      3.050029    0.203603    0.073296
  C      2.379470   -0.827626   -0.827713
  C      0.878400   -0.819242   -0.694120
  C      0.189376    0.323378   -0.341715
  C      0.900064    1.494977    0.285141
  C      2.377598    1.561803   -0.092688
  H      4.114320    0.268740   -0.162274
  H      2.973173   -0.114704    1.118409
  H      2.766029   -1.831276   -0.633581
  H      2.622493   -0.616570   -1.875919
  H      0.394952    2.423760    0.013446
  H      0.801706    1.407417    1.375763
  H      2.874674    2.317579    0.518678
  H      2.471273    1.886580   -1.134180
  C     -1.229421    0.268251   -0.260815
  C     -1.922912   -0.659425   -1.116915
  C     -1.957747    1.480470    0.005417
  H      0.347013   -1.574420   -1.262353
  N     -2.464391   -1.422575   -1.782086
  N     -2.532799    2.441303    0.259396
  C     -1.620551   -0.764083    1.566044
  H     -2.591295   -1.173239    1.307671
  C     -0.533066   -1.588573    1.591748
  H     -1.647104    0.071844    2.258300
  C      0.557178   -1.948577    1.139982
  H      1.442583   -2.546533    1.168899

 Total Charge           Charge          ....    0
 Multiplicity           Mult            ....    1
 Number of Electrons    NEL             ....   98
 Basis Dimension        Dim             .... 1672

ORBITAL ENERGIES
----------------

  NO   OCC          E(Eh)            E(eV)
   0   2.0000     -15.581702      -423.9997
   1   2.0000     -15.579193      -423.9314
   2   2.0000     -11.333720      -308.4062
   3   2.0000     -11.302252      -307.5499
   4   2.0000     -11.289629      -307.2064
   5   2.0000     -11.287646      -307.1525
   6   2.0000     -11.278752      -306.9104
   7   2.0000     -11.274617      -306.7979
   8   2.0000     -11.274539      -306.7958
   9   2.0000     -11.256590      -306.3074
  10   2.0000     -11.251423      -306.1668
  11   2.0000     -11.249630      -306.1180
  12   2.0000     -11.240780      -305.8772
  13   2.0000     -11.240145      -305.8599
  14   2.0000      -1.249819       -34.0093
  15   2.0000      -1.231860       -33.5206
  16   2.0000      -1.178985       -32.0818
  17   2.0000      -1.113816       -30.3085
  18   2.0000      -1.089016       -29.6336
  19   2.0000      -1.040190       -28.3050
  20   2.0000      -1.010983       -27.5103
  21   2.0000      -0.961477       -26.1631
  22   2.0000      -0.885722       -24.1017
  23   2.0000      -0.853504       -23.2250
  24   2.0000      -0.781362       -21.2619
  25   2.0000      -0.765261       -20.8238
  26   2.0000      -0.739751       -20.1296
  27   2.0000      -0.713035       -19.4027
  28   2.0000      -0.668662       -18.1952
  29   2.0000      -0.655846       -17.8465
  30   2.0000      -0.642161       -17.4741
  31   2.0000      -0.614884       -16.7318
  32   2.0000      -0.607724       -16.5370
  33   2.0000      -0.597903       -16.2698
  34   2.0000      -0.583253       -15.8711
  35   2.0000      -0.576043       -15.6749
  36   2.0000      -0.568401       -15.4670
  37   2.0000      -0.560477       -15.2513
  38   2.0000      -0.544060       -14.8046
  39   2.0000      -0.496954       -13.5228
  40   2.0000      -0.495763       -13.4904
  41   2.0000      -0.489175       -13.3111
  42   2.0000      -0.485234       -13.2039
  43   2.0000      -0.483474       -13.1560
  44   2.0000      -0.477285       -12.9876
  45   2.0000      -0.470375       -12.7995
  46   2.0000      -0.413410       -11.2495
  47   2.0000      -0.364086        -9.9073
  48   2.0000      -0.343761        -9.3542
  49   0.0000       0.015650         0.4259
  50   0.0000       0.024099         0.6558
  51   0.0000       0.025583         0.6962
  52   0.0000       0.031030         0.8444
  53   0.0000       0.036995         1.0067

MULLIKEN ATOMIC CHARGES
-----------------------
   0 C :   -0.436302
   1 C :   -0.533761
   2 C :    0.058240
   3 C :    0.923134
   4 C :   -0.427686
   5 C :   -0.584076
   6 H :    0.254372
   7 H :    0.171363
   8 H :    0.189549
   9 H :    0.183803
  10 H :    0.310443
  11 H :    0.134361
  12 H :    0.235256
  13 H :    0.195955
  14 C :   -0.426997
  15 C :    0.792615
  16 C :    0.795258
  17 H :    0.261752
  18 N :   -0.987527
  19 N :   -0.982679
  20 C :   -0.555854
  21 H :    0.372881
  22 C :   -0.041953
  23 H :    0.349500
  24 C :   -0.733496
  25 H :    0.481851
Sum of atomic charges:   -0.0000000

LOEWDIN ATOMIC CHARGES
----------------------
   0 C :    0.534334
   1 C :    0.524206
   2 C :    0.261994
   3 C :   -0.114695
   4 C :    0.516532
   5 C :    0.550976
   6 H :   -0.251110
   7 H :   -0.263166
   8 H :   -0.278069
   9 H :   -0.254549
  10 H :   -0.293494
  11 H :   -0.248015
  12 H :   -0.251215
  13 H :   -0.254642
  14 C :   -0.365822
  15 C :   -0.371970
  16 C :   -0.356906
  17 H :   -0.324528
  18 N :    0.486354
  19 N :    0.474351
  20 C :    0.604666
  21 H :   -0.323083
  22 C :    0.153057
  23 H :   -0.313321
  24 C :    0.529888
  25 H :   -0.371773

  Mayer bond orders larger than 0.100000
B(  0-C ,  1-C ) :   0.8359 B(  0-C ,  2-C ) :  -0.1001 B(  0-C ,  5-C ) :   0.9440
B(  0-C ,  6-H ) :   0.9619 B(  0-C ,  7-H ) :   1.0013 B(  1-C ,  2-C ) :   0.6194
B(  1-C ,  3-C ) :  -0.1719 B(  1-C ,  8-H ) :   1.1094 B(  1-C ,  9-H ) :   1.0427
B(  2-C ,  3-C ) :   1.3509 B(  2-C ,  8-H ) :  -0.1790 B(  2-C , 14-C ) :  -0.3768
B(  2-C , 17-H ) :   1.0371 B(  2-C , 20-C ) :   0.1127 B(  2-C , 24-C ) :   0.2979
B(  3-C ,  4-C ) :   0.6453 B(  3-C ,  5-C ) :  -0.1646 B(  3-C , 10-H ) :  -0.1054
B(  3-C , 14-C ) :   0.3032 B(  3-C , 15-C ) :  -0.4021 B(  3-C , 16-C ) :  -0.3876
B(  4-C ,  5-C ) :   0.8193 B(  4-C , 10-H ) :   0.9460 B(  4-C , 11-H ) :   0.9447
B(  5-C , 12-H ) :   1.0161 B(  5-C , 13-H ) :   1.0147 B( 14-C , 15-C ) :   1.5174
B( 14-C , 16-C ) :   1.5134 B( 14-C , 18-N ) :   0.2005 B( 14-C , 19-N ) :   0.2297
B( 14-C , 20-C ) :   0.3456 B( 15-C , 18-N ) :   1.8987 B( 16-C , 19-N ) :   1.8580
B( 20-C , 21-H ) :   0.8815 B( 20-C , 22-C ) :   1.3686 B( 20-C , 23-H ) :   0.8696
B( 20-C , 24-C ) :  -0.1705 B( 22-C , 24-C ) :   2.0946 B( 24-C , 25-H ) :   0.7972

MP2 TOTAL ENERGY:     -572.850132938 Eh
FINAL SINGLE POINT ENERGY      -572.850132938091

DIPOLE MOMENT
-------------
                                X             Y             Z
Electronic contribution:    -14.22355      -0.91041      -1.95852
Nuclear contribution   :     16.52335       0.52461       2.68114
                        -----------------------------------------
Total Dipole Moment    :      2.29980      -0.38580       0.72262
                        -----------------------------------------
Magnitude (a.u.)       :      2.44134
Magnitude (Debye)      :      6.20538

Rotational constants in cm-1:     0.033445     0.020375     0.017059
Rotational constants in MHz :  1002.647805   610.827558   511.419981

                             ****ORCA TERMINATED NORMALLY****
TOTAL RUN TIME: 0 days 3 hours 2 minutes 54 seconds 214 msec
