                         Program Version 4.2.1 -  RELEASE  -
|  1> %pal
|  2>  nprocs 32
|  3> end
|  4> !RI-MP2 aug-cc-pVQZ aug-cc-pVQZ/C TightSCF
|  5> %maxcore 4500
|  6> *xyzfile 1 1  10_14TS.xyz
|  7>
|  8>
|  9>                          ****END OF INPUT****

CARTESIAN COORDINATES (ANGSTROEM)
---------------------------------
  C      1.997595   -0.769859   -0.148105
  N      0.648090   -0.788404   -0.152068
  N     -0.100142    0.162264   -0.229425
  C     -1.489546    0.019540   -0.084929
  C     -2.235694    1.180981   -0.272573
  C     -2.100259   -1.196756    0.233463
  C     -3.612765    1.127390   -0.142262
  H     -1.731981    2.106745   -0.519093
  C     -3.472845   -1.235501    0.361226
  H     -1.499143   -2.085869    0.372632
  C     -4.226743   -0.076948    0.173840
  H     -4.206057    2.020617   -0.286383
  H     -3.965582   -2.167168    0.607138
  H     -5.303971   -0.118976    0.276385
  C      2.685350   -0.625230    1.206390
  C      2.668383   -1.553769   -1.231369
  H      2.228291   -1.352696   -2.207708
  H      3.734694   -1.332858   -1.249826
  H      2.554212   -2.618989   -1.009172
  C      2.619916    1.176760   -0.319751
  C      1.480290    1.925968   -0.280479
  H      3.134907    1.114886   -1.272814
  H      1.055512    2.343457   -1.183335
  H      1.058671    2.271366    0.656398
  C      3.370902    0.724573    0.934414
  H      1.945049   -0.557039    2.002318
  H      3.351396   -1.460819    1.421084
  H      3.267960    1.426659    1.760588
  H      4.432910    0.610769    0.723046

 Total Charge           Charge          ....    1
 Multiplicity           Mult            ....    1
 Number of Electrons    NEL             ....  100
 Basis Dimension        Dim             .... 1810

ORBITAL ENERGIES
----------------

  NO   OCC          E(Eh)            E(eV)
   0   2.0000     -15.820721      -430.5037
   1   2.0000     -15.804050      -430.0501
   2   2.0000     -11.511756      -313.2508
   3   2.0000     -11.427983      -310.9712
   4   2.0000     -11.405518      -310.3599
   5   2.0000     -11.394313      -310.0550
   6   2.0000     -11.389367      -309.9204
   7   2.0000     -11.385817      -309.8238
   8   2.0000     -11.382725      -309.7397
   9   2.0000     -11.376069      -309.5586
  10   2.0000     -11.372404      -309.4588
  11   2.0000     -11.366026      -309.2853
  12   2.0000     -11.358079      -309.0690
  13   2.0000     -11.357168      -309.0443
  14   2.0000      -1.575668       -42.8761
  15   2.0000      -1.336999       -36.3816
  16   2.0000      -1.286906       -35.0185
  17   2.0000      -1.235680       -33.6246
  18   2.0000      -1.181013       -32.1370
  19   2.0000      -1.154911       -31.4267
  20   2.0000      -1.149051       -31.2673
  21   2.0000      -1.101585       -29.9757
  22   2.0000      -1.035017       -28.1642
  23   2.0000      -0.989534       -26.9266
  24   2.0000      -0.965491       -26.2723
  25   2.0000      -0.934717       -25.4349
  26   2.0000      -0.889919       -24.2159
  27   2.0000      -0.860554       -23.4169
  28   2.0000      -0.831656       -22.6305
  29   2.0000      -0.824083       -22.4244
  30   2.0000      -0.807871       -21.9833
  31   2.0000      -0.786753       -21.4086
  32   2.0000      -0.764459       -20.8020
  33   2.0000      -0.745600       -20.2888
  34   2.0000      -0.743839       -20.2409
  35   2.0000      -0.739773       -20.1303
  36   2.0000      -0.723977       -19.7004
  37   2.0000      -0.722038       -19.6477
  38   2.0000      -0.716797       -19.5050
  39   2.0000      -0.709234       -19.2992
  40   2.0000      -0.665958       -18.1216
  41   2.0000      -0.646953       -17.6045
  42   2.0000      -0.646287       -17.5864
  43   2.0000      -0.633228       -17.2310
  44   2.0000      -0.629588       -17.1320
  45   2.0000      -0.613399       -16.6914
  46   2.0000      -0.560477       -15.2513
  47   2.0000      -0.516725       -14.0608
  48   2.0000      -0.469688       -12.7809
  49   2.0000      -0.466356       -12.6902
  50   0.0000      -0.101079        -2.7505
  51   0.0000      -0.085657        -2.3308
  52   0.0000      -0.065412        -1.7799
  53   0.0000      -0.057112        -1.5541
  54   0.0000      -0.055211        -1.5024

MULLIKEN ATOMIC CHARGES
-----------------------
   0 C :    1.440104
   1 N :   -0.675033
   2 N :   -0.338597
   3 C :    1.009920
   4 C :   -0.389015
   5 C :   -0.436944
   6 C :   -0.372776
   7 H :    0.319200
   8 C :   -0.309979
   9 H :    0.274222
  10 C :   -0.438399
  11 H :    0.274560
  12 H :    0.307372
  13 H :    0.305094
  14 C :   -0.677927
  15 C :   -1.047024
  16 H :    0.255023
  17 H :    0.297241
  18 H :    0.308461
  19 C :   -0.216371
  20 C :   -0.646057
  21 H :    0.395313
  22 H :    0.314530
  23 H :    0.318601
  24 C :   -0.563163
  25 H :    0.317233
  26 H :    0.381493
  27 H :    0.322146
  28 H :    0.270775
Sum of atomic charges:    1.0000000

LOEWDIN ATOMIC CHARGES
----------------------
   0 C :   -0.329741
   1 N :    0.442717
   2 N :    0.378527
   3 C :   -0.307748
   4 C :    0.327131
   5 C :    0.342748
   6 C :    0.375435
   7 H :   -0.315499
   8 C :    0.377274
   9 H :   -0.317909
  10 C :    0.375778
  11 H :   -0.308160
  12 H :   -0.307392
  13 H :   -0.300314
  14 C :    0.575501
  15 C :    0.967308
  16 H :   -0.255667
  17 H :   -0.269230
  18 H :   -0.248222
  19 C :    0.298302
  20 C :    0.788057
  21 H :   -0.291270
  22 H :   -0.275048
  23 H :   -0.275754
  24 C :    0.556793
  25 H :   -0.259238
  26 H :   -0.239554
  27 H :   -0.253029
  28 H :   -0.251794

  Mayer bond orders larger than 0.100000
B(  0-C ,  1-N ) :   0.4342 B(  0-C ,  2-N ) :  -0.1372 B(  0-C ,  5-C ) :  -0.1048
B(  0-C , 14-C ) :   0.7068 B(  0-C , 15-C ) :   0.2164 B(  0-C , 16-H ) :  -0.1961
B(  0-C , 17-H ) :  -0.1246 B(  0-C , 18-H ) :  -0.1042 B(  0-C , 19-C ) :   0.4591
B(  0-C , 20-C ) :   0.1569 B(  0-C , 24-C ) :  -0.1438 B(  1-N ,  2-N ) :   0.9730
B(  1-N ,  3-C ) :  -0.1442 B(  2-N ,  3-C ) :   0.9747 B(  2-N ,  4-C ) :   0.1172
B(  3-C ,  4-C ) :   0.8711 B(  3-C ,  5-C ) :   0.8486 B(  3-C ,  6-C ) :  -0.4439
B(  3-C ,  8-C ) :  -0.3801 B(  3-C , 10-C ) :  -0.1238 B(  4-C ,  6-C ) :   1.2971
B(  4-C ,  7-H ) :   0.9124 B(  4-C , 11-H ) :  -0.1159 B(  5-C ,  6-C ) :   0.1404
B(  5-C ,  8-C ) :   1.2110 B(  5-C ,  9-H ) :   0.9723 B(  5-C , 10-C ) :   0.1229
B(  5-C , 12-H ) :  -0.1625 B(  6-C , 10-C ) :   1.1934 B(  6-C , 11-H ) :   1.1072
B(  8-C , 10-C ) :   1.1026 B(  8-C , 12-H ) :   1.0917 B(  8-C , 13-H ) :  -0.1109
B( 10-C , 11-H ) :  -0.1034 B( 10-C , 13-H ) :   1.0596 B( 14-C , 15-C ) :   0.1063
B( 14-C , 24-C ) :   1.1263 B( 14-C , 25-H ) :   0.9346 B( 14-C , 26-H ) :   0.8130
B( 15-C , 16-H ) :   1.0794 B( 15-C , 17-H ) :   1.0185 B( 15-C , 18-H ) :   0.9682
B( 19-C , 20-C ) :   1.4215 B( 19-C , 21-H ) :   0.8350 B( 19-C , 22-H ) :  -0.1416
B( 19-C , 24-C ) :   0.9210 B( 20-C , 22-H ) :   1.0004 B( 20-C , 23-H ) :   0.9006
B( 24-C , 27-H ) :   0.8678 B( 24-C , 28-H ) :   0.9667

MP2 TOTAL ENERGY:     -574.429918789 Eh
FINAL SINGLE POINT ENERGY      -574.429918789013

DIPOLE MOMENT
-------------
                                X             Y             Z
Electronic contribution:     -8.63136      -0.13351      -0.16160
Nuclear contribution   :     10.19005       0.19895       0.09017
                        -----------------------------------------
Total Dipole Moment    :      1.55869       0.06544      -0.07143
                        -----------------------------------------
Magnitude (a.u.)       :      1.56170
Magnitude (Debye)      :      3.96952

Rotational constants in cm-1:     0.055219     0.012462     0.011181
Rotational constants in MHz :  1655.425961   373.614460   335.204743

                             ****ORCA TERMINATED NORMALLY****
TOTAL RUN TIME: 0 days 3 hours 18 minutes 59 seconds 689 msec
