                         Program Version 4.2.1 -  RELEASE  -
|  1> %pal
|  2>  nprocs 32
|  3> end
|  4> !RI-MP2 aug-cc-pVQZ aug-cc-pVQZ/C TightSCF
|  5> %maxcore 4500
|  6> *xyzfile 0 1  02_20R.xyz
|  7>
|  8>
|  9>                          ****END OF INPUT****

CARTESIAN COORDINATES (ANGSTROEM)
---------------------------------
  C     -0.639472   -1.701097   -0.463042
  C      0.422831    1.532521    0.335071
  C     -1.935844   -1.866879   -0.207269
  C      0.354941   -1.795463    0.613274
  C     -0.624395    1.938650   -0.397371
  C      1.830257    1.964438    0.226814
  C     -1.981361    1.401399   -0.206584
  C     -2.597549    1.026394    0.917057
  C     -4.006472    0.477196    0.944599
  C     -2.003408    1.142119    2.293078
  C     -3.015110   -1.798786   -1.239710
  H     -2.786683    1.372022    3.020568
  H     -1.546731    0.194753    2.598036
  H     -1.239552    1.916390    2.347969
  C     -4.699511    0.027358   -0.349062
  H     -4.623910    1.248732    1.422000
  H     -4.024680   -0.360296    1.654423
  C     -4.414462   -1.431073   -0.738782
  H     -2.706427   -1.133378   -2.050978
  H     -3.087773   -2.798010   -1.687511
  C     -6.212227    0.203440   -0.190810
  H     -4.384829    0.671562   -1.175533
  H     -5.118541   -1.699133   -1.532076
  H     -4.668206   -2.074185    0.113344
  C     -0.521107    2.938383   -1.519937
  H      0.421170    3.481863   -1.498181
  H     -0.596917    2.438753   -2.491242
  H     -1.345077    3.654085   -1.462788
  H     -6.589511   -0.404740    0.637377
  H     -6.467935    1.244365    0.018716
  H     -6.745230   -0.099544   -1.094874
  C      2.436369    2.380277    1.541730
  H      1.930020    3.267252    1.932988
  H      2.298120    1.588211    2.284570
  H      3.500579    2.601657    1.476538
  C      2.483893    1.927697   -0.936841
  C      3.898121    2.329752   -1.215296
  H      3.929772    3.112090   -1.979782
  H      4.423104    2.706077   -0.337979
  H      4.466536    1.483756   -1.613988
  H      1.942387    1.542408   -1.795243
  C      1.797412   -1.708641    0.239200
  O      0.060517   -1.931526    1.789123
  C      2.792499   -1.846007    1.114763
  C      2.390244   -1.458760   -1.118245
  H      2.666723   -2.026964    2.173630
  C      4.130117   -1.706432    0.455913
  N      3.741954   -1.478435   -0.920402
  H      4.383871   -1.326497   -1.680578
  O      1.833983   -1.274572   -2.180952
  C      4.976744   -0.579091    1.040699
  H      5.916834   -0.481746    0.494187
  H      5.214183   -0.784822    2.086275
  H      4.437514    0.365506    0.979487
  H      4.676083   -2.654553    0.546450
  H     -2.538057    1.317333   -1.135330
  H      0.235896    0.821849    1.131981
  H     -0.272236   -1.465475   -1.454158
  H     -2.225245   -2.105861    0.813659

 Total Charge           Charge          ....    0
 Multiplicity           Mult            ....    1
 Number of Electrons    NEL             ....  194
 Basis Dimension        Dim             .... 3598

ORBITAL ENERGIES
----------------

  NO   OCC          E(Eh)            E(eV)
   0   2.0000     -20.524304      -558.4947
   1   2.0000     -20.515683      -558.2601
   2   2.0000     -15.581869      -424.0042
   3   2.0000     -11.352247      -308.9103
   4   2.0000     -11.326479      -308.2092
   5   2.0000     -11.294602      -307.3417
   6   2.0000     -11.270186      -306.6774
   7   2.0000     -11.244333      -305.9739
   8   2.0000     -11.242795      -305.9320
   9   2.0000     -11.237735      -305.7943
  10   2.0000     -11.227143      -305.5061
  11   2.0000     -11.225954      -305.4737
  12   2.0000     -11.225530      -305.4622
  13   2.0000     -11.223787      -305.4148
  14   2.0000     -11.223175      -305.3981
  15   2.0000     -11.219998      -305.3117
  16   2.0000     -11.218009      -305.2575
  17   2.0000     -11.216578      -305.2186
  18   2.0000     -11.215315      -305.1842
  19   2.0000     -11.211886      -305.0909
  20   2.0000     -11.209832      -305.0350
  21   2.0000     -11.205923      -304.9287
  22   2.0000     -11.205086      -304.9059
  23   2.0000     -11.203833      -304.8718
  24   2.0000     -11.203558      -304.8643
  25   2.0000     -11.202962      -304.8481
  26   2.0000      -1.385116       -37.6909
  27   2.0000      -1.371878       -37.3307
  28   2.0000      -1.267568       -34.4923
  29   2.0000      -1.124954       -30.6116
  30   2.0000      -1.108316       -30.1588
  31   2.0000      -1.092196       -29.7202
  32   2.0000      -1.082975       -29.4693
  33   2.0000      -1.065531       -28.9946
  34   2.0000      -1.042061       -28.3559
  35   2.0000      -1.032587       -28.0981
  36   2.0000      -0.991314       -26.9750
  37   2.0000      -0.984676       -26.7944
  38   2.0000      -0.930091       -25.3091
  39   2.0000      -0.923483       -25.1293
  40   2.0000      -0.919877       -25.0311
  41   2.0000      -0.917865       -24.9764
  42   2.0000      -0.884373       -24.0650
  43   2.0000      -0.877944       -23.8901
  44   2.0000      -0.842270       -22.9193
  45   2.0000      -0.820414       -22.3246
  46   2.0000      -0.783242       -21.3131
  47   2.0000      -0.767796       -20.8928
  48   2.0000      -0.759287       -20.6613
  49   2.0000      -0.723266       -19.6811
  50   2.0000      -0.710545       -19.3349
  51   2.0000      -0.698163       -18.9980
  52   2.0000      -0.676430       -18.4066
  53   2.0000      -0.663255       -18.0481
  54   2.0000      -0.655892       -17.8477
  55   2.0000      -0.647650       -17.6234
  56   2.0000      -0.636370       -17.3165
  57   2.0000      -0.625381       -17.0175
  58   2.0000      -0.620880       -16.8950
  59   2.0000      -0.614848       -16.7309
  60   2.0000      -0.610685       -16.6176
  61   2.0000      -0.601949       -16.3799
  62   2.0000      -0.590263       -16.0619
  63   2.0000      -0.587871       -15.9968
  64   2.0000      -0.584057       -15.8930
  65   2.0000      -0.577637       -15.7183
  66   2.0000      -0.567984       -15.4556
  67   2.0000      -0.566798       -15.4234
  68   2.0000      -0.557400       -15.1676
  69   2.0000      -0.555151       -15.1064
  70   2.0000      -0.553318       -15.0566
  71   2.0000      -0.551450       -15.0057
  72   2.0000      -0.546357       -14.8671
  73   2.0000      -0.540277       -14.7017
  74   2.0000      -0.534570       -14.5464
  75   2.0000      -0.531881       -14.4732
  76   2.0000      -0.531436       -14.4611
  77   2.0000      -0.526516       -14.3272
  78   2.0000      -0.523245       -14.2382
  79   2.0000      -0.517854       -14.0915
  80   2.0000      -0.514333       -13.9957
  81   2.0000      -0.504609       -13.7311
  82   2.0000      -0.492075       -13.3900
  83   2.0000      -0.488737       -13.2992
  84   2.0000      -0.482592       -13.1320
  85   2.0000      -0.461147       -12.5484
  86   2.0000      -0.457293       -12.4436
  87   2.0000      -0.455012       -12.3815
  88   2.0000      -0.435639       -11.8544
  89   2.0000      -0.426310       -11.6005
  90   2.0000      -0.410881       -11.1806
  91   2.0000      -0.399635       -10.8746
  92   2.0000      -0.394244       -10.7279
  93   2.0000      -0.385910       -10.5012
  94   2.0000      -0.354861        -9.6562
  95   2.0000      -0.332422        -9.0457
  96   2.0000      -0.285828        -7.7778
  97   0.0000       0.017080         0.4648
  98   0.0000       0.023299         0.6340
  99   0.0000       0.025585         0.6962
 100   0.0000       0.027158         0.7390
 101   0.0000       0.032025         0.8715

MULLIKEN ATOMIC CHARGES
-----------------------
   0 C :   -0.278712
   1 C :   -0.886643
   2 C :    0.006901
   3 C :    1.705898
   4 C :    0.753501
   5 C :    0.530116
   6 C :   -0.189506
   7 C :    0.751339
   8 C :   -0.160775
   9 C :   -1.149320
  10 C :   -0.319945
  11 H :    0.163702
  12 H :    0.233018
  13 H :    0.312027
  14 C :    0.348656
  15 H :    0.226749
  16 H :    0.239908
  17 C :   -0.426433
  18 H :    0.145335
  19 H :    0.198809
  20 C :   -1.170176
  21 H :    0.228555
  22 H :    0.094108
  23 H :    0.234919
  24 C :   -1.182393
  25 H :    0.293198
  26 H :    0.225064
  27 H :    0.186891
  28 H :    0.171767
  29 H :    0.216796
  30 H :    0.232912
  31 C :   -1.197252
  32 H :    0.282536
  33 H :    0.225220
  34 H :    0.272241
  35 C :   -0.227605
  36 C :   -1.018467
  37 H :    0.288642
  38 H :    0.239152
  39 H :    0.240330
  40 H :    0.155285
  41 C :   -0.291175
  42 O :   -1.225568
  43 C :   -0.476199
  44 C :    1.931560
  45 H :    0.103981
  46 C :    0.255666
  47 N :   -0.777597
  48 H :   -0.028767
  49 O :   -1.193489
  50 C :   -1.146840
  51 H :    0.236132
  52 H :    0.244847
  53 H :    0.376193
  54 H :    0.446569
  55 H :   -0.104472
  56 H :    0.435698
  57 H :    0.229821
  58 H :   -0.012708
Sum of atomic charges:    0.0000000

LOEWDIN ATOMIC CHARGES
----------------------
   0 C :    0.335661
   1 C :    0.317829
   2 C :    0.379124
   3 C :   -0.718390
   4 C :   -0.014146
   5 C :   -0.043028
   6 C :    0.358741
   7 C :    0.021721
   8 C :    0.508825
   9 C :    0.915908
  10 C :    0.546575
  11 H :   -0.278708
  12 H :   -0.275977
  13 H :   -0.308562
  14 C :    0.146396
  15 H :   -0.283742
  16 H :   -0.281208
  17 C :    0.541246
  18 H :   -0.278694
  19 H :   -0.266099
  20 C :    0.934762
  21 H :   -0.303971
  22 H :   -0.278114
  23 H :   -0.265862
  24 C :    0.908925
  25 H :   -0.323220
  26 H :   -0.266637
  27 H :   -0.277221
  28 H :   -0.263166
  29 H :   -0.270031
  30 H :   -0.272312
  31 C :    0.910013
  32 H :   -0.264357
  33 H :   -0.278987
  34 H :   -0.326942
  35 C :    0.359826
  36 C :    0.912672
  37 H :   -0.277315
  38 H :   -0.327394
  39 H :   -0.294416
  40 H :   -0.341719
  41 C :   -0.100872
  42 O :    0.749701
  43 C :    0.368183
  44 C :   -0.862722
  45 H :   -0.263443
  46 C :   -0.041432
  47 N :    0.835824
  48 H :   -0.450411
  49 O :    0.736445
  50 C :    0.943960
  51 H :   -0.263754
  52 H :   -0.265170
  53 H :   -0.326592
  54 H :   -0.261540
  55 H :   -0.371105
  56 H :   -0.407876
  57 H :   -0.422308
  58 H :   -0.314896

  Mayer bond orders larger than 0.100000
B(  0-C ,  2-C ) :   0.5230 B(  0-C ,  3-C ) :   0.8814 B(  0-C , 10-C ) :  -0.4582
B(  0-C , 41-C ) :  -0.5785 B(  0-C , 42-O ) :   0.4549 B(  0-C , 44-C ) :  -0.1085
B(  0-C , 57-H ) :   1.0052 B(  0-C , 58-H ) :  -0.2703 B(  1-C ,  4-C ) :   1.5611
B(  1-C ,  5-C ) :   0.1558 B(  1-C ,  6-C ) :  -0.2356 B(  1-C ,  7-C ) :   0.1879
B(  1-C ,  9-C ) :  -0.1850 B(  1-C , 24-C ) :   0.2562 B(  1-C , 26-H ) :   0.1235
B(  1-C , 31-C ) :  -0.1181 B(  1-C , 32-H ) :  -0.1701 B(  1-C , 33-H ) :   0.2069
B(  1-C , 35-C ) :  -0.3685 B(  1-C , 41-C ) :   0.1680 B(  1-C , 56-H ) :   0.8806
B(  2-C ,  3-C ) :  -0.2172 B(  2-C , 10-C ) :   0.8281 B(  2-C , 17-C ) :  -0.1518
B(  2-C , 19-H ) :  -0.1299 B(  2-C , 41-C ) :  -0.1278 B(  2-C , 42-O ) :  -0.1163
B(  2-C , 44-C ) :   0.1124 B(  2-C , 58-H ) :   1.3829 B(  3-C ,  4-C ) :  -0.1290
B(  3-C , 41-C ) :   0.9256 B(  3-C , 43-C ) :  -0.2704 B(  3-C , 49-O ) :  -0.1636
B(  3-C , 57-H ) :  -0.1615 B(  4-C ,  9-C ) :   0.1694 B(  4-C , 24-C ) :   0.2394
B(  4-C , 26-H ) :  -0.4398 B(  4-C , 27-H ) :  -0.2111 B(  4-C , 55-H ) :  -0.2031
B(  4-C , 56-H ) :  -0.1545 B(  5-C , 31-C ) :   0.1841 B(  5-C , 33-H ) :  -0.3627
B(  5-C , 35-C ) :   1.4799 B(  5-C , 36-C ) :   0.1347 B(  5-C , 38-H ) :   0.1011
B(  6-C ,  7-C ) :   1.4632 B(  6-C ,  8-C ) :  -0.2315 B(  6-C ,  9-C ) :   0.2021
B(  6-C , 12-H ) :   0.1116 B(  6-C , 24-C ) :  -0.2243 B(  6-C , 26-H ) :   0.1323
B(  6-C , 55-H ) :   1.4786 B(  7-C ,  8-C ) :   0.2384 B(  7-C ,  9-C ) :   0.5061
B(  7-C , 12-H ) :  -0.1405 B(  7-C , 13-H ) :  -0.2144 B(  7-C , 15-H ) :  -0.2204
B(  7-C , 16-H ) :  -0.1256 B(  7-C , 55-H ) :  -0.1077 B(  8-C , 14-C ) :   0.5753
B(  8-C , 15-H ) :   1.1025 B(  8-C , 16-H ) :   1.0185 B(  9-C , 11-H ) :   1.1642
B(  9-C , 12-H ) :   0.9814 B(  9-C , 13-H ) :   1.0407 B( 10-C , 17-C ) :   0.8356
B( 10-C , 18-H ) :   1.0495 B( 10-C , 19-H ) :   1.0464 B( 14-C , 17-C ) :   0.3682
B( 14-C , 20-C ) :   0.3130 B( 14-C , 21-H ) :   1.0181 B( 14-C , 22-H ) :  -0.1428
B( 14-C , 23-H ) :  -0.1198 B( 14-C , 28-H ) :  -0.2065 B( 14-C , 29-H ) :  -0.1649
B( 14-C , 30-H ) :  -0.1774 B( 14-C , 55-H ) :  -0.1003 B( 17-C , 20-C ) :   0.1706
B( 17-C , 22-H ) :   1.2112 B( 17-C , 23-H ) :   1.0066 B( 20-C , 28-H ) :   1.1455
B( 20-C , 29-H ) :   1.1257 B( 20-C , 30-H ) :   1.1049 B( 24-C , 25-H ) :   0.9443
B( 24-C , 26-H ) :   1.1545 B( 24-C , 27-H ) :   1.2023 B( 31-C , 32-H ) :   1.1030
B( 31-C , 33-H ) :   1.0780 B( 31-C , 34-H ) :   1.0445 B( 31-C , 35-C ) :   0.1295
B( 31-C , 56-H ) :   0.1119 B( 35-C , 37-H ) :  -0.2228 B( 35-C , 38-H ) :  -0.1453
B( 35-C , 39-H ) :  -0.2689 B( 35-C , 40-H ) :   1.1206 B( 36-C , 37-H ) :   1.0658
B( 36-C , 38-H ) :   1.0667 B( 36-C , 39-H ) :   1.1090 B( 41-C , 42-O ) :   0.3516
B( 41-C , 43-C ) :   1.3747 B( 41-C , 44-C ) :   0.9485 B( 41-C , 46-C ) :  -0.4677
B( 41-C , 47-N ) :  -0.3872 B( 41-C , 49-O ) :   0.6877 B( 41-C , 57-H ) :   0.1984
B( 43-C , 45-H ) :   1.2693 B( 43-C , 46-C ) :   1.1269 B( 43-C , 50-C ) :  -0.1203
B( 44-C , 47-N ) :   1.0247 B( 44-C , 48-H ) :  -0.1807 B( 44-C , 49-O ) :   0.1027
B( 46-C , 47-N ) :   0.4875 B( 46-C , 50-C ) :   0.9686 B( 46-C , 54-H ) :   0.7898
B( 47-N , 48-H ) :   1.3672 B( 47-N , 49-O ) :   0.1716 B( 50-C , 51-H ) :   1.0667
B( 50-C , 52-H ) :   1.0450 B( 50-C , 53-H ) :   0.7649

MP2 TOTAL ENERGY:    -1099.548062777 Eh
FINAL SINGLE POINT ENERGY     -1099.548062777463

DIPOLE MOMENT
-------------
                                X             Y             Z
Electronic contribution:     11.75276     -15.88487      -2.52394
Nuclear contribution   :    -10.73286      15.94030       2.79815
                        -----------------------------------------
Total Dipole Moment    :      1.01990       0.05544       0.27421
                        -----------------------------------------
Magnitude (a.u.)       :      1.05757
Magnitude (Debye)      :      2.68814

Rotational constants in cm-1:     0.011270     0.004438     0.003893
Rotational constants in MHz :   337.858010   133.036299   116.712487

                             ****ORCA TERMINATED NORMALLY****
TOTAL RUN TIME: 1 days 12 hours 2 minutes 28 seconds 400 msec
