                         Program Version 4.2.1 -  RELEASE  -
|  1> %pal
|  2>  nprocs 32
|  3> end
|  4> !RI-MP2 aug-cc-pVQZ aug-cc-pVQZ/C TightSCF
|  5> %maxcore 4500
|  6> *xyzfile 0 1  02_34P.xyz
|  7>
|  8>
|  9>                          ****END OF INPUT****

CARTESIAN COORDINATES (ANGSTROEM)
---------------------------------
  C     -0.014285   -0.112511    2.016472
  C     -1.920039   -0.370631    0.602299
  C      0.500411    1.053005    1.201300
  C     -1.580044    0.755934   -0.065234
  C     -2.601022    1.009616   -1.132694
  C     -1.123228   -0.794882    1.726801
  C     -3.145130   -0.899349    0.041109
  C      1.889278    0.790829    0.567977
  C      2.949553    0.685135    1.673936
  H      2.836848   -0.224972    2.266132
  H      2.888149    1.534855    2.361730
  H      2.138359    1.688782   -0.011990
  H      3.957941    0.678303    1.257675
  N     -0.497727    1.497909    0.200214
  C     -0.229067    2.734471   -0.501819
  H      0.213676    3.453329    0.191594
  H      0.460328    2.598351   -1.340325
  H     -1.155515    3.162572   -0.882743
  O     -3.798368   -1.859390    0.331384
  O     -3.522668   -0.061418   -1.003094
  H     -2.162296    0.992599   -2.134057
  H     -3.131659    1.955346   -0.992929
  Si     2.065693   -0.647341   -0.678612
  C      0.736712   -0.614439   -2.005974
  C      3.730433   -0.394508   -1.519421
  C      2.055236   -2.319409    0.169863
  H      1.000992   -1.315205   -2.802417
  H     -0.235367   -0.916670   -1.614373
  H      0.635781    0.372960   -2.463716
  H      3.790602    0.582378   -2.007055
  H      4.562935   -0.466971   -0.815983
  H      3.887835   -1.154701   -2.289016
  H      2.819271   -2.385935    0.947949
  H      1.088127   -2.528882    0.628435
  H      2.260432   -3.109104   -0.558054
  H      0.639847    1.907340    1.883022
  H      0.588430   -0.383558    2.873577
  H     -1.444893   -1.636503    2.327605

 Total Charge           Charge          ....    0
 Multiplicity           Mult            ....    1
 Number of Electrons    NEL             ....  136
 Basis Dimension        Dim             .... 2330

ORBITAL ENERGIES
----------------

  NO   OCC          E(Eh)            E(eV)
   0   2.0000     -68.751016     -1870.8103
   1   2.0000     -20.586754      -560.1941
   2   2.0000     -20.515066      -558.2433
   3   2.0000     -15.610223      -424.7758
   4   2.0000     -11.360498      -309.1349
   5   2.0000     -11.313177      -307.8472
   6   2.0000     -11.311916      -307.8129
   7   2.0000     -11.294095      -307.3280
   8   2.0000     -11.287317      -307.1435
   9   2.0000     -11.243158      -305.9419
  10   2.0000     -11.232744      -305.6585
  11   2.0000     -11.229229      -305.5629
  12   2.0000     -11.222320      -305.3748
  13   2.0000     -11.216072      -305.2048
  14   2.0000     -11.200768      -304.7884
  15   2.0000     -11.199808      -304.7623
  16   2.0000     -11.194726      -304.6240
  17   2.0000      -6.100317      -165.9981
  18   2.0000      -4.206770      -114.4720
  19   2.0000      -4.206650      -114.4688
  20   2.0000      -4.206641      -114.4685
  21   2.0000      -1.442890       -39.2630
  22   2.0000      -1.350577       -36.7511
  23   2.0000      -1.303837       -35.4792
  24   2.0000      -1.119174       -30.4543
  25   2.0000      -1.099297       -29.9134
  26   2.0000      -1.031738       -28.0750
  27   2.0000      -0.985195       -26.8085
  28   2.0000      -0.975880       -26.5550
  29   2.0000      -0.967856       -26.3367
  30   2.0000      -0.930309       -25.3150
  31   2.0000      -0.925563       -25.1858
  32   2.0000      -0.921987       -25.0885
  33   2.0000      -0.840829       -22.8801
  34   2.0000      -0.820193       -22.3186
  35   2.0000      -0.782667       -21.2975
  36   2.0000      -0.714235       -19.4353
  37   2.0000      -0.707238       -19.2449
  38   2.0000      -0.697869       -18.9900
  39   2.0000      -0.687541       -18.7089
  40   2.0000      -0.653476       -17.7820
  41   2.0000      -0.643166       -17.5014
  42   2.0000      -0.636889       -17.3306
  43   2.0000      -0.619572       -16.8594
  44   2.0000      -0.608054       -16.5460
  45   2.0000      -0.604189       -16.4408
  46   2.0000      -0.589702       -16.0466
  47   2.0000      -0.577356       -15.7107
  48   2.0000      -0.572230       -15.5712
  49   2.0000      -0.568203       -15.4616
  50   2.0000      -0.560408       -15.2495
  51   2.0000      -0.557372       -15.1669
  52   2.0000      -0.554071       -15.0770
  53   2.0000      -0.543971       -14.8022
  54   2.0000      -0.539740       -14.6871
  55   2.0000      -0.538910       -14.6645
  56   2.0000      -0.535684       -14.5767
  57   2.0000      -0.522906       -14.2290
  58   2.0000      -0.513859       -13.9828
  59   2.0000      -0.493166       -13.4197
  60   2.0000      -0.477006       -12.9800
  61   2.0000      -0.443710       -12.0740
  62   2.0000      -0.433298       -11.7906
  63   2.0000      -0.429755       -11.6942
  64   2.0000      -0.429229       -11.6799
  65   2.0000      -0.414364       -11.2754
  66   2.0000      -0.409347       -11.1389
  67   2.0000      -0.287463        -7.8223
  68   0.0000       0.012698         0.3455
  69   0.0000       0.021168         0.5760
  70   0.0000       0.022797         0.6203
  71   0.0000       0.027977         0.7613
  72   0.0000       0.035015         0.9528

MULLIKEN ATOMIC CHARGES
-----------------------
   0 C :   -0.753329
   1 C :   -0.667480
   2 C :    0.633685
   3 C :    1.094467
   4 C :    0.013493
   5 C :   -0.361225
   6 C :    1.628402
   7 C :    0.013817
   8 C :   -1.218637
   9 H :    0.185715
  10 H :    0.229023
  11 H :   -0.081825
  12 H :    0.235301
  13 N :   -0.327276
  14 C :   -1.130838
  15 H :    0.263471
  16 H :    0.318956
  17 H :    0.202462
  18 O :   -1.014412
  19 O :   -1.117822
  20 H :    0.264276
  21 H :    0.339595
  22 Si:    1.574355
  23 C :   -1.220724
  24 C :   -1.259458
  25 C :   -1.242983
  26 H :    0.177274
  27 H :    0.312112
  28 H :    0.264853
  29 H :    0.274486
  30 H :    0.273839
  31 H :    0.324627
  32 H :    0.237608
  33 H :    0.381701
  34 H :    0.294118
  35 H :    0.645777
  36 H :    0.008496
  37 H :    0.204099
Sum of atomic charges:    0.0000000

LOEWDIN ATOMIC CHARGES
----------------------
   0 C :    0.388892
   1 C :   -0.159736
   2 C :   -0.042593
   3 C :   -0.296351
   4 C :    0.177250
   5 C :    0.381465
   6 C :   -1.072625
   7 C :    0.216801
   8 C :    0.890585
   9 H :   -0.293773
  10 H :   -0.260014
  11 H :   -0.353864
  12 H :   -0.282164
  13 N :    0.511606
  14 C :    0.805963
  15 H :   -0.263934
  16 H :   -0.268414
  17 H :   -0.296375
  18 O :    0.646921
  19 O :    0.858669
  20 H :   -0.281631
  21 H :   -0.280902
  22 Si:    0.180808
  23 C :    1.010708
  24 C :    0.999699
  25 C :    1.009991
  26 H :   -0.319453
  27 H :   -0.364211
  28 H :   -0.332166
  29 H :   -0.327982
  30 H :   -0.338743
  31 H :   -0.332927
  32 H :   -0.332278
  33 H :   -0.345999
  34 H :   -0.327103
  35 H :   -0.298385
  36 H :   -0.308763
  37 H :   -0.298974

  Mayer bond orders larger than 0.100000
B(  0-C ,  2-C ) :   0.7122 B(  0-C ,  3-C ) :   0.1345 B(  0-C ,  5-C ) :   1.6279
B(  0-C , 35-H ) :  -0.2467 B(  0-C , 36-H ) :   1.4476 B(  1-C ,  3-C ) :   0.4790
B(  1-C ,  4-C ) :  -0.2260 B(  1-C ,  5-C ) :   0.6377 B(  1-C ,  6-C ) :   2.1742
B(  1-C , 18-O ) :   0.5193 B(  1-C , 19-O ) :   0.1152 B(  1-C , 37-H ) :  -0.1523
B(  2-C ,  3-C ) :  -0.1883 B(  2-C ,  5-C ) :  -0.1786 B(  2-C ,  7-C ) :   0.8776
B(  2-C , 13-N ) :   0.9859 B(  2-C , 35-H ) :   0.6264 B(  2-C , 36-H ) :  -0.1365
B(  3-C ,  4-C ) :   0.5515 B(  3-C ,  6-C ) :  -0.7300 B(  3-C , 13-N ) :   1.0694
B(  3-C , 14-C ) :  -0.1614 B(  3-C , 18-O ) :   0.1076 B(  3-C , 20-H ) :  -0.2092
B(  3-C , 21-H ) :  -0.1702 B(  4-C ,  6-C ) :   0.1125 B(  4-C , 19-O ) :   0.2784
B(  4-C , 20-H ) :   1.0180 B(  4-C , 21-H ) :   1.0389 B(  5-C , 18-O ) :   0.1369
B(  5-C , 36-H ) :  -0.1732 B(  5-C , 37-H ) :   1.0919 B(  6-C , 18-O ) :   0.4645
B(  6-C , 19-O ) :   0.7005 B(  7-C ,  8-C ) :   0.1278 B(  7-C ,  9-H ) :  -0.2649
B(  7-C , 10-H ) :  -0.1529 B(  7-C , 11-H ) :   1.1938 B(  7-C , 12-H ) :  -0.2084
B(  7-C , 22-Si) :   0.4427 B(  7-C , 25-C ) :   0.2065 B(  8-C ,  9-H ) :   1.1314
B(  8-C , 10-H ) :   1.1319 B(  8-C , 12-H ) :   1.1480 B( 13-N , 14-C ) :   0.5610
B( 13-N , 16-H ) :  -0.1223 B( 13-N , 22-Si) :  -0.1186 B( 14-C , 15-H ) :   1.0641
B( 14-C , 16-H ) :   1.0021 B( 14-C , 17-H ) :   1.0959 B( 18-O , 19-O ) :   0.2142
B( 22-Si, 23-C ) :   0.5741 B( 22-Si, 24-C ) :   0.9459 B( 22-Si, 25-C ) :   0.5176
B( 22-Si, 31-H ) :  -0.1369 B( 23-C , 26-H ) :   1.1572 B( 23-C , 27-H ) :   0.9136
B( 23-C , 28-H ) :   0.9546 B( 24-C , 29-H ) :   0.9816 B( 24-C , 30-H ) :   0.9585
B( 24-C , 31-H ) :   0.9352 B( 25-C , 32-H ) :   1.0166 B( 25-C , 33-H ) :   0.8950
B( 25-C , 34-H ) :   0.9977

MP2 TOTAL ENERGY:    -1001.126942154 Eh
FINAL SINGLE POINT ENERGY     -1001.126942154457

DIPOLE MOMENT
-------------
                                X             Y             Z
Electronic contribution:    -23.58287      -2.70807       2.99382
Nuclear contribution   :     25.80177       4.89915      -3.19336
                        -----------------------------------------
Total Dipole Moment    :      2.21889       2.19108      -0.19954
                        -----------------------------------------
Magnitude (a.u.)       :      3.12476
Magnitude (Debye)      :      7.94252

Rotational constants in cm-1:     0.023010     0.010070     0.009720
Rotational constants in MHz :   689.832193   301.884581   291.396693

                             ****ORCA TERMINATED NORMALLY****
TOTAL RUN TIME: 0 days 7 hours 42 minutes 53 seconds 290 msec
