                         Program Version 4.2.1 -  RELEASE  -
|  1> %pal
|  2>  nprocs 32
|  3> end
|  4> !RI-MP2 aug-cc-pVQZ aug-cc-pVQZ/C TightSCF
|  5> %maxcore 4500
|  6> *xyzfile 1 2  04_63P1.xyz
|  7>
|  8>
|  9>                          ****END OF INPUT****

CARTESIAN COORDINATES (ANGSTROEM)
---------------------------------
  N      1.113871    1.142410   -0.524772
  H      1.767030    1.884833   -0.764083
  C      1.703930    0.082269   -0.080660
  C      1.054064   -1.162909    0.219056
  O      3.021092   -0.038434    0.130341
  N     -0.265168   -1.466709    0.007704
  H      1.699808   -2.002709    0.431554
  C     -1.396030   -0.679311    0.028009
  C     -1.408586    0.583981    0.877591
  O     -2.394410   -0.986790   -0.572870
  N     -1.443112    1.730347   -0.071208
  H     -0.539597    0.703769    1.518846
  H     -2.319851    0.562734    1.472104
  H     -0.454114    1.687234   -0.501840
  H     -1.600445    2.623544    0.395985
  H     -2.171613    1.592832   -0.777159
  H     -0.460586   -2.409397   -0.317597
  H      3.506502    0.772446   -0.063611

 Total Charge           Charge          ....    1
 Multiplicity           Mult            ....    2
 Number of Electrons    NEL             ....   69
 Basis Dimension        Dim             .... 1134

ORBITAL ENERGIES
----------------
                 SPIN UP ORBITALS
  NO   OCC          E(Eh)            E(eV)
   0   1.0000     -20.757001      -564.8267
   1   1.0000     -20.703859      -563.3806
   2   1.0000     -15.845661      -431.1824
   3   1.0000     -15.769376      -429.1065
   4   1.0000     -15.727877      -427.9773
   5   1.0000     -11.529486      -313.7333
   6   1.0000     -11.521039      -313.5034
   7   1.0000     -11.471726      -312.1615
   8   1.0000     -11.455769      -311.7273
   9   1.0000      -1.593980       -43.3744
  10   1.0000      -1.577269       -42.9197
  11   1.0000      -1.474211       -40.1153
  12   1.0000      -1.433093       -38.9965
  13   1.0000      -1.375372       -37.4258
  14   1.0000      -1.189482       -32.3675
  15   1.0000      -1.164454       -31.6864
  16   1.0000      -1.022270       -27.8174
  17   1.0000      -0.967211       -26.3191
  18   1.0000      -0.951877       -25.9019
  19   1.0000      -0.931255       -25.3407
  20   1.0000      -0.905465       -24.6390
  21   1.0000      -0.858484       -23.3605
  22   1.0000      -0.843221       -22.9452
  23   1.0000      -0.831344       -22.6220
  24   1.0000      -0.805706       -21.9244
  25   1.0000      -0.784482       -21.3468
  26   1.0000      -0.773294       -21.0424
  27   1.0000      -0.757156       -20.6033
  28   1.0000      -0.747221       -20.3329
  29   1.0000      -0.724310       -19.7095
  30   1.0000      -0.659793       -17.9539
  31   1.0000      -0.641378       -17.4528
  32   1.0000      -0.622615       -16.9422
  33   1.0000      -0.610007       -16.5991
  34   1.0000      -0.492022       -13.3886
  35   0.0000      -0.095818        -2.6073
  36   0.0000      -0.073349        -1.9959
  37   0.0000      -0.070444        -1.9169
  38   0.0000      -0.062940        -1.7127
  39   0.0000      -0.050696        -1.3795

                 SPIN DOWN ORBITALS
  NO   OCC          E(Eh)            E(eV)
   0   1.0000     -20.757276      -564.8342
   1   1.0000     -20.698319      -563.2299
   2   1.0000     -15.845961      -431.1905
   3   1.0000     -15.768226      -429.0752
   4   1.0000     -15.716293      -427.6621
   5   1.0000     -11.531161      -313.7788
   6   1.0000     -11.527142      -313.6695
   7   1.0000     -11.471600      -312.1581
   8   1.0000     -11.436100      -311.1921
   9   1.0000      -1.594324       -43.3838
  10   1.0000      -1.567872       -42.6640
  11   1.0000      -1.473846       -40.1054
  12   1.0000      -1.416941       -38.5569
  13   1.0000      -1.355022       -36.8720
  14   1.0000      -1.175350       -31.9829
  15   1.0000      -1.132148       -30.8073
  16   1.0000      -1.016753       -27.6672
  17   1.0000      -0.964139       -26.2355
  18   1.0000      -0.951348       -25.8875
  19   1.0000      -0.927868       -25.2486
  20   1.0000      -0.897517       -24.4227
  21   1.0000      -0.850391       -23.1403
  22   1.0000      -0.839726       -22.8501
  23   1.0000      -0.829025       -22.5589
  24   1.0000      -0.792174       -21.5561
  25   1.0000      -0.771300       -20.9881
  26   1.0000      -0.768320       -20.9070
  27   1.0000      -0.753549       -20.5051
  28   1.0000      -0.735776       -20.0215
  29   1.0000      -0.709098       -19.2955
  30   1.0000      -0.631123       -17.1737
  31   1.0000      -0.608855       -16.5678
  32   1.0000      -0.594329       -16.1725
  33   1.0000      -0.560374       -15.2486
  34   0.0000      -0.102234        -2.7819
  35   0.0000      -0.095198        -2.5905
  36   0.0000      -0.072988        -1.9861
  37   0.0000      -0.070256        -1.9118
  38   0.0000      -0.062198        -1.6925

MULLIKEN ATOMIC CHARGES AND SPIN POPULATIONS
--------------------------------------------
   0 N :   -0.734848    0.336293
   1 H :    0.150146   -0.015956
   2 C :    1.014153   -0.234013
   3 C :   -0.146610    0.926622
   4 O :   -0.722508    0.002862
   5 N :   -0.705766   -0.005093
   6 H :    0.461168   -0.063981
   7 C :    1.184224   -0.083506
   8 C :   -0.580289    0.002725
   9 O :   -0.820486    0.134331
  10 N :   -0.123555    0.001279
  11 H :    0.344590   -0.003213
  12 H :    0.396868   -0.002754
  13 H :    0.320902   -0.005203
  14 H :    0.239466    0.001231
  15 H :    0.268409   -0.000001
  16 H :    0.098948    0.010569
  17 H :    0.355188   -0.002192
Sum of atomic charges         :    1.0000000

LOEWDIN ATOMIC CHARGES AND SPIN POPULATIONS
-------------------------------------------
   0 N :    1.068159    0.170273
   1 H :   -0.557865    0.042490
   2 C :   -0.592243    0.095023
   3 C :    0.253746    0.354679
   4 O :    1.305327   -0.007692
   5 N :    0.824615    0.126546
   6 H :   -0.323481    0.110251
   7 C :   -0.775406    0.008907
   8 C :    0.488816   -0.004066
   9 O :    0.778518    0.083771
  10 N :    1.535634   -0.002197
  11 H :   -0.278064    0.003130
  12 H :   -0.247272   -0.001877
  13 H :   -0.634233    0.010360
  14 H :   -0.283858   -0.000298
  15 H :   -0.319805   -0.001120
  16 H :   -0.492820    0.014632
  17 H :   -0.749769   -0.002811

  Mayer bond orders larger than 0.100000
B(  0-N ,  1-H ) :   1.0958 B(  0-N ,  2-C ) :   1.5642 B(  0-N ,  4-O ) :   0.1852
B(  0-N , 13-H ) :   0.1765 B(  2-C ,  3-C ) :   1.1983 B(  2-C ,  4-O ) :   0.5187
B(  3-C ,  4-O ) :   0.2164 B(  3-C ,  5-N ) :   0.8156 B(  3-C ,  6-H ) :   0.8037
B(  4-O , 17-H ) :   0.9045 B(  5-N ,  7-C ) :   0.9762 B(  5-N ,  9-O ) :   0.2637
B(  5-N , 16-H ) :   1.2292 B(  7-C ,  8-C ) :   0.9950 B(  7-C ,  9-O ) :   1.0547
B(  7-C , 16-H ) :  -0.1032 B(  8-C ,  9-O ) :   0.1537 B(  8-C , 10-N ) :   0.9374
B(  8-C , 11-H ) :   0.9010 B(  8-C , 12-H ) :   0.8078 B( 10-N , 13-H ) :   0.7683
B( 10-N , 14-H ) :   0.9680 B( 10-N , 15-H ) :   0.9189

MP2 TOTAL ENERGY:     -471.598540338 Eh
FINAL SINGLE POINT ENERGY      -471.598540337987

DIPOLE MOMENT
-------------
                                X             Y             Z
Electronic contribution:      0.72360      -3.13341      -0.82696
Nuclear contribution   :     -0.56790       5.42099       1.38725
                        -----------------------------------------
Total Dipole Moment    :      0.15570       2.28757       0.56029
                        -----------------------------------------
Magnitude (a.u.)       :      2.36033
Magnitude (Debye)      :      5.99948

Rotational constants in cm-1:     0.091354     0.038436     0.029489
Rotational constants in MHz :  2738.733426  1152.296400   884.056301

                             ****ORCA TERMINATED NORMALLY****
TOTAL RUN TIME: 0 days 1 hours 7 minutes 11 seconds 481 msec
