                         Program Version 4.2.1 -  RELEASE  -
|  1> %pal
|  2>  nprocs 32
|  3> end
|  4> !RI-MP2 aug-cc-pVQZ aug-cc-pVQZ/C TightSCF
|  5> %maxcore 4500
|  6> *xyzfile 1 1  05_24P1.xyz
|  7>
|  8>
|  9>                          ****END OF INPUT****

CARTESIAN COORDINATES (ANGSTROEM)
---------------------------------
  C     -0.950864    1.457786    0.112162
  N     -2.315671    1.109776    0.057743
  C     -2.761730   -0.170606   -0.062195
  N     -1.957311   -1.215284   -0.102907
  C     -0.644932   -0.971245   -0.018634
  C     -0.116662    0.304840    0.114839
  N      1.264049    0.460516    0.027823
  C      2.103777   -0.506369    0.060757
  C      1.594136   -1.891037    0.325221
  N      0.215529   -2.010069   -0.122243
  H      1.700698   -2.090707    1.403481
  H      2.213572   -2.619570   -0.199929
  C      3.564248   -0.193196   -0.100399
  N      3.759802    1.235383   -0.229131
  H      3.926810   -0.741720   -0.976311
  H      4.097834   -0.619683    0.756748
  O     -0.589165    2.612953    0.139810
  H     -2.957154    1.893182    0.060827
  N     -4.079814   -0.375684   -0.138990
  H     -4.755019    0.369234   -0.101082
  H     -4.404278   -1.325934   -0.223974
  H     -0.192602   -2.928921   -0.217830
  H      4.274855    1.641941    0.539904
  H      4.203172    1.503545   -1.096818
  H      1.671509    1.401512   -0.100076

 Total Charge           Charge          ....    1
 Multiplicity           Mult            ....    1
 Number of Electrons    NEL             ....  102
 Basis Dimension        Dim             .... 1626

ORBITAL ENERGIES
----------------

  NO   OCC          E(Eh)            E(eV)
   0   2.0000     -20.644660      -561.7697
   1   2.0000     -15.810164      -430.2164
   2   2.0000     -15.750506      -428.5931
   3   2.0000     -15.738954      -428.2787
   4   2.0000     -15.727956      -427.9795
   5   2.0000     -15.699205      -427.1971
   6   2.0000     -15.680952      -426.7004
   7   2.0000     -11.526619      -313.6553
   8   2.0000     -11.490526      -312.6731
   9   2.0000     -11.490361      -312.6686
  10   2.0000     -11.485345      -312.5321
  11   2.0000     -11.450598      -311.5866
  12   2.0000     -11.435313      -311.1707
  13   2.0000     -11.388928      -309.9085
  14   2.0000      -1.532836       -41.7106
  15   2.0000      -1.497709       -40.7547
  16   2.0000      -1.478604       -40.2349
  17   2.0000      -1.418198       -38.5911
  18   2.0000      -1.350934       -36.7608
  19   2.0000      -1.344606       -36.5886
  20   2.0000      -1.332760       -36.2663
  21   2.0000      -1.224374       -33.3169
  22   2.0000      -1.143500       -31.1162
  23   2.0000      -1.107351       -30.1326
  24   2.0000      -1.043858       -28.4048
  25   2.0000      -1.025241       -27.8982
  26   2.0000      -0.970623       -26.4120
  27   2.0000      -0.939427       -25.5631
  28   2.0000      -0.890817       -24.2404
  29   2.0000      -0.883741       -24.0478
  30   2.0000      -0.854230       -23.2448
  31   2.0000      -0.848653       -23.0930
  32   2.0000      -0.831279       -22.6203
  33   2.0000      -0.821667       -22.3587
  34   2.0000      -0.809278       -22.0216
  35   2.0000      -0.793143       -21.5825
  36   2.0000      -0.777919       -21.1683
  37   2.0000      -0.768553       -20.9134
  38   2.0000      -0.750005       -20.4087
  39   2.0000      -0.735681       -20.0189
  40   2.0000      -0.722129       -19.6501
  41   2.0000      -0.704747       -19.1771
  42   2.0000      -0.692396       -18.8411
  43   2.0000      -0.671265       -18.2661
  44   2.0000      -0.642125       -17.4731
  45   2.0000      -0.590633       -16.0719
  46   2.0000      -0.570465       -15.5231
  47   2.0000      -0.563700       -15.3391
  48   2.0000      -0.560534       -15.2529
  49   2.0000      -0.526066       -14.3150
  50   2.0000      -0.443193       -12.0599
  51   0.0000      -0.074482        -2.0268
  52   0.0000      -0.064118        -1.7447
  53   0.0000      -0.060805        -1.6546
  54   0.0000      -0.057532        -1.5655
  55   0.0000      -0.054780        -1.4906

MULLIKEN ATOMIC CHARGES
-----------------------
   0 C :    1.513719
   1 N :   -0.628804
   2 C :    0.885773
   3 N :   -0.732699
   4 C :    1.225559
   5 C :   -0.641550
   6 N :   -0.451796
   7 C :    0.379085
   8 C :   -0.177020
   9 N :   -0.677175
  10 H :    0.329751
  11 H :    0.319782
  12 C :   -0.164131
  13 N :   -0.690666
  14 H :    0.296957
  15 H :    0.289752
  16 O :   -0.903157
  17 H :    0.067037
  18 N :   -0.806116
  19 H :    0.276004
  20 H :    0.266425
  21 H :    0.122724
  22 H :    0.278546
  23 H :    0.274241
  24 H :    0.347760
Sum of atomic charges:    1.0000000

LOEWDIN ATOMIC CHARGES
----------------------
   0 C :   -0.843853
   1 N :    0.849564
   2 C :   -0.586645
   3 N :    0.642313
   4 C :   -0.499938
   5 C :   -0.235184
   6 N :    0.872835
   7 C :   -0.050723
   8 C :    0.463768
   9 N :    0.898635
  10 H :   -0.234724
  11 H :   -0.263484
  12 C :    0.442452
  13 N :    1.308083
  14 H :   -0.258045
  15 H :   -0.254379
  16 O :    0.722016
  17 H :   -0.475398
  18 N :    1.295585
  19 H :   -0.450286
  20 H :   -0.466635
  21 H :   -0.456100
  22 H :   -0.452069
  23 H :   -0.453276
  24 H :   -0.514512

  Mayer bond orders larger than 0.100000
B(  0-C ,  1-N ) :   0.9274 B(  0-C ,  4-C ) :  -0.2482 B(  0-C ,  5-C ) :   1.5572
B(  0-C , 16-O ) :   0.4553 B(  0-C , 17-H ) :  -0.1454 B(  1-N ,  2-C ) :   1.0810
B(  1-N ,  5-C ) :  -0.1508 B(  1-N , 16-O ) :   0.2772 B(  1-N , 17-H ) :   1.2618
B(  2-C ,  3-N ) :   1.5817 B(  2-C , 18-N ) :   1.0488 B(  3-N ,  4-C ) :   0.7136
B(  3-N ,  5-C ) :   0.1201 B(  4-C ,  5-C ) :   1.3890 B(  4-C ,  6-N ) :   0.1440
B(  4-C ,  9-N ) :   0.7380 B(  4-C , 21-H ) :  -0.1215 B(  5-C ,  6-N ) :   0.7201
B(  5-C ,  7-C ) :  -0.1442 B(  5-C ,  9-N ) :   0.1878 B(  5-C , 16-O ) :   0.7356
B(  6-N ,  7-C ) :   1.0676 B(  6-N , 24-H ) :   1.0153 B(  7-C ,  8-C ) :   0.8835
B(  7-C ,  9-N ) :  -0.1312 B(  7-C , 12-C ) :   0.6936 B(  8-C ,  9-N ) :   0.9080
B(  8-C , 10-H ) :   0.8282 B(  8-C , 11-H ) :   0.8890 B(  9-N , 21-H ) :   1.1393
B( 12-C , 13-N ) :   1.1596 B( 12-C , 14-H ) :   0.9045 B( 12-C , 15-H ) :   0.9142
B( 13-N , 22-H ) :   0.9477 B( 13-N , 23-H ) :   0.9463 B( 13-N , 24-H ) :  -0.1134
B( 18-N , 19-H ) :   0.9850 B( 18-N , 20-H ) :   0.9813

MP2 TOTAL ENERGY:     -675.898106308 Eh
FINAL SINGLE POINT ENERGY      -675.898106308185

DIPOLE MOMENT
-------------
                                X             Y             Z
Electronic contribution:     -8.52228       1.83164       0.11122
Nuclear contribution   :      9.66369      -3.44914      -0.15443
                        -----------------------------------------
Total Dipole Moment    :      1.14141      -1.61750      -0.04321
                        -----------------------------------------
Magnitude (a.u.)       :      1.98015
Magnitude (Debye)      :      5.03313

Rotational constants in cm-1:     0.047225     0.015737     0.011950
Rotational constants in MHz :  1415.778813   471.789039   358.237354

                             ****ORCA TERMINATED NORMALLY****
TOTAL RUN TIME: 0 days 1 hours 59 minutes 51 seconds 966 msec
