                         Program Version 4.2.1 -  RELEASE  -
|  1> %pal
|  2>  nprocs 32
|  3> end
|  4> !RI-MP2 aug-cc-pVQZ aug-cc-pVQZ/C TightSCF
|  5> %maxcore 4500
|  6> *xyzfile 0 2  01_22R.xyz
|  7>
|  8>
|  9>                          ****END OF INPUT****

CARTESIAN COORDINATES (ANGSTROEM)
---------------------------------
  C     -0.496463   -0.954416    0.059733
  C      0.745777   -1.436653   -0.616916
  C      2.009470   -0.677536   -0.151529
  H      0.647801   -1.334203   -1.700900
  H      0.893652   -2.503021   -0.409898
  C      1.932314    0.794558   -0.413261
  H      2.874148   -1.097539   -0.677542
  H      2.172223   -0.851898    0.915854
  S     -1.569833    0.074720   -0.842651
  C     -1.999061    1.383377    0.343564
  H     -2.666140    2.066865   -0.180453
  H     -1.101831    1.918116    0.653494
  H     -2.519333    0.982949    1.211942
  C     -0.689235   -1.179533    1.520718
  H     -1.743021   -1.320077    1.775099
  H     -0.318069   -0.343559    2.129809
  H     -0.145561   -2.072490    1.840931
  C      2.018108    1.736345    0.515421
  H      1.955806    2.788774    0.265601
  H      2.162808    1.486644    1.562000
  H      1.779379    1.087069   -1.449904

 Total Charge           Charge          ....    0
 Multiplicity           Mult            ....    2
 Number of Electrons    NEL             ....   71
 Basis Dimension        Dim             .... 1242

ORBITAL ENERGIES
----------------
                 SPIN UP ORBITALS
  NO   OCC          E(Eh)            E(eV)
   0   1.0000     -91.942332     -2501.8780
   1   1.0000     -11.249652      -306.1186
   2   1.0000     -11.246518      -306.0333
   3   1.0000     -11.230629      -305.6009
   4   1.0000     -11.229022      -305.5572
   5   1.0000     -11.227339      -305.5114
   6   1.0000     -11.222521      -305.3803
   7   1.0000     -11.216587      -305.2189
   8   1.0000      -8.944094      -243.3812
   9   1.0000      -6.625732      -180.2953
  10   1.0000      -6.624815      -180.2704
  11   1.0000      -6.623882      -180.2450
  12   1.0000      -1.123361       -30.5682
  13   1.0000      -1.068960       -29.0879
  14   1.0000      -1.011762       -27.5314
  15   1.0000      -0.972849       -26.4726
  16   1.0000      -0.905651       -24.6440
  17   1.0000      -0.853414       -23.2226
  18   1.0000      -0.759998       -20.6806
  19   1.0000      -0.727083       -19.7849
  20   1.0000      -0.640827       -17.4378
  21   1.0000      -0.631290       -17.1783
  22   1.0000      -0.620067       -16.8729
  23   1.0000      -0.600351       -16.3364
  24   1.0000      -0.583052       -15.8657
  25   1.0000      -0.566571       -15.4172
  26   1.0000      -0.558364       -15.1938
  27   1.0000      -0.553808       -15.0699
  28   1.0000      -0.526850       -14.3363
  29   1.0000      -0.495853       -13.4928
  30   1.0000      -0.485902       -13.2221
  31   1.0000      -0.475381       -12.9358
  32   1.0000      -0.439116       -11.9490
  33   1.0000      -0.387325       -10.5397
  34   1.0000      -0.363615        -9.8945
  35   1.0000      -0.283175        -7.7056
  36   0.0000       0.025300         0.6884
  37   0.0000       0.028365         0.7718
  38   0.0000       0.030757         0.8369
  39   0.0000       0.034456         0.9376
  40   0.0000       0.043656         1.1879

                 SPIN DOWN ORBITALS
  NO   OCC          E(Eh)            E(eV)
   0   1.0000     -91.942489     -2501.8823
   1   1.0000     -11.245299      -306.0001
   2   1.0000     -11.230563      -305.5992
   3   1.0000     -11.230392      -305.5945
   4   1.0000     -11.226651      -305.4927
   5   1.0000     -11.225799      -305.4695
   6   1.0000     -11.224580      -305.4364
   7   1.0000     -11.216718      -305.2224
   8   1.0000      -8.944180      -243.3835
   9   1.0000      -6.626957      -180.3287
  10   1.0000      -6.625552      -180.2904
  11   1.0000      -6.622774      -180.2148
  12   1.0000      -1.099988       -29.9322
  13   1.0000      -1.057340       -28.7717
  14   1.0000      -1.006393       -27.3853
  15   1.0000      -0.968013       -26.3410
  16   1.0000      -0.895166       -24.3587
  17   1.0000      -0.851933       -23.1823
  18   1.0000      -0.757539       -20.6137
  19   1.0000      -0.696050       -18.9405
  20   1.0000      -0.635660       -17.2972
  21   1.0000      -0.624127       -16.9834
  22   1.0000      -0.604597       -16.4519
  23   1.0000      -0.587239       -15.9796
  24   1.0000      -0.573729       -15.6120
  25   1.0000      -0.559264       -15.2183
  26   1.0000      -0.553428       -15.0595
  27   1.0000      -0.546065       -14.8592
  28   1.0000      -0.520615       -14.1667
  29   1.0000      -0.490999       -13.3608
  30   1.0000      -0.480238       -13.0679
  31   1.0000      -0.468805       -12.7568
  32   1.0000      -0.425872       -11.5886
  33   1.0000      -0.364412        -9.9161
  34   1.0000      -0.342139        -9.3101
  35   0.0000       0.025178         0.6851
  36   0.0000       0.028418         0.7733
  37   0.0000       0.030787         0.8378
  38   0.0000       0.034404         0.9362
  39   0.0000       0.043559         1.1853

MULLIKEN ATOMIC CHARGES AND SPIN POPULATIONS
--------------------------------------------
   0 C :    0.106099    1.119095
   1 C :   -0.402376   -0.185046
   2 C :   -0.332535    0.060868
   3 H :    0.255053    0.009724
   4 H :    0.295426    0.031893
   5 C :   -0.405811    0.013229
   6 H :    0.375621    0.006142
   7 H :    0.198638   -0.010709
   8 S :    0.014034   -0.017581
   9 C :   -1.064996    0.036944
  10 H :    0.383984   -0.002595
  11 H :    0.339436    0.007702
  12 H :    0.297441   -0.003280
  13 C :   -0.958191   -0.175199
  14 H :    0.288771    0.031864
  15 H :    0.211544    0.070611
  16 H :    0.277940    0.014618
  17 C :   -0.806776   -0.009038
  18 H :    0.346826    0.000374
  19 H :    0.295914   -0.000060
  20 H :    0.283959    0.000443
Sum of atomic charges         :    0.0000000

LOEWDIN ATOMIC CHARGES AND SPIN POPULATIONS
-------------------------------------------
   0 C :   -0.447658    0.458369
   1 C :    0.386995    0.110399
   2 C :    0.464631    0.027871
   3 H :   -0.326940    0.005866
   4 H :   -0.286280    0.015400
   5 C :    0.330247    0.008855
   6 H :   -0.271114    0.007256
   7 H :   -0.307578    0.005335
   8 S :    1.345011    0.147985
   9 C :    0.562845    0.028038
  10 H :   -0.384805    0.006198
  11 H :   -0.373899    0.007913
  12 H :   -0.374180    0.004207
  13 C :    0.804861    0.120757
  14 H :   -0.310140    0.013818
  15 H :   -0.291844    0.024180
  16 H :   -0.297386    0.010228
  17 C :    0.787943   -0.001676
  18 H :   -0.349460   -0.000905
  19 H :   -0.346712   -0.000818
  20 H :   -0.314537    0.000723

  Mayer bond orders larger than 0.100000
B(  0-C ,  1-C ) :   0.6780 B(  0-C ,  8-S ) :   0.8005 B(  0-C , 13-C ) :   0.7161
B(  0-C , 14-H ) :  -0.1230 B(  1-C ,  2-C ) :   0.8912 B(  1-C ,  3-H ) :   0.9454
B(  1-C ,  4-H ) :   0.9543 B(  1-C ,  5-C ) :  -0.1105 B(  2-C ,  5-C ) :   0.8064
B(  2-C ,  6-H ) :   0.8528 B(  2-C ,  7-H ) :   0.9364 B(  2-C , 17-C ) :  -0.1078
B(  5-C , 17-C ) :   1.7470 B(  5-C , 20-H ) :   0.9607 B(  8-S ,  9-C ) :   1.0322
B(  9-C , 10-H ) :   0.8798 B(  9-C , 11-H ) :   0.8414 B(  9-C , 12-H ) :   0.9162
B( 13-C , 14-H ) :   0.9978 B( 13-C , 15-H ) :   0.9666 B( 13-C , 16-H ) :   0.9684
B( 17-C , 18-H ) :   0.9818 B( 17-C , 19-H ) :   0.9147

MP2 TOTAL ENERGY:     -671.692479885 Eh
FINAL SINGLE POINT ENERGY      -671.692479885447

DIPOLE MOMENT
-------------
                                X             Y             Z
Electronic contribution:     -3.95931      -0.79523      -5.60063
Nuclear contribution   :      4.16854       0.83089       6.15127
                        -----------------------------------------
Total Dipole Moment    :      0.20923       0.03565       0.55064
                        -----------------------------------------
Magnitude (a.u.)       :      0.59013
Magnitude (Debye)      :      1.50000

Rotational constants in cm-1:     0.068797     0.040852     0.034391
Rotational constants in MHz :  2062.480776  1224.717680  1031.023567

                             ****ORCA TERMINATED NORMALLY****
TOTAL RUN TIME: 0 days 1 hours 23 minutes 28 seconds 755 msec
