                         Program Version 4.2.1 -  RELEASE  -
|  1> %pal
|  2>  nprocs 32
|  3> end
|  4> !RI-MP2 aug-cc-pVQZ aug-cc-pVQZ/C TightSCF
|  5> %maxcore 4500
|  6> *xyzfile 0 1  10_51P.xyz
|  7>
|  8>
|  9>                          ****END OF INPUT****

CARTESIAN COORDINATES (ANGSTROEM)
---------------------------------
  C      0.684251    0.866276    1.255497
  N      0.016831   -0.280603    0.620693
  C      0.312434   -1.593860    1.226838
  C      1.178174   -2.571041    0.382684
  C      2.446052   -1.856658    0.061312
  C      2.305009    1.299624   -1.203413
  C      2.049947    2.477009   -0.326121
  C      0.726800    2.176941    0.428538
  C      2.525390   -1.057700   -1.003122
  C      3.074748    0.278562   -0.825033
  C     -1.319598   -0.115909    0.211863
  C     -2.120396    0.949503    0.634360
  C     -3.436420    1.062777    0.205846
  C     -3.993741    0.116043   -0.638590
  C     -3.209964   -0.953369   -1.054566
  C     -1.893252   -1.064815   -0.643859
  H      0.224678    1.075839    2.233657
  H      1.706503    0.550123    1.463716
  H      0.831707   -1.418189    2.174640
  H     -0.629440   -2.087104    1.479660
  H      1.322840   -3.479246    0.976029
  H      0.645781   -2.848296   -0.529477
  H      1.923539    3.413669   -0.876829
  H      2.869097    2.615701    0.385342
  H      0.516139    3.015819    1.098511
  H     -0.080994    2.168207   -0.303698
  H     -1.726057    1.693974    1.311360
  H     -4.032452    1.900068    0.550033
  H     -5.020742    0.207903   -0.968728
  H     -3.623660   -1.703290   -1.718673
  H     -1.289483   -1.888607   -1.000814
  H      1.814828   -1.187504   -1.815005
  H      3.111999   -1.669241    0.902465
  H      3.805074    0.417085   -0.031159
  H      1.536221    1.107014   -1.949279

 Total Charge           Charge          ....    0
 Multiplicity           Mult            ....    1
 Number of Electrons    NEL             ....  116
 Basis Dimension        Dim             .... 2154

ORBITAL ENERGIES
----------------

  NO   OCC          E(Eh)            E(eV)
   0   2.0000     -15.557825      -423.3499
   1   2.0000     -11.269397      -306.6559
   2   2.0000     -11.259960      -306.3991
   3   2.0000     -11.257473      -306.3314
   4   2.0000     -11.231623      -305.6280
   5   2.0000     -11.231478      -305.6241
   6   2.0000     -11.229047      -305.5579
   7   2.0000     -11.228833      -305.5521
   8   2.0000     -11.228643      -305.5469
   9   2.0000     -11.227470      -305.5150
  10   2.0000     -11.226309      -305.4834
  11   2.0000     -11.221952      -305.3648
  12   2.0000     -11.221533      -305.3534
  13   2.0000     -11.221313      -305.3474
  14   2.0000     -11.219908      -305.3092
  15   2.0000     -11.217973      -305.2566
  16   2.0000      -1.248575       -33.9755
  17   2.0000      -1.140411       -31.0322
  18   2.0000      -1.115282       -30.3484
  19   2.0000      -1.085825       -29.5468
  20   2.0000      -1.026391       -27.9295
  21   2.0000      -1.014872       -27.6161
  22   2.0000      -0.990434       -26.9511
  23   2.0000      -0.985278       -26.8108
  24   2.0000      -0.897900       -24.4331
  25   2.0000      -0.856769       -23.3139
  26   2.0000      -0.832199       -22.6453
  27   2.0000      -0.823438       -22.4069
  28   2.0000      -0.778010       -21.1707
  29   2.0000      -0.757722       -20.6187
  30   2.0000      -0.751182       -20.4407
  31   2.0000      -0.700855       -19.0712
  32   2.0000      -0.665254       -18.1025
  33   2.0000      -0.653672       -17.7873
  34   2.0000      -0.640357       -17.4250
  35   2.0000      -0.636785       -17.3278
  36   2.0000      -0.629425       -17.1275
  37   2.0000      -0.605141       -16.4667
  38   2.0000      -0.597257       -16.2522
  39   2.0000      -0.581036       -15.8108
  40   2.0000      -0.577413       -15.7122
  41   2.0000      -0.562551       -15.3078
  42   2.0000      -0.546660       -14.8754
  43   2.0000      -0.540238       -14.7006
  44   2.0000      -0.527975       -14.3669
  45   2.0000      -0.521121       -14.1804
  46   2.0000      -0.512451       -13.9445
  47   2.0000      -0.501848       -13.6560
  48   2.0000      -0.499900       -13.6030
  49   2.0000      -0.482825       -13.1383
  50   2.0000      -0.480299       -13.0696
  51   2.0000      -0.476466       -12.9653
  52   2.0000      -0.462976       -12.5982
  53   2.0000      -0.413347       -11.2478
  54   2.0000      -0.395013       -10.7488
  55   2.0000      -0.336799        -9.1648
  56   2.0000      -0.294874        -8.0239
  57   2.0000      -0.287626        -7.8267
  58   0.0000       0.021435         0.5833
  59   0.0000       0.025563         0.6956
  60   0.0000       0.025912         0.7051
  61   0.0000       0.030726         0.8361
  62   0.0000       0.035790         0.9739

MULLIKEN ATOMIC CHARGES
-----------------------
   0 C :   -0.528271
   1 N :    0.921952
   2 C :   -0.695298
   3 C :   -0.536158
   4 C :   -0.281468
   5 C :   -0.293886
   6 C :   -0.557455
   7 C :   -0.438055
   8 C :   -0.308528
   9 C :   -0.434976
  10 C :    1.069009
  11 C :   -0.571348
  12 C :   -0.415038
  13 C :   -0.483166
  14 C :   -0.523048
  15 C :   -0.686460
  16 H :    0.238532
  17 H :    0.306348
  18 H :    0.164901
  19 H :    0.304858
  20 H :    0.244431
  21 H :    0.315007
  22 H :    0.260602
  23 H :    0.179151
  24 H :    0.251277
  25 H :    0.313160
  26 H :    0.188668
  27 H :    0.173909
  28 H :    0.316895
  29 H :    0.144215
  30 H :    0.256338
  31 H :    0.396403
  32 H :    0.125354
  33 H :    0.374467
  34 H :    0.207678
Sum of atomic charges:    0.0000000

LOEWDIN ATOMIC CHARGES
----------------------
   0 C :    0.371616
   1 N :    0.513684
   2 C :    0.383474
   3 C :    0.525659
   4 C :    0.365914
   5 C :    0.367569
   6 C :    0.529772
   7 C :    0.551038
   8 C :    0.346756
   9 C :    0.353347
  10 C :   -0.246446
  11 C :    0.343941
  12 C :    0.350795
  13 C :    0.336886
  14 C :    0.347223
  15 C :    0.344494
  16 H :   -0.259062
  17 H :   -0.329366
  18 H :   -0.284894
  19 H :   -0.283717
  20 H :   -0.267890
  21 H :   -0.308786
  22 H :   -0.269098
  23 H :   -0.285443
  24 H :   -0.255522
  25 H :   -0.316712
  26 H :   -0.355819
  27 H :   -0.316098
  28 H :   -0.327819
  29 H :   -0.317474
  30 H :   -0.339733
  31 H :   -0.324709
  32 H :   -0.311299
  33 H :   -0.322805
  34 H :   -0.309476

  Mayer bond orders larger than 0.100000
B(  0-C ,  1-N ) :   0.7890 B(  0-C ,  7-C ) :   0.7599 B(  0-C , 16-H ) :   1.0624
B(  0-C , 17-H ) :   0.9202 B(  0-C , 24-H ) :  -0.1212 B(  1-N ,  2-C ) :   0.2754
B(  1-N ,  3-C ) :  -0.2302 B(  1-N ,  8-C ) :  -0.1197 B(  1-N , 10-C ) :   0.7037
B(  1-N , 11-C ) :  -0.2938 B(  1-N , 15-C ) :  -0.2994 B(  1-N , 17-H ) :  -0.1245
B(  1-N , 18-H ) :  -0.1335 B(  1-N , 19-H ) :  -0.1700 B(  2-C ,  3-C ) :   0.8087
B(  2-C ,  4-C ) :  -0.1317 B(  2-C , 18-H ) :   1.1104 B(  2-C , 19-H ) :   0.9982
B(  3-C ,  4-C ) :   0.8844 B(  3-C , 20-H ) :   1.0454 B(  3-C , 21-H ) :   0.9443
B(  4-C ,  8-C ) :   1.6564 B(  4-C ,  9-C ) :  -0.3377 B(  4-C , 32-H ) :   1.1692
B(  5-C ,  6-C ) :   0.8024 B(  5-C ,  8-C ) :  -0.3963 B(  5-C ,  9-C ) :   1.7385
B(  5-C , 22-H ) :  -0.1479 B(  5-C , 34-H ) :   1.0723 B(  6-C ,  7-C ) :   0.7117
B(  6-C , 22-H ) :   1.0242 B(  6-C , 23-H ) :   1.0906 B(  7-C , 24-H ) :   1.0308
B(  7-C , 25-H ) :   0.9005 B(  8-C ,  9-C ) :   0.9370 B(  8-C , 31-H ) :   0.9212
B(  9-C , 33-H ) :   0.9395 B( 10-C , 11-C ) :   0.9530 B( 10-C , 12-C ) :  -0.4900
B( 10-C , 13-C ) :  -0.1902 B( 10-C , 14-C ) :  -0.6618 B( 10-C , 15-C ) :   0.9636
B( 11-C , 12-C ) :   1.2723 B( 11-C , 14-C ) :   0.1145 B( 11-C , 26-H ) :   1.0175
B( 11-C , 27-H ) :  -0.1787 B( 12-C , 13-C ) :   1.2168 B( 12-C , 27-H ) :   1.2468
B( 13-C , 14-C ) :   1.2547 B( 13-C , 27-H ) :  -0.1161 B( 13-C , 28-H ) :   1.0420
B( 14-C , 15-C ) :   1.4406 B( 14-C , 29-H ) :   1.2523 B( 15-C , 29-H ) :  -0.1733
B( 15-C , 30-H ) :   0.9230

MP2 TOTAL ENERGY:     -636.533534925 Eh
FINAL SINGLE POINT ENERGY      -636.533534924680

DIPOLE MOMENT
-------------
                                X             Y             Z
Electronic contribution:     -4.19965      -1.72431      -2.82016
Nuclear contribution   :      3.98866       1.92227       3.45732
                        -----------------------------------------
Total Dipole Moment    :     -0.21099       0.19796       0.63716
                        -----------------------------------------
Magnitude (a.u.)       :      0.69978
Magnitude (Debye)      :      1.77869

Rotational constants in cm-1:     0.027985     0.013633     0.010910
Rotational constants in MHz :   838.965541   408.706663   327.078353

                             ****ORCA TERMINATED NORMALLY****
TOTAL RUN TIME: 0 days 5 hours 29 minutes 56 seconds 151 msec
