                         Program Version 4.2.1 -  RELEASE  -
|  1> %pal
|  2>  nprocs 32
|  3> end
|  4> !RI-MP2 aug-cc-pVQZ aug-cc-pVQZ/C TightSCF
|  5> %maxcore 4500
|  6> *xyzfile 0 1  07_4P2.xyz
|  7>
|  8>
|  9>                          ****END OF INPUT****

CARTESIAN COORDINATES (ANGSTROEM)
---------------------------------
  C      1.284279   -0.610143   -0.001810
  C      0.000000    0.183621    0.000002
  O     -0.000000    1.390425   -0.000000
  C     -1.284279   -0.610143    0.001810
  H      1.283155   -1.342212   -0.813057
  H      2.135512    0.059513   -0.104991
  H      1.371950   -1.169002    0.934025
  H     -2.135511    0.059510    0.105014
  H     -1.283147   -1.342232    0.813040
  H     -1.371958   -1.168980   -0.934038

 Total Charge           Charge          ....    0
 Multiplicity           Mult            ....    1
 Number of Electrons    NEL             ....   32
 Basis Dimension        Dim             ....  596

ORBITAL ENERGIES
----------------

  NO   OCC          E(Eh)            E(eV)
   0   2.0000     -20.542235      -558.9826
   1   2.0000     -11.329948      -308.3036
   2   2.0000     -11.234085      -305.6950
   3   2.0000     -11.234063      -305.6944
   4   2.0000      -1.388736       -37.7894
   5   2.0000      -1.042812       -28.3764
   6   2.0000      -0.968195       -26.3459
   7   2.0000      -0.741698       -20.1826
   8   2.0000      -0.646965       -17.6048
   9   2.0000      -0.637907       -17.3583
  10   2.0000      -0.624712       -16.9993
  11   2.0000      -0.563141       -15.3239
  12   2.0000      -0.560471       -15.2512
  13   2.0000      -0.537981       -14.6392
  14   2.0000      -0.490235       -13.3400
  15   2.0000      -0.413967       -11.2646
  16   0.0000       0.022757         0.6192
  17   0.0000       0.032498         0.8843
  18   0.0000       0.035591         0.9685
  19   0.0000       0.044446         1.2094
  20   0.0000       0.055632         1.5138

MULLIKEN ATOMIC CHARGES
-----------------------
   0 C :   -0.800992
   1 C :    0.751007
   2 O :   -0.725710
   3 C :   -0.800990
   4 H :    0.244826
   5 H :    0.284386
   6 H :    0.259131
   7 H :    0.284385
   8 H :    0.244824
   9 H :    0.259133
Sum of atomic charges:    0.0000000

LOEWDIN ATOMIC CHARGES
----------------------
   0 C :    0.878773
   1 C :   -0.661259
   2 O :    0.725134
   3 C :    0.878773
   4 H :   -0.296943
   5 H :   -0.319064
   6 H :   -0.294704
   7 H :   -0.319064
   8 H :   -0.296942
   9 H :   -0.294703

  Mayer bond orders larger than 0.100000
B(  0-C ,  1-C ) :   0.9073 B(  0-C ,  2-O ) :   0.1010 B(  0-C ,  4-H ) :   0.9496
B(  0-C ,  5-H ) :   0.9581 B(  0-C ,  6-H ) :   0.9138 B(  1-C ,  2-O ) :   1.3730
B(  1-C ,  3-C ) :   0.9073 B(  2-O ,  3-C ) :   0.1010 B(  3-C ,  7-H ) :   0.9581
B(  3-C ,  8-H ) :   0.9496 B(  3-C ,  9-H ) :   0.9138

MP2 TOTAL ENERGY:     -192.845059896 Eh
FINAL SINGLE POINT ENERGY      -192.845059896353

DIPOLE MOMENT
-------------
                                X             Y             Z
Electronic contribution:     -0.00000       3.72102       0.00001
Nuclear contribution   :      0.00000      -5.05112      -0.00001
                        -----------------------------------------
Total Dipole Moment    :     -0.00000      -1.33010      -0.00000
                        -----------------------------------------
Magnitude (a.u.)       :      1.33010
Magnitude (Debye)      :      3.38086

Rotational constants in cm-1:     0.341380     0.285516     0.164954
Rotational constants in MHz : 10234.317286  8559.557944  4945.194763

                             ****ORCA TERMINATED NORMALLY****
TOTAL RUN TIME: 0 days 0 hours 4 minutes 29 seconds 404 msec
