                         Program Version 4.2.1 -  RELEASE  -
|  1> %pal
|  2>  nprocs 32
|  3> end
|  4> !RI-MP2 aug-cc-pVQZ aug-cc-pVQZ/C TightSCF
|  5> %maxcore 4500
|  6> *xyzfile 1 1  05_38TS.xyz
|  7>
|  8>
|  9>                          ****END OF INPUT****

CARTESIAN COORDINATES (ANGSTROEM)
---------------------------------
  C      0.935413   -0.438753   -0.966781
  C      1.371574    0.087307    1.590542
  C      2.869076    0.058895    1.267172
  C      3.236928   -0.832556    0.083775
  C      2.456765   -0.385107   -1.149664
  H      3.206536    1.070332    1.040189
  H      3.398203   -0.270971    2.163559
  H      2.986440   -1.870370    0.315353
  H      2.759420    0.633589   -1.392754
  H      2.711928   -1.016896   -2.002525
  N      0.603194    0.231986    0.321968
  O     -0.539869    0.776931    0.412814
  C      0.259467    0.339182   -2.093249
  H      0.611368   -0.057429   -3.045959
  H     -0.824790    0.239856   -2.063392
  H      0.516139    1.397699   -2.046260
  C      0.418274   -1.886887   -0.967628
  H      0.921325   -2.520535   -0.240281
  H      0.595571   -2.309691   -1.957445
  H     -0.652955   -1.923112   -0.777520
  C      1.074366    1.301138    2.469507
  H      0.049650    1.299203    2.839526
  H      1.744291    1.277407    3.329457
  H      1.250544    2.228764    1.924572
  C      0.910825   -1.191017    2.310144
  H      1.232526   -2.099602    1.805577
  H     -0.176283   -1.218394    2.408409
  H      1.331181   -1.195408    3.316514
  C     -2.781130   -0.158091    0.948389
  H     -2.728499   -0.171154    2.041629
  H     -1.458017    0.060164    0.724598
  C     -3.000123   -1.433077    0.280027
  C     -3.443461   -1.484377   -1.045824
  C     -2.722031   -2.617221    0.971382
  C     -3.613765   -2.709615   -1.662398
  H     -3.663045   -0.563571   -1.570093
  C     -2.894419   -3.839396    0.346226
  H     -2.387904   -2.577397    2.002157
  C     -3.337812   -3.885728   -0.970204
  H     -3.967780   -2.754532   -2.684453
  H     -2.693139   -4.756513    0.884759
  O     -3.327865    0.917513    0.401819
  C     -3.358896    2.133954    1.195192
  H     -2.420611    2.204446    1.751167
  H     -4.191918    2.038954    1.895434
  H     -3.476333   -4.842497   -1.458176
  C     -3.535394    3.307100    0.263135
  H     -3.686330    4.194831    0.885674
  H     -4.458726    3.169450   -0.307491
  C     -2.355399    3.526914   -0.679105
  H     -1.441480    3.648198   -0.087139
  H     -2.208370    2.631835   -1.289013
  C     -2.552336    4.739582   -1.580169
  H     -2.670338    5.653881   -0.993756
  H     -1.699405    4.881095   -2.245725
  H     -3.443655    4.627980   -2.202310
  N      4.674113   -0.830782   -0.158231
  C      5.388586    0.286252   -0.487444
  C      6.866754    0.084574   -0.699889
  H      7.407315    0.725215   -0.002643
  H      7.193289   -0.946799   -0.566397
  H      7.119574    0.413558   -1.708132
  O      4.861015    1.377505   -0.601123
  H      5.167309   -1.704045   -0.080154

 Total Charge           Charge          ....    1
 Multiplicity           Mult            ....    1
 Number of Electrons    NEL             ....  206
 Basis Dimension        Dim             .... 3862

ORBITAL ENERGIES
----------------

  NO   OCC          E(Eh)            E(eV)
   0   2.0000     -20.804534      -566.1202
   1   2.0000     -20.729038      -564.0658
   2   2.0000     -20.596812      -560.4678
   3   2.0000     -15.798324      -429.8943
   4   2.0000     -15.674606      -426.5277
   5   2.0000     -11.483934      -312.4937
   6   2.0000     -11.433836      -311.1305
   7   2.0000     -11.404364      -310.3285
   8   2.0000     -11.403808      -310.3134
   9   2.0000     -11.400308      -310.2182
  10   2.0000     -11.377813      -309.6060
  11   2.0000     -11.376256      -309.5637
  12   2.0000     -11.371072      -309.4226
  13   2.0000     -11.364329      -309.2391
  14   2.0000     -11.362339      -309.1850
  15   2.0000     -11.354326      -308.9669
  16   2.0000     -11.353248      -308.9376
  17   2.0000     -11.340441      -308.5891
  18   2.0000     -11.331096      -308.3348
  19   2.0000     -11.329154      -308.2820
  20   2.0000     -11.328796      -308.2722
  21   2.0000     -11.327241      -308.2299
  22   2.0000     -11.324156      -308.1460
  23   2.0000     -11.322733      -308.1072
  24   2.0000     -11.310417      -307.7721
  25   2.0000     -11.309922      -307.7586
  26   2.0000     -11.291502      -307.2574
  27   2.0000      -1.641631       -44.6710
  28   2.0000      -1.563898       -42.5558
  29   2.0000      -1.469061       -39.9752
  30   2.0000      -1.332905       -36.2702
  31   2.0000      -1.300526       -35.3891
  32   2.0000      -1.291824       -35.1523
  33   2.0000      -1.225685       -33.3526
  34   2.0000      -1.202735       -32.7281
  35   2.0000      -1.167595       -31.7719
  36   2.0000      -1.157688       -31.5023
  37   2.0000      -1.146440       -31.1962
  38   2.0000      -1.114954       -30.3394
  39   2.0000      -1.097306       -29.8592
  40   2.0000      -1.074790       -29.2465
  41   2.0000      -1.065371       -28.9902
  42   2.0000      -1.053511       -28.6675
  43   2.0000      -1.044584       -28.4246
  44   2.0000      -1.042869       -28.3779
  45   2.0000      -0.979016       -26.6404
  46   2.0000      -0.962324       -26.1862
  47   2.0000      -0.952687       -25.9239
  48   2.0000      -0.944558       -25.7027
  49   2.0000      -0.936981       -25.4966
  50   2.0000      -0.908870       -24.7316
  51   2.0000      -0.894781       -24.3482
  52   2.0000      -0.867295       -23.6003
  53   2.0000      -0.844190       -22.9716
  54   2.0000      -0.827825       -22.5263
  55   2.0000      -0.815839       -22.2001
  56   2.0000      -0.808502       -22.0005
  57   2.0000      -0.804532       -21.8924
  58   2.0000      -0.791540       -21.5389
  59   2.0000      -0.786348       -21.3976
  60   2.0000      -0.777704       -21.1624
  61   2.0000      -0.745497       -20.2860
  62   2.0000      -0.742618       -20.2077
  63   2.0000      -0.738308       -20.0904
  64   2.0000      -0.729796       -19.8588
  65   2.0000      -0.727744       -19.8029
  66   2.0000      -0.718547       -19.5526
  67   2.0000      -0.715643       -19.4736
  68   2.0000      -0.706108       -19.2142
  69   2.0000      -0.701830       -19.0978
  70   2.0000      -0.698596       -19.0098
  71   2.0000      -0.689846       -18.7717
  72   2.0000      -0.686837       -18.6898
  73   2.0000      -0.686087       -18.6694
  74   2.0000      -0.684108       -18.6155
  75   2.0000      -0.670240       -18.2382
  76   2.0000      -0.664096       -18.0710
  77   2.0000      -0.655963       -17.8496
  78   2.0000      -0.649983       -17.6869
  79   2.0000      -0.648151       -17.6371
  80   2.0000      -0.639784       -17.4094
  81   2.0000      -0.638360       -17.3707
  82   2.0000      -0.637260       -17.3407
  83   2.0000      -0.629484       -17.1291
  84   2.0000      -0.627312       -17.0700
  85   2.0000      -0.624382       -16.9903
  86   2.0000      -0.623463       -16.9653
  87   2.0000      -0.618125       -16.8200
  88   2.0000      -0.609800       -16.5935
  89   2.0000      -0.607525       -16.5316
  90   2.0000      -0.598140       -16.2762
  91   2.0000      -0.596808       -16.2400
  92   2.0000      -0.585991       -15.9456
  93   2.0000      -0.575314       -15.6551
  94   2.0000      -0.573897       -15.6165
  95   2.0000      -0.567150       -15.4329
  96   2.0000      -0.561905       -15.2902
  97   2.0000      -0.560237       -15.2448
  98   2.0000      -0.505283       -13.7494
  99   2.0000      -0.497805       -13.5460
 100   2.0000      -0.483544       -13.1579
 101   2.0000      -0.465174       -12.6580
 102   2.0000      -0.429434       -11.6855
 103   0.0000      -0.141895        -3.8611
 104   0.0000      -0.058450        -1.5905
 105   0.0000      -0.051289        -1.3956
 106   0.0000      -0.046520        -1.2659
 107   0.0000      -0.043094        -1.1727

MULLIKEN ATOMIC CHARGES
-----------------------
   0 C :    1.622815
   1 C :    1.127617
   2 C :   -0.777392
   3 C :    1.379736
   4 C :   -0.848334
   5 H :    0.262653
   6 H :    0.063814
   7 H :    0.272265
   8 H :    0.250375
   9 H :    0.049003
  10 N :    1.857179
  11 O :   -1.836723
  12 C :   -1.448564
  13 H :    0.042537
  14 H :    0.390027
  15 H :    0.290363
  16 C :   -1.425830
  17 H :    0.227381
  18 H :    0.117774
  19 H :    0.334486
  20 C :   -1.336392
  21 H :    0.299033
  22 H :    0.128546
  23 H :    0.257270
  24 C :   -1.272552
  25 H :    0.270054
  26 H :    0.344593
  27 H :    0.081444
  28 C :    1.935412
  29 H :    0.380040
  30 H :    0.452949
  31 C :    0.514662
  32 C :   -0.633056
  33 C :   -0.502734
  34 C :   -0.456190
  35 H :    0.308440
  36 C :   -0.479373
  37 H :    0.175762
  38 C :   -0.307830
  39 H :    0.232997
  40 H :    0.245985
  41 O :   -0.847326
  42 C :   -0.542214
  43 H :    0.307913
  44 H :    0.227498
  45 H :    0.289037
  46 C :   -0.453209
  47 H :    0.265039
  48 H :    0.318416
  49 C :   -0.378467
  50 H :    0.321110
  51 H :    0.295703
  52 C :   -1.030142
  53 H :    0.248954
  54 H :    0.266199
  55 H :    0.246330
  56 N :   -0.905802
  57 C :    0.916929
  58 C :   -0.901660
  59 H :    0.263865
  60 H :    0.233742
  61 H :    0.262345
  62 O :   -0.949717
  63 H :   -0.044788
Sum of atomic charges:    1.0000000

LOEWDIN ATOMIC CHARGES
----------------------
   0 C :   -0.353857
   1 C :   -0.363390
   2 C :    0.532090
   3 C :    0.025620
   4 C :    0.531475
   5 H :   -0.322786
   6 H :   -0.240351
   7 H :   -0.293845
   8 H :   -0.314940
   9 H :   -0.242362
  10 N :    0.203016
  11 O :    1.085543
  12 C :    0.921897
  13 H :   -0.254978
  14 H :   -0.283543
  15 H :   -0.256041
  16 C :    0.951638
  17 H :   -0.290374
  18 H :   -0.245240
  19 H :   -0.326459
  20 C :    0.920805
  21 H :   -0.278453
  22 H :   -0.257848
  23 H :   -0.255702
  24 C :    0.949146
  25 H :   -0.291038
  26 H :   -0.283238
  27 H :   -0.251383
  28 C :    0.005526
  29 H :   -0.251095
  30 H :   -0.881400
  31 C :   -0.077304
  32 C :    0.360510
  33 C :    0.352923
  34 C :    0.385560
  35 H :   -0.307252
  36 C :    0.381465
  37 H :   -0.299176
  38 C :    0.378053
  39 H :   -0.303539
  40 H :   -0.304429
  41 O :    0.981800
  42 C :    0.273237
  43 H :   -0.299422
  44 H :   -0.261019
  45 H :   -0.298936
  46 C :    0.520520
  47 H :   -0.262180
  48 H :   -0.262108
  49 C :    0.497522
  50 H :   -0.272576
  51 H :   -0.291526
  52 C :    0.941245
  53 H :   -0.277139
  54 H :   -0.276851
  55 H :   -0.277027
  56 N :    0.890088
  57 C :   -0.795732
  58 C :    0.915191
  59 H :   -0.289006
  60 H :   -0.304330
  61 H :   -0.289216
  62 O :    0.764704
  63 H :   -0.482482

  Mayer bond orders larger than 0.100000
B(  0-C ,  1-C ) :   0.5670 B(  0-C ,  2-C ) :  -0.1022 B(  0-C ,  8-H ) :  -0.1524
B(  0-C ,  9-H ) :  -0.1094 B(  0-C , 10-N ) :   0.8682 B(  0-C , 11-O ) :   0.1646
B(  0-C , 13-H ) :  -0.2226 B(  0-C , 14-H ) :  -0.1839 B(  0-C , 15-H ) :  -0.3007
B(  0-C , 16-C ) :   0.2857 B(  0-C , 17-H ) :  -0.2055 B(  0-C , 19-H ) :  -0.2767
B(  0-C , 30-H ) :  -0.1675 B(  1-C ,  2-C ) :   0.2008 B(  1-C ,  4-C ) :  -0.1538
B(  1-C , 10-N ) :   0.6817 B(  1-C , 11-O ) :   0.3900 B(  1-C , 20-C ) :  -0.2735
B(  1-C , 21-H ) :  -0.2493 B(  1-C , 22-H ) :  -0.2309 B(  1-C , 23-H ) :  -0.2729
B(  1-C , 24-C ) :   0.1986 B(  1-C , 25-H ) :  -0.2333 B(  1-C , 26-H ) :  -0.1052
B(  1-C , 30-H ) :  -0.1684 B(  2-C ,  3-C ) :   0.7612 B(  2-C ,  5-H ) :   1.1016
B(  2-C ,  6-H ) :   1.1263 B(  2-C , 10-N ) :   0.1233 B(  2-C , 56-N ) :   0.2050
B(  3-C ,  4-C ) :   0.8581 B(  3-C ,  7-H ) :   0.8379 B(  3-C , 56-N ) :  -1.0990
B(  3-C , 57-C ) :  -0.1598 B(  3-C , 62-O ) :   0.1943 B(  3-C , 63-H ) :  -0.3297
B(  4-C ,  8-H ) :   1.2184 B(  4-C ,  9-H ) :   1.1674 B(  4-C , 10-N ) :   0.1150
B(  4-C , 56-N ) :   0.1528 B(  5-H , 56-N ) :   0.1165 B(  8-H , 56-N ) :   0.1302
B(  8-H , 62-O ) :  -0.1343 B( 10-N , 11-O ) :   0.9625 B( 10-N , 12-C ) :  -0.1876
B( 10-N , 19-H ) :   0.1716 B( 10-N , 30-H ) :  -0.2849 B( 11-O , 16-C ) :  -0.1788
B( 11-O , 24-C ) :  -0.1896 B( 11-O , 28-C ) :  -0.1583 B( 11-O , 30-H ) :  -0.8452
B( 11-O , 31-C ) :   0.1370 B( 12-C , 13-H ) :   1.3932 B( 12-C , 14-H ) :   0.8568
B( 12-C , 15-H ) :   1.1538 B( 16-C , 17-H ) :   1.1696 B( 16-C , 18-H ) :   1.0895
B( 16-C , 19-H ) :   0.9037 B( 16-C , 30-H ) :   0.1063 B( 20-C , 21-H ) :   0.9974
B( 20-C , 22-H ) :   1.2861 B( 20-C , 23-H ) :   1.1505 B( 20-C , 24-C ) :   0.1010
B( 24-C , 25-H ) :   1.1460 B( 24-C , 26-H ) :   0.8972 B( 24-C , 27-H ) :   1.1608
B( 28-C , 29-H ) :   1.2135 B( 28-C , 30-H ) :   0.2720 B( 28-C , 31-C ) :  -0.3427
B( 28-C , 32-C ) :  -0.6263 B( 28-C , 33-C ) :  -0.9552 B( 28-C , 35-H ) :   0.1255
B( 28-C , 41-O ) :   0.5157 B( 28-C , 42-C ) :  -0.1935 B( 29-H , 30-H ) :  -0.1575
B( 29-H , 31-C ) :  -0.2896 B( 29-H , 33-C ) :  -0.1137 B( 30-H , 31-C ) :   0.4291
B( 30-H , 32-C ) :   0.2085 B( 30-H , 41-O ) :   0.2914 B( 31-C , 32-C ) :   1.2246
B( 31-C , 33-C ) :   1.2950 B( 31-C , 34-C ) :  -0.4860 B( 31-C , 35-H ) :  -0.1337
B( 31-C , 36-C ) :  -0.5115 B( 31-C , 41-O ) :  -0.2845 B( 32-C , 34-C ) :   1.2681
B( 32-C , 35-H ) :   0.9157 B( 32-C , 39-H ) :  -0.1417 B( 33-C , 36-C ) :   1.3370
B( 33-C , 37-H ) :   1.1726 B( 33-C , 40-H ) :  -0.1163 B( 34-C , 36-C ) :   0.1424
B( 34-C , 38-C ) :   1.2292 B( 34-C , 39-H ) :   1.1681 B( 34-C , 45-H ) :  -0.1072
B( 36-C , 38-C ) :   1.2022 B( 36-C , 40-H ) :   1.1513 B( 36-C , 45-H ) :  -0.1238
B( 38-C , 45-H ) :   1.1233 B( 41-O , 42-C ) :   0.8628 B( 42-C , 43-H ) :   0.8861
B( 42-C , 44-H ) :   1.0236 B( 42-C , 46-C ) :   1.0937 B( 46-C , 47-H ) :   0.9463
B( 46-C , 48-H ) :   0.8531 B( 46-C , 49-C ) :   0.9085 B( 46-C , 52-C ) :   0.1345
B( 49-C , 50-H ) :   0.8141 B( 49-C , 51-H ) :   0.7281 B( 49-C , 52-C ) :   0.7290
B( 49-C , 54-H ) :  -0.1275 B( 52-C , 53-H ) :   1.0247 B( 52-C , 54-H ) :   1.0272
B( 52-C , 55-H ) :   0.9923 B( 56-N , 57-C ) :   1.0384 B( 56-N , 58-C ) :  -0.1537
B( 56-N , 63-H ) :   1.4435 B( 57-C , 58-C ) :   0.7100 B( 57-C , 60-H ) :  -0.1694
B( 57-C , 62-O ) :   0.8564 B( 58-C , 59-H ) :   0.9934 B( 58-C , 60-H ) :   1.0345
B( 58-C , 61-H ) :   1.0001

MP2 TOTAL ENERGY:    -1193.494716755 Eh
FINAL SINGLE POINT ENERGY     -1193.494716754762

DIPOLE MOMENT
-------------
                                X             Y             Z
Electronic contribution:     -2.98755     -12.00022       0.38623
Nuclear contribution   :      2.05905       9.92880       0.62943
                        -----------------------------------------
Total Dipole Moment    :     -0.92850      -2.07142       1.01566
                        -----------------------------------------
Magnitude (a.u.)       :      2.48686
Magnitude (Debye)      :      6.32109

Rotational constants in cm-1:     0.007873     0.003875     0.003136
Rotational constants in MHz :   236.032292   116.181635    94.016895

                             ****ORCA TERMINATED NORMALLY****
TOTAL RUN TIME: 1 days 19 hours 0 minutes 31 seconds 203 msec
