                         Program Version 4.2.1 -  RELEASE  -
|  1> %pal
|  2>  nprocs 32
|  3> end
|  4> !RI-MP2 aug-cc-pVQZ aug-cc-pVQZ/C TightSCF
|  5> %maxcore 4500
|  6> *xyzfile 0 1  02_31P.xyz
|  7>
|  8>
|  9>                          ****END OF INPUT****

CARTESIAN COORDINATES (ANGSTROEM)
---------------------------------
  C     -1.768822   -0.456020    0.075340
  C     -1.717578   -1.815221    0.416577
  C     -2.858027   -2.603896    0.298883
  C     -4.040613   -2.101301   -0.215922
  C     -4.065698   -0.794785   -0.675515
  C     -2.945685    0.004814   -0.530612
  H     -2.795707   -3.646605    0.589131
  H     -4.915892   -2.734163   -0.296764
  H     -4.951710   -0.393089   -1.151344
  H     -2.977838    1.005684   -0.934468
  C     -0.656729    0.539480    0.176018
  C      0.656729    0.539476   -0.176029
  C      1.768823   -0.456021   -0.075327
  C      2.945688    0.004830    0.530608
  C      1.717578   -1.815231   -0.416526
  C      4.065701   -0.794765    0.675530
  H      2.977843    1.005712    0.934435
  C      2.858027   -2.603904   -0.298813
  C      4.040615   -2.101294    0.215974
  H      4.951715   -0.393056    1.151345
  H      2.795707   -3.646620   -0.589032
  H      4.915894   -2.734154    0.296831
  C      0.402160   -2.468059   -0.670020
  H     -0.163510   -1.930897   -1.432504
  H      0.542027   -3.486761   -1.032606
  C      1.115356    1.971848   -0.502420
  C     -1.115358    1.971860    0.502368
  N     -1.058092    2.674445   -0.819468
  N      0.045933    2.643827   -1.330847
  N     -0.045936    2.643864    1.330777
  N      1.058089    2.674469    0.819398
  C     -2.420388    2.228749    1.228979
  H     -2.299435    3.140462    1.812637
  H     -3.250171    2.370044    0.543571
  H     -2.660807    1.413493    1.909808
  C      2.420386    2.228717   -1.229038
  H      2.660817    1.413435   -1.909831
  H      2.299427    3.140405   -1.812734
  H      3.250165    2.370048   -0.543631
  C     -0.402160   -2.468040    0.670090
  H      0.163509   -1.930856    1.432559
  H     -0.542027   -3.486733    1.032706

 Total Charge           Charge          ....    0
 Multiplicity           Mult            ....    1
 Number of Electrons    NEL             ....  166
 Basis Dimension        Dim             .... 2748

ORBITAL ENERGIES
----------------

  NO   OCC          E(Eh)            E(eV)
   0   2.0000     -15.638766      -425.5524
   1   2.0000     -15.638755      -425.5522
   2   2.0000     -15.632946      -425.3941
   3   2.0000     -15.632940      -425.3939
   4   2.0000     -11.316173      -307.9287
   5   2.0000     -11.316144      -307.9279
   6   2.0000     -11.275972      -306.8348
   7   2.0000     -11.274470      -306.7939
   8   2.0000     -11.257885      -306.3426
   9   2.0000     -11.257885      -306.3426
  10   2.0000     -11.249840      -306.1237
  11   2.0000     -11.249839      -306.1237
  12   2.0000     -11.241365      -305.8931
  13   2.0000     -11.241365      -305.8931
  14   2.0000     -11.241073      -305.8851
  15   2.0000     -11.241073      -305.8851
  16   2.0000     -11.236416      -305.7584
  17   2.0000     -11.235888      -305.7441
  18   2.0000     -11.235349      -305.7294
  19   2.0000     -11.235349      -305.7294
  20   2.0000     -11.235164      -305.7243
  21   2.0000     -11.235163      -305.7243
  22   2.0000     -11.224528      -305.4349
  23   2.0000     -11.224528      -305.4349
  24   2.0000      -1.440334       -39.1935
  25   2.0000      -1.358556       -36.9682
  26   2.0000      -1.189790       -32.3758
  27   2.0000      -1.173774       -31.9400
  28   2.0000      -1.137842       -30.9623
  29   2.0000      -1.125802       -30.6346
  30   2.0000      -1.092850       -29.7380
  31   2.0000      -1.044767       -28.4296
  32   2.0000      -1.036288       -28.1988
  33   2.0000      -1.028540       -27.9880
  34   2.0000      -1.007146       -27.4058
  35   2.0000      -0.969030       -26.3687
  36   2.0000      -0.927755       -25.2455
  37   2.0000      -0.904674       -24.6174
  38   2.0000      -0.901844       -24.5404
  39   2.0000      -0.875089       -23.8124
  40   2.0000      -0.857038       -23.3212
  41   2.0000      -0.831421       -22.6241
  42   2.0000      -0.821562       -22.3558
  43   2.0000      -0.810517       -22.0553
  44   2.0000      -0.763961       -20.7884
  45   2.0000      -0.738879       -20.1059
  46   2.0000      -0.710711       -19.3394
  47   2.0000      -0.699885       -19.0448
  48   2.0000      -0.694382       -18.8951
  49   2.0000      -0.673391       -18.3239
  50   2.0000      -0.658162       -17.9095
  51   2.0000      -0.651825       -17.7371
  52   2.0000      -0.642990       -17.4967
  53   2.0000      -0.635235       -17.2856
  54   2.0000      -0.612147       -16.6574
  55   2.0000      -0.603829       -16.4310
  56   2.0000      -0.601987       -16.3809
  57   2.0000      -0.590492       -16.0681
  58   2.0000      -0.583506       -15.8780
  59   2.0000      -0.574430       -15.6310
  60   2.0000      -0.573508       -15.6060
  61   2.0000      -0.560199       -15.2438
  62   2.0000      -0.551122       -14.9968
  63   2.0000      -0.545710       -14.8495
  64   2.0000      -0.545540       -14.8449
  65   2.0000      -0.539562       -14.6822
  66   2.0000      -0.533323       -14.5124
  67   2.0000      -0.526359       -14.3229
  68   2.0000      -0.511570       -13.9205
  69   2.0000      -0.504535       -13.7291
  70   2.0000      -0.502671       -13.6784
  71   2.0000      -0.495954       -13.4956
  72   2.0000      -0.495228       -13.4758
  73   2.0000      -0.486432       -13.2365
  74   2.0000      -0.484615       -13.1870
  75   2.0000      -0.473134       -12.8746
  76   2.0000      -0.432484       -11.7685
  77   2.0000      -0.397079       -10.8051
  78   2.0000      -0.367798       -10.0083
  79   2.0000      -0.347415        -9.4536
  80   2.0000      -0.340299        -9.2600
  81   2.0000      -0.331264        -9.0142
  82   2.0000      -0.303171        -8.2497
  83   0.0000       0.018387         0.5003
  84   0.0000       0.022426         0.6102
  85   0.0000       0.026677         0.7259
  86   0.0000       0.029576         0.8048
  87   0.0000       0.032333         0.8798

MULLIKEN ATOMIC CHARGES
-----------------------
   0 C :    0.819565
   1 C :    0.095841
   2 C :   -0.722614
   3 C :   -0.398637
   4 C :   -0.623597
   5 C :   -0.482659
   6 H :    0.197803
   7 H :    0.254056
   8 H :    0.190262
   9 H :    0.285443
  10 C :    0.592628
  11 C :    0.596795
  12 C :    0.818605
  13 C :   -0.479647
  14 C :    0.097867
  15 C :   -0.624707
  16 H :    0.285110
  17 C :   -0.721904
  18 C :   -0.398475
  19 H :    0.189966
  20 H :    0.198010
  21 H :    0.252522
  22 C :   -0.616679
  23 H :    0.227109
  24 H :    0.235147
  25 C :    1.593178
  26 C :    1.601237
  27 N :   -0.353975
  28 N :   -0.767622
  29 N :   -0.767100
  30 N :   -0.354500
  31 C :   -1.189298
  32 H :    0.303787
  33 H :    0.180068
  34 H :    0.173850
  35 C :   -1.188794
  36 H :    0.172995
  37 H :    0.303728
  38 H :    0.180290
  39 C :   -0.617738
  40 H :    0.227729
  41 H :    0.234358
Sum of atomic charges:   -0.0000000

LOEWDIN ATOMIC CHARGES
----------------------
   0 C :   -0.035596
   1 C :   -0.058928
   2 C :    0.367322
   3 C :    0.366102
   4 C :    0.380839
   5 C :    0.317626
   6 H :   -0.314711
   7 H :   -0.312847
   8 H :   -0.310682
   9 H :   -0.377469
  10 C :   -0.038542
  11 C :   -0.038543
  12 C :   -0.035596
  13 C :    0.317626
  14 C :   -0.058927
  15 C :    0.380838
  16 H :   -0.377468
  17 C :    0.367323
  18 C :    0.366103
  19 H :   -0.310681
  20 H :   -0.314712
  21 H :   -0.312848
  22 C :    0.538156
  23 H :   -0.286884
  24 H :   -0.272524
  25 C :   -0.751969
  26 C :   -0.751970
  27 N :    0.392280
  28 N :    0.390888
  29 N :    0.390888
  30 N :    0.392280
  31 C :    0.883551
  32 H :   -0.298641
  33 H :   -0.312366
  34 H :   -0.265604
  35 C :    0.883551
  36 H :   -0.265606
  37 H :   -0.298641
  38 H :   -0.312365
  39 C :    0.538154
  40 H :   -0.286885
  41 H :   -0.272522

  Mayer bond orders larger than 0.100000
B(  0-C ,  1-C ) :   0.9159 B(  0-C ,  2-C ) :  -0.4173 B(  0-C ,  4-C ) :  -0.2855
B(  0-C ,  5-C ) :   1.2482 B(  0-C , 11-C ) :  -0.5636 B(  0-C , 22-C ) :   0.1007
B(  0-C , 27-N ) :  -0.1068 B(  0-C , 39-C ) :  -0.2778 B(  1-C ,  2-C ) :   1.1684
B(  1-C ,  3-C ) :  -0.1784 B(  1-C ,  5-C ) :  -0.1614 B(  1-C , 10-C ) :  -0.5791
B(  1-C , 11-C ) :   0.1126 B(  1-C , 39-C ) :   1.0629 B(  2-C ,  3-C ) :   1.2665
B(  2-C ,  4-C ) :   0.2363 B(  2-C ,  5-C ) :   0.1642 B(  2-C ,  6-H ) :   1.1247
B(  2-C ,  7-H ) :  -0.2042 B(  2-C , 10-C ) :  -0.1453 B(  2-C , 39-C ) :  -0.2221
B(  3-C ,  4-C ) :   1.2456 B(  3-C ,  5-C ) :  -0.1301 B(  3-C ,  7-H ) :   1.1734
B(  4-C ,  5-C ) :   1.1701 B(  4-C ,  7-H ) :  -0.1740 B(  4-C ,  8-H ) :   1.1884
B(  4-C ,  9-H ) :  -0.1200 B(  5-C ,  8-H ) :  -0.1239 B(  5-C ,  9-H ) :   1.0103
B(  5-C , 10-C ) :  -0.1999 B( 10-C , 11-C ) :   1.1750 B( 10-C , 12-C ) :  -0.5681
B( 10-C , 14-C ) :   0.1146 B( 10-C , 25-C ) :  -0.1940 B( 10-C , 26-C ) :   0.4394
B( 10-C , 27-N ) :   0.1210 B( 10-C , 28-N ) :   0.1383 B( 10-C , 29-N ) :  -0.1545
B( 11-C , 13-C ) :  -0.2037 B( 11-C , 14-C ) :  -0.5840 B( 11-C , 17-C ) :  -0.1387
B( 11-C , 25-C ) :   0.4492 B( 11-C , 26-C ) :  -0.1971 B( 11-C , 28-N ) :  -0.1563
B( 11-C , 29-N ) :   0.1386 B( 11-C , 30-N ) :   0.1238 B( 12-C , 13-C ) :   1.2465
B( 12-C , 14-C ) :   0.9082 B( 12-C , 15-C ) :  -0.2837 B( 12-C , 17-C ) :  -0.4144
B( 12-C , 22-C ) :  -0.2814 B( 12-C , 30-N ) :  -0.1094 B( 12-C , 39-C ) :   0.1009
B( 13-C , 14-C ) :  -0.1622 B( 13-C , 15-C ) :   1.1686 B( 13-C , 16-H ) :   1.0105
B( 13-C , 17-C ) :   0.1629 B( 13-C , 18-C ) :  -0.1307 B( 13-C , 19-H ) :  -0.1251
B( 14-C , 17-C ) :   1.1696 B( 14-C , 18-C ) :  -0.1794 B( 14-C , 22-C ) :   1.0640
B( 15-C , 16-H ) :  -0.1203 B( 15-C , 17-C ) :   0.2360 B( 15-C , 18-C ) :   1.2456
B( 15-C , 19-H ) :   1.1895 B( 15-C , 21-H ) :  -0.1739 B( 17-C , 18-C ) :   1.2655
B( 17-C , 20-H ) :   1.1241 B( 17-C , 21-H ) :  -0.2058 B( 17-C , 22-C ) :  -0.2238
B( 18-C , 21-H ) :   1.1756 B( 22-C , 23-H ) :   1.0029 B( 22-C , 24-H ) :   1.0508
B( 22-C , 39-C ) :   0.9631 B( 25-C , 26-C ) :   0.3935 B( 25-C , 30-N ) :   0.1682
B( 25-C , 36-H ) :  -0.2721 B( 25-C , 37-H ) :  -0.1055 B( 25-C , 38-H ) :  -0.3102
B( 26-C , 27-N ) :   0.1639 B( 26-C , 32-H ) :  -0.1061 B( 26-C , 33-H ) :  -0.3113
B( 26-C , 34-H ) :  -0.2708 B( 27-N , 28-N ) :   0.9972 B( 27-N , 31-C ) :   0.1227
B( 28-N , 29-N ) :   0.1228 B( 28-N , 35-C ) :   0.1597 B( 29-N , 30-N ) :   0.9953
B( 29-N , 31-C ) :   0.1583 B( 30-N , 35-C ) :   0.1212 B( 31-C , 32-H ) :   1.0062
B( 31-C , 33-H ) :   1.2408 B( 31-C , 34-H ) :   1.1628 B( 35-C , 36-H ) :   1.1635
B( 35-C , 37-H ) :   1.0060 B( 35-C , 38-H ) :   1.2394 B( 39-C , 40-H ) :   1.0029
B( 39-C , 41-H ) :   1.0518

MP2 TOTAL ENERGY:     -990.160899657 Eh
FINAL SINGLE POINT ENERGY      -990.160899657157

DIPOLE MOMENT
-------------
                                X             Y             Z
Electronic contribution:     -0.00000       6.89606      -0.00009
Nuclear contribution   :      0.00001      -8.39039       0.00011
                        -----------------------------------------
Total Dipole Moment    :      0.00000      -1.49433       0.00002
                        -----------------------------------------
Magnitude (a.u.)       :      1.49433
Magnitude (Debye)      :      3.79827

Rotational constants in cm-1:     0.011909     0.008832     0.005663
Rotational constants in MHz :   357.029580   264.781128   169.779068

                             ****ORCA TERMINATED NORMALLY****
TOTAL RUN TIME: 0 days 14 hours 56 minutes 4 seconds 380 msec
