                         Program Version 4.2.1 -  RELEASE  -
|  1> %pal
|  2>  nprocs 32
|  3> end
|  4> !RI-MP2 aug-cc-pVQZ aug-cc-pVQZ/C TightSCF
|  5> %maxcore 4500
|  6> *xyzfile 0 1  06_24TS.xyz
|  7>
|  8>
|  9>                          ****END OF INPUT****

CARTESIAN COORDINATES (ANGSTROEM)
---------------------------------
  C      0.128961   -3.006560   -0.081461
  C     -0.113072   -1.870068    0.931470
  C      2.190256   -0.596158   -0.694610
  H     -0.550166   -2.880268   -0.933932
  C      0.943960   -1.825309    2.059530
  H      0.428518   -1.661501    3.011038
  H      1.437439   -2.798035    2.161014
  H      2.880652   -0.029820   -1.328882
  H     -1.072633   -2.108892    1.411099
  H     -0.634328    0.371892    1.201870
  C      1.996086   -0.717131    1.937285
  H      1.485690    0.245742    2.020828
  H      2.658173   -0.772946    2.808195
  C      2.880432   -0.680957    0.687131
  H      3.536137    0.188490    0.798386
  H      3.551049   -1.547226    0.688916
  C      2.106657   -1.968272   -1.394018
  H      1.521556   -1.847554   -2.313204
  C      1.556349   -3.146955   -0.599086
  H      1.606897   -4.036296   -1.236279
  H      2.224786   -3.356731    0.240952
  H      3.119654   -2.237077   -1.715736
  H     -0.147399   -3.959892    0.385548
  C      0.838690    0.166220   -0.710263
  H      0.435463   -0.002690   -1.720560
  Si     1.020309    2.041020   -0.726279
  C      1.611372    2.788494    0.897303
  H      1.715455    3.872476    0.794143
  H      0.905226    2.600625    1.706729
  H      2.583381    2.390881    1.197031
  C     -0.638097    2.817946   -1.175388
  H     -1.007544    2.425990   -2.127038
  H     -1.399551    2.632694   -0.416244
  H     -0.539282    3.901669   -1.282364
  C      2.254346    2.551595   -2.058789
  H      1.997803    2.115692   -3.028311
  H      2.265849    3.638676   -2.177124
  H      3.272908    2.239351   -1.816065
  B     -0.295711   -0.425153    0.269131
  C     -1.996238    1.154156    1.806350
  C     -2.982287    0.546302    1.128211
  H     -3.954074    0.426877    1.588169
  C     -1.541974    2.031500    2.662659
  H     -0.684673    1.836950    3.291558
  H     -2.009797    3.008004    2.712109
  C     -2.769776   -0.126345   -0.105964
  O     -1.658496   -0.472460   -0.565852
  O     -3.856939   -0.479859   -0.758471
  C     -3.687072   -1.290491   -1.932907
  H     -3.084915   -0.761841   -2.670110
  H     -3.203943   -2.231315   -1.673404
  H     -4.692163   -1.461699   -2.306200

 Total Charge           Charge          ....    0
 Multiplicity           Mult            ....    1
 Number of Electrons    NEL             ....  168
 Basis Dimension        Dim             .... 3110

ORBITAL ENERGIES
----------------

  NO   OCC          E(Eh)            E(eV)
   0   2.0000     -68.722809     -1870.0427
   1   2.0000     -20.635827      -561.5294
   2   2.0000     -20.594943      -560.4169
   3   2.0000     -11.425398      -310.9009
   4   2.0000     -11.329241      -308.2843
   5   2.0000     -11.307615      -307.6959
   6   2.0000     -11.247302      -306.0546
   7   2.0000     -11.246185      -306.0242
   8   2.0000     -11.202316      -304.8305
   9   2.0000     -11.195923      -304.6565
  10   2.0000     -11.195132      -304.6350
  11   2.0000     -11.193538      -304.5917
  12   2.0000     -11.193500      -304.5906
  13   2.0000     -11.193057      -304.5786
  14   2.0000     -11.192565      -304.5652
  15   2.0000     -11.180193      -304.2285
  16   2.0000     -11.178370      -304.1789
  17   2.0000     -11.176883      -304.1385
  18   2.0000     -11.166878      -303.8662
  19   2.0000     -11.153267      -303.4958
  20   2.0000      -7.561990      -205.7722
  21   2.0000      -6.071912      -165.2251
  22   2.0000      -4.178448      -113.7013
  23   2.0000      -4.178383      -113.6996
  24   2.0000      -4.177995      -113.6890
  25   2.0000      -1.509346       -41.0714
  26   2.0000      -1.406219       -38.2652
  27   2.0000      -1.124984       -30.6124
  28   2.0000      -1.093425       -29.7536
  29   2.0000      -1.042005       -28.3544
  30   2.0000      -1.025162       -27.8961
  31   2.0000      -1.024198       -27.8699
  32   2.0000      -0.977835       -26.6082
  33   2.0000      -0.959258       -26.1027
  34   2.0000      -0.933755       -25.4088
  35   2.0000      -0.908350       -24.7175
  36   2.0000      -0.905128       -24.6298
  37   2.0000      -0.897245       -24.4153
  38   2.0000      -0.861845       -23.4520
  39   2.0000      -0.845303       -23.0019
  40   2.0000      -0.801190       -21.8015
  41   2.0000      -0.776430       -21.1277
  42   2.0000      -0.760414       -20.6919
  43   2.0000      -0.748976       -20.3807
  44   2.0000      -0.712721       -19.3941
  45   2.0000      -0.705414       -19.1953
  46   2.0000      -0.692908       -18.8550
  47   2.0000      -0.661552       -18.0018
  48   2.0000      -0.642428       -17.4814
  49   2.0000      -0.634766       -17.2729
  50   2.0000      -0.620996       -16.8982
  51   2.0000      -0.618280       -16.8242
  52   2.0000      -0.605828       -16.4854
  53   2.0000      -0.604641       -16.4531
  54   2.0000      -0.584971       -15.9179
  55   2.0000      -0.572553       -15.5800
  56   2.0000      -0.564637       -15.3645
  57   2.0000      -0.559767       -15.2320
  58   2.0000      -0.556911       -15.1543
  59   2.0000      -0.553389       -15.0585
  60   2.0000      -0.550125       -14.9697
  61   2.0000      -0.547565       -14.9000
  62   2.0000      -0.540098       -14.6968
  63   2.0000      -0.535227       -14.5643
  64   2.0000      -0.524272       -14.2662
  65   2.0000      -0.522460       -14.2169
  66   2.0000      -0.515167       -14.0184
  67   2.0000      -0.512562       -13.9475
  68   2.0000      -0.507532       -13.8106
  69   2.0000      -0.479382       -13.0446
  70   2.0000      -0.467671       -12.7260
  71   2.0000      -0.467180       -12.7126
  72   2.0000      -0.460633       -12.5345
  73   2.0000      -0.448944       -12.2164
  74   2.0000      -0.443399       -12.0655
  75   2.0000      -0.437915       -11.9163
  76   2.0000      -0.416585       -11.3359
  77   2.0000      -0.413875       -11.2621
  78   2.0000      -0.409680       -11.1480
  79   2.0000      -0.401804       -10.9336
  80   2.0000      -0.394142       -10.7251
  81   2.0000      -0.384460       -10.4617
  82   2.0000      -0.354610        -9.6494
  83   2.0000      -0.308836        -8.4038
  84   0.0000       0.016904         0.4600
  85   0.0000       0.022535         0.6132
  86   0.0000       0.025672         0.6986
  87   0.0000       0.027324         0.7435
  88   0.0000       0.034303         0.9334

MULLIKEN ATOMIC CHARGES
-----------------------
   0 C :   -0.736351
   1 C :    0.364321
   2 C :    0.930999
   3 H :    0.259532
   4 C :   -0.570899
   5 H :    0.012293
   6 H :    0.016023
   7 H :    0.453804
   8 H :    0.165831
   9 H :   -0.382762
  10 C :   -0.681909
  11 H :    0.272002
  12 H :    0.044684
  13 C :   -0.458783
  14 H :   -0.069993
  15 H :    0.061241
  16 C :   -0.813664
  17 H :    0.089153
  18 C :   -0.377628
  19 H :    0.076443
  20 H :    0.144788
  21 H :   -0.044112
  22 H :   -0.016325
  23 C :   -1.301824
  24 H :   -0.184793
  25 Si:    1.891703
  26 C :   -1.287858
  27 H :    0.060276
  28 H :    0.357665
  29 H :    0.236971
  30 C :   -1.131679
  31 H :    0.176725
  32 H :    0.289418
  33 H :    0.195389
  34 C :   -0.955770
  35 H :    0.250068
  36 H :    0.231835
  37 H :    0.240931
  38 B :    2.215860
  39 C :   -0.042908
  40 C :   -0.088368
  41 H :    0.269383
  42 C :   -0.988864
  43 H :    0.418616
  44 H :    0.330738
  45 C :    2.015962
  46 O :   -1.059399
  47 O :   -1.173999
  48 C :   -0.798654
  49 H :    0.283299
  50 H :    0.332032
  51 H :    0.478557
Sum of atomic charges:    0.0000000

LOEWDIN ATOMIC CHARGES
----------------------
   0 C :    0.557817
   1 C :    0.306148
   2 C :    0.153511
   3 H :   -0.268312
   4 C :    0.578902
   5 H :   -0.255153
   6 H :   -0.273320
   7 H :   -0.325725
   8 H :   -0.286212
   9 H :   -0.343511
  10 C :    0.567947
  11 H :   -0.331151
  12 H :   -0.245881
  13 C :    0.582371
  14 H :   -0.270245
  15 H :   -0.268533
  16 C :    0.571220
  17 H :   -0.262618
  18 C :    0.560317
  19 H :   -0.255288
  20 H :   -0.300452
  21 H :   -0.256436
  22 H :   -0.254728
  23 C :    0.386439
  24 H :   -0.365543
  25 Si:    0.177429
  26 C :    1.015032
  27 H :   -0.321424
  28 H :   -0.379455
  29 H :   -0.333466
  30 C :    1.008381
  31 H :   -0.322375
  32 H :   -0.368819
  33 H :   -0.325815
  34 C :    1.006226
  35 H :   -0.325044
  36 H :   -0.333669
  37 H :   -0.335544
  38 B :   -0.978858
  39 C :    0.196822
  40 C :    0.350202
  41 H :   -0.349664
  42 C :    0.819269
  43 H :   -0.340230
  44 H :   -0.335328
  45 C :   -0.871728
  46 O :    1.027034
  47 O :    0.898302
  48 C :    0.634841
  49 H :   -0.300744
  50 H :   -0.301684
  51 H :   -0.311254

  Mayer bond orders larger than 0.100000
B(  0-C ,  1-C ) :   0.1434 B(  0-C ,  3-H ) :   1.1350 B(  0-C , 16-C ) :  -0.1497
B(  0-C , 18-C ) :   0.7274 B(  0-C , 22-H ) :   1.3383 B(  0-C , 23-C ) :   0.1313
B(  1-C ,  3-H ) :  -0.1726 B(  1-C ,  4-C ) :   0.3560 B(  1-C ,  5-H ) :  -0.1896
B(  1-C ,  6-H ) :  -0.2285 B(  1-C ,  8-H ) :   1.0654 B(  1-C , 10-C ) :   0.1716
B(  1-C , 18-C ) :  -0.1467 B(  1-C , 22-H ) :  -0.1526 B(  1-C , 23-C ) :   0.1273
B(  1-C , 25-Si) :   0.3507 B(  1-C , 38-B ) :   0.3344 B(  1-C , 45-C ) :  -0.1126
B(  1-C , 46-O ) :  -0.1559 B(  2-C ,  7-H ) :   0.9823 B(  2-C , 10-C ) :   0.2263
B(  2-C , 13-C ) :   0.2311 B(  2-C , 14-H ) :  -0.2753 B(  2-C , 15-H ) :  -0.3066
B(  2-C , 16-C ) :   0.3499 B(  2-C , 17-H ) :  -0.1693 B(  2-C , 18-C ) :  -0.1482
B(  2-C , 21-H ) :  -0.1820 B(  2-C , 23-C ) :   0.5557 B(  2-C , 24-H ) :  -0.1019
B(  2-C , 25-Si) :  -0.2859 B(  2-C , 34-C ) :  -0.1311 B(  2-C , 46-O ) :  -0.1135
B(  4-C ,  5-H ) :   1.3500 B(  4-C ,  6-H ) :   1.3848 B(  4-C ,  8-H ) :  -0.1109
B(  4-C , 10-C ) :   0.7833 B(  4-C , 13-C ) :  -0.1290 B(  4-C , 38-B ) :  -0.1606
B(  7-H , 13-C ) :  -0.2578 B(  7-H , 16-C ) :  -0.1107 B(  7-H , 23-C ) :  -0.1560
B(  8-H , 23-C ) :  -0.1327 B(  8-H , 40-C ) :   0.1314 B(  9-H , 23-C ) :  -0.1462
B(  9-H , 25-Si) :  -0.1213 B(  9-H , 38-B ) :   0.5035 B(  9-H , 39-C ) :   0.4734
B(  9-H , 42-C ) :  -0.1171 B(  9-H , 46-O ) :  -0.3160 B( 10-C , 11-H ) :   1.0164
B( 10-C , 12-H ) :   1.1564 B( 10-C , 13-C ) :   0.5814 B( 13-C , 14-H ) :   1.4608
B( 13-C , 15-H ) :   1.3932 B( 16-C , 17-H ) :   1.3894 B( 16-C , 18-C ) :   0.7230
B( 16-C , 21-H ) :   1.4185 B( 16-C , 23-C ) :  -0.3612 B( 16-C , 38-B ) :   0.1027
B( 17-H , 23-C ) :  -0.1773 B( 18-C , 19-H ) :   1.1312 B( 18-C , 20-H ) :   1.1643
B( 18-C , 38-B ) :   0.1431 B( 23-C , 24-H ) :   1.4164 B( 23-C , 25-Si) :   1.0021
B( 23-C , 26-C ) :   0.3923 B( 23-C , 30-C ) :   0.2560 B( 23-C , 34-C ) :   0.1170
B( 23-C , 38-B ) :   0.6368 B( 23-C , 40-C ) :  -0.1489 B( 23-C , 46-O ) :  -0.1687
B( 24-H , 38-B ) :  -0.2293 B( 24-H , 46-O ) :  -0.1671 B( 25-Si, 26-C ) :   0.2574
B( 25-Si, 27-H ) :  -0.1049 B( 25-Si, 30-C ) :   0.2500 B( 25-Si, 31-H ) :  -0.1204
B( 25-Si, 33-H ) :  -0.1098 B( 25-Si, 34-C ) :   0.8451 B( 25-Si, 35-H ) :  -0.1572
B( 25-Si, 36-H ) :  -0.1478 B( 25-Si, 37-H ) :  -0.1526 B( 25-Si, 45-C ) :  -0.1171
B( 25-Si, 46-O ) :  -0.2328 B( 26-C , 27-H ) :   1.2248 B( 26-C , 28-H ) :   0.9559
B( 26-C , 29-H ) :   1.0472 B( 28-H , 38-B ) :  -0.1375 B( 30-C , 31-H ) :   1.0923
B( 30-C , 32-H ) :   0.9419 B( 30-C , 33-H ) :   1.1133 B( 30-C , 38-B ) :  -0.1368
B( 34-C , 35-H ) :   1.0589 B( 34-C , 36-H ) :   1.0503 B( 34-C , 37-H ) :   1.0403
B( 38-B , 39-C ) :  -0.1876 B( 38-B , 40-C ) :   0.1491 B( 38-B , 45-C ) :   0.4321
B( 38-B , 46-O ) :   0.1358 B( 38-B , 47-O ) :  -0.1634 B( 38-B , 48-C ) :   0.1390
B( 39-C , 40-C ) :   1.0216 B( 39-C , 41-H ) :  -0.1436 B( 39-C , 42-C ) :   1.6058
B( 39-C , 43-H ) :  -0.1410 B( 39-C , 44-H ) :  -0.1962 B( 39-C , 45-C ) :  -0.3159
B( 40-C , 41-H ) :   1.0544 B( 40-C , 42-C ) :  -0.4655 B( 40-C , 45-C ) :   1.1032
B( 40-C , 46-O ) :  -0.2230 B( 40-C , 47-O ) :   0.1377 B( 42-C , 43-H ) :   0.8904
B( 42-C , 44-H ) :   1.1117 B( 45-C , 46-O ) :   1.2892 B( 45-C , 47-O ) :  -0.3836
B( 45-C , 48-C ) :  -0.1949 B( 46-O , 47-O ) :   0.4693 B( 46-O , 50-H ) :  -0.1033
B( 47-O , 48-C ) :   0.9112 B( 48-C , 49-H ) :   0.8849 B( 48-C , 50-H ) :   0.8900
B( 48-C , 51-H ) :   0.8162 B( 49-H , 50-H ) :   0.1102

MP2 TOTAL ENERGY:    -1129.306192805 Eh
FINAL SINGLE POINT ENERGY     -1129.306192805228

DIPOLE MOMENT
-------------
                                X             Y             Z
Electronic contribution:    -16.66972      -0.36329       0.84681
Nuclear contribution   :     15.17750       0.41807      -0.94916
                        -----------------------------------------
Total Dipole Moment    :     -1.49222       0.05478      -0.10235
                        -----------------------------------------
Magnitude (a.u.)       :      1.49672
Magnitude (Debye)      :      3.80437

Rotational constants in cm-1:     0.010617     0.009003     0.007171
Rotational constants in MHz :   318.302119   269.911406   214.975873

                             ****ORCA TERMINATED NORMALLY****
TOTAL RUN TIME: 0 days 22 hours 16 minutes 21 seconds 563 msec
