                         Program Version 4.2.1 -  RELEASE  -
|  1> %pal
|  2>  nprocs 32
|  3> end
|  4> !RI-MP2 aug-cc-pVQZ aug-cc-pVQZ/C TightSCF
|  5> %maxcore 4500
|  6> *xyzfile 0 1  02_21P.xyz
|  7>
|  8>
|  9>                          ****END OF INPUT****

CARTESIAN COORDINATES (ANGSTROEM)
---------------------------------
  C      1.611647    0.479412    0.760956
  C      0.601292   -0.674827    0.682342
  C     -0.844876   -0.250696    0.950770
  C     -1.282299    1.037357    0.215349
  C      1.114008    1.692473    0.023105
  C     -0.165190    1.920054   -0.242684
  C      0.918481   -1.257945   -0.703263
  C      2.818823   -0.150725    0.075009
  O      2.290686   -0.971432   -0.961004
  H      0.313590   -0.799204   -1.489943
  H      0.772721   -2.339384   -0.744946
  H      3.391744   -0.764139    0.781190
  H      3.492751    0.580585   -0.375198
  C     -1.904436   -1.284687    0.502381
  O     -2.874610   -0.585713   -0.267739
  C     -2.217892    0.510196   -0.875779
  H     -1.453199   -2.076684   -0.105513
  H     -2.426604   -1.753567    1.336165
  H     -1.654123    0.187636   -1.761146
  H     -2.977887    1.226249   -1.187989
  H     -0.444799    2.814728   -0.791967
  H      1.864124    2.402125   -0.313662
  H      1.853387    0.741369    1.796030
  H      0.881677   -1.423013    1.430585
  H     -1.907583    1.617974    0.901626
  H     -0.931752   -0.081189    2.025601

 Total Charge           Charge          ....    0
 Multiplicity           Mult            ....    1
 Number of Electrons    NEL             ....   90
 Basis Dimension        Dim             .... 1604

ORBITAL ENERGIES
----------------

  NO   OCC          E(Eh)            E(eV)
   0   2.0000     -20.551650      -559.2388
   1   2.0000     -20.545791      -559.0794
   2   2.0000     -11.273519      -306.7680
   3   2.0000     -11.272553      -306.7418
   4   2.0000     -11.272546      -306.7416
   5   2.0000     -11.269863      -306.6686
   6   2.0000     -11.236482      -305.7602
   7   2.0000     -11.236267      -305.7544
   8   2.0000     -11.235307      -305.7283
   9   2.0000     -11.234755      -305.7132
  10   2.0000     -11.231509      -305.6249
  11   2.0000     -11.229413      -305.5679
  12   2.0000      -1.381103       -37.5817
  13   2.0000      -1.372992       -37.3610
  14   2.0000      -1.141689       -31.0669
  15   2.0000      -1.051785       -28.6205
  16   2.0000      -1.049885       -28.5688
  17   2.0000      -0.978771       -26.6337
  18   2.0000      -0.977991       -26.6125
  19   2.0000      -0.849411       -23.1137
  20   2.0000      -0.841122       -22.8881
  21   2.0000      -0.818916       -22.2838
  22   2.0000      -0.787256       -21.4223
  23   2.0000      -0.713291       -19.4096
  24   2.0000      -0.700430       -19.0597
  25   2.0000      -0.678593       -18.4654
  26   2.0000      -0.672680       -18.3045
  27   2.0000      -0.648283       -17.6407
  28   2.0000      -0.625176       -17.0119
  29   2.0000      -0.623518       -16.9668
  30   2.0000      -0.588247       -16.0070
  31   2.0000      -0.582968       -15.8634
  32   2.0000      -0.579098       -15.7581
  33   2.0000      -0.549549       -14.9540
  34   2.0000      -0.534533       -14.5454
  35   2.0000      -0.523831       -14.2542
  36   2.0000      -0.517936       -14.0938
  37   2.0000      -0.496889       -13.5210
  38   2.0000      -0.478692       -13.0259
  39   2.0000      -0.458652       -12.4806
  40   2.0000      -0.447649       -12.1812
  41   2.0000      -0.436150       -11.8682
  42   2.0000      -0.421834       -11.4787
  43   2.0000      -0.412322       -11.2199
  44   2.0000      -0.356437        -9.6991
  45   0.0000       0.020965         0.5705
  46   0.0000       0.026707         0.7267
  47   0.0000       0.029183         0.7941
  48   0.0000       0.032314         0.8793
  49   0.0000       0.039715         1.0807

MULLIKEN ATOMIC CHARGES
-----------------------
   0 C :   -0.124999
   1 C :    0.042701
   2 C :    0.159602
   3 C :   -0.078366
   4 C :   -0.516379
   5 C :   -0.567411
   6 C :   -0.073505
   7 C :   -0.300049
   8 O :   -1.121046
   9 H :    0.264023
  10 H :    0.363604
  11 H :    0.214881
  12 H :    0.385353
  13 C :   -0.233671
  14 O :   -1.121405
  15 C :   -0.156801
  16 H :    0.208118
  17 H :    0.357317
  18 H :    0.214565
  19 H :    0.334565
  20 H :    0.199663
  21 H :    0.307229
  22 H :    0.365405
  23 H :    0.302497
  24 H :    0.322778
  25 H :    0.251331
Sum of atomic charges:   -0.0000000

LOEWDIN ATOMIC CHARGES
----------------------
   0 C :    0.095085
   1 C :    0.114271
   2 C :    0.160683
   3 C :    0.096491
   4 C :    0.417991
   5 C :    0.429159
   6 C :    0.200179
   7 C :    0.190878
   8 O :    0.926208
   9 H :   -0.308583
  10 H :   -0.278322
  11 H :   -0.275278
  12 H :   -0.297314
  13 C :    0.225520
  14 O :    0.918442
  15 C :    0.189497
  16 H :   -0.313913
  17 H :   -0.281613
  18 H :   -0.289699
  19 H :   -0.283053
  20 H :   -0.298810
  21 H :   -0.305110
  22 H :   -0.247475
  23 H :   -0.253453
  24 H :   -0.272744
  25 H :   -0.259035

  Mayer bond orders larger than 0.100000
B(  0-C ,  1-C ) :   0.7544 B(  0-C ,  4-C ) :   0.5428 B(  0-C ,  7-C ) :   1.1138
B(  0-C , 22-H ) :   0.8189 B(  1-C ,  2-C ) :   0.6578 B(  1-C ,  3-C ) :   0.1378
B(  1-C ,  6-C ) :   0.8036 B(  1-C ,  7-C ) :  -0.2197 B(  1-C , 23-H ) :   0.9054
B(  2-C ,  3-C ) :   0.5926 B(  2-C , 13-C ) :   0.8312 B(  2-C , 15-C ) :  -0.1050
B(  2-C , 25-H ) :   0.9957 B(  3-C ,  5-C ) :   0.6611 B(  3-C , 15-C ) :   0.9957
B(  3-C , 24-H ) :   0.8944 B(  4-C ,  5-C ) :   1.6301 B(  4-C , 20-H ) :  -0.1700
B(  4-C , 21-H ) :   1.0378 B(  5-C , 20-H ) :   1.1608 B(  5-C , 21-H ) :  -0.1527
B(  6-C ,  7-C ) :   0.1324 B(  6-C ,  8-O ) :   0.4460 B(  6-C ,  9-H ) :   0.9067
B(  6-C , 10-H ) :   0.8953 B(  7-C ,  8-O ) :   0.7677 B(  7-C , 11-H ) :   1.0457
B(  7-C , 12-H ) :   0.8619 B(  8-O ,  9-H ) :   0.1081 B( 13-C , 14-O ) :   0.5974
B( 13-C , 16-H ) :   1.0489 B( 13-C , 17-H ) :   0.9041 B( 14-O , 15-C ) :   0.6354
B( 15-C , 18-H ) :   0.9844 B( 15-C , 19-H ) :   0.9166

MP2 TOTAL ENERGY:     -539.009097582 Eh
FINAL SINGLE POINT ENERGY      -539.009097581630

DIPOLE MOMENT
-------------
                                X             Y             Z
Electronic contribution:     -0.55185       0.10830      -0.75164
Nuclear contribution   :      0.77776       0.31416       1.50648
                        -----------------------------------------
Total Dipole Moment    :      0.22590       0.42246       0.75484
                        -----------------------------------------
Magnitude (a.u.)       :      0.89403
Magnitude (Debye)      :      2.27244

Rotational constants in cm-1:     0.060585     0.026343     0.022209
Rotational constants in MHz :  1816.284709   789.752054   665.820014

                             ****ORCA TERMINATED NORMALLY****
TOTAL RUN TIME: 0 days 1 hours 54 minutes 43 seconds 853 msec
