                         Program Version 4.2.1 -  RELEASE  -
|  1> %pal
|  2>  nprocs 32
|  3> end
|  4> !RI-MP2 aug-cc-pVQZ aug-cc-pVQZ/C TightSCF
|  5> %maxcore 4500
|  6> *xyzfile 0 1  10_71R.xyz
|  7>
|  8>
|  9>                          ****END OF INPUT****

CARTESIAN COORDINATES (ANGSTROEM)
---------------------------------
  C      5.531255    0.560168    1.988364
  C      5.125053   -0.554207    1.032454
  C      3.750817   -0.326989    0.419226
  C      3.263395   -1.509867   -0.447106
  C      1.797404   -1.397537   -0.755749
  C      0.769275   -1.983793   -0.127513
  C     -0.590049   -1.641936   -0.562438
  C     -1.725759   -2.092154   -0.030702
  C     -3.614693    1.482497    0.947669
  C     -3.251873    2.401229    0.049456
  C     -1.869842    2.799880   -0.222773
  C     -0.786684    2.104079    0.152870
  C      0.569611    2.419205   -0.226395
  C      1.592272    1.615695    0.086907
  C      2.937611    1.854790   -0.472579
  C      4.070369   -1.655631   -1.739262
  C     -3.096293   -1.649912   -0.467591
  C     -4.019625   -1.448268    0.759533
  C     -5.221684   -0.494571    0.563077
  C     -4.985911    0.927658    1.145869
  C      0.911221   -2.931058    1.030120
  O      3.236396    2.856795   -1.067238
  O      3.866516    0.878581   -0.360120
  O     -3.038042   -0.527470   -1.343750
  O     -5.670679   -0.449600   -0.775240
  H      5.576631    1.517863    1.468601
  H      6.513773    0.364113    2.421078
  H      4.817922    0.654159    2.812193
  H      5.861398   -0.641730    0.230835
  H      5.104854   -1.513710    1.558182
  H      3.041276   -0.168576    1.234581
  H      3.431939   -2.398252    0.165826
  H      1.554722   -0.729080   -1.578877
  H      0.757294    3.296259   -0.838562
  H      1.402539    0.729618    0.672314
  H      3.976154   -0.761046   -2.356448
  H      3.705418   -2.508623   -2.313606
  H      5.130623   -1.813909   -1.538998
  H     -3.543701   -2.428794   -1.090177
  H     -3.427920   -1.108274    1.613525
  H     -4.391463   -2.440109    1.027826
  H     -6.067675   -0.902251    1.119118
  H     -5.188169    0.878902    2.221245
  H     -5.739958    1.578905    0.700097
  H      0.410230   -3.878748    0.816464
  H      0.442862   -2.517802    1.928278
  H      1.949747   -3.149713    1.267481
  H     -2.644925    0.224516   -0.885489
  H     -4.900257   -0.279412   -1.337378
  H     -0.908421    1.188706    0.725517
  H     -1.728980    3.690526   -0.828253
  H     -2.841766    1.061874    1.586465
  H     -4.018279    2.864158   -0.565893
  H     -1.710224   -2.813652    0.780883
  H     -0.654398   -0.938032   -1.386662

 Total Charge           Charge          ....    0
 Multiplicity           Mult            ....    1
 Number of Electrons    NEL             ....  188
 Basis Dimension        Dim             .... 3380

ORBITAL ENERGIES
----------------

  NO   OCC          E(Eh)            E(eV)
   0   2.0000     -20.587128      -560.2042
   1   2.0000     -20.568018      -559.6842
   2   2.0000     -20.539101      -558.8973
   3   2.0000     -20.522546      -558.4469
   4   2.0000     -11.373987      -309.5019
   5   2.0000     -11.300978      -307.5152
   6   2.0000     -11.298890      -307.4584
   7   2.0000     -11.288294      -307.1701
   8   2.0000     -11.265403      -306.5472
   9   2.0000     -11.262870      -306.4783
  10   2.0000     -11.253017      -306.2101
  11   2.0000     -11.251613      -306.1720
  12   2.0000     -11.248495      -306.0871
  13   2.0000     -11.247567      -306.0618
  14   2.0000     -11.244363      -305.9747
  15   2.0000     -11.240558      -305.8711
  16   2.0000     -11.239551      -305.8437
  17   2.0000     -11.237729      -305.7942
  18   2.0000     -11.235943      -305.7455
  19   2.0000     -11.235577      -305.7356
  20   2.0000     -11.235353      -305.7295
  21   2.0000     -11.233191      -305.6707
  22   2.0000     -11.229550      -305.5716
  23   2.0000     -11.217738      -305.2502
  24   2.0000     -11.215788      -305.1971
  25   2.0000      -1.446600       -39.3640
  26   2.0000      -1.384986       -37.6874
  27   2.0000      -1.350335       -36.7445
  28   2.0000      -1.349854       -36.7314
  29   2.0000      -1.140114       -31.0241
  30   2.0000      -1.137787       -30.9608
  31   2.0000      -1.103177       -30.0190
  32   2.0000      -1.101302       -29.9680
  33   2.0000      -1.070847       -29.1392
  34   2.0000      -1.054074       -28.6828
  35   2.0000      -1.034066       -28.1384
  36   2.0000      -1.006614       -27.3914
  37   2.0000      -0.971435       -26.4341
  38   2.0000      -0.951890       -25.9022
  39   2.0000      -0.942594       -25.6493
  40   2.0000      -0.907534       -24.6953
  41   2.0000      -0.887427       -24.1481
  42   2.0000      -0.850091       -23.1322
  43   2.0000      -0.837931       -22.8013
  44   2.0000      -0.822222       -22.3738
  45   2.0000      -0.797477       -21.7005
  46   2.0000      -0.784140       -21.3375
  47   2.0000      -0.753396       -20.5009
  48   2.0000      -0.746610       -20.3163
  49   2.0000      -0.728404       -19.8209
  50   2.0000      -0.711861       -19.3707
  51   2.0000      -0.704826       -19.1793
  52   2.0000      -0.684708       -18.6318
  53   2.0000      -0.676277       -18.4024
  54   2.0000      -0.674243       -18.3471
  55   2.0000      -0.659123       -17.9357
  56   2.0000      -0.653081       -17.7712
  57   2.0000      -0.644190       -17.5293
  58   2.0000      -0.637110       -17.3366
  59   2.0000      -0.629914       -17.1408
  60   2.0000      -0.618072       -16.8186
  61   2.0000      -0.609919       -16.5967
  62   2.0000      -0.607386       -16.5278
  63   2.0000      -0.597726       -16.2649
  64   2.0000      -0.588600       -16.0166
  65   2.0000      -0.584839       -15.9143
  66   2.0000      -0.579463       -15.7680
  67   2.0000      -0.573387       -15.6026
  68   2.0000      -0.566153       -15.4058
  69   2.0000      -0.563815       -15.3422
  70   2.0000      -0.548110       -14.9148
  71   2.0000      -0.541889       -14.7456
  72   2.0000      -0.539130       -14.6705
  73   2.0000      -0.532268       -14.4838
  74   2.0000      -0.529499       -14.4084
  75   2.0000      -0.525044       -14.2872
  76   2.0000      -0.519188       -14.1278
  77   2.0000      -0.512228       -13.9384
  78   2.0000      -0.505991       -13.7687
  79   2.0000      -0.502083       -13.6624
  80   2.0000      -0.498542       -13.5660
  81   2.0000      -0.493957       -13.4413
  82   2.0000      -0.484650       -13.1880
  83   2.0000      -0.482692       -13.1347
  84   2.0000      -0.478792       -13.0286
  85   2.0000      -0.469352       -12.7717
  86   2.0000      -0.446590       -12.1523
  87   2.0000      -0.445065       -12.1108
  88   2.0000      -0.440315       -11.9816
  89   2.0000      -0.436382       -11.8746
  90   2.0000      -0.418718       -11.3939
  91   2.0000      -0.400245       -10.8912
  92   2.0000      -0.323305        -8.7976
  93   2.0000      -0.309381        -8.4187
  94   0.0000       0.014288         0.3888
  95   0.0000       0.020961         0.5704
  96   0.0000       0.024179         0.6580
  97   0.0000       0.025829         0.7028
  98   0.0000       0.029833         0.8118

MULLIKEN ATOMIC CHARGES
-----------------------
   0 C :   -0.942739
   1 C :   -0.765902
   2 C :    1.328058
   3 C :   -0.182621
   4 C :    0.198298
   5 C :    0.886822
   6 C :   -0.423391
   7 C :   -0.309217
   8 C :    0.028396
   9 C :   -0.379650
  10 C :    0.053496
  11 C :   -0.660758
  12 C :    0.249602
  13 C :   -1.286247
  14 C :    1.841316
  15 C :   -1.172639
  16 C :    1.007191
  17 C :   -0.797603
  18 C :    0.678239
  19 C :   -0.880458
  20 C :   -1.099206
  21 O :   -1.106817
  22 O :   -1.104135
  23 O :   -1.321894
  24 O :   -1.262431
  25 H :    0.214880
  26 H :    0.288663
  27 H :    0.169051
  28 H :    0.195224
  29 H :    0.245661
  30 H :    0.125114
  31 H :    0.160607
  32 H :   -0.056069
  33 H :    0.264017
  34 H :    0.325408
  35 H :    0.215585
  36 H :    0.271530
  37 H :    0.228522
  38 H :    0.405034
  39 H :    0.308179
  40 H :    0.219922
  41 H :    0.422607
  42 H :    0.245804
  43 H :    0.253911
  44 H :    0.231605
  45 H :    0.127842
  46 H :    0.277474
  47 H :    0.704265
  48 H :    0.450858
  49 H :    0.490170
  50 H :    0.144058
  51 H :    0.273532
  52 H :    0.152664
  53 H :    0.145896
  54 H :   -0.077723
Sum of atomic charges:   -0.0000000

LOEWDIN ATOMIC CHARGES
----------------------
   0 C :    0.944019
   1 C :    0.505510
   2 C :   -0.200992
   3 C :    0.117069
   4 C :    0.364466
   5 C :   -0.002957
   6 C :    0.364849
   7 C :    0.404592
   8 C :    0.362037
   9 C :    0.385924
  10 C :    0.391348
  11 C :    0.353845
  12 C :    0.368697
  13 C :    0.315423
  14 C :   -1.060068
  15 C :    0.943813
  16 C :   -0.163751
  17 C :    0.536873
  18 C :   -0.161202
  19 C :    0.528998
  20 C :    0.908011
  21 O :    0.676260
  22 O :    0.876133
  23 O :    1.361922
  24 O :    1.318215
  25 H :   -0.287448
  26 H :   -0.275473
  27 H :   -0.275313
  28 H :   -0.282375
  29 H :   -0.262421
  30 H :   -0.339974
  31 H :   -0.333597
  32 H :   -0.322419
  33 H :   -0.333578
  34 H :   -0.418563
  35 H :   -0.277509
  36 H :   -0.262007
  37 H :   -0.279502
  38 H :   -0.301742
  39 H :   -0.310267
  40 H :   -0.265237
  41 H :   -0.317930
  42 H :   -0.275920
  43 H :   -0.297535
  44 H :   -0.275177
  45 H :   -0.272033
  46 H :   -0.315302
  47 H :   -0.853781
  48 H :   -0.975078
  49 H :   -0.367025
  50 H :   -0.323587
  51 H :   -0.330241
  52 H :   -0.316328
  53 H :   -0.329448
  54 H :   -0.362229

  Mayer bond orders larger than 0.100000
B(  0-C ,  1-C ) :   0.9326 B(  0-C ,  2-C ) :  -0.1743 B(  0-C , 25-H ) :   0.9844
B(  0-C , 26-H ) :   1.0309 B(  0-C , 27-H ) :   1.0171 B(  1-C ,  3-C ) :   0.1980
B(  1-C , 26-H ) :  -0.1321 B(  1-C , 28-H ) :   1.1284 B(  1-C , 29-H ) :   1.0397
B(  2-C ,  3-C ) :   0.7036 B(  2-C , 14-C ) :   0.1188 B(  2-C , 21-O ) :   0.1141
B(  2-C , 22-O ) :  -0.1301 B(  2-C , 28-H ) :  -0.2310 B(  2-C , 29-H ) :  -0.1298
B(  2-C , 30-H ) :   0.9642 B(  2-C , 34-H ) :  -0.1102 B(  3-C ,  4-C ) :   0.7136
B(  3-C ,  5-C ) :  -0.2607 B(  3-C , 15-C ) :   0.4313 B(  3-C , 31-H ) :   1.0372
B(  3-C , 35-H ) :  -0.2258 B(  3-C , 36-H ) :  -0.1095 B(  3-C , 37-H ) :  -0.1448
B(  4-C ,  5-C ) :   1.2655 B(  4-C ,  6-C ) :  -0.7692 B(  4-C , 15-C ) :  -0.3258
B(  4-C , 32-H ) :   1.3844 B(  5-C ,  6-C ) :   0.5567 B(  5-C ,  7-C ) :  -0.7604
B(  5-C , 20-C ) :   0.2629 B(  5-C , 32-H ) :  -0.2836 B(  5-C , 44-H ) :  -0.1750
B(  5-C , 45-H ) :  -0.1750 B(  5-C , 54-H ) :  -0.2019 B(  6-C ,  7-C ) :   1.1501
B(  6-C , 16-C ) :  -0.6058 B(  6-C , 23-O ) :  -0.2664 B(  6-C , 53-H ) :  -0.1747
B(  6-C , 54-H ) :   1.2586 B(  7-C , 16-C ) :   0.5720 B(  7-C , 17-C ) :  -0.2428
B(  7-C , 23-O ) :   0.2189 B(  7-C , 38-H ) :  -0.2218 B(  7-C , 53-H ) :   1.1779
B(  7-C , 54-H ) :   0.1387 B(  8-C ,  9-C ) :   1.5619 B(  8-C , 10-C ) :  -0.3844
B(  8-C , 19-C ) :   0.5239 B(  8-C , 42-H ) :  -0.2419 B(  8-C , 51-H ) :   0.9184
B(  9-C , 10-C ) :   1.0405 B(  9-C , 11-C ) :  -0.3156 B(  9-C , 19-C ) :  -0.1585
B(  9-C , 50-H ) :  -0.1371 B(  9-C , 52-H ) :   1.1341 B( 10-C , 11-C ) :   1.4803
B( 10-C , 12-C ) :  -0.5527 B( 10-C , 50-H ) :   1.1308 B( 10-C , 52-H ) :  -0.2028
B( 11-C , 12-C ) :   0.5876 B( 11-C , 13-C ) :  -0.8878 B( 11-C , 34-H ) :   0.1223
B( 11-C , 49-H ) :   0.6684 B( 12-C , 13-C ) :   1.1705 B( 12-C , 14-C ) :  -0.4201
B( 12-C , 33-H ) :   0.9687 B( 13-C , 14-C ) :   1.3669 B( 13-C , 21-O ) :   0.3510
B( 13-C , 22-O ) :   0.1001 B( 13-C , 34-H ) :   0.9671 B( 14-C , 21-O ) :   0.2712
B( 14-C , 22-O ) :   1.0543 B( 15-C , 35-H ) :   1.0930 B( 15-C , 36-H ) :   1.0948
B( 15-C , 37-H ) :   1.1452 B( 16-C , 17-C ) :   1.0754 B( 16-C , 38-H ) :   0.8397
B( 16-C , 54-H ) :  -0.1200 B( 17-C , 18-C ) :   0.9078 B( 17-C , 24-O ) :   0.3118
B( 17-C , 39-H ) :   0.9336 B( 17-C , 40-H ) :   1.0084 B( 18-C , 19-C ) :   1.0348
B( 18-C , 41-H ) :   0.8842 B( 19-C , 24-O ) :   0.2030 B( 19-C , 42-H ) :   1.0969
B( 19-C , 43-H ) :   1.0630 B( 20-C , 44-H ) :   1.1297 B( 20-C , 45-H ) :   1.1439
B( 20-C , 46-H ) :   1.0422 B( 21-O , 22-O ) :   0.3210 B( 22-O , 30-H ) :   0.1145
B( 23-O , 47-H ) :   0.3695 B( 23-O , 48-H ) :   0.1009 B( 23-O , 54-H ) :   0.3351
B( 24-O , 48-H ) :   0.6581 B( 44-H , 45-H ) :   0.1057

MP2 TOTAL ENERGY:    -1117.272695843 Eh
FINAL SINGLE POINT ENERGY     -1117.272695843375

DIPOLE MOMENT
-------------
                                X             Y             Z
Electronic contribution:     -6.32473      11.79950      -8.03540
Nuclear contribution   :      5.99824     -13.14474       9.75694
                        -----------------------------------------
Total Dipole Moment    :     -0.32649      -1.34524       1.72154
                        -----------------------------------------
Magnitude (a.u.)       :      2.20907
Magnitude (Debye)      :      5.61500

Rotational constants in cm-1:     0.012557     0.003753     0.003210
Rotational constants in MHz :   376.459481   112.519173    96.246754

                             ****ORCA TERMINATED NORMALLY****
TOTAL RUN TIME: 0 days 20 hours 55 minutes 59 seconds 650 msec
