                         Program Version 4.2.1 -  RELEASE  -
|  1> %pal
|  2>  nprocs 32
|  3> end
|  4> !RI-MP2 aug-cc-pVQZ aug-cc-pVQZ/C TightSCF
|  5> %maxcore 4500
|  6> *xyzfile 0 1  09_13TS.xyz
|  7>
|  8>
|  9>                          ****END OF INPUT****

CARTESIAN COORDINATES (ANGSTROEM)
---------------------------------
  N      0.625986    0.959617   -0.355103
  C      1.939896    0.603313    0.013679
  C      2.136271   -0.722653    0.055135
  S      0.669214   -1.590377   -0.369917
  C     -0.207574   -0.096923   -0.537302
  C      2.940257    1.668359    0.314627
  H      3.150095    2.289877   -0.559489
  H      3.878375    1.217193    0.628328
  H      2.600054    2.320559    1.122159
  C      3.364989   -1.500153    0.390460
  H      4.204409   -0.841101    0.606496
  H      3.657969   -2.149427   -0.438362
  H      3.203602   -2.134325    1.265545
  C      0.197205    2.348075   -0.495198
  H      1.064188    2.995000   -0.417997
  H     -0.510995    2.606440    0.289304
  H     -0.253291    2.502597   -1.473680
  C     -1.588809   -0.150829   -0.719245
  C     -2.463175    0.907138   -1.344408
  H     -2.314462    1.896005   -0.919017
  H     -3.504102    0.628587   -1.173890
  H     -2.315637    0.956949   -2.428284
  O     -2.011280   -1.447000   -1.010788
  C     -2.079057    0.052831    1.351918
  O     -1.675114    1.101187    1.728957
  O     -2.672884   -0.961703    1.527345
  H     -2.515339   -1.754455   -0.238841

 Total Charge           Charge          ....    0
 Multiplicity           Mult            ....    1
 Number of Electrons    NEL             ....  114
 Basis Dimension        Dim             .... 1722

ORBITAL ENERGIES
----------------

  NO   OCC          E(Eh)            E(eV)
   0   2.0000     -91.988493     -2503.1341
   1   2.0000     -20.572466      -559.8053
   2   2.0000     -20.567038      -559.6576
   3   2.0000     -20.549937      -559.1922
   4   2.0000     -15.631400      -425.3520
   5   2.0000     -11.408316      -310.4360
   6   2.0000     -11.339878      -308.5738
   7   2.0000     -11.297789      -307.4285
   8   2.0000     -11.278421      -306.9014
   9   2.0000     -11.274372      -306.7913
  10   2.0000     -11.268590      -306.6339
  11   2.0000     -11.254782      -306.2582
  12   2.0000     -11.247016      -306.0469
  13   2.0000     -11.224517      -305.4346
  14   2.0000      -8.990620      -244.6472
  15   2.0000      -6.671870      -181.5508
  16   2.0000      -6.671023      -181.5278
  17   2.0000      -6.670207      -181.5056
  18   2.0000      -1.458340       -39.6835
  19   2.0000      -1.389693       -37.8155
  20   2.0000      -1.367405       -37.2090
  21   2.0000      -1.327205       -36.1151
  22   2.0000      -1.126022       -30.6406
  23   2.0000      -1.090339       -29.6696
  24   2.0000      -1.019581       -27.7442
  25   2.0000      -1.007825       -27.4243
  26   2.0000      -0.959830       -26.1183
  27   2.0000      -0.940436       -25.5906
  28   2.0000      -0.862863       -23.4797
  29   2.0000      -0.799757       -21.7625
  30   2.0000      -0.748578       -20.3698
  31   2.0000      -0.729669       -19.8553
  32   2.0000      -0.720410       -19.6034
  33   2.0000      -0.687709       -18.7135
  34   2.0000      -0.676924       -18.4200
  35   2.0000      -0.660271       -17.9669
  36   2.0000      -0.649161       -17.6646
  37   2.0000      -0.638873       -17.3846
  38   2.0000      -0.614345       -16.7172
  39   2.0000      -0.608851       -16.5677
  40   2.0000      -0.605096       -16.4655
  41   2.0000      -0.600151       -16.3309
  42   2.0000      -0.588885       -16.0244
  43   2.0000      -0.581254       -15.8167
  44   2.0000      -0.566865       -15.4252
  45   2.0000      -0.562472       -15.3056
  46   2.0000      -0.556365       -15.1395
  47   2.0000      -0.536454       -14.5977
  48   2.0000      -0.530988       -14.4489
  49   2.0000      -0.516470       -14.0539
  50   2.0000      -0.493718       -13.4348
  51   2.0000      -0.479137       -13.0380
  52   2.0000      -0.472959       -12.8699
  53   2.0000      -0.455025       -12.3819
  54   2.0000      -0.408765       -11.1231
  55   2.0000      -0.379767       -10.3340
  56   2.0000      -0.272924        -7.4266
  57   0.0000       0.015045         0.4094
  58   0.0000       0.023008         0.6261
  59   0.0000       0.028288         0.7698
  60   0.0000       0.032870         0.8944
  61   0.0000       0.038325         1.0429

MULLIKEN ATOMIC CHARGES
-----------------------
   0 N :    0.114516
   1 C :    0.261922
   2 C :   -0.396416
   3 S :    0.140349
   4 C :   -0.267605
   5 C :   -0.794696
   6 H :    0.223205
   7 H :    0.288792
   8 H :    0.206496
   9 C :   -0.818518
  10 H :    0.267719
  11 H :    0.248446
  12 H :    0.229216
  13 C :   -1.102423
  14 H :    0.234668
  15 H :    0.436581
  16 H :    0.404051
  17 C :    1.805795
  18 C :   -1.111880
  19 H :    0.223170
  20 H :    0.270842
  21 H :    0.274506
  22 O :   -1.112079
  23 C :    1.350444
  24 O :   -0.889867
  25 O :   -0.904643
  26 H :    0.417406
Sum of atomic charges:    0.0000000

LOEWDIN ATOMIC CHARGES
----------------------
   0 N :    0.387476
   1 C :   -0.277245
   2 C :   -0.427756
   3 S :    1.457086
   4 C :   -0.669844
   5 C :    0.930125
   6 H :   -0.267174
   7 H :   -0.317612
   8 H :   -0.266084
   9 C :    0.838878
  10 H :   -0.326455
  11 H :   -0.294284
  12 H :   -0.292106
  13 C :    0.810201
  14 H :   -0.335619
  15 H :   -0.324629
  16 H :   -0.281082
  17 C :   -0.659352
  18 C :    0.869589
  19 H :   -0.351198
  20 H :   -0.294568
  21 H :   -0.267634
  22 O :    1.205741
  23 C :   -1.222025
  24 O :    0.658056
  25 O :    0.701728
  26 H :   -0.984212

  Mayer bond orders larger than 0.100000
B(  0-N ,  1-C ) :   0.9827 B(  0-N ,  3-S ) :  -0.3412 B(  0-N ,  4-C ) :   0.8291
B(  0-N , 13-C ) :   0.7078 B(  1-C ,  2-C ) :   1.3637 B(  1-C ,  3-S ) :  -0.1872
B(  1-C ,  5-C ) :   0.6498 B(  1-C ,  7-H ) :  -0.1124 B(  2-C ,  3-S ) :   1.0762
B(  2-C ,  9-C ) :   0.5045 B(  2-C , 10-H ) :  -0.1311 B(  2-C , 11-H ) :  -0.1191
B(  2-C , 12-H ) :  -0.1285 B(  3-S ,  4-C ) :   1.0906 B(  3-S , 17-C ) :  -0.1368
B(  4-C , 17-C ) :   0.7490 B(  4-C , 22-O ) :   0.4497 B(  5-C ,  6-H ) :   1.0317
B(  5-C ,  7-H ) :   1.0107 B(  5-C ,  8-H ) :   1.0337 B(  9-C , 10-H ) :   1.0256
B(  9-C , 11-H ) :   1.0305 B(  9-C , 12-H ) :   1.0442 B( 13-C , 14-H ) :   1.0094
B( 13-C , 15-H ) :   0.7998 B( 13-C , 16-H ) :   0.8819 B( 17-C , 18-C ) :   0.6641
B( 17-C , 19-H ) :  -0.1474 B( 17-C , 22-O ) :  -0.2671 B( 17-C , 23-C ) :   0.2365
B( 17-C , 24-O ) :  -0.1352 B( 17-C , 25-O ) :  -0.2537 B( 18-C , 19-H ) :   1.0546
B( 18-C , 20-H ) :   1.0321 B( 18-C , 21-H ) :   0.9377 B( 22-O , 26-H ) :   0.7361
B( 23-C , 24-O ) :   1.5631 B( 23-C , 25-O ) :   1.5001 B( 24-O , 25-O ) :   0.2039
B( 25-O , 26-H ) :   0.1184

MP2 TOTAL ENERGY:    -1027.986358769 Eh
FINAL SINGLE POINT ENERGY     -1027.986358768722

DIPOLE MOMENT
-------------
                                X             Y             Z
Electronic contribution:     -8.08274      -9.31043       3.00967
Nuclear contribution   :     10.17221      10.51072      -3.67298
                        -----------------------------------------
Total Dipole Moment    :      2.08947       1.20028      -0.66331
                        -----------------------------------------
Magnitude (a.u.)       :      2.49931
Magnitude (Debye)      :      6.35275

Rotational constants in cm-1:     0.031082     0.016443     0.013976
Rotational constants in MHz :   931.812497   492.936683   418.989259

                             ****ORCA TERMINATED NORMALLY****
TOTAL RUN TIME: 0 days 2 hours 50 minutes 42 seconds 746 msec
