                         Program Version 4.2.1 -  RELEASE  -
|  1> %pal
|  2>  nprocs 32
|  3> end
|  4> !RI-MP2 aug-cc-pVQZ aug-cc-pVQZ/C TightSCF
|  5> %maxcore 4500
|  6> *xyzfile 0 1  10_38TS.xyz
|  7>
|  8>
|  9>                          ****END OF INPUT****

CARTESIAN COORDINATES (ANGSTROEM)
---------------------------------
  C     -0.586434   -2.193783    1.322254
  H     -0.713328   -3.207169    1.703485
  H     -0.819618   -1.509122    2.148833
  C     -1.585645   -1.923786    0.190440
  C      0.136173   -0.499745   -0.893441
  H      0.491848   -1.162863   -1.688549
  H      0.271926    0.509542   -1.266942
  C      1.018939   -0.706077    0.354507
  H      0.729328    0.043276    1.095739
  N      0.803960   -2.011217    0.971077
  C     -2.342004    0.117391   -0.905984
  C     -2.779563   -2.634226    0.168165
  H     -3.092776   -3.057436   -0.767832
  H     -3.012042   -3.266574    1.023764
  C     -3.670704   -0.017467   -0.494095
  H     -4.138479    0.879755   -0.094218
  C     -4.367452   -1.216191   -0.407085
  C     -1.318742   -0.814544   -0.629934
  C     -5.634142   -1.310435    0.399129
  H     -5.822995   -2.337623    0.715852
  H     -5.586275   -0.686130    1.292481
  H     -6.497041   -0.992689   -0.195395
  H     -4.360809   -1.827493   -1.293554
  C      2.472389   -0.490650    0.012170
  C      1.378998   -3.096623    0.191673
  H      1.009381   -3.113831   -0.846239
  H      1.080377   -4.042128    0.648432
  C      2.894121   -2.968847    0.206224
  H      3.337319   -3.670623   -0.505526
  C      3.352386   -1.564798   -0.101840
  H      3.258786   -3.245488    1.200415
  C      4.674966   -1.318725   -0.467169
  H      5.360610   -2.154793   -0.559234
  C      2.928702    0.803906   -0.226625
  H      2.240580    1.635628   -0.122796
  C      5.123690   -0.031591   -0.709720
  H      6.155482    0.139006   -0.992985
  C      4.245128    1.038235   -0.584218
  H      4.586992    2.050661   -0.762998
  S     -1.952214    1.763244   -1.509188
  C     -0.935175    2.473189   -0.226712
  C     -1.058587    2.114057    1.111496
  C     -0.261686    2.723362    2.069611
  C      0.649142    3.706866    1.707200
  C      0.759506    4.076851    0.373842
  C     -0.021949    3.458919   -0.592009
  H     -1.770576    1.351279    1.400490
  H     -0.356904    2.428626    3.108009
  H      1.270026    4.179110    2.458154
  H      1.469049    4.840502    0.078266
  H      0.084509    3.731455   -1.635441

 Total Charge           Charge          ....    0
 Multiplicity           Mult            ....    1
 Number of Electrons    NEL             ....  192
 Basis Dimension        Dim             .... 3234

ORBITAL ENERGIES
----------------

  NO   OCC          E(Eh)            E(eV)
   0   2.0000     -91.952213     -2502.1469
   1   2.0000     -15.542014      -422.9197
   2   2.0000     -11.266937      -306.5889
   3   2.0000     -11.264137      -306.5128
   4   2.0000     -11.253984      -306.2365
   5   2.0000     -11.253695      -306.2286
   6   2.0000     -11.252440      -306.1944
   7   2.0000     -11.245593      -306.0081
   8   2.0000     -11.242949      -305.9362
   9   2.0000     -11.239628      -305.8458
  10   2.0000     -11.239476      -305.8417
  11   2.0000     -11.237875      -305.7981
  12   2.0000     -11.237517      -305.7884
  13   2.0000     -11.236341      -305.7564
  14   2.0000     -11.234933      -305.7181
  15   2.0000     -11.233698      -305.6845
  16   2.0000     -11.228662      -305.5474
  17   2.0000     -11.227121      -305.5055
  18   2.0000     -11.226527      -305.4893
  19   2.0000     -11.224899      -305.4450
  20   2.0000     -11.222584      -305.3820
  21   2.0000     -11.220897      -305.3361
  22   2.0000     -11.220627      -305.3288
  23   2.0000     -11.220241      -305.3183
  24   2.0000     -11.218842      -305.2802
  25   2.0000     -11.215648      -305.1933
  26   2.0000      -8.954120      -243.6540
  27   2.0000      -6.635722      -180.5672
  28   2.0000      -6.634629      -180.5374
  29   2.0000      -6.634011      -180.5206
  30   2.0000      -1.250354       -34.0239
  31   2.0000      -1.168590       -31.7990
  32   2.0000      -1.151652       -31.3381
  33   2.0000      -1.140141       -31.0248
  34   2.0000      -1.076800       -29.3012
  35   2.0000      -1.066679       -29.0258
  36   2.0000      -1.051181       -28.6041
  37   2.0000      -1.047157       -28.4946
  38   2.0000      -1.023864       -27.8608
  39   2.0000      -1.016612       -27.6634
  40   2.0000      -0.994012       -27.0485
  41   2.0000      -0.976345       -26.5677
  42   2.0000      -0.936715       -25.4893
  43   2.0000      -0.925853       -25.1937
  44   2.0000      -0.887348       -24.1460
  45   2.0000      -0.860054       -23.4033
  46   2.0000      -0.837514       -22.7899
  47   2.0000      -0.832477       -22.6528
  48   2.0000      -0.824798       -22.4439
  49   2.0000      -0.808498       -22.0003
  50   2.0000      -0.788453       -21.4549
  51   2.0000      -0.781283       -21.2598
  52   2.0000      -0.732555       -19.9338
  53   2.0000      -0.704376       -19.1670
  54   2.0000      -0.691318       -18.8117
  55   2.0000      -0.676557       -18.4101
  56   2.0000      -0.660876       -17.9834
  57   2.0000      -0.657626       -17.8949
  58   2.0000      -0.642176       -17.4745
  59   2.0000      -0.634586       -17.2680
  60   2.0000      -0.633810       -17.2468
  61   2.0000      -0.621519       -16.9124
  62   2.0000      -0.619323       -16.8526
  63   2.0000      -0.600005       -16.3270
  64   2.0000      -0.595687       -16.2095
  65   2.0000      -0.595031       -16.1916
  66   2.0000      -0.591132       -16.0855
  67   2.0000      -0.581820       -15.8321
  68   2.0000      -0.579124       -15.7588
  69   2.0000      -0.570892       -15.5348
  70   2.0000      -0.564998       -15.3744
  71   2.0000      -0.558102       -15.1867
  72   2.0000      -0.553059       -15.0495
  73   2.0000      -0.541559       -14.7366
  74   2.0000      -0.536851       -14.6085
  75   2.0000      -0.524344       -14.2681
  76   2.0000      -0.518390       -14.1061
  77   2.0000      -0.514592       -14.0028
  78   2.0000      -0.505993       -13.7688
  79   2.0000      -0.503156       -13.6916
  80   2.0000      -0.497878       -13.5479
  81   2.0000      -0.495257       -13.4766
  82   2.0000      -0.482969       -13.1423
  83   2.0000      -0.473324       -12.8798
  84   2.0000      -0.460032       -12.5181
  85   2.0000      -0.453166       -12.3313
  86   2.0000      -0.449181       -12.2228
  87   2.0000      -0.432658       -11.7732
  88   2.0000      -0.393602       -10.7105
  89   2.0000      -0.361692        -9.8421
  90   2.0000      -0.346085        -9.4174
  91   2.0000      -0.324116        -8.8196
  92   2.0000      -0.318391        -8.6639
  93   2.0000      -0.316160        -8.6031
  94   2.0000      -0.298038        -8.1100
  95   2.0000      -0.284357        -7.7378
  96   0.0000       0.019167         0.5216
  97   0.0000       0.023158         0.6302
  98   0.0000       0.024905         0.6777
  99   0.0000       0.027467         0.7474
 100   0.0000       0.031098         0.8462

MULLIKEN ATOMIC CHARGES
-----------------------
   0 C :   -0.446922
   1 H :    0.200421
   2 H :    0.432149
   3 C :    0.076541
   4 C :   -0.193283
   5 H :    0.284066
   6 H :    0.275501
   7 C :    0.585746
   8 H :    0.441897
   9 N :   -0.495685
  10 C :   -0.272114
  11 C :   -0.685174
  12 H :    0.237661
  13 H :    0.163697
  14 C :   -0.239749
  15 H :    0.351959
  16 C :   -0.139592
  17 C :    0.606785
  18 C :   -0.963972
  19 H :    0.253001
  20 H :    0.236284
  21 H :    0.269180
  22 H :    0.258892
  23 C :    0.761542
  24 C :   -0.803943
  25 H :    0.292575
  26 H :    0.152301
  27 C :   -0.698294
  28 H :    0.241476
  29 C :    0.599356
  30 H :    0.167957
  31 C :   -0.800429
  32 H :    0.217433
  33 C :   -1.064375
  34 H :    0.677137
  35 C :   -0.327113
  36 H :    0.252869
  37 C :   -0.705642
  38 H :    0.165202
  39 S :   -0.510975
  40 C :    0.365791
  41 C :   -0.145972
  42 C :   -0.383430
  43 C :   -0.293552
  44 C :   -0.328436
  45 C :   -0.613679
  46 H :    0.592995
  47 H :    0.150804
  48 H :    0.274496
  49 H :    0.243756
  50 H :    0.282861
Sum of atomic charges:    0.0000000

LOEWDIN ATOMIC CHARGES
----------------------
   0 C :    0.366524
   1 H :   -0.305541
   2 H :   -0.260484
   3 C :   -0.023302
   4 C :    0.492972
   5 H :   -0.262319
   6 H :   -0.386755
   7 C :   -0.039294
   8 H :   -0.318212
   9 N :    0.556635
  10 C :   -0.423651
  11 C :    0.742770
  12 H :   -0.361449
  13 H :   -0.282209
  14 C :    0.237154
  15 H :   -0.351845
  16 C :    0.299397
  17 C :   -0.088666
  18 C :    0.925269
  19 H :   -0.291030
  20 H :   -0.294139
  21 H :   -0.277792
  22 H :   -0.352214
  23 C :   -0.030592
  24 C :    0.368578
  25 H :   -0.261544
  26 H :   -0.273811
  27 C :    0.533982
  28 H :   -0.270724
  29 C :   -0.030494
  30 H :   -0.259017
  31 C :    0.357131
  32 H :   -0.312735
  33 C :    0.364541
  34 H :   -0.339511
  35 C :    0.348828
  36 H :   -0.321879
  37 C :    0.361442
  38 H :   -0.318850
  39 S :    1.381678
  40 C :   -0.475412
  41 C :    0.247026
  42 C :    0.347712
  43 C :    0.340055
  44 C :    0.326900
  45 C :    0.232773
  46 H :   -0.342598
  47 H :   -0.309986
  48 H :   -0.317509
  49 H :   -0.313493
  50 H :   -0.334306

  Mayer bond orders larger than 0.100000
B(  0-C ,  1-H ) :   1.1289 B(  0-C ,  2-H ) :   0.7719 B(  0-C ,  3-C ) :   0.7210
B(  0-C ,  7-C ) :  -0.1743 B(  0-C ,  9-N ) :   1.3320 B(  3-C ,  4-C ) :  -0.2827
B(  3-C ,  7-C ) :   0.1801 B(  3-C ,  9-N ) :  -0.1933 B(  3-C , 11-C ) :   1.0098
B(  3-C , 12-H ) :  -0.3592 B(  3-C , 13-H ) :  -0.3112 B(  3-C , 17-C ) :   0.8202
B(  4-C ,  5-H ) :   0.9591 B(  4-C ,  6-H ) :   0.8430 B(  4-C ,  7-C ) :   0.7849
B(  4-C , 10-C ) :  -0.3178 B(  4-C , 17-C ) :   0.2729 B(  4-C , 23-C ) :   0.1646
B(  4-C , 29-C ) :  -0.1567 B(  4-C , 34-H ) :   0.1156 B(  4-C , 39-S ) :  -0.3054
B(  6-H , 10-C ) :   0.1250 B(  6-H , 17-C ) :  -0.1206 B(  6-H , 39-S ) :   0.2044
B(  6-H , 40-C ) :   0.1297 B(  7-C ,  8-H ) :   0.8377 B(  7-C ,  9-N ) :   0.1032
B(  7-C , 23-C ) :   0.5203 B(  7-C , 24-C ) :  -0.2778 B(  7-C , 27-C ) :  -0.1049
B(  7-C , 33-C ) :  -0.6321 B(  7-C , 34-H ) :   0.1762 B(  7-C , 37-C ) :   0.1612
B(  7-C , 40-C ) :   0.1565 B(  7-C , 45-C ) :   0.1173 B(  8-H , 17-C ) :   0.1096
B(  9-N , 23-C ) :  -0.2529 B(  9-N , 24-C ) :   0.5826 B(  9-N , 25-H ) :  -0.1158
B( 10-C , 11-C ) :   0.3128 B( 10-C , 14-C ) :   0.7536 B( 10-C , 16-C ) :  -0.2997
B( 10-C , 17-C ) :   1.5585 B( 10-C , 39-S ) :   0.5931 B( 11-C , 12-H ) :   1.1811
B( 11-C , 13-H ) :   1.2226 B( 11-C , 16-C ) :   0.2994 B( 11-C , 17-C ) :  -0.4855
B( 14-C , 15-H ) :   0.9257 B( 14-C , 16-C ) :   1.0060 B( 14-C , 22-H ) :  -0.1546
B( 16-C , 18-C ) :   0.7378 B( 16-C , 21-H ) :  -0.1043 B( 16-C , 22-H ) :   1.0145
B( 17-C , 39-S ) :  -0.2956 B( 17-C , 40-C ) :  -0.1669 B( 18-C , 19-H ) :   1.0269
B( 18-C , 20-H ) :   0.9801 B( 18-C , 21-H ) :   1.0319 B( 23-C , 24-C ) :   0.1169
B( 23-C , 29-C ) :   0.8950 B( 23-C , 31-C ) :  -0.3871 B( 23-C , 33-C ) :   0.5425
B( 23-C , 34-H ) :  -0.2899 B( 23-C , 37-C ) :  -0.5343 B( 24-C , 25-H ) :   1.0253
B( 24-C , 26-H ) :   1.1293 B( 24-C , 27-C ) :   1.1480 B( 27-C , 28-H ) :   1.1047
B( 27-C , 29-C ) :   0.3637 B( 27-C , 30-H ) :   1.1290 B( 28-H , 29-C ) :  -0.1837
B( 29-C , 30-H ) :  -0.1223 B( 29-C , 31-C ) :   0.7650 B( 29-C , 32-H ) :  -0.1125
B( 29-C , 35-C ) :  -0.4056 B( 31-C , 32-H ) :   1.0993 B( 31-C , 35-C ) :   1.3021
B( 31-C , 36-H ) :  -0.2160 B( 31-C , 37-C ) :   0.3320 B( 33-C , 34-H ) :   0.6195
B( 33-C , 37-C ) :   1.3077 B( 33-C , 38-H ) :  -0.1963 B( 34-H , 37-C ) :  -0.3451
B( 35-C , 36-H ) :   1.1836 B( 35-C , 37-C ) :   1.2972 B( 36-H , 37-C ) :  -0.1789
B( 37-C , 38-H ) :   1.2301 B( 39-S , 40-C ) :   0.8723 B( 39-S , 41-C ) :  -0.3746
B( 39-S , 45-C ) :  -0.1201 B( 40-C , 41-C ) :   0.5999 B( 40-C , 42-C ) :  -0.1128
B( 40-C , 44-C ) :  -0.2464 B( 40-C , 45-C ) :   0.9403 B( 40-C , 46-H ) :  -0.2594
B( 41-C , 42-C ) :   1.3419 B( 41-C , 44-C ) :   0.1510 B( 41-C , 45-C ) :  -0.1220
B( 41-C , 46-H ) :   0.6766 B( 42-C , 43-C ) :   1.2346 B( 42-C , 45-C ) :   0.2017
B( 42-C , 46-H ) :  -0.2079 B( 42-C , 47-H ) :   1.2003 B( 43-C , 44-C ) :   1.1432
B( 43-C , 48-H ) :   1.1153 B( 43-C , 49-H ) :  -0.1071 B( 44-C , 45-C ) :   1.3253
B( 44-C , 49-H ) :   1.1542 B( 45-C , 49-H ) :  -0.1596 B( 45-C , 50-H ) :   1.0543

MP2 TOTAL ENERGY:    -1380.229356959 Eh
FINAL SINGLE POINT ENERGY     -1380.229356959433

DIPOLE MOMENT
-------------
                                X             Y             Z
Electronic contribution:      4.38219      11.92074      -5.72902
Nuclear contribution   :     -4.77369     -12.58830       6.21272
                        -----------------------------------------
Total Dipole Moment    :     -0.39150      -0.66756       0.48370
                        -----------------------------------------
Magnitude (a.u.)       :      0.91262
Magnitude (Debye)      :      2.31969

Rotational constants in cm-1:     0.008905     0.005631     0.003945
Rotational constants in MHz :   266.966463   168.808006   118.259961

                             ****ORCA TERMINATED NORMALLY****
TOTAL RUN TIME: 0 days 21 hours 58 minutes 23 seconds 283 msec
