                         Program Version 4.2.1 -  RELEASE  -
|  1> %pal
|  2>  nprocs 32
|  3> end
|  4> !RI-MP2 aug-cc-pVQZ aug-cc-pVQZ/C TightSCF
|  5> %maxcore 4500
|  6> *xyzfile -2 1  10_91R.xyz
|  7>
|  8>
|  9>                          ****END OF INPUT****

CARTESIAN COORDINATES (ANGSTROEM)
---------------------------------
  O      0.932417    0.579427   -0.526253
  C      2.258907    0.661623   -0.225439
  C      2.855071    1.848955   -0.353748
  H      2.285277    2.723654   -0.647040
  H      3.915804    1.920237   -0.164769
  C      3.076018   -0.617499    0.106262
  O      4.153866   -0.424629    0.705522
  O      2.580956   -1.688185   -0.297879
  C      0.105386   -0.355344    0.183370
  C     -1.291352    0.178281    0.238494
  C     -2.377280   -0.511895   -0.092409
  C     -3.813776   -0.005609    0.041028
  O     -3.980578    1.149395    0.490870
  O     -4.691300   -0.828833   -0.322615
  H      0.159304   -1.330485   -0.299282
  H      0.502942   -0.469054    1.198607
  H     -2.280213   -1.522590   -0.484750
  H     -1.423849    1.189765    0.614722

 Total Charge           Charge          ....   -2
 Multiplicity           Mult            ....    1
 Number of Electrons    NEL             ....   90
 Basis Dimension        Dim             .... 1236

ORBITAL ENERGIES
----------------

  NO   OCC          E(Eh)            E(eV)
   0   2.0000     -20.336297      -553.3788
   1   2.0000     -20.234580      -550.6109
   2   2.0000     -20.233077      -550.5700
   3   2.0000     -20.218606      -550.1762
   4   2.0000     -20.215642      -550.0956
   5   2.0000     -11.082115      -301.5597
   6   2.0000     -11.062377      -301.0226
   7   2.0000     -11.056226      -300.8552
   8   2.0000     -11.046456      -300.5893
   9   2.0000     -10.989057      -299.0274
  10   2.0000     -10.979659      -298.7717
  11   2.0000     -10.977792      -298.7209
  12   2.0000      -1.164433       -31.6858
  13   2.0000      -1.114657       -30.3314
  14   2.0000      -1.097252       -29.8577
  15   2.0000      -1.017063       -27.6757
  16   2.0000      -0.995112       -27.0784
  17   2.0000      -0.838212       -22.8089
  18   2.0000      -0.787867       -21.4389
  19   2.0000      -0.686607       -18.6835
  20   2.0000      -0.585677       -15.9371
  21   2.0000      -0.548684       -14.9305
  22   2.0000      -0.485306       -13.2058
  23   2.0000      -0.460771       -12.5382
  24   2.0000      -0.413400       -11.2492
  25   2.0000      -0.412883       -11.2351
  26   2.0000      -0.400646       -10.9021
  27   2.0000      -0.365448        -9.9443
  28   2.0000      -0.356294        -9.6953
  29   2.0000      -0.337132        -9.1738
  30   2.0000      -0.330934        -9.0052
  31   2.0000      -0.318049        -8.6546
  32   2.0000      -0.302878        -8.2417
  33   2.0000      -0.292257        -7.9527
  34   2.0000      -0.286156        -7.7867
  35   2.0000      -0.274043        -7.4571
  36   2.0000      -0.244035        -6.6405
  37   2.0000      -0.159487        -4.3399
  38   2.0000      -0.146371        -3.9830
  39   2.0000      -0.140193        -3.8148
  40   2.0000      -0.138522        -3.7694
  41   2.0000      -0.134175        -3.6511
  42   2.0000      -0.125270        -3.4088
  43   2.0000      -0.121853        -3.3158
  44   2.0000      -0.105314        -2.8657
  45   0.0000       0.170104         4.6288
  46   0.0000       0.182809         4.9745
  47   0.0000       0.191293         5.2053
  48   0.0000       0.199260         5.4221
  49   0.0000       0.206803         5.6274

MULLIKEN ATOMIC CHARGES
-----------------------
   0 O :   -0.814113
   1 C :    0.073997
   2 C :   -0.844890
   3 H :    0.335661
   4 H :    0.328263
   5 C :    1.338508
   6 O :   -0.966037
   7 O :   -0.997044
   8 C :    0.116390
   9 C :   -0.361056
  10 C :   -1.007438
  11 C :    1.252060
  12 O :   -0.964855
  13 O :   -0.971915
  14 H :    0.347287
  15 H :    0.266939
  16 H :    0.369390
  17 H :    0.498854
Sum of atomic charges:   -2.0000000

LOEWDIN ATOMIC CHARGES
----------------------
   0 O :    0.819792
   1 C :   -0.606874
   2 C :    0.667983
   3 H :   -0.392959
   4 H :   -0.434195
   5 C :   -1.537423
   6 O :    0.480391
   7 O :    0.513191
   8 C :    0.095774
   9 C :    0.310788
  10 C :    0.202505
  11 C :   -1.562038
  12 O :    0.460261
  13 O :    0.441860
  14 H :   -0.376124
  15 H :   -0.323926
  16 H :   -0.395902
  17 H :   -0.363104

  Mayer bond orders larger than 0.100000
B(  0-O ,  1-C ) :   0.7592 B(  0-O ,  8-C ) :   0.7828 B(  1-C ,  2-C ) :   1.5818
B(  1-C ,  5-C ) :   1.0152 B(  1-C ,  7-O ) :   0.1065 B(  2-C ,  3-H ) :   0.9011
B(  2-C ,  4-H ) :   0.9751 B(  5-C ,  6-O ) :   1.1819 B(  5-C ,  7-O ) :   1.2340
B(  6-O ,  7-O ) :   0.1314 B(  8-C ,  9-C ) :   1.0672 B(  8-C , 10-C ) :  -0.2469
B(  8-C , 14-H ) :   0.8730 B(  8-C , 15-H ) :   0.8134 B(  9-C , 10-C ) :   1.4072
B(  9-C , 11-C ) :  -0.3186 B(  9-C , 17-H ) :   0.7244 B( 10-C , 11-C ) :   1.3141
B( 10-C , 12-O ) :   0.1134 B( 10-C , 13-O ) :   0.1166 B( 10-C , 16-H ) :   0.7928
B( 11-C , 12-O ) :   1.2610 B( 11-C , 13-O ) :   1.1820 B( 12-O , 13-O ) :   0.1169

MP2 TOTAL ENERGY:     -645.604915474 Eh
FINAL SINGLE POINT ENERGY      -645.604915474419

DIPOLE MOMENT
-------------
                                X             Y             Z
Electronic contribution:     -1.20364      -1.60170      -0.37714
Nuclear contribution   :      3.05382       2.42136       0.21205
                        -----------------------------------------
Total Dipole Moment    :      1.85018       0.81965      -0.16509
                        -----------------------------------------
Magnitude (a.u.)       :      2.03033
Magnitude (Debye)      :      5.16069

Rotational constants in cm-1:     0.091572     0.010592     0.009774
Rotational constants in MHz :  2745.252089   317.545383   293.003320

                             ****ORCA TERMINATED NORMALLY****
TOTAL RUN TIME: 0 days 0 hours 35 minutes 51 seconds 379 msec
