                         Program Version 4.2.1 -  RELEASE  -
|  1> %pal
|  2>  nprocs 32
|  3> end
|  4> !RI-MP2 aug-cc-pVQZ aug-cc-pVQZ/C TightSCF
|  5> %maxcore 4500
|  6> *xyzfile 0 1  02_24P.xyz
|  7>
|  8>
|  9>                          ****END OF INPUT****

CARTESIAN COORDINATES (ANGSTROEM)
---------------------------------
  C      2.297962   -0.821276    0.482272
  C      1.069199   -0.920454   -0.419383
  C      0.050519   -1.972612   -0.135897
  C     -1.245476   -1.693198   -0.137762
  C     -1.824090   -0.316386   -0.346569
  C     -0.772067    0.774125   -0.238134
  C     -1.254459    2.189902   -0.089584
  H     -0.437431    2.905774   -0.173834
  H     -1.746739    2.352592    0.872831
  C      0.519090    0.470457   -0.276060
  C     -2.988674   -0.098281    0.630480
  H     -3.712070   -0.911426    0.542617
  H     -3.517149    0.834995    0.434323
  H     -1.965026   -2.489979    0.027212
  C      1.706959    1.365000   -0.017988
  H      1.545293    2.009522    0.853033
  H      1.971971    1.997897   -0.869805
  H      3.088449   -1.535269    0.251243
  H      2.010924   -0.928621    1.537026
  H      0.390619   -2.991294    0.023087
  H     -2.628196   -0.079215    1.662085
  H     -1.986482    2.432429   -0.866291
  O      2.805201    0.483479    0.225758
  H      1.440267   -1.048936   -1.446834
  H     -2.249813   -0.279966   -1.361004

 Total Charge           Charge          ....    0
 Multiplicity           Mult            ....    1
 Number of Electrons    NEL             ....   82
 Basis Dimension        Dim             .... 1524

ORBITAL ENERGIES
----------------

  NO   OCC          E(Eh)            E(eV)
   0   2.0000     -20.546908      -559.1098
   1   2.0000     -11.272159      -306.7310
   2   2.0000     -11.269919      -306.6701
   3   2.0000     -11.238378      -305.8118
   4   2.0000     -11.230438      -305.5958
   5   2.0000     -11.229463      -305.5692
   6   2.0000     -11.226473      -305.4879
   7   2.0000     -11.224628      -305.4377
   8   2.0000     -11.221845      -305.3619
   9   2.0000     -11.221609      -305.3555
  10   2.0000     -11.217756      -305.2507
  11   2.0000      -1.373451       -37.3735
  12   2.0000      -1.147277       -31.2190
  13   2.0000      -1.060392       -28.8547
  14   2.0000      -1.048404       -28.5285
  15   2.0000      -0.980249       -26.6739
  16   2.0000      -0.961623       -26.1671
  17   2.0000      -0.901725       -24.5372
  18   2.0000      -0.836007       -22.7489
  19   2.0000      -0.814410       -22.1612
  20   2.0000      -0.769256       -20.9325
  21   2.0000      -0.686972       -18.6935
  22   2.0000      -0.672739       -18.3062
  23   2.0000      -0.652932       -17.7672
  24   2.0000      -0.640385       -17.4258
  25   2.0000      -0.611543       -16.6409
  26   2.0000      -0.607618       -16.5341
  27   2.0000      -0.578510       -15.7420
  28   2.0000      -0.567469       -15.4416
  29   2.0000      -0.554777       -15.0962
  30   2.0000      -0.542874       -14.7724
  31   2.0000      -0.541050       -14.7227
  32   2.0000      -0.535635       -14.5754
  33   2.0000      -0.522962       -14.2305
  34   2.0000      -0.507337       -13.8054
  35   2.0000      -0.476882       -12.9766
  36   2.0000      -0.472599       -12.8601
  37   2.0000      -0.436364       -11.8741
  38   2.0000      -0.417781       -11.3684
  39   2.0000      -0.355596        -9.6763
  40   2.0000      -0.330584        -8.9957
  41   0.0000       0.024267         0.6603
  42   0.0000       0.027403         0.7457
  43   0.0000       0.030040         0.8174
  44   0.0000       0.032321         0.8795
  45   0.0000       0.040248         1.0952

MULLIKEN ATOMIC CHARGES
-----------------------
   0 C :   -0.241850
   1 C :    0.001785
   2 C :   -0.574734
   3 C :   -0.542786
   4 C :    0.228473
   5 C :    0.516601
   6 C :   -0.933980
   7 H :    0.223579
   8 H :    0.229818
   9 C :   -0.166148
  10 C :   -0.945312
  11 H :    0.253521
  12 H :    0.206105
  13 H :    0.198896
  14 C :    0.082230
  15 H :    0.235035
  16 H :    0.374062
  17 H :    0.369267
  18 H :    0.190302
  19 H :    0.276312
  20 H :    0.223487
  21 H :    0.240319
  22 O :   -1.091104
  23 H :    0.357142
  24 H :    0.288980
Sum of atomic charges:    0.0000000

LOEWDIN ATOMIC CHARGES
----------------------
   0 C :    0.185824
   1 C :    0.044497
   2 C :    0.418625
   3 C :    0.395580
   4 C :    0.082156
   5 C :   -0.001303
   6 C :    0.910625
   7 H :   -0.308384
   8 H :   -0.282612
   9 C :   -0.053249
  10 C :    0.911656
  11 H :   -0.277851
  12 H :   -0.292376
  13 H :   -0.312060
  14 C :    0.185843
  15 H :   -0.293741
  16 H :   -0.287292
  17 H :   -0.288835
  18 H :   -0.273912
  19 H :   -0.300892
  20 H :   -0.260451
  21 H :   -0.268559
  22 O :    0.901623
  23 H :   -0.265225
  24 H :   -0.269685

  Mayer bond orders larger than 0.100000
B(  0-C ,  1-C ) :   1.0024 B(  0-C ,  9-C ) :  -0.2039 B(  0-C , 17-H ) :   0.8863
B(  0-C , 18-H ) :   1.0188 B(  0-C , 22-O ) :   0.6941 B(  1-C ,  2-C ) :   0.6837
B(  1-C ,  3-C ) :  -0.1672 B(  1-C ,  5-C ) :  -0.1691 B(  1-C ,  9-C ) :   0.7612
B(  1-C , 23-H ) :   0.8393 B(  2-C ,  3-C ) :   1.4808 B(  2-C , 13-H ) :  -0.1424
B(  2-C , 19-H ) :   1.0914 B(  3-C ,  4-C ) :   0.7434 B(  3-C ,  9-C ) :   0.1044
B(  3-C , 13-H ) :   1.1559 B(  3-C , 19-H ) :  -0.1682 B(  4-C ,  5-C ) :   0.5012
B(  4-C ,  9-C ) :  -0.1567 B(  4-C , 10-C ) :   0.8981 B(  4-C , 24-H ) :   0.8597
B(  5-C ,  6-C ) :   0.6658 B(  5-C ,  8-H ) :  -0.1361 B(  5-C ,  9-C ) :   0.7156
B(  5-C , 10-C ) :  -0.1731 B(  5-C , 14-C ) :  -0.1432 B(  5-C , 15-H ) :   0.1017
B(  6-C ,  7-H ) :   1.0823 B(  6-C ,  8-H ) :   1.0162 B(  6-C ,  9-C ) :  -0.1292
B(  6-C , 21-H ) :   1.0395 B(  9-C , 14-C ) :   0.8129 B(  9-C , 15-H ) :  -0.1070
B(  9-C , 16-H ) :  -0.1176 B( 10-C , 11-H ) :   1.0181 B( 10-C , 12-H ) :   1.0391
B( 10-C , 20-H ) :   1.0031 B( 14-C , 15-H ) :   1.0001 B( 14-C , 16-H ) :   0.9099
B( 14-C , 22-O ) :   0.4418

MP2 TOTAL ENERGY:     -463.858168610 Eh
FINAL SINGLE POINT ENERGY      -463.858168609569

DIPOLE MOMENT
-------------
                                X             Y             Z
Electronic contribution:      7.16288      -2.41937      -1.60442
Nuclear contribution   :     -7.94625       2.33341       1.52673
                        -----------------------------------------
Total Dipole Moment    :     -0.78338      -0.08596      -0.07769
                        -----------------------------------------
Magnitude (a.u.)       :      0.79190
Magnitude (Debye)      :      2.01285

Rotational constants in cm-1:     0.062356     0.031708     0.022524
Rotational constants in MHz :  1869.377427   950.574834   675.260644

                             ****ORCA TERMINATED NORMALLY****
TOTAL RUN TIME: 0 days 1 hours 41 minutes 49 seconds 805 msec
