                         Program Version 4.2.1 -  RELEASE  -
|  1> %pal
|  2>  nprocs 32
|  3> end
|  4> !RI-MP2 aug-cc-pVQZ aug-cc-pVQZ/C TightSCF
|  5> %maxcore 4500
|  6> *xyzfile 0 2  04_21R.xyz
|  7>
|  8>
|  9>                          ****END OF INPUT****

CARTESIAN COORDINATES (ANGSTROEM)
---------------------------------
  C     -1.888885   -0.310783   -0.079125
  C     -1.230198    1.025750    0.202820
  C      0.179584    1.210541   -0.347019
  H     -1.226762    1.173691    1.289464
  H     -1.888047    1.807222   -0.191302
  C      1.209643    0.343284    0.288454
  H      0.458526    2.268903   -0.218722
  H      0.177965    1.055677   -1.434564
  C      2.586617    0.249707   -0.265703
  H      1.017186   -0.052581    1.281680
  N     -1.342322   -1.308366   -0.636464
  C     -3.323583   -0.414814    0.357931
  H     -3.417846   -0.199778    1.426131
  H     -3.700879   -1.415200    0.156601
  H     -3.940414    0.316607   -0.171873
  C      3.422617   -0.863289    0.359251
  H      3.106773    1.212587   -0.129545
  H      2.534873    0.112597   -1.353781
  H      4.429340   -0.888363   -0.061994
  H      2.961702   -1.838995    0.191145
  H      3.515799   -0.721136    1.438702
  H     -0.366742   -1.115044   -0.866342

 Total Charge           Charge          ....    0
 Multiplicity           Mult            ....    2
 Number of Electrons    NEL             ....   63
 Basis Dimension        Dim             .... 1284

ORBITAL ENERGIES
----------------
                 SPIN UP ORBITALS
  NO   OCC          E(Eh)            E(eV)
   0   1.0000     -15.530920      -422.6178
   1   1.0000     -11.276598      -306.8518
   2   1.0000     -11.235697      -305.7389
   3   1.0000     -11.230549      -305.5988
   4   1.0000     -11.228872      -305.5531
   5   1.0000     -11.224003      -305.4206
   6   1.0000     -11.218072      -305.2592
   7   1.0000     -11.214206      -305.1541
   8   1.0000      -1.210363       -32.9357
   9   1.0000      -1.097851       -29.8740
  10   1.0000      -1.036225       -28.1971
  11   1.0000      -0.991642       -26.9839
  12   1.0000      -0.933983       -25.4150
  13   1.0000      -0.848865       -23.0988
  14   1.0000      -0.790274       -21.5045
  15   1.0000      -0.733390       -19.9566
  16   1.0000      -0.669848       -18.2275
  17   1.0000      -0.630285       -17.1509
  18   1.0000      -0.621523       -16.9125
  19   1.0000      -0.606702       -16.5092
  20   1.0000      -0.584157       -15.8957
  21   1.0000      -0.564465       -15.3599
  22   1.0000      -0.556690       -15.1483
  23   1.0000      -0.544594       -14.8192
  24   1.0000      -0.525941       -14.3116
  25   1.0000      -0.507234       -13.8025
  26   1.0000      -0.493901       -13.4397
  27   1.0000      -0.486474       -13.2376
  28   1.0000      -0.473105       -12.8738
  29   1.0000      -0.416143       -11.3238
  30   1.0000      -0.406863       -11.0713
  31   1.0000      -0.329578        -8.9683
  32   0.0000       0.023838         0.6487
  33   0.0000       0.027056         0.7362
  34   0.0000       0.030032         0.8172
  35   0.0000       0.033415         0.9093
  36   0.0000       0.042623         1.1598

                 SPIN DOWN ORBITALS
  NO   OCC          E(Eh)            E(eV)
   0   1.0000     -15.529962      -422.5918
   1   1.0000     -11.276978      -306.8622
   2   1.0000     -11.235330      -305.7289
   3   1.0000     -11.233636      -305.6828
   4   1.0000     -11.227210      -305.5079
   5   1.0000     -11.217990      -305.2570
   6   1.0000     -11.213792      -305.1428
   7   1.0000     -11.204813      -304.8985
   8   1.0000      -1.208435       -32.8832
   9   1.0000      -1.073219       -29.2038
  10   1.0000      -1.034570       -28.1521
  11   1.0000      -0.989220       -26.9180
  12   1.0000      -0.914968       -24.8975
  13   1.0000      -0.846600       -23.0372
  14   1.0000      -0.754678       -20.5358
  15   1.0000      -0.731493       -19.9049
  16   1.0000      -0.661133       -17.9903
  17   1.0000      -0.626686       -17.0530
  18   1.0000      -0.605656       -16.4807
  19   1.0000      -0.601387       -16.3646
  20   1.0000      -0.581204       -15.8154
  21   1.0000      -0.556678       -15.1480
  22   1.0000      -0.552396       -15.0315
  23   1.0000      -0.542713       -14.7680
  24   1.0000      -0.514841       -14.0095
  25   1.0000      -0.503827       -13.7098
  26   1.0000      -0.486239       -13.2312
  27   1.0000      -0.481342       -13.0980
  28   1.0000      -0.468468       -12.7477
  29   1.0000      -0.410553       -11.1717
  30   1.0000      -0.403097       -10.9688
  31   0.0000       0.023898         0.6503
  32   0.0000       0.027076         0.7368
  33   0.0000       0.030117         0.8195
  34   0.0000       0.033467         0.9107
  35   0.0000       0.042656         1.1607

MULLIKEN ATOMIC CHARGES AND SPIN POPULATIONS
--------------------------------------------
   0 C :    0.386613   -0.023091
   1 C :   -0.389443    0.031272
   2 C :   -0.302236   -0.224897
   3 H :    0.238948   -0.002874
   4 H :    0.292664   -0.005327
   5 C :   -0.361352    1.229967
   6 H :    0.323832    0.101733
   7 H :    0.219275    0.035963
   8 C :   -0.367942   -0.181753
   9 H :    0.319227   -0.127554
  10 N :   -0.912396    0.033767
  11 C :   -0.833025    0.003570
  12 H :    0.235290   -0.000715
  13 H :    0.282026   -0.000372
  14 H :    0.268098   -0.000879
  15 C :   -0.908336    0.024604
  16 H :    0.276147    0.079877
  17 H :    0.192353    0.031119
  18 H :    0.292082   -0.003719
  19 H :    0.203799    0.001409
  20 H :    0.214874   -0.000707
  21 H :    0.329504   -0.001394
Sum of atomic charges         :   -0.0000000

LOEWDIN ATOMIC CHARGES AND SPIN POPULATIONS
-------------------------------------------
   0 C :   -0.277785    0.002292
   1 C :    0.493214    0.007823
   2 C :    0.472961    0.126105
   3 H :   -0.276057    0.000014
   4 H :   -0.277755    0.000394
   5 C :    0.431017    0.444966
   6 H :   -0.265119    0.030114
   7 H :   -0.282672    0.015138
   8 C :    0.477312    0.128530
   9 H :   -0.289656    0.138935
  10 N :    1.038021    0.017876
  11 C :    0.884092   -0.000908
  12 H :   -0.287513   -0.000030
  13 H :   -0.318259    0.000136
  14 H :   -0.287481   -0.000203
  15 C :    0.910169    0.011745
  16 H :   -0.275624    0.029498
  17 H :   -0.288533    0.016951
  18 H :   -0.283864    0.000820
  19 H :   -0.283793    0.003909
  20 H :   -0.288192    0.000411
  21 H :   -0.724485    0.025480

  Mayer bond orders larger than 0.100000
B(  0-C ,  1-C ) :   0.6672 B(  0-C , 10-N ) :   1.4603 B(  0-C , 11-C ) :   0.8065
B(  0-C , 13-H ) :  -0.1002 B(  1-C ,  2-C ) :   1.0769 B(  1-C ,  3-H ) :   0.8811
B(  1-C ,  4-H ) :   0.9601 B(  1-C ,  5-C ) :  -0.1053 B(  2-C ,  5-C ) :   0.6973
B(  2-C ,  6-H ) :   0.8417 B(  2-C ,  7-H ) :   0.8754 B(  5-C ,  8-C ) :   0.6897
B(  5-C ,  9-H ) :   0.9439 B(  5-C , 15-C ) :  -0.1503 B(  8-C , 15-C ) :   1.0215
B(  8-C , 16-H ) :   0.8398 B(  8-C , 17-H ) :   0.9185 B( 10-N , 21-H ) :   0.7541
B( 11-C , 12-H ) :   0.9644 B( 11-C , 13-H ) :   1.0101 B( 11-C , 14-H ) :   0.9605
B( 15-C , 18-H ) :   0.9973 B( 15-C , 19-H ) :   0.9767 B( 15-C , 20-H ) :   0.9539

MP2 TOTAL ENERGY:     -329.239726919 Eh
FINAL SINGLE POINT ENERGY      -329.239726919000

DIPOLE MOMENT
-------------
                                X             Y             Z
Electronic contribution:     -3.64288      -0.76477      -1.08285
Nuclear contribution   :      3.85298       1.80174       1.42563
                        -----------------------------------------
Total Dipole Moment    :      0.21010       1.03697       0.34279
                        -----------------------------------------
Magnitude (a.u.)       :      1.11218
Magnitude (Debye)      :      2.82694

Rotational constants in cm-1:     0.147854     0.028676     0.025849
Rotational constants in MHz :  4432.537673   859.675235   774.942148

                             ****ORCA TERMINATED NORMALLY****
TOTAL RUN TIME: 0 days 1 hours 21 minutes 13 seconds 369 msec
