                         Program Version 4.2.1 -  RELEASE  -
|  1> %pal
|  2>  nprocs 32
|  3> end
|  4> !RI-MP2 aug-cc-pVQZ aug-cc-pVQZ/C TightSCF
|  5> %maxcore 4500
|  6> *xyzfile 0 1  10_72R.xyz
|  7>
|  8>
|  9>                          ****END OF INPUT****

CARTESIAN COORDINATES (ANGSTROEM)
---------------------------------
  C      3.161525    1.527544   -0.579766
  C      4.134055    1.242598    0.586756
  C      5.253709    0.212544    0.312051
  C      4.949829   -1.179260    0.926437
  C      3.613840   -1.721091    0.543085
  C      1.862890    2.079753   -0.055265
  H      4.584900    2.202043    0.853319
  H      3.563770    0.916371    1.459637
  H      3.636617    2.252191   -1.245658
  H      5.752754   -1.847276    0.605406
  H      5.007245   -1.085279    2.015013
  H      6.160693    0.559087    0.811477
  O      5.609619    0.127786   -1.053436
  H      4.794767    0.000536   -1.559383
  O      2.935711    0.396001   -1.421347
  H      2.351121   -0.212595   -0.955132
  C      0.669709    1.736418   -0.537803
  C      2.546061   -1.688864    1.344579
  C     -0.639540    2.096288    0.017249
  C     -0.661781    2.957937    1.247254
  H     -0.137310    3.899165    1.063397
  H     -0.149335    2.463658    2.077673
  H     -1.671479    3.199205    1.571246
  C     -1.726007    1.581833   -0.574088
  C     -1.544597   -1.660093   -0.295376
  C     -3.158445    1.657000   -0.137505
  H     -1.562398    0.988041   -1.470912
  H     -1.229991   -0.776302    0.237828
  C     -3.610569    0.293935    0.427345
  H     -3.251080    2.359530    0.693697
  H     -2.864031   -0.054674    1.144817
  C      1.164143   -1.946296    0.953196
  C     -4.048529    2.137836   -1.286624
  H     -3.692935    3.100451   -1.657232
  H     -4.030002    1.424328   -2.111569
  H     -5.085308    2.260827   -0.970982
  C     -4.957963    0.339434    1.133271
  H     -4.919869    1.136565    1.882321
  H     -5.728475    0.613397    0.409752
  C     -5.316696   -0.986228    1.792711
  H     -4.566587   -1.275342    2.534459
  H     -6.279268   -0.920791    2.302706
  H     -5.383756   -1.782631    1.050294
  O     -3.741404   -0.670480   -0.634647
  C     -2.911032   -1.715070   -0.861007
  O     -3.299493   -2.608654   -1.565300
  C     -0.666162   -2.635089   -0.551664
  H     -0.999338   -3.465740   -1.166314
  C      0.726494   -2.613338   -0.123345
  H      1.429749   -3.168758   -0.737140
  H      0.418182   -1.496445    1.602789
  H      3.503022   -2.055373   -0.484980
  H      2.683372   -1.329998    2.361359
  H      0.635825    1.082046   -1.403693
  H      1.948066    2.749791    0.794682

 Total Charge           Charge          ....    0
 Multiplicity           Mult            ....    1
 Number of Electrons    NEL             ....  188
 Basis Dimension        Dim             .... 3380

ORBITAL ENERGIES
----------------

  NO   OCC          E(Eh)            E(eV)
   0   2.0000     -20.586212      -560.1793
   1   2.0000     -20.570125      -559.7416
   2   2.0000     -20.541105      -558.9519
   3   2.0000     -20.523389      -558.4698
   4   2.0000     -11.374146      -309.5062
   5   2.0000     -11.300650      -307.5063
   6   2.0000     -11.298127      -307.4377
   7   2.0000     -11.287335      -307.1440
   8   2.0000     -11.266070      -306.5654
   9   2.0000     -11.261714      -306.4468
  10   2.0000     -11.253080      -306.2119
  11   2.0000     -11.250609      -306.1446
  12   2.0000     -11.248685      -306.0923
  13   2.0000     -11.246129      -306.0227
  14   2.0000     -11.244444      -305.9769
  15   2.0000     -11.240049      -305.8573
  16   2.0000     -11.240048      -305.8573
  17   2.0000     -11.238140      -305.8053
  18   2.0000     -11.235905      -305.7445
  19   2.0000     -11.234839      -305.7155
  20   2.0000     -11.233209      -305.6712
  21   2.0000     -11.232014      -305.6386
  22   2.0000     -11.229425      -305.5682
  23   2.0000     -11.217929      -305.2554
  24   2.0000     -11.216111      -305.2059
  25   2.0000      -1.446443       -39.3597
  26   2.0000      -1.386080       -37.7172
  27   2.0000      -1.351628       -36.7797
  28   2.0000      -1.350948       -36.7612
  29   2.0000      -1.139169       -30.9984
  30   2.0000      -1.137888       -30.9635
  31   2.0000      -1.103211       -30.0199
  32   2.0000      -1.101187       -29.9648
  33   2.0000      -1.068824       -29.0842
  34   2.0000      -1.051553       -28.6142
  35   2.0000      -1.033109       -28.1123
  36   2.0000      -1.005229       -27.3537
  37   2.0000      -0.970914       -26.4199
  38   2.0000      -0.952459       -25.9177
  39   2.0000      -0.942666       -25.6512
  40   2.0000      -0.909231       -24.7414
  41   2.0000      -0.887470       -24.1493
  42   2.0000      -0.851986       -23.1837
  43   2.0000      -0.835917       -22.7465
  44   2.0000      -0.821753       -22.3610
  45   2.0000      -0.794960       -21.6320
  46   2.0000      -0.784364       -21.3436
  47   2.0000      -0.759876       -20.6773
  48   2.0000      -0.735874       -20.0242
  49   2.0000      -0.727590       -19.7987
  50   2.0000      -0.717334       -19.5197
  51   2.0000      -0.708261       -19.2728
  52   2.0000      -0.685647       -18.6574
  53   2.0000      -0.673418       -18.3246
  54   2.0000      -0.669244       -18.2111
  55   2.0000      -0.660788       -17.9810
  56   2.0000      -0.652964       -17.7681
  57   2.0000      -0.643658       -17.5148
  58   2.0000      -0.635901       -17.3037
  59   2.0000      -0.626718       -17.0539
  60   2.0000      -0.621757       -16.9189
  61   2.0000      -0.610083       -16.6012
  62   2.0000      -0.602770       -16.4022
  63   2.0000      -0.600267       -16.3341
  64   2.0000      -0.588760       -16.0210
  65   2.0000      -0.584846       -15.9145
  66   2.0000      -0.580282       -15.7903
  67   2.0000      -0.573589       -15.6082
  68   2.0000      -0.566580       -15.4174
  69   2.0000      -0.561611       -15.2822
  70   2.0000      -0.553561       -15.0632
  71   2.0000      -0.541331       -14.7304
  72   2.0000      -0.538202       -14.6452
  73   2.0000      -0.534099       -14.5336
  74   2.0000      -0.530028       -14.4228
  75   2.0000      -0.526586       -14.3291
  76   2.0000      -0.520351       -14.1595
  77   2.0000      -0.512231       -13.9385
  78   2.0000      -0.506951       -13.7948
  79   2.0000      -0.503879       -13.7112
  80   2.0000      -0.497022       -13.5246
  81   2.0000      -0.494284       -13.4502
  82   2.0000      -0.481949       -13.1145
  83   2.0000      -0.479751       -13.0547
  84   2.0000      -0.473300       -12.8792
  85   2.0000      -0.469662       -12.7801
  86   2.0000      -0.448728       -12.2105
  87   2.0000      -0.444201       -12.0873
  88   2.0000      -0.438201       -11.9241
  89   2.0000      -0.436773       -11.8852
  90   2.0000      -0.419364       -11.4115
  91   2.0000      -0.397266       -10.8102
  92   2.0000      -0.322027        -8.7628
  93   2.0000      -0.314192        -8.5496
  94   0.0000       0.013324         0.3626
  95   0.0000       0.020891         0.5685
  96   0.0000       0.023318         0.6345
  97   0.0000       0.026303         0.7157
  98   0.0000       0.030238         0.8228

MULLIKEN ATOMIC CHARGES
-----------------------
   0 C :    0.935534
   1 C :   -0.823176
   2 C :    0.803410
   3 C :   -0.834396
   4 C :   -0.221789
   5 C :   -0.295609
   6 H :    0.236176
   7 H :    0.259723
   8 H :    0.410090
   9 H :    0.305476
  10 H :    0.206021
  11 H :    0.421437
  12 O :   -1.251683
  13 H :    0.436925
  14 O :   -1.364136
  15 H :    0.618648
  16 C :   -0.348649
  17 C :   -0.257207
  18 C :    0.722581
  19 C :   -1.147306
  20 H :    0.234588
  21 H :    0.133522
  22 H :    0.253746
  23 C :    0.163641
  24 C :   -1.544484
  25 C :   -0.033223
  26 H :   -0.001358
  27 H :    0.693083
  28 C :    1.059174
  29 H :    0.140198
  30 H :    0.223822
  31 C :   -0.254193
  32 C :   -1.204003
  33 H :    0.289983
  34 H :    0.232809
  35 H :    0.216679
  36 C :   -0.771213
  37 H :    0.257806
  38 H :    0.206650
  39 C :   -0.927329
  40 H :    0.162354
  41 H :    0.286945
  42 H :    0.213301
  43 O :   -1.143876
  44 C :    2.136841
  45 O :   -1.132944
  46 C :    0.288057
  47 H :    0.286382
  48 C :   -0.164483
  49 H :    0.275234
  50 H :    0.266115
  51 H :    0.140488
  52 H :    0.064177
  53 H :   -0.003203
  54 H :    0.142645
Sum of atomic charges:    0.0000000

LOEWDIN ATOMIC CHARGES
----------------------
   0 C :   -0.159599
   1 C :    0.532487
   2 C :   -0.165814
   3 C :    0.519160
   4 C :    0.363113
   5 C :    0.408671
   6 H :   -0.263257
   7 H :   -0.316314
   8 H :   -0.296763
   9 H :   -0.275611
  10 H :   -0.295745
  11 H :   -0.314217
  12 O :    1.318284
  13 H :   -0.969541
  14 O :    1.364686
  15 H :   -0.853172
  16 C :    0.369761
  17 C :    0.383339
  18 C :    0.004425
  19 C :    0.909288
  20 H :   -0.276066
  21 H :   -0.272405
  22 H :   -0.314627
  23 C :    0.365029
  24 C :    0.307685
  25 C :    0.116037
  26 H :   -0.325411
  27 H :   -0.436361
  28 C :   -0.204611
  29 H :   -0.330785
  30 H :   -0.339367
  31 C :    0.356543
  32 C :    0.946210
  33 H :   -0.262786
  34 H :   -0.277485
  35 H :   -0.280656
  36 C :    0.509000
  37 H :   -0.261091
  38 H :   -0.283697
  39 C :    0.943857
  40 H :   -0.274979
  41 H :   -0.274820
  42 H :   -0.287588
  43 O :    0.875626
  44 C :   -1.060134
  45 O :    0.680216
  46 C :    0.365784
  47 H :   -0.339914
  48 C :    0.373274
  49 H :   -0.328888
  50 H :   -0.336634
  51 H :   -0.316657
  52 H :   -0.326570
  53 H :   -0.364809
  54 H :   -0.326099

  Mayer bond orders larger than 0.100000
B(  0-C ,  1-C ) :   1.0323 B(  0-C ,  5-C ) :   0.6319 B(  0-C ,  8-H ) :   0.8316
B(  0-C , 16-C ) :  -0.6367 B(  0-C , 53-H ) :  -0.1031 B(  1-C ,  2-C ) :   0.8369
B(  1-C ,  5-C ) :  -0.2220 B(  1-C ,  6-H ) :   1.0123 B(  1-C ,  7-H ) :   0.9606
B(  1-C , 12-O ) :   0.3555 B(  2-C ,  3-C ) :   0.9545 B(  2-C , 11-H ) :   0.8764
B(  3-C ,  4-C ) :   0.6650 B(  3-C ,  9-H ) :   1.0063 B(  3-C , 10-H ) :   1.1116
B(  3-C , 12-O ) :   0.2267 B(  3-C , 17-C ) :  -0.1304 B(  4-C ,  9-H ) :  -0.1818
B(  4-C , 17-C ) :   1.6297 B(  4-C , 31-C ) :  -0.3982 B(  4-C , 51-H ) :   1.1761
B(  5-C ,  8-H ) :  -0.2528 B(  5-C , 14-O ) :   0.1651 B(  5-C , 16-C ) :   1.2092
B(  5-C , 18-C ) :  -0.7158 B(  5-C , 53-H ) :   0.1111 B(  5-C , 54-H ) :   1.1905
B( 11-H , 12-O ) :  -0.1155 B( 12-O , 13-H ) :   0.7103 B( 14-O , 15-H ) :   0.4835
B( 14-O , 16-C ) :  -0.2129 B( 14-O , 53-H ) :   0.2924 B( 16-C , 18-C ) :   0.6785
B( 16-C , 23-C ) :  -0.7631 B( 16-C , 53-H ) :   1.1748 B( 16-C , 54-H ) :  -0.2172
B( 17-C , 31-C ) :   0.3352 B( 17-C , 48-C ) :  -0.3333 B( 17-C , 50-H ) :  -0.2163
B( 17-C , 52-H ) :   1.2041 B( 18-C , 19-C ) :   0.2301 B( 18-C , 20-H ) :  -0.1850
B( 18-C , 21-H ) :  -0.1691 B( 18-C , 23-C ) :   1.1823 B( 18-C , 25-C ) :  -0.3799
B( 18-C , 26-H ) :  -0.2441 B( 18-C , 53-H ) :  -0.1977 B( 19-C , 20-H ) :   1.1600
B( 19-C , 21-H ) :   1.1443 B( 19-C , 22-H ) :   1.0630 B( 20-H , 21-H ) :   0.1041
B( 23-C , 25-C ) :   0.6528 B( 23-C , 26-H ) :   1.3687 B( 23-C , 28-C ) :  -0.2166
B( 23-C , 32-C ) :  -0.2796 B( 24-C , 27-H ) :   0.5250 B( 24-C , 28-C ) :   0.1900
B( 24-C , 43-O ) :   0.1298 B( 24-C , 44-C ) :   1.0358 B( 24-C , 45-O ) :   0.3716
B( 24-C , 46-C ) :   1.3117 B( 24-C , 48-C ) :  -0.3638 B( 25-C , 28-C ) :   0.6703
B( 25-C , 29-H ) :   1.0540 B( 25-C , 32-C ) :   0.4699 B( 25-C , 33-H ) :  -0.1143
B( 25-C , 34-H ) :  -0.2086 B( 25-C , 35-H ) :  -0.1376 B( 25-C , 36-C ) :   0.1881
B( 27-H , 46-C ) :  -0.1034 B( 28-C , 30-H ) :   0.9534 B( 28-C , 37-H ) :  -0.1351
B( 28-C , 38-H ) :  -0.2205 B( 28-C , 39-C ) :  -0.1477 B( 28-C , 44-C ) :   0.1379
B( 28-C , 45-O ) :   0.1993 B( 31-C , 46-C ) :  -0.3364 B( 31-C , 48-C ) :   1.7791
B( 31-C , 50-H ) :   1.0614 B( 31-C , 52-H ) :  -0.2149 B( 32-C , 33-H ) :   1.0823
B( 32-C , 34-H ) :   1.0710 B( 32-C , 35-H ) :   1.1472 B( 36-C , 37-H ) :   1.0232
B( 36-C , 38-H ) :   1.1058 B( 36-C , 39-C ) :   0.9296 B( 36-C , 41-H ) :  -0.1324
B( 39-C , 40-H ) :   1.0182 B( 39-C , 41-H ) :   1.0372 B( 39-C , 42-H ) :   0.9850
B( 43-O , 44-C ) :   1.0098 B( 43-O , 45-O ) :   0.3477 B( 44-C , 46-C ) :  -0.3016
B( 46-C , 47-H ) :   0.8980 B( 46-C , 48-C ) :   0.7861 B( 46-C , 49-H ) :  -0.2428
B( 48-C , 49-H ) :   1.0175 B( 48-C , 50-H ) :   0.1174

MP2 TOTAL ENERGY:    -1117.268699662 Eh
FINAL SINGLE POINT ENERGY     -1117.268699661536

DIPOLE MOMENT
-------------
                                X             Y             Z
Electronic contribution:      5.50115     -10.66356      -9.76587
Nuclear contribution   :     -5.15386      11.91569      11.85719
                        -----------------------------------------
Total Dipole Moment    :      0.34729       1.25213       2.09132
                        -----------------------------------------
Magnitude (a.u.)       :      2.46213
Magnitude (Debye)      :      6.25823

Rotational constants in cm-1:     0.012415     0.003880     0.003343
Rotational constants in MHz :   372.179718   116.320758   100.231661

                             ****ORCA TERMINATED NORMALLY****
TOTAL RUN TIME: 0 days 19 hours 17 minutes 54 seconds 20 msec
