                         Program Version 4.2.1 -  RELEASE  -
|  1> %pal
|  2>  nprocs 32
|  3> end
|  4> !RI-MP2 aug-cc-pVQZ aug-cc-pVQZ/C TightSCF
|  5> %maxcore 4500
|  6> *xyzfile 0 1  03_16R1.xyz
|  7>
|  8>
|  9>                          ****END OF INPUT****

CARTESIAN COORDINATES (ANGSTROEM)
---------------------------------
  S     -3.061134    0.482276    0.000014
  C     -1.316105    0.257393    0.000003
  C     -0.534038    1.413644   -0.000011
  C      0.841057    1.302080   -0.000009
  C      1.445806    0.046491    0.000002
  C      0.656112   -1.098225    0.000012
  C     -0.725865   -1.000627    0.000015
  H     -0.995687    2.394684   -0.000025
  H      1.467838    2.184334   -0.000020
  H      1.126393   -2.072094    0.000020
  H     -1.340495   -1.889374    0.000024
  C      2.924529   -0.015584    0.000000
  O      3.653060    0.942615   -0.000010
  O      3.400628   -1.276861    0.000010
  H      4.365500   -1.215056    0.000008
  F     -3.535988   -1.097331   -0.000034

 Total Charge           Charge          ....    0
 Multiplicity           Mult            ....    1
 Number of Electrons    NEL             ....   88
 Basis Dimension        Dim             .... 1114

ORBITAL ENERGIES
----------------

  NO   OCC          E(Eh)            E(eV)
   0   2.0000     -92.056556     -2504.9862
   1   2.0000     -26.321986      -716.2577
   2   2.0000     -20.616725      -561.0096
   3   2.0000     -20.549983      -559.1935
   4   2.0000     -11.393861      -310.0427
   5   2.0000     -11.306139      -307.6557
   6   2.0000     -11.267887      -306.6148
   7   2.0000     -11.266382      -306.5738
   8   2.0000     -11.262444      -306.4667
   9   2.0000     -11.260574      -306.4158
  10   2.0000     -11.257531      -306.3330
  11   2.0000      -9.050457      -246.2755
  12   2.0000      -6.731966      -183.1861
  13   2.0000      -6.730041      -183.1337
  14   2.0000      -6.728802      -183.1000
  15   2.0000      -1.613285       -43.8997
  16   2.0000      -1.474709       -40.1289
  17   2.0000      -1.368583       -37.2410
  18   2.0000      -1.196595       -32.5610
  19   2.0000      -1.093921       -29.7671
  20   2.0000      -1.049917       -28.5697
  21   2.0000      -0.985800       -26.8250
  22   2.0000      -0.887914       -24.1614
  23   2.0000      -0.865292       -23.5458
  24   2.0000      -0.811366       -22.0784
  25   2.0000      -0.748644       -20.3716
  26   2.0000      -0.717101       -19.5133
  27   2.0000      -0.708275       -19.2731
  28   2.0000      -0.698901       -19.0181
  29   2.0000      -0.689096       -18.7513
  30   2.0000      -0.650161       -17.6918
  31   2.0000      -0.649490       -17.6735
  32   2.0000      -0.644187       -17.5292
  33   2.0000      -0.621706       -16.9175
  34   2.0000      -0.614187       -16.7129
  35   2.0000      -0.579114       -15.7585
  36   2.0000      -0.548025       -14.9125
  37   2.0000      -0.524958       -14.2848
  38   2.0000      -0.505884       -13.7658
  39   2.0000      -0.496020       -13.4974
  40   2.0000      -0.464380       -12.6364
  41   2.0000      -0.438233       -11.9249
  42   2.0000      -0.368651       -10.0315
  43   2.0000      -0.333974        -9.0879
  44   0.0000       0.023855         0.6491
  45   0.0000       0.026770         0.7285
  46   0.0000       0.032687         0.8895
  47   0.0000       0.043350         1.1796
  48   0.0000       0.046477         1.2647

MULLIKEN ATOMIC CHARGES
-----------------------
   0 S :    0.497140
   1 C :   -0.252613
   2 C :   -0.145529
   3 C :   -0.032780
   4 C :   -0.704920
   5 C :   -0.101987
   6 C :   -0.210282
   7 H :    0.317926
   8 H :    0.277759
   9 H :    0.286590
  10 H :    0.328606
  11 C :    1.555210
  12 O :   -0.803733
  13 O :   -0.663587
  14 H :    0.319142
  15 F :   -0.666942
Sum of atomic charges:    0.0000000

LOEWDIN ATOMIC CHARGES
----------------------
   0 S :    0.777362
   1 C :   -0.571364
   2 C :    0.224169
   3 C :    0.313442
   4 C :   -0.155840
   5 C :    0.327714
   6 C :    0.250435
   7 H :   -0.339239
   8 H :   -0.328976
   9 H :   -0.334225
  10 H :   -0.381298
  11 C :   -1.051775
  12 O :    0.711824
  13 O :    1.249472
  14 H :   -0.806415
  15 F :    0.114713

  Mayer bond orders larger than 0.100000
B(  0-S ,  1-C ) :   0.9454 B(  0-S ,  2-C ) :  -0.1526 B(  0-S ,  6-C ) :  -0.1963
B(  0-S , 15-F ) :   0.5909 B(  1-C ,  2-C ) :   1.0179 B(  1-C ,  6-C ) :   0.9849
B(  1-C , 10-H ) :  -0.1146 B(  1-C , 15-F ) :  -0.2781 B(  2-C ,  3-C ) :   1.2372
B(  2-C ,  4-C ) :  -0.2250 B(  2-C ,  7-H ) :   0.9520 B(  2-C ,  8-H ) :  -0.1271
B(  3-C ,  4-C ) :   1.0111 B(  3-C ,  7-H ) :  -0.1226 B(  3-C ,  8-H ) :   0.9589
B(  3-C , 11-C ) :  -0.3436 B(  3-C , 12-O ) :  -0.1456 B(  4-C ,  5-C ) :   0.9858
B(  4-C ,  6-C ) :  -0.2173 B(  4-C , 11-C ) :   1.3290 B(  4-C , 12-O ) :   0.5567
B(  4-C , 13-O ) :   0.2380 B(  5-C ,  6-C ) :   1.2243 B(  5-C ,  9-H ) :   0.9756
B(  5-C , 11-C ) :  -0.2444 B(  6-C ,  9-H ) :  -0.1411 B(  6-C , 10-H ) :   0.9238
B( 11-C , 12-O ) :   1.0883 B( 11-C , 13-O ) :   0.7254 B( 13-O , 14-H ) :   0.9286

MP2 TOTAL ENERGY:     -917.058446532 Eh
FINAL SINGLE POINT ENERGY      -917.058446532209

DIPOLE MOMENT
-------------
                                X             Y             Z
Electronic contribution:     -8.03125      -0.61935      -0.00002
Nuclear contribution   :      7.98770       0.44737       0.00004
                        -----------------------------------------
Total Dipole Moment    :     -0.04356      -0.17198       0.00002
                        -----------------------------------------
Magnitude (a.u.)       :      0.17741
Magnitude (Debye)      :      0.45094

Rotational constants in cm-1:     0.103884     0.014870     0.013008
Rotational constants in MHz :  3114.375368   445.787548   389.968041

                             ****ORCA TERMINATED NORMALLY****
TOTAL RUN TIME: 0 days 0 hours 41 minutes 37 seconds 15 msec
