                         Program Version 4.2.1 -  RELEASE  -
|  1> %pal
|  2>  nprocs 32
|  3> end
|  4> !RI-MP2 aug-cc-pVQZ aug-cc-pVQZ/C TightSCF
|  5> %maxcore 4500
|  6> *xyzfile 0 1  02_35P.xyz
|  7>
|  8>
|  9>                          ****END OF INPUT****

CARTESIAN COORDINATES (ANGSTROEM)
---------------------------------
  C      0.006562   -0.929583   -1.162332
  C     -2.185938   -0.686274   -0.258822
  C      0.351883    0.498283   -0.798334
  C     -2.003708    0.652711   -0.177297
  C     -1.161067   -1.501881   -0.860719
  C     -3.255356    1.278218    0.359734
  C      1.331653    0.603287    0.391324
  H      1.595912    1.665534    0.486223
  C      0.697365    0.151638    1.710663
  H     -0.166732    0.765960    1.976723
  H      0.355661   -0.883175    1.650602
  H      1.406266    0.221034    2.538758
  N     -0.883520    1.284721   -0.554682
  C     -0.748588    2.721963   -0.453718
  H     -1.713590    3.203644   -0.609035
  H     -0.351468    3.038935    0.516301
  H     -0.068736    3.073114   -1.232428
  O     -4.134940    0.185119    0.570039
  H     -3.714043    1.975402   -0.346712
  H     -3.087308    1.796201    1.308220
  C     -3.525658   -1.005876    0.188069
  O     -4.108855   -2.048675    0.258252
  Si     3.020538   -0.233149    0.098092
  C      3.567593    0.041746   -1.679842
  C      4.251431    0.598363    1.248693
  C      2.973542   -2.067540    0.489749
  H      4.577512   -0.347950   -1.831470
  H      2.915329   -0.457081   -2.400331
  H      3.588562    1.105757   -1.930780
  H      4.343390    1.665782    1.032201
  H      3.957866    0.495518    2.296209
  H      5.244209    0.153427    1.143138
  H      2.673355   -2.241632    1.525666
  H      2.278029   -2.613698   -0.149130
  H      3.965741   -2.507475    0.357888
  H      0.781285   -1.490749   -1.668910
  H     -1.367976   -2.537416   -1.100888
  H      0.835941    0.968012   -1.662093

 Total Charge           Charge          ....    0
 Multiplicity           Mult            ....    1
 Number of Electrons    NEL             ....  136
 Basis Dimension        Dim             .... 2330

ORBITAL ENERGIES
----------------

  NO   OCC          E(Eh)            E(eV)
   0   2.0000     -68.754386     -1870.9020
   1   2.0000     -20.585986      -560.1732
   2   2.0000     -20.514385      -558.2248
   3   2.0000     -15.607110      -424.6911
   4   2.0000     -11.359672      -309.1124
   5   2.0000     -11.312784      -307.8365
   6   2.0000     -11.309782      -307.7548
   7   2.0000     -11.291666      -307.2618
   8   2.0000     -11.285655      -307.0983
   9   2.0000     -11.242463      -305.9230
  10   2.0000     -11.231881      -305.6350
  11   2.0000     -11.222854      -305.3894
  12   2.0000     -11.219996      -305.3116
  13   2.0000     -11.215495      -305.1891
  14   2.0000     -11.206428      -304.9424
  15   2.0000     -11.202876      -304.8458
  16   2.0000     -11.199935      -304.7657
  17   2.0000      -6.103790      -166.0926
  18   2.0000      -4.210255      -114.5669
  19   2.0000      -4.210123      -114.5633
  20   2.0000      -4.210091      -114.5624
  21   2.0000      -1.442037       -39.2398
  22   2.0000      -1.349781       -36.7294
  23   2.0000      -1.301781       -35.4233
  24   2.0000      -1.117675       -30.4135
  25   2.0000      -1.096065       -29.8254
  26   2.0000      -1.028442       -27.9853
  27   2.0000      -0.984027       -26.7767
  28   2.0000      -0.974842       -26.5268
  29   2.0000      -0.969363       -26.3777
  30   2.0000      -0.935902       -25.4672
  31   2.0000      -0.929577       -25.2951
  32   2.0000      -0.924777       -25.1645
  33   2.0000      -0.834336       -22.7034
  34   2.0000      -0.820579       -22.3291
  35   2.0000      -0.781157       -21.2564
  36   2.0000      -0.710665       -19.3382
  37   2.0000      -0.706106       -19.2141
  38   2.0000      -0.698674       -19.0119
  39   2.0000      -0.677210       -18.4278
  40   2.0000      -0.663716       -18.0606
  41   2.0000      -0.639215       -17.3939
  42   2.0000      -0.631067       -17.1722
  43   2.0000      -0.624185       -16.9849
  44   2.0000      -0.611838       -16.6490
  45   2.0000      -0.605900       -16.4874
  46   2.0000      -0.589228       -16.0337
  47   2.0000      -0.574625       -15.6364
  48   2.0000      -0.573833       -15.6148
  49   2.0000      -0.567669       -15.4471
  50   2.0000      -0.562272       -15.3002
  51   2.0000      -0.558886       -15.2081
  52   2.0000      -0.551875       -15.0173
  53   2.0000      -0.546715       -14.8769
  54   2.0000      -0.542704       -14.7677
  55   2.0000      -0.539033       -14.6678
  56   2.0000      -0.536636       -14.6026
  57   2.0000      -0.523068       -14.2334
  58   2.0000      -0.506674       -13.7873
  59   2.0000      -0.488031       -13.2800
  60   2.0000      -0.479987       -13.0611
  61   2.0000      -0.443969       -12.0810
  62   2.0000      -0.436914       -11.8890
  63   2.0000      -0.433750       -11.8029
  64   2.0000      -0.428889       -11.6707
  65   2.0000      -0.416715       -11.3394
  66   2.0000      -0.406703       -11.0669
  67   2.0000      -0.288144        -7.8408
  68   0.0000       0.012470         0.3393
  69   0.0000       0.019942         0.5427
  70   0.0000       0.024059         0.6547
  71   0.0000       0.027970         0.7611
  72   0.0000       0.033889         0.9222

MULLIKEN ATOMIC CHARGES
-----------------------
   0 C :   -0.745305
   1 C :   -0.627346
   2 C :    1.138822
   3 C :    0.700701
   4 C :   -0.320854
   5 C :    0.103958
   6 C :   -0.220872
   7 H :   -0.150602
   8 C :   -1.146598
   9 H :    0.344598
  10 H :    0.248051
  11 H :    0.089448
  12 N :   -0.646529
  13 C :   -1.207051
  14 H :    0.261169
  15 H :    0.320585
  16 H :    0.268640
  17 O :   -1.041194
  18 H :    0.296919
  19 H :    0.262735
  20 C :    1.437860
  21 O :   -0.960294
  22 Si:    1.773274
  23 C :   -1.144947
  24 C :   -1.186081
  25 C :   -1.220226
  26 H :    0.277119
  27 H :    0.238797
  28 H :    0.229937
  29 H :    0.287049
  30 H :    0.255163
  31 H :    0.337737
  32 H :    0.203797
  33 H :    0.248912
  34 H :    0.311662
  35 H :    0.041592
  36 H :    0.218002
  37 H :    0.721372
Sum of atomic charges:    0.0000000

LOEWDIN ATOMIC CHARGES
----------------------
   0 C :    0.382511
   1 C :   -0.153338
   2 C :   -0.048369
   3 C :   -0.279048
   4 C :    0.389454
   5 C :    0.180156
   6 C :    0.211966
   7 H :   -0.342166
   8 C :    0.892392
   9 H :   -0.274412
  10 H :   -0.282810
  11 H :   -0.273318
  12 N :    0.509648
  13 C :    0.806392
  14 H :   -0.295513
  15 H :   -0.260227
  16 H :   -0.267867
  17 O :    0.853887
  18 H :   -0.283584
  19 H :   -0.276535
  20 C :   -1.072518
  21 O :    0.644878
  22 Si:    0.162535
  23 C :    1.006267
  24 C :    1.001341
  25 C :    1.008190
  26 H :   -0.329116
  27 H :   -0.340437
  28 H :   -0.326256
  29 H :   -0.330995
  30 H :   -0.335792
  31 H :   -0.332431
  32 H :   -0.331315
  33 H :   -0.344828
  34 H :   -0.328279
  35 H :   -0.327903
  36 H :   -0.298338
  37 H :   -0.314222

  Mayer bond orders larger than 0.100000
B(  0-C ,  2-C ) :   0.6091 B(  0-C ,  4-C ) :   1.7374 B(  0-C ,  6-C ) :   0.2000
B(  0-C ,  7-H ) :   0.1209 B(  0-C , 12-N ) :   0.1005 B(  0-C , 22-Si) :  -0.1006
B(  0-C , 35-H ) :   1.3116 B(  0-C , 37-H ) :  -0.3257 B(  1-C ,  2-C ) :  -0.1181
B(  1-C ,  3-C ) :   0.5594 B(  1-C ,  4-C ) :   0.4707 B(  1-C ,  5-C ) :  -0.2134
B(  1-C , 20-C ) :   2.2166 B(  1-C , 21-O ) :   0.4653 B(  1-C , 36-H ) :  -0.1161
B(  2-C ,  3-C ) :  -0.3484 B(  2-C ,  6-C ) :   0.8973 B(  2-C ,  7-H ) :  -0.1102
B(  2-C , 12-N ) :   0.3794 B(  2-C , 13-C ) :  -0.1313 B(  2-C , 16-H ) :  -0.1170
B(  2-C , 35-H ) :  -0.1021 B(  2-C , 37-H ) :   0.7087 B(  3-C ,  5-C ) :   0.5395
B(  3-C , 12-N ) :   1.3140 B(  3-C , 18-H ) :  -0.2077 B(  3-C , 19-H ) :  -0.1764
B(  3-C , 20-C ) :  -0.6623 B(  4-C ,  6-C ) :  -0.1358 B(  4-C , 12-N ) :  -0.1817
B(  4-C , 21-O ) :   0.1370 B(  4-C , 35-H ) :  -0.1738 B(  4-C , 36-H ) :   1.0394
B(  5-C , 17-O ) :   0.1906 B(  5-C , 18-H ) :   1.0482 B(  5-C , 19-H ) :   1.0177
B(  6-C ,  7-H ) :   1.3665 B(  6-C ,  8-C ) :   0.2548 B(  6-C ,  9-H ) :  -0.1235
B(  6-C , 10-H ) :  -0.1943 B(  6-C , 11-H ) :  -0.1737 B(  6-C , 12-N ) :   0.1517
B(  6-C , 22-Si) :   0.5362 B(  6-C , 25-C ) :   0.1109 B(  7-H , 22-Si) :  -0.1132
B(  8-C ,  9-H ) :   0.9704 B(  8-C , 10-H ) :   1.0551 B(  8-C , 11-H ) :   1.2863
B( 12-N , 13-C ) :   0.7355 B( 12-N , 14-H ) :  -0.1102 B( 12-N , 15-H ) :  -0.1400
B( 12-N , 20-C ) :   0.1032 B( 12-N , 37-H ) :  -0.4121 B( 13-C , 14-H ) :   1.0474
B( 13-C , 15-H ) :   0.9950 B( 13-C , 16-H ) :   1.0635 B( 17-O , 20-C ) :   0.7411
B( 17-O , 21-O ) :   0.1987 B( 20-C , 21-O ) :   0.6203 B( 22-Si, 23-C ) :   0.5998
B( 22-Si, 24-C ) :   0.7798 B( 22-Si, 25-C ) :   0.5136 B( 22-Si, 31-H ) :  -0.1047
B( 23-C , 26-H ) :   1.0396 B( 23-C , 27-H ) :   0.9953 B( 23-C , 28-H ) :   1.0096
B( 24-C , 29-H ) :   0.9549 B( 24-C , 30-H ) :   0.9785 B( 24-C , 31-H ) :   0.9359
B( 25-C , 32-H ) :   1.0387 B( 25-C , 33-H ) :   0.9693 B( 25-C , 34-H ) :   0.9745

MP2 TOTAL ENERGY:    -1001.128394618 Eh
FINAL SINGLE POINT ENERGY     -1001.128394617815

DIPOLE MOMENT
-------------
                                X             Y             Z
Electronic contribution:    -25.91115      -4.92473      -2.28967
Nuclear contribution   :     28.17366       7.15394       1.93441
                        -----------------------------------------
Total Dipole Moment    :      2.26251       2.22922      -0.35525
                        -----------------------------------------
Magnitude (a.u.)       :      3.19602
Magnitude (Debye)      :      8.12365

Rotational constants in cm-1:     0.028748     0.008123     0.007383
Rotational constants in MHz :   861.856532   243.526936   221.328448

                             ****ORCA TERMINATED NORMALLY****
TOTAL RUN TIME: 0 days 6 hours 48 minutes 51 seconds 881 msec
