                         Program Version 4.2.1 -  RELEASE  -
|  1> %pal
|  2>  nprocs 32
|  3> end
|  4> !RI-MP2 aug-cc-pVQZ aug-cc-pVQZ/C TightSCF
|  5> %maxcore 4500
|  6> *xyzfile -1 1  08_1TS.xyz
|  7>
|  8>
|  9>                          ****END OF INPUT****

CARTESIAN COORDINATES (ANGSTROEM)
---------------------------------
  C     -1.226248    0.146570    0.000004
  O     -1.039082    1.359028    0.000048
  C     -2.647181   -0.413201   -0.000011
  H     -2.793194   -1.043206    0.880027
  H     -2.793179   -1.043210   -0.880048
  H     -3.373519    0.398821   -0.000016
  O     -0.325508   -0.769973   -0.000031
  C      1.428098   -0.268785   -0.000011
  H      1.726937   -1.298271   -0.000053
  H      1.384239    0.279193   -0.921389
  H      1.384239    0.279118    0.921412
  F      3.339242    0.103068    0.000004

 Total Charge           Charge          ....   -1
 Multiplicity           Mult            ....    1
 Number of Electrons    NEL             ....   50
 Basis Dimension        Dim             ....  756

ORBITAL ENERGIES
----------------

  NO   OCC          E(Eh)            E(eV)
   0   2.0000     -25.926713      -705.5017
   1   2.0000     -20.375704      -554.4511
   2   2.0000     -20.358990      -553.9963
   3   2.0000     -11.200627      -304.7846
   4   2.0000     -11.139663      -303.1256
   5   2.0000     -11.097095      -301.9673
   6   2.0000      -1.251648       -34.0591
   7   2.0000      -1.190185       -32.3866
   8   2.0000      -1.149205       -31.2715
   9   2.0000      -0.859217       -23.3805
  10   2.0000      -0.773149       -21.0384
  11   2.0000      -0.583268       -15.8715
  12   2.0000      -0.508570       -13.8389
  13   2.0000      -0.487852       -13.2751
  14   2.0000      -0.484258       -13.1773
  15   2.0000      -0.445276       -12.1166
  16   2.0000      -0.440842       -11.9959
  17   2.0000      -0.416784       -11.3413
  18   2.0000      -0.381149       -10.3716
  19   2.0000      -0.329645        -8.9701
  20   2.0000      -0.285737        -7.7753
  21   2.0000      -0.281774        -7.6675
  22   2.0000      -0.275864        -7.5066
  23   2.0000      -0.270569        -7.3626
  24   2.0000      -0.243930        -6.6377
  25   0.0000       0.104964         2.8562
  26   0.0000       0.118275         3.2184
  27   0.0000       0.119246         3.2448
  28   0.0000       0.136834         3.7234
  29   0.0000       0.144802         3.9403

MULLIKEN ATOMIC CHARGES
-----------------------
   0 C :    0.922566
   1 O :   -0.832082
   2 C :   -0.807242
   3 H :    0.265189
   4 H :    0.265188
   5 H :    0.296164
   6 O :   -0.802287
   7 C :   -0.493114
   8 H :    0.395815
   9 H :    0.343374
  10 H :    0.343373
  11 F :   -0.896944
Sum of atomic charges:   -1.0000000

LOEWDIN ATOMIC CHARGES
----------------------
   0 C :   -1.306045
   1 O :    0.599025
   2 C :    0.791525
   3 H :   -0.326749
   4 H :   -0.326751
   5 H :   -0.348975
   6 O :    0.691509
   7 C :    0.548602
   8 H :   -0.421503
   9 H :   -0.394989
  10 H :   -0.394988
  11 F :   -0.110662

  Mayer bond orders larger than 0.100000
B(  0-C ,  1-O ) :   1.3567 B(  0-C ,  2-C ) :   0.8795 B(  0-C ,  6-O ) :   1.2683
B(  2-C ,  3-H ) :   0.9401 B(  2-C ,  4-H ) :   0.9402 B(  2-C ,  5-H ) :   0.9586
B(  6-O ,  7-C ) :   0.3754 B(  7-C ,  8-H ) :   0.8516 B(  7-C ,  9-H ) :   0.8805
B(  7-C , 10-H ) :   0.8805 B(  7-C , 11-F ) :   0.1752

MP2 TOTAL ENERGY:     -367.783753803 Eh
FINAL SINGLE POINT ENERGY      -367.783753802564

DIPOLE MOMENT
-------------
                                X             Y             Z
Electronic contribution:      4.63655       1.57780       0.00004
Nuclear contribution   :     -7.69586      -2.49159      -0.00007
                        -----------------------------------------
Total Dipole Moment    :     -3.05931      -0.91379      -0.00003
                        -----------------------------------------
Magnitude (a.u.)       :      3.19286
Magnitude (Debye)      :      8.11562

Rotational constants in cm-1:     0.338471     0.042758     0.038531
Rotational constants in MHz : 10147.114671  1281.860963  1155.116051

                             ****ORCA TERMINATED NORMALLY****
TOTAL RUN TIME: 0 days 0 hours 7 minutes 31 seconds 126 msec
