                         Program Version 4.2.1 -  RELEASE  -
|  1> %pal
|  2>  nprocs 32
|  3> end
|  4> !RI-MP2 aug-cc-pVQZ aug-cc-pVQZ/C TightSCF
|  5> %maxcore 4500
|  6> *xyzfile 0 1  10_2P1.xyz
|  7>
|  8>
|  9>                          ****END OF INPUT****

CARTESIAN COORDINATES (ANGSTROEM)
---------------------------------
  C      2.748727    0.505710    1.014528
  C      1.273723    0.878686    0.873513
  C      0.375057   -0.242331    0.248976
  C      1.113037   -0.765022   -0.974236
  C      2.508231   -1.273694   -0.724098
  C      3.371897   -0.094125   -0.244713
  C     -0.943791    0.499791   -0.062211
  C     -0.526818    1.953661   -0.289327
  C      0.950584    2.105223    0.027862
  O     -1.244316    2.835176   -0.673645
  C      0.033483   -1.311287    1.305489
  C     -1.073985   -0.658457    2.148849
  C     -1.845148    0.273568    1.210694
  N     -3.119394   -0.256127    0.667970
  O     -3.191015    0.486257   -0.549341
  C     -1.950030    0.043652   -1.140339
  C     -2.157059   -1.469614   -1.155932
  C     -2.991200   -1.630451    0.136349
  O      0.665426   -0.668451   -2.093286
  C      4.814454   -0.522033   -0.008391
  H      0.889031    1.071917    1.878865
  H      1.488093    2.096925   -0.926873
  H      1.152410    3.060344    0.512191
  H      2.856062   -0.221276    1.827667
  H      3.312620    1.390368    1.324774
  H      0.899169   -1.587780    1.909636
  H     -0.324490   -2.224858    0.828391
  H      2.894849   -1.701632   -1.649052
  H      2.500631   -2.048737    0.049727
  H      3.366489    0.660817   -1.039183
  H      4.869257   -1.288530    0.770198
  H      5.426815    0.324179    0.311332
  H      5.258671   -0.933985   -0.916863
  H     -1.727366   -1.386401    2.630262
  H     -0.633401   -0.068701    2.953424
  H     -1.233290   -2.039367   -1.163411
  H     -2.729555   -1.751896   -2.038767
  H     -2.549317   -2.291928    0.878562
  H     -3.998133   -1.986561   -0.072457
  H     -1.826456    0.520099   -2.105488
  H     -2.104061    1.216370    1.689366

 Total Charge           Charge          ....    0
 Multiplicity           Mult            ....    1
 Number of Electrons    NEL             ....  148
 Basis Dimension        Dim             .... 2566

ORBITAL ENERGIES
----------------

  NO   OCC          E(Eh)            E(eV)
   0   2.0000     -20.570729      -559.7580
   1   2.0000     -20.557312      -559.3929
   2   2.0000     -20.540712      -558.9412
   3   2.0000     -15.603116      -424.5824
   4   2.0000     -11.338250      -308.5295
   5   2.0000     -11.324162      -308.1461
   6   2.0000     -11.279469      -306.9300
   7   2.0000     -11.268598      -306.6341
   8   2.0000     -11.261731      -306.4473
   9   2.0000     -11.257093      -306.3211
  10   2.0000     -11.254125      -306.2403
  11   2.0000     -11.250795      -306.1497
  12   2.0000     -11.249573      -306.1164
  13   2.0000     -11.245847      -306.0150
  14   2.0000     -11.244576      -305.9805
  15   2.0000     -11.244176      -305.9696
  16   2.0000     -11.242217      -305.9163
  17   2.0000     -11.239371      -305.8388
  18   2.0000     -11.232386      -305.6488
  19   2.0000     -11.220861      -305.3352
  20   2.0000      -1.431401       -38.9504
  21   2.0000      -1.405516       -38.2460
  22   2.0000      -1.388834       -37.7921
  23   2.0000      -1.194605       -32.5068
  24   2.0000      -1.144323       -31.1386
  25   2.0000      -1.116432       -30.3797
  26   2.0000      -1.072826       -29.1931
  27   2.0000      -1.053514       -28.6676
  28   2.0000      -1.027666       -27.9642
  29   2.0000      -1.008820       -27.4514
  30   2.0000      -0.969886       -26.3919
  31   2.0000      -0.959339       -26.1049
  32   2.0000      -0.876543       -23.8519
  33   2.0000      -0.857768       -23.3411
  34   2.0000      -0.833334       -22.6762
  35   2.0000      -0.817164       -22.2362
  36   2.0000      -0.801021       -21.7969
  37   2.0000      -0.780108       -21.2278
  38   2.0000      -0.745610       -20.2891
  39   2.0000      -0.726160       -19.7598
  40   2.0000      -0.706080       -19.2134
  41   2.0000      -0.683892       -18.6096
  42   2.0000      -0.676286       -18.4027
  43   2.0000      -0.665846       -18.1186
  44   2.0000      -0.656659       -17.8686
  45   2.0000      -0.643733       -17.5169
  46   2.0000      -0.634476       -17.2650
  47   2.0000      -0.630804       -17.1651
  48   2.0000      -0.611245       -16.6328
  49   2.0000      -0.600077       -16.3289
  50   2.0000      -0.596459       -16.2305
  51   2.0000      -0.581758       -15.8304
  52   2.0000      -0.575013       -15.6469
  53   2.0000      -0.567060       -15.4305
  54   2.0000      -0.562725       -15.3125
  55   2.0000      -0.549759       -14.9597
  56   2.0000      -0.546416       -14.8687
  57   2.0000      -0.538671       -14.6580
  58   2.0000      -0.527861       -14.3638
  59   2.0000      -0.523405       -14.2426
  60   2.0000      -0.512054       -13.9337
  61   2.0000      -0.508502       -13.8371
  62   2.0000      -0.500011       -13.6060
  63   2.0000      -0.499381       -13.5888
  64   2.0000      -0.494636       -13.4597
  65   2.0000      -0.484584       -13.1862
  66   2.0000      -0.475901       -12.9499
  67   2.0000      -0.467438       -12.7196
  68   2.0000      -0.456513       -12.4224
  69   2.0000      -0.454138       -12.3577
  70   2.0000      -0.433240       -11.7891
  71   2.0000      -0.413000       -11.2383
  72   2.0000      -0.393380       -10.7044
  73   2.0000      -0.382472       -10.4076
  74   0.0000       0.013507         0.3676
  75   0.0000       0.020835         0.5670
  76   0.0000       0.022132         0.6023
  77   0.0000       0.027965         0.7610
  78   0.0000       0.034043         0.9263

MULLIKEN ATOMIC CHARGES
-----------------------
   0 C :   -0.449219
   1 C :   -0.102205
   2 C :    2.036177
   3 C :    1.549917
   4 C :   -0.663738
   5 C :    0.236679
   6 C :    0.641802
   7 C :    1.523162
   8 C :   -1.065199
   9 O :   -1.106021
  10 C :   -0.970583
  11 C :   -0.927757
  12 C :   -0.014725
  13 N :   -0.542099
  14 O :   -1.228037
  15 C :    0.503053
  16 C :   -0.894980
  17 C :   -0.546244
  18 O :   -1.249278
  19 C :   -1.088730
  20 H :    0.462153
  21 H :    0.120539
  22 H :    0.080701
  23 H :    0.110647
  24 H :    0.111895
  25 H :    0.122971
  26 H :    0.207850
  27 H :    0.119858
  28 H :    0.183330
  29 H :    0.180837
  30 H :    0.173930
  31 H :    0.202255
  32 H :    0.204744
  33 H :    0.251061
  34 H :    0.052883
  35 H :    0.241315
  36 H :    0.248656
  37 H :    0.310923
  38 H :    0.375382
  39 H :    0.312479
  40 H :    0.283617
Sum of atomic charges:   -0.0000000

LOEWDIN ATOMIC CHARGES
----------------------
   0 C :    0.564740
   1 C :    0.145961
   2 C :   -0.260639
   3 C :   -0.598095
   4 C :    0.522338
   5 C :    0.127707
   6 C :   -0.282684
   7 C :   -0.602355
   8 C :    0.557306
   9 O :    0.785321
  10 C :    0.573269
  11 C :    0.590013
  12 C :   -0.015528
  13 N :    0.296749
  14 O :    0.771230
  15 C :   -0.230265
  16 C :    0.552973
  17 C :    0.370500
  18 O :    0.836451
  19 C :    0.949047
  20 H :   -0.282710
  21 H :   -0.263965
  22 H :   -0.246677
  23 H :   -0.261021
  24 H :   -0.240404
  25 H :   -0.247055
  26 H :   -0.279165
  27 H :   -0.277801
  28 H :   -0.268224
  29 H :   -0.262672
  30 H :   -0.269668
  31 H :   -0.265959
  32 H :   -0.266983
  33 H :   -0.252709
  34 H :   -0.256938
  35 H :   -0.320737
  36 H :   -0.248272
  37 H :   -0.320509
  38 H :   -0.271711
  39 H :   -0.279803
  40 H :   -0.271055

  Mayer bond orders larger than 0.100000
B(  0-C ,  1-C ) :   0.4779 B(  0-C ,  5-C ) :   0.5966 B(  0-C , 20-H ) :  -0.2196
B(  0-C , 23-H ) :   1.2531 B(  0-C , 24-H ) :   1.1944 B(  1-C ,  2-C ) :   0.5787
B(  1-C ,  5-C ) :  -0.1582 B(  1-C ,  6-C ) :   0.2842 B(  1-C ,  8-C ) :   0.7112
B(  1-C , 10-C ) :   0.1963 B(  1-C , 20-H ) :   0.9497 B(  1-C , 22-H ) :  -0.1712
B(  1-C , 23-H ) :  -0.1410 B(  1-C , 24-H ) :  -0.1890 B(  2-C ,  3-C ) :   0.7698
B(  2-C ,  4-C ) :  -0.4207 B(  2-C ,  5-C ) :   0.2608 B(  2-C ,  6-C ) :   0.8368
B(  2-C ,  7-C ) :  -0.1359 B(  2-C ,  8-C ) :  -0.3635 B(  2-C , 10-C ) :  -0.5169
B(  2-C , 11-C ) :  -0.5335 B(  2-C , 16-C ) :  -0.1940 B(  2-C , 17-C ) :  -0.1509
B(  2-C , 18-O ) :   1.2897 B(  2-C , 21-H ) :  -0.1158 B(  2-C , 25-H ) :  -0.3903
B(  2-C , 26-H ) :  -0.4388 B(  2-C , 27-H ) :  -0.1860 B(  2-C , 28-H ) :  -0.1658
B(  2-C , 34-H ) :  -0.1194 B(  2-C , 35-H ) :  -0.1392 B(  3-C ,  4-C ) :   1.3552
B(  3-C ,  6-C ) :  -0.1336 B(  3-C , 18-O ) :  -0.8237 B(  4-C ,  5-C ) :   0.5493
B(  4-C , 18-O ) :   0.3213 B(  4-C , 19-C ) :   0.1420 B(  4-C , 27-H ) :   1.1632
B(  4-C , 28-H ) :   1.0611 B(  4-C , 29-H ) :  -0.1043 B(  5-C , 19-C ) :   0.2918
B(  5-C , 29-H ) :   1.0276 B(  5-C , 30-H ) :  -0.1684 B(  5-C , 31-H ) :  -0.1535
B(  5-C , 32-H ) :  -0.1795 B(  6-C ,  7-C ) :   0.7508 B(  6-C ,  8-C ) :  -0.3518
B(  6-C ,  9-O ) :   0.8156 B(  6-C , 12-C ) :   0.4550 B(  6-C , 13-N ) :  -0.1861
B(  6-C , 14-O ) :  -0.4511 B(  6-C , 15-C ) :   0.3205 B(  6-C , 39-H ) :  -0.1423
B(  6-C , 40-H ) :  -0.2131 B(  7-C ,  8-C ) :   1.5977 B(  7-C ,  9-O ) :  -0.7954
B(  8-C ,  9-O ) :   0.4390 B(  8-C , 21-H ) :   1.1538 B(  8-C , 22-H ) :   1.2390
B(  9-O , 12-C ) :   0.1030 B(  9-O , 15-C ) :   0.1269 B( 10-C , 11-C ) :   0.9346
B( 10-C , 25-H ) :   1.3841 B( 10-C , 26-H ) :   1.3248 B( 11-C , 12-C ) :   0.9673
B( 11-C , 13-N ) :   0.1380 B( 11-C , 33-H ) :   1.1020 B( 11-C , 34-H ) :   1.2932
B( 12-C , 13-N ) :   0.2136 B( 12-C , 17-C ) :   0.1174 B( 12-C , 34-H ) :  -0.1197
B( 12-C , 40-H ) :   1.0869 B( 13-N , 14-O ) :   0.6612 B( 13-N , 16-C ) :   0.1284
B( 13-N , 17-C ) :   0.8206 B( 13-N , 40-H ) :  -0.1570 B( 14-O , 15-C ) :   0.4496
B( 14-O , 16-C ) :   0.1312 B( 15-C , 16-C ) :   0.7652 B( 15-C , 17-C ) :  -0.2001
B( 15-C , 39-H ) :   1.0427 B( 16-C , 17-C ) :   1.1706 B( 16-C , 35-H ) :   1.0237
B( 16-C , 36-H ) :   0.9927 B( 17-C , 37-H ) :   1.0113 B( 17-C , 38-H ) :   0.8553
B( 19-C , 30-H ) :   1.1010 B( 19-C , 31-H ) :   1.1247 B( 19-C , 32-H ) :   1.1338

MP2 TOTAL ENERGY:     -901.266750866 Eh
FINAL SINGLE POINT ENERGY      -901.266750865637

DIPOLE MOMENT
-------------
                                X             Y             Z
Electronic contribution:    -15.48828       7.70791      -6.23772
Nuclear contribution   :     17.87796      -9.23694       7.67593
                        -----------------------------------------
Total Dipole Moment    :      2.38968      -1.52903       1.43821
                        -----------------------------------------
Magnitude (a.u.)       :      3.18071
Magnitude (Debye)      :      8.08473

Rotational constants in cm-1:     0.023120     0.009826     0.009182
Rotational constants in MHz :   693.106204   294.564907   275.258527

                             ****ORCA TERMINATED NORMALLY****
TOTAL RUN TIME: 0 days 10 hours 52 minutes 23 seconds 548 msec
