                         Program Version 4.2.1 -  RELEASE  -
|  1> %pal
|  2>  nprocs 32
|  3> end
|  4> !RI-MP2 aug-cc-pVQZ aug-cc-pVQZ/C TightSCF
|  5> %maxcore 4500
|  6> *xyzfile 0 1  10_83TS.xyz
|  7>
|  8>
|  9>                          ****END OF INPUT****

CARTESIAN COORDINATES (ANGSTROEM)
---------------------------------
  C      0.698976    1.272079   -0.733774
  C     -0.053456    0.271668    0.116594
  C      0.556141   -0.880199    0.573567
  C      2.064517   -1.001649    0.436012
  C      2.681410    0.056458    1.346620
  C      2.764071    1.206181    0.686280
  C      2.222129    1.032668   -0.720577
  H      0.331582    1.216566   -1.765624
  H      0.465696    2.282594   -0.386443
  H      2.701212    1.676136   -1.459089
  C      2.475331   -0.464698   -0.942833
  H      3.080308    2.155780    1.098728
  H      2.910572   -0.107122    2.391421
  C     -1.465416    0.396444    0.233107
  H      0.074126   -1.444451    1.363195
  H      3.534278   -0.653027   -1.124180
  H      1.890007   -0.884815   -1.762052
  H      2.397830   -2.018683    0.643633
  C     -2.257502   -0.872863   -1.260428
  C     -2.108496   -0.257110    1.344896
  C     -2.076840    1.641189   -0.153688
  N     -2.611434   -0.804915    2.219391
  N     -2.558876    2.621543   -0.506752
  H     -3.227217   -1.060116   -0.811731
  H     -2.274766   -0.196653   -2.109850
  C     -1.314449   -1.862787   -1.246584
  C     -0.227229   -2.311029   -0.875916
  H      0.553432   -3.040718   -0.886134

 Total Charge           Charge          ....    0
 Multiplicity           Mult            ....    1
 Number of Electrons    NEL             ....  110
 Basis Dimension        Dim             .... 1832

ORBITAL ENERGIES
----------------

  NO   OCC          E(Eh)            E(eV)
   0   2.0000     -15.582709      -424.0271
   1   2.0000     -15.579038      -423.9272
   2   2.0000     -11.335023      -308.4417
   3   2.0000     -11.301255      -307.5228
   4   2.0000     -11.290003      -307.2166
   5   2.0000     -11.287498      -307.1484
   6   2.0000     -11.278211      -306.8957
   7   2.0000     -11.273813      -306.7760
   8   2.0000     -11.273408      -306.7650
   9   2.0000     -11.260074      -306.4022
  10   2.0000     -11.255556      -306.2792
  11   2.0000     -11.253807      -306.2316
  12   2.0000     -11.252089      -306.1849
  13   2.0000     -11.243438      -305.9495
  14   2.0000     -11.238875      -305.8253
  15   2.0000     -11.238713      -305.8209
  16   2.0000      -1.250465       -34.0269
  17   2.0000      -1.232159       -33.5288
  18   2.0000      -1.203983       -32.7620
  19   2.0000      -1.144794       -31.1514
  20   2.0000      -1.092576       -29.7305
  21   2.0000      -1.046869       -28.4867
  22   2.0000      -1.034500       -28.1502
  23   2.0000      -0.983898       -26.7732
  24   2.0000      -0.961994       -26.1772
  25   2.0000      -0.898387       -24.4464
  26   2.0000      -0.847030       -23.0489
  27   2.0000      -0.788215       -21.4484
  28   2.0000      -0.761399       -20.7187
  29   2.0000      -0.742057       -20.1924
  30   2.0000      -0.736911       -20.0524
  31   2.0000      -0.729962       -19.8633
  32   2.0000      -0.671705       -18.2780
  33   2.0000      -0.666021       -18.1233
  34   2.0000      -0.646469       -17.5913
  35   2.0000      -0.635078       -17.2814
  36   2.0000      -0.612833       -16.6760
  37   2.0000      -0.585552       -15.9337
  38   2.0000      -0.581452       -15.8221
  39   2.0000      -0.577880       -15.7249
  40   2.0000      -0.571171       -15.5424
  41   2.0000      -0.561333       -15.2747
  42   2.0000      -0.552967       -15.0470
  43   2.0000      -0.530134       -14.4257
  44   2.0000      -0.505223       -13.7478
  45   2.0000      -0.493827       -13.4377
  46   2.0000      -0.492414       -13.3993
  47   2.0000      -0.491206       -13.3664
  48   2.0000      -0.481827       -13.1112
  49   2.0000      -0.474236       -12.9046
  50   2.0000      -0.469014       -12.7625
  51   2.0000      -0.412958       -11.2372
  52   2.0000      -0.377350       -10.2682
  53   2.0000      -0.363631        -9.8949
  54   2.0000      -0.331989        -9.0339
  55   0.0000       0.015640         0.4256
  56   0.0000       0.023098         0.6285
  57   0.0000       0.025286         0.6881
  58   0.0000       0.030506         0.8301
  59   0.0000       0.035698         0.9714

MULLIKEN ATOMIC CHARGES
-----------------------
   0 C :   -0.600190
   1 C :    1.429131
   2 C :    0.018860
   3 C :    0.114184
   4 C :   -0.598617
   5 C :   -0.556815
   6 C :   -0.094256
   7 H :    0.131836
   8 H :    0.276491
   9 H :    0.256614
  10 C :   -0.718269
  11 H :    0.273953
  12 H :    0.318766
  13 C :   -0.544814
  14 H :    0.223380
  15 H :    0.229089
  16 H :    0.242392
  17 H :    0.230018
  18 C :   -0.579127
  19 C :    0.803763
  20 C :    0.771258
  21 N :   -1.026175
  22 N :   -1.018182
  23 H :    0.380879
  24 H :    0.339420
  25 C :   -0.010837
  26 C :   -0.756838
  27 H :    0.464090
Sum of atomic charges:   -0.0000000

LOEWDIN ATOMIC CHARGES
----------------------
   0 C :    0.524928
   1 C :   -0.118779
   2 C :    0.246088
   3 C :    0.098065
   4 C :    0.424800
   5 C :    0.419260
   6 C :    0.129774
   7 H :   -0.246643
   8 H :   -0.273622
   9 H :   -0.243887
  10 C :    0.505370
  11 H :   -0.276127
  12 H :   -0.274879
  13 C :   -0.365362
  14 H :   -0.312069
  15 H :   -0.240541
  16 H :   -0.266439
  17 H :   -0.255784
  18 C :    0.601154
  19 C :   -0.369613
  20 C :   -0.353531
  21 N :    0.487273
  22 N :    0.473555
  23 H :   -0.323884
  24 H :   -0.311513
  25 C :    0.155044
  26 C :    0.528250
  27 H :   -0.360885

  Mayer bond orders larger than 0.100000
B(  0-C ,  1-C ) :   0.3970 B(  0-C ,  6-C ) :   0.9045 B(  0-C ,  7-H ) :   1.0565
B(  0-C ,  8-H ) :   1.0006 B(  1-C ,  2-C ) :   1.0300 B(  1-C ,  3-C ) :  -0.1799
B(  1-C ,  6-C ) :  -0.1338 B(  1-C ,  8-H ) :  -0.1364 B(  1-C , 10-C ) :  -0.1622
B(  1-C , 13-C ) :   0.2231 B(  1-C , 14-H ) :  -0.1199 B(  1-C , 19-C ) :  -0.5448
B(  1-C , 20-C ) :  -0.5447 B(  2-C ,  3-C ) :   0.7454 B(  2-C , 13-C ) :  -0.3931
B(  2-C , 14-H ) :   1.0774 B(  2-C , 17-H ) :  -0.1668 B(  2-C , 18-C ) :   0.1380
B(  2-C , 25-C ) :  -0.1263 B(  2-C , 26-C ) :   0.2054 B(  3-C ,  4-C ) :   0.7288
B(  3-C ,  5-C ) :  -0.1322 B(  3-C , 10-C ) :   0.6747 B(  3-C , 17-H ) :   1.1578
B(  4-C ,  5-C ) :   1.5536 B(  4-C ,  6-C ) :  -0.1577 B(  4-C , 12-H ) :   1.0679
B(  5-C ,  6-C ) :   0.9113 B(  5-C , 11-H ) :   1.1097 B(  6-C ,  9-H ) :   1.0292
B(  6-C , 10-C ) :   0.9274 B( 10-C , 15-H ) :   0.9980 B( 10-C , 16-H ) :   0.9883
B( 13-C , 18-C ) :   0.3312 B( 13-C , 19-C ) :   1.6432 B( 13-C , 20-C ) :   1.6545
B( 13-C , 21-N ) :   0.2311 B( 13-C , 22-N ) :   0.2343 B( 13-C , 26-C ) :   0.1086
B( 18-C , 23-H ) :   0.8721 B( 18-C , 24-H ) :   0.8887 B( 18-C , 25-C ) :   1.3489
B( 18-C , 26-C ) :  -0.1292 B( 19-C , 21-N ) :   1.8319 B( 20-C , 22-N ) :   1.7788
B( 25-C , 26-C ) :   2.1150 B( 26-C , 27-H ) :   0.8245

MP2 TOTAL ENERGY:     -648.900494923 Eh
FINAL SINGLE POINT ENERGY      -648.900494922943

DIPOLE MOMENT
-------------
                                X             Y             Z
Electronic contribution:    -10.30957       1.28871       3.83697
Nuclear contribution   :     12.30687      -2.04724      -4.75946
                        -----------------------------------------
Total Dipole Moment    :      1.99730      -0.75852      -0.92249
                        -----------------------------------------
Magnitude (a.u.)       :      2.32713
Magnitude (Debye)      :      5.91510

Rotational constants in cm-1:     0.028750     0.015901     0.014072
Rotational constants in MHz :   861.889185   476.696512   421.881522

                             ****ORCA TERMINATED NORMALLY****
TOTAL RUN TIME: 0 days 4 hours 13 minutes 31 seconds 378 msec
