                         Program Version 4.2.1 -  RELEASE  -
|  1> %pal
|  2>  nprocs 32
|  3> end
|  4> !RI-MP2 aug-cc-pVQZ aug-cc-pVQZ/C TightSCF
|  5> %maxcore 4500
|  6> *xyzfile 1 1  05_7TS.xyz
|  7>
|  8>
|  9>                          ****END OF INPUT****

CARTESIAN COORDINATES (ANGSTROEM)
---------------------------------
  H     -2.000700   -2.780073    0.120482
  C     -0.874899    0.203032    1.038095
  C     -1.730449    0.977349    0.304842
  H     -3.452753   -1.552575   -1.195092
  H      0.227464   -1.425180    0.133325
  H     -0.209051    0.656256    1.761380
  C     -1.766861    2.466656    0.447769
  C     -0.815809   -1.230616    0.868047
  C     -2.650335    0.340450   -0.578862
  N     -1.899192   -1.776681    0.149185
  C     -2.721563   -1.018407   -0.602739
  H     -0.535883   -1.822787    1.740848
  C      3.156645   -0.191388    0.533207
  H      1.590516    2.148958   -1.221405
  H      0.255478    0.158016   -1.869934
  H      4.043041   -0.263129    1.146316
  H      3.386015    1.851346    0.288412
  C      2.423274   -1.265316    0.167796
  C      1.777081    1.171785   -0.798732
  N      1.305372   -1.180291   -0.641907
  C      1.056310    0.072605   -1.148110
  H      2.702659   -2.255461    0.501869
  N      2.819708    1.048693    0.056697
  H     -3.338517    0.921565   -1.175927
  H     -1.636758    2.949186   -0.524122
  H     -0.994947    2.827895    1.126266
  H     -2.738146    2.787039    0.831870

 Total Charge           Charge          ....    1
 Multiplicity           Mult            ....    1
 Number of Electrons    NEL             ....   94
 Basis Dimension        Dim             .... 1684

ORBITAL ENERGIES
----------------

  NO   OCC          E(Eh)            E(eV)
   0   2.0000     -15.786935      -429.5843
   1   2.0000     -15.753234      -428.6673
   2   2.0000     -15.743769      -428.4097
   3   2.0000     -11.455099      -311.7091
   4   2.0000     -11.440764      -311.3190
   5   2.0000     -11.424992      -310.8898
   6   2.0000     -11.421029      -310.7820
   7   2.0000     -11.414861      -310.6142
   8   2.0000     -11.412093      -310.5388
   9   2.0000     -11.393481      -310.0324
  10   2.0000     -11.363959      -309.2291
  11   2.0000     -11.346611      -308.7570
  12   2.0000     -11.345316      -308.7217
  13   2.0000      -1.475971       -40.1632
  14   2.0000      -1.423931       -38.7471
  15   2.0000      -1.381836       -37.6017
  16   2.0000      -1.244000       -33.8510
  17   2.0000      -1.214117       -33.0378
  18   2.0000      -1.180015       -32.1098
  19   2.0000      -1.104258       -30.0484
  20   2.0000      -1.097082       -29.8531
  21   2.0000      -1.037521       -28.2324
  22   2.0000      -1.006488       -27.3879
  23   2.0000      -0.970567       -26.4105
  24   2.0000      -0.932458       -25.3735
  25   2.0000      -0.890225       -24.2242
  26   2.0000      -0.858576       -23.3630
  27   2.0000      -0.843733       -22.9591
  28   2.0000      -0.815322       -22.1860
  29   2.0000      -0.802770       -21.8445
  30   2.0000      -0.788616       -21.4593
  31   2.0000      -0.774319       -21.0703
  32   2.0000      -0.771945       -21.0057
  33   2.0000      -0.743929       -20.2433
  34   2.0000      -0.741420       -20.1751
  35   2.0000      -0.726563       -19.7708
  36   2.0000      -0.697944       -18.9920
  37   2.0000      -0.692542       -18.8450
  38   2.0000      -0.678726       -18.4691
  39   2.0000      -0.655203       -17.8290
  40   2.0000      -0.641965       -17.4687
  41   2.0000      -0.631399       -17.1812
  42   2.0000      -0.610641       -16.6164
  43   2.0000      -0.540301       -14.7023
  44   2.0000      -0.518491       -14.1088
  45   2.0000      -0.501117       -13.6361
  46   2.0000      -0.375027       -10.2050
  47   0.0000      -0.120557        -3.2805
  48   0.0000      -0.074402        -2.0246
  49   0.0000      -0.062312        -1.6956
  50   0.0000      -0.057608        -1.5676
  51   0.0000      -0.051699        -1.4068

MULLIKEN ATOMIC CHARGES
-----------------------
   0 H :    0.023305
   1 C :   -0.366863
   2 C :    0.682149
   3 H :    0.394907
   4 H :    0.173960
   5 H :    0.217720
   6 C :   -1.054374
   7 C :    0.553304
   8 C :   -0.378380
   9 N :   -0.783841
  10 C :   -0.289102
  11 H :    0.499447
  12 C :   -0.142514
  13 H :    0.418319
  14 H :    0.585987
  15 H :    0.466537
  16 H :    0.057008
  17 C :   -0.253712
  18 C :    0.045458
  19 N :   -0.724367
  20 C :    0.131908
  21 H :    0.450195
  22 N :   -0.798690
  23 H :    0.326511
  24 H :    0.206706
  25 H :    0.219988
  26 H :    0.338435
Sum of atomic charges:    1.0000000

LOEWDIN ATOMIC CHARGES
----------------------
   0 H :   -0.425920
   1 C :    0.374830
   2 C :   -0.069109
   3 H :   -0.278458
   4 H :   -0.701580
   5 H :   -0.287608
   6 C :    0.929533
   7 C :    0.294124
   8 C :    0.381138
   9 N :    0.913810
  10 C :    0.281818
  11 H :   -0.228660
  12 C :    0.284821
  13 H :   -0.268975
  14 H :   -0.308429
  15 H :   -0.285130
  16 H :   -0.431543
  17 C :    0.216923
  18 C :    0.282581
  19 N :    0.750551
  20 C :    0.169845
  21 H :   -0.312023
  22 N :    0.868196
  23 H :   -0.318137
  24 H :   -0.273844
  25 H :   -0.293738
  26 H :   -0.265015

  Mayer bond orders larger than 0.100000
B(  0-H ,  7-C ) :  -0.1344 B(  0-H ,  9-N ) :   1.3812 B(  1-C ,  2-C ) :   1.0359
B(  1-C ,  4-H ) :   0.1170 B(  1-C ,  5-H ) :   0.9702 B(  1-C ,  7-C ) :   1.1873
B(  1-C ,  8-C ) :  -0.1089 B(  1-C ,  9-N ) :   0.1331 B(  1-C , 10-C ) :   0.1153
B(  1-C , 11-H ) :  -0.1677 B(  1-C , 19-N ) :   0.1015 B(  2-C ,  6-C ) :   0.5072
B(  2-C ,  7-C ) :  -0.2691 B(  2-C ,  8-C ) :   0.7694 B(  2-C , 10-C ) :  -0.3026
B(  2-C , 24-H ) :  -0.1386 B(  2-C , 25-H ) :  -0.1518 B(  2-C , 26-H ) :  -0.1362
B(  3-H ,  8-C ) :  -0.1606 B(  3-H , 10-C ) :   1.0137 B(  4-H ,  7-C ) :   0.5011
B(  4-H , 19-N ) :   0.1645 B(  6-C , 24-H ) :   1.0638 B(  6-C , 25-H ) :   1.0584
B(  6-C , 26-H ) :   0.9831 B(  7-C ,  9-N ) :   0.4822 B(  7-C , 11-H ) :   0.8844
B(  7-C , 19-N ) :  -0.1554 B(  8-C , 10-C ) :   1.3714 B(  8-C , 23-H ) :   0.9538
B(  9-N , 10-C ) :   1.0972 B(  9-N , 11-H ) :  -0.1408 B( 10-C , 23-H ) :  -0.1215
B( 12-C , 15-H ) :   0.8605 B( 12-C , 17-C ) :   1.3956 B( 12-C , 22-N ) :   0.9499
B( 13-H , 18-C ) :   0.9115 B( 14-H , 18-C ) :  -0.1263 B( 14-H , 19-N ) :  -0.2218
B( 14-H , 20-C ) :   0.7489 B( 16-H , 22-N ) :   1.3243 B( 17-C , 19-N ) :   1.1830
B( 17-C , 21-H ) :   0.8985 B( 18-C , 20-C ) :   1.3367 B( 18-C , 22-N ) :   0.7856
B( 19-N , 20-C ) :   0.8522 B( 19-N , 21-H ) :  -0.1066

MP2 TOTAL ENERGY:     -552.490943280 Eh
FINAL SINGLE POINT ENERGY      -552.490943280201

DIPOLE MOMENT
-------------
                                X             Y             Z
Electronic contribution:      3.76456      -3.86205      -1.38494
Nuclear contribution   :     -2.72168       4.24154       1.68223
                        -----------------------------------------
Total Dipole Moment    :      1.04289       0.37948       0.29729
                        -----------------------------------------
Magnitude (a.u.)       :      1.14891
Magnitude (Debye)      :      2.92030

Rotational constants in cm-1:     0.045273     0.019752     0.015971
Rotational constants in MHz :  1357.239158   592.146160   478.784431

                             ****ORCA TERMINATED NORMALLY****
TOTAL RUN TIME: 0 days 2 hours 43 minutes 0 seconds 831 msec
