                         Program Version 4.2.1 -  RELEASE  -
|  1> %pal
|  2>  nprocs 32
|  3> end
|  4> !RI-MP2 aug-cc-pVQZ aug-cc-pVQZ/C TightSCF
|  5> %maxcore 4500
|  6> *xyzfile 0 2  04_84R.xyz
|  7>
|  8>
|  9>                          ****END OF INPUT****

CARTESIAN COORDINATES (ANGSTROEM)
---------------------------------
  C     -2.545477    0.078286   -0.017118
  C     -3.711686    0.986587   -0.347208
  C     -4.990090    0.763213    0.455373
  H     -3.908693    0.891036   -1.420998
  H     -3.380414    2.021027   -0.213601
  C     -5.674072   -0.558133    0.276535
  H     -5.695469    1.567919    0.183629
  H     -4.778874    0.919053    1.519360
  C     -5.739982   -1.181849   -1.076700
  C     -6.714980   -0.926860    1.278534
  N     -2.596204   -0.963280    0.700546
  C     -1.217859    0.510763   -0.604073
  H     -1.423159    1.025329   -1.553252
  C     -0.274062   -0.658030   -0.879519
  C     -0.531446    1.521773    0.329204
  H     -7.669186   -0.413089    1.075296
  H     -6.418907   -0.648152    2.293197
  H     -6.927328   -1.998604    1.265102
  H     -6.400866   -0.613492   -1.751727
  H     -6.137444   -2.197211   -1.023659
  H     -4.762364   -1.232775   -1.561861
  H     -1.165082    2.398736    0.488667
  C      0.810085    1.969739   -0.239838
  H     -0.372503    1.049203    1.302631
  H     -0.730239   -1.348281   -1.593904
  H     -0.119010   -1.215846    0.045481
  C      1.063641   -0.168544   -1.423939
  H      0.919817    0.295768   -2.409021
  H      1.761207   -0.990618   -1.543880
  N      1.650365    0.821500   -0.531814
  H      1.344878    2.608216    0.458460
  H      0.650114    2.536163   -1.166911
  C      2.865407    0.712042    0.068039
  O      3.322461    1.535768    0.835012
  O      3.495086   -0.420807   -0.298205
  C      4.808181   -0.764571    0.242816
  C      4.726577   -0.932625    1.754748
  C      5.101491   -2.098300   -0.428723
  H      6.073804   -2.474318   -0.105734
  H      5.115446   -1.984645   -1.513963
  H      4.339328   -2.833863   -0.166374
  H      5.676664   -1.321785    2.127215
  H      3.942020   -1.647242    2.012477
  H      4.517460    0.015614    2.244530
  C      5.837182    0.280714   -0.168681
  H      6.833442   -0.057000    0.125152
  H      5.634651    1.238348    0.305249
  H      5.828480    0.411035   -1.252961
  H     -3.544744   -1.132978    1.039111

 Total Charge           Charge          ....    0
 Multiplicity           Mult            ....    2
 Number of Electrons    NEL             ....  155
 Basis Dimension        Dim             .... 2934

ORBITAL ENERGIES
----------------
                 SPIN UP ORBITALS
  NO   OCC          E(Eh)            E(eV)
   0   1.0000     -20.577476      -559.9416
   1   1.0000     -20.502987      -557.9146
   2   1.0000     -15.571015      -423.7089
   3   1.0000     -15.532893      -422.6715
   4   1.0000     -11.384796      -309.7961
   5   1.0000     -11.292853      -307.2942
   6   1.0000     -11.276544      -306.8504
   7   1.0000     -11.254214      -306.2427
   8   1.0000     -11.252517      -306.1966
   9   1.0000     -11.237653      -305.7921
  10   1.0000     -11.235386      -305.7304
  11   1.0000     -11.231985      -305.6379
  12   1.0000     -11.231403      -305.6220
  13   1.0000     -11.224538      -305.4352
  14   1.0000     -11.219024      -305.2852
  15   1.0000     -11.218926      -305.2825
  16   1.0000     -11.214663      -305.1665
  17   1.0000     -11.212448      -305.1062
  18   1.0000     -11.204100      -304.8791
  19   1.0000     -11.203862      -304.8726
  20   1.0000      -1.446289       -39.3555
  21   1.0000      -1.339417       -36.4474
  22   1.0000      -1.249890       -34.0112
  23   1.0000      -1.216462       -33.1016
  24   1.0000      -1.111218       -30.2378
  25   1.0000      -1.092754       -29.7353
  26   1.0000      -1.072640       -29.1880
  27   1.0000      -1.027468       -27.9588
  28   1.0000      -1.021215       -27.7887
  29   1.0000      -0.946239       -25.7485
  30   1.0000      -0.942959       -25.6592
  31   1.0000      -0.938232       -25.5306
  32   1.0000      -0.936108       -25.4728
  33   1.0000      -0.894008       -24.3272
  34   1.0000      -0.864093       -23.5132
  35   1.0000      -0.829881       -22.5822
  36   1.0000      -0.788436       -21.4544
  37   1.0000      -0.753296       -20.4982
  38   1.0000      -0.740317       -20.1451
  39   1.0000      -0.721805       -19.6413
  40   1.0000      -0.707685       -19.2571
  41   1.0000      -0.666941       -18.1484
  42   1.0000      -0.659585       -17.9482
  43   1.0000      -0.655961       -17.8496
  44   1.0000      -0.641329       -17.4514
  45   1.0000      -0.628180       -17.0937
  46   1.0000      -0.620746       -16.8914
  47   1.0000      -0.617459       -16.8019
  48   1.0000      -0.614018       -16.7083
  49   1.0000      -0.610644       -16.6165
  50   1.0000      -0.595540       -16.2055
  51   1.0000      -0.586011       -15.9462
  52   1.0000      -0.581044       -15.8110
  53   1.0000      -0.575795       -15.6682
  54   1.0000      -0.563759       -15.3407
  55   1.0000      -0.556859       -15.1529
  56   1.0000      -0.547659       -14.9026
  57   1.0000      -0.546873       -14.8812
  58   1.0000      -0.540064       -14.6959
  59   1.0000      -0.528583       -14.3835
  60   1.0000      -0.527611       -14.3570
  61   1.0000      -0.520003       -14.1500
  62   1.0000      -0.513682       -13.9780
  63   1.0000      -0.507192       -13.8014
  64   1.0000      -0.503763       -13.7081
  65   1.0000      -0.495135       -13.4733
  66   1.0000      -0.490354       -13.3432
  67   1.0000      -0.486336       -13.2339
  68   1.0000      -0.477613       -12.9965
  69   1.0000      -0.477077       -12.9819
  70   1.0000      -0.465922       -12.6784
  71   1.0000      -0.463841       -12.6218
  72   1.0000      -0.440358       -11.9828
  73   1.0000      -0.426038       -11.5931
  74   1.0000      -0.411922       -11.2090
  75   1.0000      -0.406922       -11.0729
  76   1.0000      -0.364416        -9.9163
  77   1.0000      -0.318696        -8.6722
  78   0.0000       0.019989         0.5439
  79   0.0000       0.024321         0.6618
  80   0.0000       0.026195         0.7128
  81   0.0000       0.028150         0.7660
  82   0.0000       0.032927         0.8960

                 SPIN DOWN ORBITALS
  NO   OCC          E(Eh)            E(eV)
   0   1.0000     -20.577476      -559.9416
   1   1.0000     -20.502987      -557.9146
   2   1.0000     -15.571015      -423.7089
   3   1.0000     -15.531766      -422.6408
   4   1.0000     -11.384796      -309.7961
   5   1.0000     -11.292853      -307.2942
   6   1.0000     -11.276896      -306.8599
   7   1.0000     -11.254215      -306.2427
   8   1.0000     -11.252518      -306.1966
   9   1.0000     -11.237149      -305.7784
  10   1.0000     -11.234361      -305.7025
  11   1.0000     -11.231870      -305.6347
  12   1.0000     -11.224562      -305.4359
  13   1.0000     -11.222040      -305.3672
  14   1.0000     -11.221897      -305.3633
  15   1.0000     -11.214668      -305.1666
  16   1.0000     -11.212448      -305.1062
  17   1.0000     -11.210659      -305.0575
  18   1.0000     -11.204100      -304.8791
  19   1.0000     -11.203862      -304.8726
  20   1.0000      -1.446289       -39.3555
  21   1.0000      -1.339417       -36.4474
  22   1.0000      -1.249867       -34.0106
  23   1.0000      -1.214221       -33.0406
  24   1.0000      -1.092802       -29.7366
  25   1.0000      -1.081035       -29.4165
  26   1.0000      -1.072316       -29.1792
  27   1.0000      -1.026311       -27.9273
  28   1.0000      -1.013159       -27.5695
  29   1.0000      -0.945762       -25.7355
  30   1.0000      -0.942644       -25.6506
  31   1.0000      -0.938192       -25.5295
  32   1.0000      -0.936108       -25.4728
  33   1.0000      -0.891705       -24.2645
  34   1.0000      -0.864082       -23.5129
  35   1.0000      -0.828098       -22.5337
  36   1.0000      -0.787043       -21.4165
  37   1.0000      -0.742254       -20.1977
  38   1.0000      -0.722226       -19.6528
  39   1.0000      -0.710307       -19.3284
  40   1.0000      -0.707562       -19.2538
  41   1.0000      -0.660865       -17.9831
  42   1.0000      -0.659519       -17.9464
  43   1.0000      -0.652437       -17.7537
  44   1.0000      -0.636800       -17.3282
  45   1.0000      -0.625728       -17.0269
  46   1.0000      -0.619713       -16.8633
  47   1.0000      -0.615626       -16.7520
  48   1.0000      -0.609779       -16.5929
  49   1.0000      -0.598557       -16.2876
  50   1.0000      -0.582460       -15.8495
  51   1.0000      -0.580511       -15.7965
  52   1.0000      -0.578648       -15.7458
  53   1.0000      -0.572244       -15.5716
  54   1.0000      -0.560877       -15.2622
  55   1.0000      -0.554928       -15.1004
  56   1.0000      -0.546548       -14.8723
  57   1.0000      -0.538788       -14.6612
  58   1.0000      -0.536156       -14.5895

MULLIKEN ATOMIC CHARGES AND SPIN POPULATIONS
--------------------------------------------
   0 C :    0.301134   -0.026931
   1 C :   -0.322185    0.013619
   2 C :   -0.437848   -0.212862
   3 H :    0.303309   -0.007900
   4 H :    0.124981   -0.009814
   5 C :    0.368570    1.108914
   6 H :    0.243251    0.128559
   7 H :    0.180992    0.014917
   8 C :   -0.959878   -0.164532
   9 C :   -0.966900   -0.124045
  10 N :   -1.218818    0.041625
  11 C :    0.941724    0.011600
  12 H :    0.193495    0.000273
  13 C :   -0.453104    0.000470
  14 C :   -0.710607   -0.000390
  15 H :    0.253563    0.078289
  16 H :    0.197313    0.017487
  17 H :    0.257007    0.019954
  18 H :    0.184404    0.085187
  19 H :    0.271907    0.007088
  20 H :    0.237168    0.029747
  21 H :    0.246091    0.000353
  22 C :   -0.594534   -0.000088
  23 H :    0.293327    0.000713
  24 H :    0.266164    0.000051
  25 H :    0.222227    0.000607
  26 C :   -1.013725   -0.000056
  27 H :    0.300007    0.000014
  28 H :    0.390429    0.000071
  29 N :   -0.384123   -0.000552
  30 H :    0.282178    0.000008
  31 H :    0.242212    0.000022
  32 C :    1.823198    0.000024
  33 O :   -1.034277   -0.000009
  34 O :   -0.717905    0.000065
  35 C :    1.658338    0.000019
  36 C :   -1.200597   -0.000005
  37 C :   -1.130601   -0.000005
  38 H :    0.246589   -0.000002
  39 H :    0.203535   -0.000013
  40 H :    0.218658    0.000000
  41 H :    0.319579    0.000008
  42 H :    0.230453   -0.000009
  43 H :    0.246361   -0.000012
  44 C :   -1.162435    0.000011
  45 H :    0.288237    0.000010
  46 H :    0.245183   -0.000004
  47 H :    0.219754   -0.000004
  48 H :    0.306205   -0.012471
Sum of atomic charges         :   -0.0000000

LOEWDIN ATOMIC CHARGES AND SPIN POPULATIONS
-------------------------------------------
   0 C :   -0.246135    0.003358
   1 C :    0.519392    0.007141
   2 C :    0.490426    0.112193
   3 H :   -0.276883    0.000653
   4 H :   -0.279594    0.000998
   5 C :    0.018983    0.444289
   6 H :   -0.254641    0.028794
   7 H :   -0.284298    0.011150
   8 C :    0.905809    0.118870
   9 C :    0.906259    0.119138
  10 N :    1.075325    0.019503
  11 C :    0.088902   -0.000047
  12 H :   -0.281630    0.000201
  13 C :    0.528311    0.000215
  14 C :    0.551443   -0.000198
  15 H :   -0.269831    0.028682
  16 H :   -0.296244    0.011088
  17 H :   -0.297461    0.011926
  18 H :   -0.261752    0.028173
  19 H :   -0.294617    0.009099
  20 H :   -0.310779    0.013342
  21 H :   -0.257446   -0.000119
  22 C :    0.387271   -0.000047
  23 H :   -0.250294   -0.000061
  24 H :   -0.247319   -0.000024
  25 H :   -0.280053    0.000114
  26 C :    0.402374    0.000019
  27 H :   -0.253190    0.000009
  28 H :   -0.333299    0.000009
  29 N :    0.436386    0.000000
  30 H :   -0.338252   -0.000008
  31 H :   -0.250740    0.000005
  32 C :   -1.196267    0.000001
  33 O :    0.761155   -0.000001
  34 O :    0.893813    0.000001
  35 C :   -0.621937    0.000000
  36 C :    0.902609    0.000000
  37 C :    0.882926    0.000000
  38 H :   -0.274862    0.000000
  39 H :   -0.276655    0.000000
  40 H :   -0.276659    0.000000
  41 H :   -0.271482    0.000000
  42 H :   -0.270390    0.000000
  43 H :   -0.326777    0.000000
  44 C :    0.902361    0.000000
  45 H :   -0.271868    0.000000
  46 H :   -0.327878    0.000000
  47 H :   -0.270894    0.000000
  48 H :   -0.703620    0.031534

  Mayer bond orders larger than 0.100000
B(  0-C ,  1-C ) :   0.7573 B(  0-C ,  2-C ) :  -0.1072 B(  0-C ,  3-H ) :   0.1101
B(  0-C , 10-N ) :   1.2145 B(  0-C , 11-C ) :   0.4930 B(  0-C , 14-C ) :   0.2168
B(  1-C ,  2-C ) :   0.9426 B(  1-C ,  3-H ) :   0.7934 B(  1-C ,  4-H ) :   1.1484
B(  1-C ,  6-H ) :  -0.1034 B(  1-C , 11-C ) :  -0.2743 B(  2-C ,  5-C ) :   0.5654
B(  2-C ,  6-H ) :   0.9910 B(  2-C ,  7-H ) :   0.9885 B(  5-C ,  8-C ) :   0.6723
B(  5-C ,  9-C ) :   0.6079 B(  5-C , 16-H ) :  -0.1191 B(  5-C , 17-H ) :  -0.1135
B(  5-C , 19-H ) :  -0.1340 B(  8-C , 18-H ) :   1.0030 B(  8-C , 19-H ) :   1.0327
B(  8-C , 20-H ) :   1.0351 B(  9-C , 15-H ) :   1.0087 B(  9-C , 16-H ) :   1.0829
B(  9-C , 17-H ) :   1.0346 B( 10-N , 11-C ) :  -0.2257 B( 10-N , 48-H ) :   0.8260
B( 11-C , 12-H ) :   0.9224 B( 11-C , 13-C ) :   0.6983 B( 11-C , 14-C ) :   0.5372
B( 11-C , 26-C ) :  -0.1871 B( 11-C , 29-N ) :   0.1131 B( 13-C , 14-C ) :   0.1908
B( 13-C , 24-H ) :   0.9244 B( 13-C , 25-H ) :   0.9180 B( 13-C , 26-C ) :   0.9771
B( 14-C , 21-H ) :   0.9765 B( 14-C , 22-C ) :   0.9239 B( 14-C , 23-H ) :   0.9048
B( 22-C , 29-N ) :   0.8355 B( 22-C , 30-H ) :   0.9888 B( 22-C , 31-H ) :   0.9893
B( 26-C , 27-H ) :   0.8964 B( 26-C , 28-H ) :   0.8847 B( 26-C , 29-N ) :   0.8926
B( 26-C , 34-O ) :   0.1664 B( 29-N , 32-C ) :   1.1701 B( 29-N , 33-O ) :   0.3993
B( 32-C , 33-O ) :   0.7632 B( 32-C , 34-O ) :   0.8632 B( 35-C , 36-C ) :   0.3965
B( 35-C , 37-C ) :   0.2098 B( 35-C , 38-H ) :  -0.1193 B( 35-C , 39-H ) :  -0.1522
B( 35-C , 40-H ) :  -0.1365 B( 35-C , 42-H ) :  -0.1248 B( 35-C , 43-H ) :  -0.1163
B( 35-C , 44-C ) :   0.3977 B( 35-C , 46-H ) :  -0.1152 B( 35-C , 47-H ) :  -0.1264
B( 36-C , 37-C ) :   0.1229 B( 36-C , 41-H ) :   0.9586 B( 36-C , 42-H ) :   1.0744
B( 36-C , 43-H ) :   1.0477 B( 36-C , 44-C ) :   0.1293 B( 37-C , 38-H ) :   1.0732
B( 37-C , 39-H ) :   1.0890 B( 37-C , 40-H ) :   1.0664 B( 37-C , 44-C ) :   0.1198
B( 44-C , 45-H ) :   0.9747 B( 44-C , 46-H ) :   1.0353 B( 44-C , 47-H ) :   1.0790

MP2 TOTAL ENERGY:     -885.592759687 Eh
FINAL SINGLE POINT ENERGY      -885.592759687303

DIPOLE MOMENT
-------------
                                X             Y             Z
Electronic contribution:      9.96650       5.30031      -0.05792
Nuclear contribution   :    -11.06298      -5.29170      -0.80977
                        -----------------------------------------
Total Dipole Moment    :     -1.09647       0.00861      -0.86769
                        -----------------------------------------
Magnitude (a.u.)       :      1.39829
Magnitude (Debye)      :      3.55417

Rotational constants in cm-1:     0.031163     0.003665     0.003552
Rotational constants in MHz :   934.252573   109.885312   106.478983

                             ****ORCA TERMINATED NORMALLY****
TOTAL RUN TIME: 0 days 19 hours 17 minutes 36 seconds 174 msec
