                         Program Version 4.2.1 -  RELEASE  -
|  1> %pal
|  2>  nprocs 32
|  3> end
|  4> !RI-MP2 aug-cc-pVQZ aug-cc-pVQZ/C TightSCF
|  5> %maxcore 4500
|  6> *xyzfile -1 1  05_10P2.xyz
|  7>
|  8>
|  9>                          ****END OF INPUT****

CARTESIAN COORDINATES (ANGSTROEM)
---------------------------------
  C     -0.758600   -0.984018    0.572363
  C      0.616701   -1.104617   -0.035314
  C      1.486661   -0.066252    0.021860
  C     -1.684586    0.050256   -0.057746
  O      2.778625   -0.257527   -0.454875
  H      3.163135    0.623267   -0.391745
  O      1.250821    1.113339    0.465857
  O     -2.812037   -0.211283   -0.426648
  O     -1.199053    1.278135   -0.139282
  H     -0.214020    1.302915    0.155256
  H     -0.690772   -0.706218    1.636398
  H     -1.284742   -1.937036    0.523948
  H      0.918503   -2.036451   -0.491249

 Total Charge           Charge          ....   -1
 Multiplicity           Mult            ....    1
 Number of Electrons    NEL             ....   62
 Basis Dimension        Dim             ....  870

ORBITAL ENERGIES
----------------

  NO   OCC          E(Eh)            E(eV)
   0   2.0000     -20.424944      -555.7910
   1   2.0000     -20.406694      -555.2944
   2   2.0000     -20.367118      -554.2175
   3   2.0000     -20.342634      -553.5512
   4   2.0000     -11.205547      -304.9184
   5   2.0000     -11.175867      -304.1108
   6   2.0000     -11.084339      -301.6202
   7   2.0000     -11.025428      -300.0172
   8   2.0000      -1.275369       -34.7046
   9   2.0000      -1.259315       -34.2677
  10   2.0000      -1.178335       -32.0641
  11   2.0000      -1.141616       -31.0650
  12   2.0000      -0.894674       -24.3453
  13   2.0000      -0.776636       -21.1333
  14   2.0000      -0.650970       -17.7138
  15   2.0000      -0.589081       -16.0297
  16   2.0000      -0.550019       -14.9668
  17   2.0000      -0.524646       -14.2763
  18   2.0000      -0.502386       -13.6706
  19   2.0000      -0.481016       -13.0891
  20   2.0000      -0.452526       -12.3138
  21   2.0000      -0.437726       -11.9111
  22   2.0000      -0.416157       -11.3242
  23   2.0000      -0.389562       -10.6005
  24   2.0000      -0.372559       -10.1378
  25   2.0000      -0.358999        -9.7689
  26   2.0000      -0.318540        -8.6679
  27   2.0000      -0.296170        -8.0592
  28   2.0000      -0.279406        -7.6030
  29   2.0000      -0.269040        -7.3210
  30   2.0000      -0.133026        -3.6198
  31   0.0000       0.114625         3.1191
  32   0.0000       0.116873         3.1803
  33   0.0000       0.124749         3.3946
  34   0.0000       0.133720         3.6387
  35   0.0000       0.140413         3.8208

MULLIKEN ATOMIC CHARGES
-----------------------
   0 C :   -0.465142
   1 C :   -0.910602
   2 C :    1.161368
   3 C :    1.147803
   4 O :   -0.835026
   5 H :    0.325751
   6 O :   -0.984365
   7 O :   -0.862183
   8 O :   -0.877939
   9 H :    0.499985
  10 H :    0.227150
  11 H :    0.241228
  12 H :    0.331972
Sum of atomic charges:   -1.0000000

LOEWDIN ATOMIC CHARGES
----------------------
   0 C :    0.347456
   1 C :    0.249799
   2 C :   -1.015331
   3 C :   -1.098846
   4 O :    1.188049
   5 H :   -0.911689
   6 O :    0.818168
   7 O :    0.602156
   8 O :    1.177023
   9 H :   -1.295221
  10 H :   -0.311594
  11 H :   -0.356651
  12 H :   -0.393320

  Mayer bond orders larger than 0.100000
B(  0-C ,  1-C ) :   1.0509 B(  0-C ,  2-C ) :  -0.1100 B(  0-C ,  3-C ) :   1.0345
B(  0-C , 10-H ) :   0.9144 B(  0-C , 11-H ) :   0.9658 B(  1-C ,  2-C ) :   1.5878
B(  1-C ,  4-O ) :   0.1501 B(  1-C , 12-H ) :   0.9012 B(  2-C ,  4-O ) :   0.5979
B(  2-C ,  6-O ) :   1.0622 B(  3-C ,  7-O ) :   1.3369 B(  3-C ,  8-O ) :   0.8967
B(  4-O ,  5-H ) :   0.9251 B(  6-O ,  9-H ) :   0.1374 B(  7-O ,  8-O ) :   0.1214
B(  8-O ,  9-H ) :   0.6447

MP2 TOTAL ENERGY:     -455.826405576 Eh
FINAL SINGLE POINT ENERGY      -455.826405575960

DIPOLE MOMENT
-------------
                                X             Y             Z
Electronic contribution:     -1.00740       2.33297      -1.04893
Nuclear contribution   :      1.85170      -2.66466       1.39324
                        -----------------------------------------
Total Dipole Moment    :      0.84430      -0.33168       0.34431
                        -----------------------------------------
Magnitude (a.u.)       :      0.97026
Magnitude (Debye)      :      2.46621

Rotational constants in cm-1:     0.165367     0.042074     0.036024
Rotational constants in MHz :  4957.567558  1261.360929  1079.981145

                             ****ORCA TERMINATED NORMALLY****
TOTAL RUN TIME: 0 days 0 hours 14 minutes 50 seconds 70 msec
