                         Program Version 4.2.1 -  RELEASE  -
|  1> %pal
|  2>  nprocs 32
|  3> end
|  4> !RI-MP2 aug-cc-pVQZ aug-cc-pVQZ/C TightSCF
|  5> %maxcore 4500
|  6> *xyzfile 0 1  02_15R.xyz
|  7>
|  8>
|  9>                          ****END OF INPUT****

CARTESIAN COORDINATES (ANGSTROEM)
---------------------------------
  C      0.772882    0.741441    0.652118
  C      2.268810    0.827145    0.667987
  C     -3.115737    0.500179   -1.540309
  C      0.141128    1.929987   -0.061318
  H      0.467911   -0.191994    0.163591
  C     -1.361261    1.751470   -0.264497
  H      0.327677    2.819486    0.545620
  H      0.629039    2.086618   -1.027252
  C     -1.670726    0.884626   -1.483582
  H     -1.780473    1.280141    0.630264
  C      3.079104   -0.091629    0.146658
  C      4.531326   -0.000035    0.154259
  C     -3.715567   -0.568947   -1.004808
  C      5.346250   -0.919526   -0.362179
  H     -1.419764    1.472616   -2.370516
  H     -1.036164    0.001876   -1.460150
  C      6.836384   -0.815760   -0.352470
  H      7.280117   -1.671321    0.161053
  H      7.148216    0.090950    0.179708
  C     -2.939320   -1.577792   -0.240245
  C     -3.036647   -3.681182    0.804371
  H     -3.784623   -4.455462    0.952867
  H     -2.690483   -3.293513    1.762529
  H     -2.183473   -4.073094    0.250809
  O     -3.688776   -2.653686    0.056745
  O      0.254999    0.751400    1.978833
  O     -2.010651    2.999082   -0.481284
  O     -1.783228   -1.492947    0.106320
  O      7.385463   -0.849671   -1.665655
  H      6.975811   -0.149531   -2.181609
  C      0.389514   -0.484292    2.649022
  H     -0.143535   -1.274849    2.109810
  H      1.441412   -0.769378    2.763262
  H     -0.051939   -0.358031    3.637024
  C     -2.319906    3.696545    0.702264
  H     -2.802079    4.628420    0.409085
  H     -3.006443    3.117829    1.332383
  H     -1.425808    3.931465    1.290857
  C     -5.195587   -0.800664   -1.150212
  H     -5.401195   -1.733673   -1.678088
  H     -5.683825   -0.875284   -0.176341
  H     -5.651367    0.020158   -1.703895
  H      4.932136   -1.802978   -0.842894
  H      4.959471    0.883375    0.624457
  H      2.685424    1.708128    1.152960
  H      2.647902   -0.973783   -0.322200
  H     -3.760285    1.199016   -2.065364

 Total Charge           Charge          ....    0
 Multiplicity           Mult            ....    1
 Number of Electrons    NEL             ....  162
 Basis Dimension        Dim             .... 2876

ORBITAL ENERGIES
----------------

  NO   OCC          E(Eh)            E(eV)
   0   2.0000     -20.602806      -560.6308
   1   2.0000     -20.554474      -559.3157
   2   2.0000     -20.545562      -559.0732
   3   2.0000     -20.544851      -559.0538
   4   2.0000     -20.539464      -558.9072
   5   2.0000     -11.380559      -309.6808
   6   2.0000     -11.287311      -307.1434
   7   2.0000     -11.278774      -306.9110
   8   2.0000     -11.275209      -306.8140
   9   2.0000     -11.270754      -306.6928
  10   2.0000     -11.262192      -306.4598
  11   2.0000     -11.255424      -306.2756
  12   2.0000     -11.250463      -306.1407
  13   2.0000     -11.242486      -305.9236
  14   2.0000     -11.239307      -305.8371
  15   2.0000     -11.234287      -305.7005
  16   2.0000     -11.231409      -305.6222
  17   2.0000     -11.228818      -305.5517
  18   2.0000     -11.223034      -305.3943
  19   2.0000     -11.219563      -305.2998
  20   2.0000     -11.213510      -305.1351
  21   2.0000      -1.465920       -39.8897
  22   2.0000      -1.370313       -37.2881
  23   2.0000      -1.365925       -37.1687
  24   2.0000      -1.360016       -37.0079
  25   2.0000      -1.358530       -36.9675
  26   2.0000      -1.115966       -30.3670
  27   2.0000      -1.109107       -30.1803
  28   2.0000      -1.073488       -29.2111
  29   2.0000      -1.041969       -28.3534
  30   2.0000      -1.003780       -27.3142
  31   2.0000      -0.976091       -26.5608
  32   2.0000      -0.948275       -25.8039
  33   2.0000      -0.921496       -25.0752
  34   2.0000      -0.909508       -24.7490
  35   2.0000      -0.894645       -24.3445
  36   2.0000      -0.855430       -23.2774
  37   2.0000      -0.830549       -22.6004
  38   2.0000      -0.789959       -21.4959
  39   2.0000      -0.775947       -21.1146
  40   2.0000      -0.763849       -20.7854
  41   2.0000      -0.757414       -20.6103
  42   2.0000      -0.697793       -18.9879
  43   2.0000      -0.685089       -18.6422
  44   2.0000      -0.678862       -18.4728
  45   2.0000      -0.676001       -18.3949
  46   2.0000      -0.674547       -18.3553
  47   2.0000      -0.656509       -17.8645
  48   2.0000      -0.655370       -17.8335
  49   2.0000      -0.642187       -17.4748
  50   2.0000      -0.624519       -16.9940
  51   2.0000      -0.619447       -16.8560
  52   2.0000      -0.612037       -16.6544
  53   2.0000      -0.607098       -16.5200
  54   2.0000      -0.605909       -16.4876
  55   2.0000      -0.602472       -16.3941
  56   2.0000      -0.589018       -16.0280
  57   2.0000      -0.578462       -15.7408
  58   2.0000      -0.571660       -15.5557
  59   2.0000      -0.555645       -15.1199
  60   2.0000      -0.550082       -14.9685
  61   2.0000      -0.547197       -14.8900
  62   2.0000      -0.538007       -14.6399
  63   2.0000      -0.534212       -14.5366
  64   2.0000      -0.529332       -14.4038
  65   2.0000      -0.519160       -14.1271
  66   2.0000      -0.513994       -13.9865
  67   2.0000      -0.502232       -13.6664
  68   2.0000      -0.495575       -13.4853
  69   2.0000      -0.493375       -13.4254
  70   2.0000      -0.486068       -13.2266
  71   2.0000      -0.468382       -12.7453
  72   2.0000      -0.462990       -12.5986
  73   2.0000      -0.460232       -12.5236
  74   2.0000      -0.454642       -12.3715
  75   2.0000      -0.443440       -12.0666
  76   2.0000      -0.439374       -11.9560
  77   2.0000      -0.424125       -11.5410
  78   2.0000      -0.404725       -11.0131
  79   2.0000      -0.360955        -9.8221
  80   2.0000      -0.320515        -8.7217
  81   0.0000       0.020104         0.5470
  82   0.0000       0.024782         0.6744
  83   0.0000       0.025511         0.6942
  84   0.0000       0.027142         0.7386
  85   0.0000       0.032143         0.8747

MULLIKEN ATOMIC CHARGES
-----------------------
   0 C :    1.580716
   1 C :   -0.472680
   2 C :   -0.364784
   3 C :   -1.034341
   4 H :    0.243220
   5 C :    2.004833
   6 H :    0.158339
   7 H :    0.218223
   8 C :   -0.792448
   9 H :    0.070694
  10 C :   -0.323541
  11 C :   -0.418026
  12 C :   -0.026486
  13 C :   -0.564854
  14 H :    0.162181
  15 H :    0.446508
  16 C :    0.064926
  17 H :    0.305802
  18 H :    0.194394
  19 C :    1.925979
  20 C :   -0.896042
  21 H :    0.488391
  22 H :    0.366594
  23 H :    0.327421
  24 O :   -0.847179
  25 O :   -1.130255
  26 O :   -1.225027
  27 O :   -1.181923
  28 O :   -0.865451
  29 H :    0.342546
  30 C :   -0.891983
  31 H :    0.377030
  32 H :    0.294223
  33 H :    0.380014
  34 C :   -0.851935
  35 H :    0.430569
  36 H :    0.233841
  37 H :    0.249923
  38 C :   -0.984033
  39 H :    0.211994
  40 H :    0.189295
  41 H :    0.279751
  42 H :    0.398532
  43 H :    0.317946
  44 H :    0.171308
  45 H :    0.182471
  46 H :    0.253323
Sum of atomic charges:    0.0000000

LOEWDIN ATOMIC CHARGES
----------------------
   0 C :   -0.274531
   1 C :    0.369799
   2 C :    0.402470
   3 C :    0.502750
   4 H :   -0.369673
   5 C :   -0.240499
   6 H :   -0.297104
   7 H :   -0.259838
   8 C :    0.483955
   9 H :   -0.335814
  10 C :    0.367713
  11 C :    0.352743
  12 C :   -0.061475
  13 C :    0.364281
  14 H :   -0.275250
  15 H :   -0.367025
  16 C :    0.148231
  17 H :   -0.325606
  18 H :   -0.326052
  19 C :   -1.053830
  20 C :    0.583795
  21 H :   -0.319566
  22 H :   -0.315626
  23 H :   -0.313606
  24 O :    0.849656
  25 O :    0.909822
  26 O :    0.913716
  27 O :    0.780951
  28 O :    1.256518
  29 H :   -0.802498
  30 C :    0.578835
  31 H :   -0.337949
  32 H :   -0.307800
  33 H :   -0.317517
  34 C :    0.581032
  35 H :   -0.318195
  36 H :   -0.297882
  37 H :   -0.311284
  38 C :    0.870085
  39 H :   -0.292304
  40 H :   -0.287374
  41 H :   -0.312590
  42 H :   -0.322505
  43 H :   -0.339973
  44 H :   -0.301019
  45 H :   -0.328912
  46 H :   -0.303059

  Mayer bond orders larger than 0.100000
B(  0-C ,  1-C ) :   0.8017 B(  0-C ,  3-C ) :   0.6425 B(  0-C ,  4-H ) :   1.0589
B(  0-C , 10-C ) :  -0.4772 B(  0-C , 25-O ) :  -0.1933 B(  0-C , 27-O ) :  -0.1067
B(  0-C , 30-C ) :  -0.3491 B(  1-C , 10-C ) :   1.3998 B(  1-C , 11-C ) :  -0.5191
B(  1-C , 25-O ) :   0.1442 B(  1-C , 44-H ) :   1.1181 B(  2-C ,  5-C ) :  -0.1525
B(  2-C ,  8-C ) :   1.2170 B(  2-C , 12-C ) :   1.2119 B(  2-C , 46-H ) :   1.0035
B(  3-C ,  5-C ) :   0.7141 B(  3-C ,  6-H ) :   1.1168 B(  3-C ,  7-H ) :   1.0432
B(  3-C , 25-O ) :   0.2709 B(  3-C , 26-O ) :   0.3313 B(  4-H , 10-C ) :  -0.1019
B(  5-C ,  6-H ) :  -0.1621 B(  5-C ,  8-C ) :   0.5175 B(  5-C ,  9-H ) :   1.0098
B(  5-C , 26-O ) :  -0.7605 B(  5-C , 34-C ) :  -0.4969 B(  8-C , 12-C ) :  -0.2994
B(  8-C , 14-H ) :   1.0862 B(  8-C , 15-H ) :   0.8398 B(  8-C , 26-O ) :   0.2211
B(  9-H , 26-O ) :   0.1081 B( 10-C , 11-C ) :   0.9904 B( 10-C , 13-C ) :  -0.4461
B( 10-C , 45-H ) :   1.0403 B( 11-C , 13-C ) :   1.6491 B( 11-C , 16-C ) :  -0.2115
B( 11-C , 43-H ) :   0.8716 B( 12-C , 19-C ) :   0.9184 B( 12-C , 24-O ) :   0.2262
B( 12-C , 27-O ) :   0.2488 B( 12-C , 38-C ) :   0.5952 B( 12-C , 39-H ) :  -0.1587
B( 12-C , 40-H ) :  -0.1505 B( 12-C , 46-H ) :  -0.1145 B( 13-C , 16-C ) :   1.0704
B( 13-C , 42-H ) :   0.7788 B( 16-C , 17-H ) :   0.8642 B( 16-C , 18-H ) :   1.0195
B( 16-C , 28-O ) :   0.6727 B( 19-C , 20-C ) :  -0.2042 B( 19-C , 24-O ) :   0.3365
B( 19-C , 27-O ) :   0.9354 B( 20-C , 21-H ) :   0.7990 B( 20-C , 22-H ) :   0.8617
B( 20-C , 23-H ) :   0.9049 B( 20-C , 24-O ) :   0.9634 B( 25-O , 30-C ) :   1.1589
B( 26-O , 34-C ) :   1.1726 B( 28-O , 29-H ) :   0.8646 B( 30-C , 31-H ) :   0.8466
B( 30-C , 32-H ) :   0.9448 B( 30-C , 33-H ) :   0.9170 B( 34-C , 35-H ) :   0.8711
B( 34-C , 36-H ) :   0.9616 B( 34-C , 37-H ) :   0.9614 B( 38-C , 39-H ) :   1.1098
B( 38-C , 40-H ) :   1.0802 B( 38-C , 41-H ) :   1.0147

MP2 TOTAL ENERGY:     -999.830222156 Eh
FINAL SINGLE POINT ENERGY      -999.830222156306

DIPOLE MOMENT
-------------
                                X             Y             Z
Electronic contribution:      0.39346      -1.92028      -3.86458
Nuclear contribution   :     -1.34989       1.62897       4.21928
                        -----------------------------------------
Total Dipole Moment    :     -0.95643      -0.29131       0.35470
                        -----------------------------------------
Magnitude (a.u.)       :      1.06086
Magnitude (Debye)      :      2.69650

Rotational constants in cm-1:     0.012886     0.003982     0.003508
Rotational constants in MHz :   386.298982   119.378269   105.155570

                             ****ORCA TERMINATED NORMALLY****
TOTAL RUN TIME: 0 days 8 hours 4 minutes 39 seconds 721 msec
