                         Program Version 4.2.1 -  RELEASE  -
|  1> %pal
|  2>  nprocs 32
|  3> end
|  4> !RI-MP2 aug-cc-pVQZ aug-cc-pVQZ/C TightSCF
|  5> %maxcore 4500
|  6> *xyzfile 1 1  05_21TS.xyz
|  7>
|  8>
|  9>                          ****END OF INPUT****

CARTESIAN COORDINATES (ANGSTROEM)
---------------------------------
  C      1.191943   -0.392034   -0.358717
  C      2.514862    1.907269   -0.281053
  C      3.769773    1.099151   -0.630363
  C      3.725647   -0.325285   -0.108977
  C      2.526868   -1.041842   -0.720186
  H      3.883526    1.079163   -1.719566
  H      4.632071    1.631178   -0.223157
  H      3.629155   -0.329409    0.977821
  H      2.641699   -1.054187   -1.808433
  H      2.506566   -2.076082   -0.375654
  N      1.304437    1.081708   -0.568719
  O      0.206070    1.718200   -0.646584
  C      0.092109   -0.912528   -1.282722
  H      0.081196   -2.001830   -1.231247
  H     -0.891752   -0.546602   -0.992531
  H      0.281718   -0.618590   -2.315770
  C      0.815360   -0.672820    1.104948
  H     -0.058352   -0.093865    1.406782
  H      0.561293   -1.728930    1.200574
  H      1.628453   -0.468326    1.797809
  C      2.451635    3.155037   -1.160305
  H      1.624084    3.804930   -0.881049
  H      3.380195    3.715172   -1.043597
  H      2.341741    2.884634   -2.211188
  C      2.504564    2.318831    1.199082
  H      3.314782    3.028236    1.371694
  H      1.572686    2.824742    1.457380
  H      2.645846    1.476405    1.873342
  C     -2.268644    3.176301    0.479917
  C     -2.615995    1.894324    0.624325
  C     -1.362948    2.342368    1.168118
  H     -2.507950    4.173033    0.152901
  H     -0.361560    1.975103    0.403537
  H     -0.927042    2.360285    2.166742
  C     -3.510969    0.814377    0.440789
  C     -3.260898   -0.431902    1.044717
  C     -4.658250    0.968503   -0.348569
  C     -4.125159   -1.479216    0.864148
  H     -2.381140   -0.560412    1.662750
  C     -5.532768   -0.079004   -0.538925
  H     -4.858757    1.924014   -0.817878
  C     -5.270363   -1.314033    0.068801
  H     -3.955172   -2.443959    1.323150
  H     -6.410309    0.061700   -1.152468
  O     -6.048192   -2.388215   -0.049749
  C     -7.241489   -2.315247   -0.826051
  H     -7.692439   -3.301016   -0.761977
  H     -7.926717   -1.571388   -0.414324
  H     -7.012714   -2.083889   -1.868503
  N      4.964808   -1.017943   -0.395480
  C      5.311084   -2.125715    0.325116
  C      6.610824   -2.788377   -0.046593
  H      7.257558   -2.799538    0.831120
  H      6.409950   -3.825100   -0.317739
  H      7.130844   -2.295527   -0.868310
  O      4.596260   -2.536608    1.220079
  H      5.539604   -0.722260   -1.167784

 Total Charge           Charge          ....    1
 Multiplicity           Mult            ....    1
 Number of Electrons    NEL             ....  194
 Basis Dimension        Dim             .... 3506

ORBITAL ENERGIES
----------------

  NO   OCC          E(Eh)            E(eV)
   0   2.0000     -20.787415      -565.6543
   1   2.0000     -20.695744      -563.1598
   2   2.0000     -20.590703      -560.3015
   3   2.0000     -15.778954      -429.3672
   4   2.0000     -15.666512      -426.3075
   5   2.0000     -11.434820      -311.1573
   6   2.0000     -11.433590      -311.1238
   7   2.0000     -11.431431      -311.0650
   8   2.0000     -11.425831      -310.9127
   9   2.0000     -11.420120      -310.7573
  10   2.0000     -11.397512      -310.1421
  11   2.0000     -11.392805      -310.0140
  12   2.0000     -11.378370      -309.6212
  13   2.0000     -11.374171      -309.5069
  14   2.0000     -11.370129      -309.3969
  15   2.0000     -11.365763      -309.2781
  16   2.0000     -11.363897      -309.2274
  17   2.0000     -11.344945      -308.7117
  18   2.0000     -11.340698      -308.5961
  19   2.0000     -11.335969      -308.4674
  20   2.0000     -11.330598      -308.3213
  21   2.0000     -11.327921      -308.2484
  22   2.0000     -11.322783      -308.1086
  23   2.0000     -11.322065      -308.0890
  24   2.0000     -11.319635      -308.0229
  25   2.0000     -11.305329      -307.6336
  26   2.0000      -1.623790       -44.1856
  27   2.0000      -1.531238       -41.6671
  28   2.0000      -1.462385       -39.7935
  29   2.0000      -1.370190       -37.2848
  30   2.0000      -1.327241       -36.1161
  31   2.0000      -1.288509       -35.0621
  32   2.0000      -1.278709       -34.7954
  33   2.0000      -1.219378       -33.1810
  34   2.0000      -1.159113       -31.5411
  35   2.0000      -1.151262       -31.3274
  36   2.0000      -1.148926       -31.2639
  37   2.0000      -1.106068       -30.0976
  38   2.0000      -1.070551       -29.1312
  39   2.0000      -1.064436       -28.9648
  40   2.0000      -1.058715       -28.8091
  41   2.0000      -1.048236       -28.5240
  42   2.0000      -1.042155       -28.3585
  43   2.0000      -0.984184       -26.7810
  44   2.0000      -0.976509       -26.5722
  45   2.0000      -0.950502       -25.8645
  46   2.0000      -0.941166       -25.6104
  47   2.0000      -0.934719       -25.4350
  48   2.0000      -0.903367       -24.5819
  49   2.0000      -0.885673       -24.1004
  50   2.0000      -0.875737       -23.8300
  51   2.0000      -0.856561       -23.3082
  52   2.0000      -0.822870       -22.3914
  53   2.0000      -0.804411       -21.8891
  54   2.0000      -0.798581       -21.7305
  55   2.0000      -0.794739       -21.6260
  56   2.0000      -0.791247       -21.5309
  57   2.0000      -0.769035       -20.9265
  58   2.0000      -0.761689       -20.7266
  59   2.0000      -0.753309       -20.4986
  60   2.0000      -0.743416       -20.2294
  61   2.0000      -0.728225       -19.8160
  62   2.0000      -0.717415       -19.5219
  63   2.0000      -0.716143       -19.4873
  64   2.0000      -0.711615       -19.3640
  65   2.0000      -0.701693       -19.0940
  66   2.0000      -0.698299       -19.0017
  67   2.0000      -0.697261       -18.9734
  68   2.0000      -0.689821       -18.7710
  69   2.0000      -0.687657       -18.7121
  70   2.0000      -0.675896       -18.3921
  71   2.0000      -0.675624       -18.3847
  72   2.0000      -0.668875       -18.2010
  73   2.0000      -0.658421       -17.9166
  74   2.0000      -0.649475       -17.6731
  75   2.0000      -0.645532       -17.5658
  76   2.0000      -0.644603       -17.5405
  77   2.0000      -0.637206       -17.3393
  78   2.0000      -0.634933       -17.2774
  79   2.0000      -0.632476       -17.2105
  80   2.0000      -0.630334       -17.1523
  81   2.0000      -0.621517       -16.9123
  82   2.0000      -0.620618       -16.8879
  83   2.0000      -0.611883       -16.6502
  84   2.0000      -0.603829       -16.4310
  85   2.0000      -0.593326       -16.1452
  86   2.0000      -0.590880       -16.0787
  87   2.0000      -0.589465       -16.0402
  88   2.0000      -0.584613       -15.9081
  89   2.0000      -0.579524       -15.7697
  90   2.0000      -0.564450       -15.3595
  91   2.0000      -0.561197       -15.2709
  92   2.0000      -0.501807       -13.6549
  93   2.0000      -0.476306       -12.9609
  94   2.0000      -0.468799       -12.7567
  95   2.0000      -0.464979       -12.6527
  96   2.0000      -0.404283       -11.0011
  97   0.0000      -0.125983        -3.4282
  98   0.0000      -0.057593        -1.5672
  99   0.0000      -0.051928        -1.4130
 100   0.0000      -0.047159        -1.2833
 101   0.0000      -0.044863        -1.2208

MULLIKEN ATOMIC CHARGES
-----------------------
   0 C :    1.558595
   1 C :    1.146231
   2 C :   -0.786575
   3 C :    1.822483
   4 C :   -1.099937
   5 H :    0.158981
   6 H :    0.105890
   7 H :    0.171483
   8 H :    0.259182
   9 H :    0.169657
  10 N :    1.506278
  11 O :   -1.467796
  12 C :   -1.430875
  13 H :    0.190554
  14 H :    0.425552
  15 H :    0.241050
  16 C :   -1.475817
  17 H :    0.373950
  18 H :    0.127732
  19 H :    0.295707
  20 C :   -1.160228
  21 H :    0.217331
  22 H :    0.245550
  23 H :    0.238546
  24 C :   -1.209118
  25 H :    0.126030
  26 H :    0.235445
  27 H :    0.270243
  28 C :   -0.846674
  29 C :    0.075316
  30 C :   -0.189289
  31 H :    0.434467
  32 H :    0.279041
  33 H :    0.335438
  34 C :    0.977196
  35 C :   -0.261175
  36 C :   -0.499403
  37 C :   -0.593762
  38 H :    0.418621
  39 C :   -0.523380
  40 H :    0.192612
  41 C :    1.271991
  42 H :    0.165544
  43 H :    0.190767
  44 O :   -0.872726
  45 C :   -0.773379
  46 H :    0.502639
  47 H :    0.297645
  48 H :    0.277364
  49 N :   -1.074144
  50 C :    1.004918
  51 C :   -0.908127
  52 H :    0.287157
  53 H :    0.286165
  54 H :    0.212248
  55 O :   -0.940704
  56 H :    0.017508
Sum of atomic charges:    1.0000000

LOEWDIN ATOMIC CHARGES
----------------------
   0 C :   -0.366878
   1 C :   -0.374695
   2 C :    0.533506
   3 C :   -0.020232
   4 C :    0.532609
   5 H :   -0.254887
   6 H :   -0.243384
   7 H :   -0.340309
   8 H :   -0.250444
   9 H :   -0.267599
  10 N :    0.176686
  11 O :    1.057975
  12 C :    0.923535
  13 H :   -0.257693
  14 H :   -0.290967
  15 H :   -0.254782
  16 C :    0.948894
  17 H :   -0.310971
  18 H :   -0.246094
  19 H :   -0.283073
  20 C :    0.922048
  21 H :   -0.277078
  22 H :   -0.260238
  23 H :   -0.258063
  24 C :    0.947936
  25 H :   -0.252224
  26 H :   -0.285096
  27 H :   -0.286320
  28 C :    0.575999
  29 C :    0.015215
  30 C :    0.483204
  31 H :   -0.250179
  32 H :   -0.912606
  33 H :   -0.212306
  34 C :   -0.073604
  35 C :    0.338636
  36 C :    0.362315
  37 C :    0.366574
  38 H :   -0.314585
  39 C :    0.373033
  40 H :   -0.291762
  41 C :   -0.442185
  42 H :   -0.313210
  43 H :   -0.346673
  44 O :    0.900976
  45 C :    0.621510
  46 H :   -0.305681
  47 H :   -0.296794
  48 H :   -0.297406
  49 N :    0.877947
  50 C :   -0.807998
  51 C :    0.912775
  52 H :   -0.290682
  53 H :   -0.290594
  54 H :   -0.304807
  55 O :    0.740675
  56 H :   -0.479947

  Mayer bond orders larger than 0.100000
B(  0-C ,  1-C ) :   0.1759 B(  0-C ,  4-C ) :   0.1893 B(  0-C ,  8-H ) :  -0.1288
B(  0-C , 10-N ) :   0.8878 B(  0-C , 13-H ) :  -0.2470 B(  0-C , 14-H ) :  -0.2138
B(  0-C , 15-H ) :  -0.2406 B(  0-C , 16-C ) :   0.3815 B(  0-C , 17-H ) :  -0.1949
B(  0-C , 19-H ) :  -0.1307 B(  1-C ,  2-C ) :   0.5666 B(  1-C , 10-N ) :   0.7903
B(  1-C , 21-H ) :  -0.2202 B(  1-C , 22-H ) :  -0.2058 B(  1-C , 23-H ) :  -0.2383
B(  1-C , 24-C ) :   0.4008 B(  1-C , 26-H ) :  -0.1808 B(  1-C , 27-H ) :  -0.1625
B(  2-C ,  3-C ) :   0.2794 B(  2-C ,  4-C ) :  -0.1705 B(  2-C ,  5-H ) :   1.2161
B(  2-C ,  6-H ) :   1.1752 B(  3-C ,  4-C ) :   0.7857 B(  3-C ,  5-H ) :  -0.1580
B(  3-C ,  6-H ) :  -0.1356 B(  3-C ,  7-H ) :   1.0329 B(  3-C , 49-N ) :  -1.0671
B(  3-C , 56-H ) :  -0.4158 B(  4-C ,  8-H ) :   1.1075 B(  4-C ,  9-H ) :   1.1670
B(  4-C , 49-N ) :   0.5487 B( 10-N , 11-O ) :  -0.2437 B( 10-N , 24-C ) :  -0.1193
B( 10-N , 28-C ) :   0.1021 B( 10-N , 30-C ) :   0.1694 B( 11-O , 28-C ) :   0.1840
B( 11-O , 32-H ) :   0.1177 B( 12-C , 13-H ) :   1.1805 B( 12-C , 14-H ) :   0.8985
B( 12-C , 15-H ) :   1.2198 B( 16-C , 17-H ) :   0.8402 B( 16-C , 18-H ) :   1.1408
B( 16-C , 19-H ) :   1.1231 B( 20-C , 21-H ) :   1.1269 B( 20-C , 22-H ) :   1.1088
B( 20-C , 23-H ) :   1.1633 B( 20-C , 24-C ) :   0.1432 B( 24-C , 25-H ) :   1.1148
B( 24-C , 26-H ) :   1.0810 B( 24-C , 27-H ) :   1.0787 B( 28-C , 29-C ) :   1.6887
B( 28-C , 30-C ) :   1.2278 B( 28-C , 31-H ) :   0.8393 B( 28-C , 34-C ) :  -0.5768
B( 29-C , 30-C ) :   0.3039 B( 29-C , 32-H ) :   0.2374 B( 29-C , 33-H ) :  -0.1066
B( 29-C , 34-C ) :   0.3489 B( 29-C , 35-C ) :  -0.6306 B( 29-C , 36-C ) :  -0.4972
B( 30-C , 32-H ) :   0.4580 B( 30-C , 33-H ) :   0.9989 B( 34-C , 35-C ) :   0.8054
B( 34-C , 36-C ) :   1.1482 B( 34-C , 37-C ) :  -0.4743 B( 34-C , 38-H ) :  -0.1589
B( 34-C , 39-C ) :  -0.4949 B( 35-C , 37-C ) :   1.3465 B( 35-C , 38-H ) :   0.8666
B( 35-C , 41-C ) :  -0.2615 B( 35-C , 42-H ) :  -0.1115 B( 36-C , 37-C ) :   0.2109
B( 36-C , 39-C ) :   1.0141 B( 36-C , 40-H ) :   1.1572 B( 36-C , 43-H ) :  -0.1690
B( 37-C , 38-H ) :  -0.1430 B( 37-C , 41-C ) :   1.2587 B( 37-C , 42-H ) :   1.1106
B( 37-C , 44-O ) :   0.4028 B( 39-C , 40-H ) :  -0.2080 B( 39-C , 41-C ) :   1.3150
B( 39-C , 43-H ) :   1.1676 B( 39-C , 44-O ) :   0.1944 B( 39-C , 45-C ) :   0.2157
B( 41-C , 42-H ) :  -0.1042 B( 41-C , 43-H ) :  -0.1193 B( 41-C , 44-O ) :  -0.2066
B( 41-C , 45-C ) :  -0.2464 B( 42-H , 44-O ) :   0.1011 B( 44-O , 45-C ) :   0.9275
B( 45-C , 46-H ) :   0.7574 B( 45-C , 47-H ) :   0.8957 B( 45-C , 48-H ) :   0.8985
B( 49-N , 50-C ) :   1.1157 B( 49-N , 55-O ) :   0.1839 B( 49-N , 56-H ) :   1.4162
B( 50-C , 51-C ) :   0.7361 B( 50-C , 54-H ) :  -0.1609 B( 50-C , 55-O ) :   0.9517
B( 51-C , 52-H ) :   0.9769 B( 51-C , 53-H ) :   0.9500 B( 51-C , 54-H ) :   1.0495

MP2 TOTAL ENERGY:    -1151.778811879 Eh
FINAL SINGLE POINT ENERGY     -1151.778811878788

DIPOLE MOMENT
-------------
                                X             Y             Z
Electronic contribution:    -18.05165      -0.11311       2.75320
Nuclear contribution   :     16.39775       2.41186      -3.60935
                        -----------------------------------------
Total Dipole Moment    :     -1.65390       2.29875      -0.85615
                        -----------------------------------------
Magnitude (a.u.)       :      2.95848
Magnitude (Debye)      :      7.51986

Rotational constants in cm-1:     0.011619     0.002884     0.002471
Rotational constants in MHz :   348.332150    86.468453    74.076057

                             ****ORCA TERMINATED NORMALLY****
TOTAL RUN TIME: 2 days 16 hours 15 minutes 7 seconds 183 msec
