                         Program Version 4.2.1 -  RELEASE  -
|  1> %pal
|  2>  nprocs 32
|  3> end
|  4> !RI-MP2 aug-cc-pVQZ aug-cc-pVQZ/C TightSCF
|  5> %maxcore 4500
|  6> *xyzfile 0 1  02_44P.xyz
|  7>
|  8>
|  9>                          ****END OF INPUT****

CARTESIAN COORDINATES (ANGSTROEM)
---------------------------------
  C      0.522520   -1.180247   -0.115441
  C      0.342029   -0.875406    1.346777
  C      0.492735    1.169434    0.244409
  C      0.326211    0.437499    1.548550
  S      1.764240    0.119427   -0.646613
  C     -2.626651   -0.170793    0.359930
  C     -0.709891   -0.659029   -0.892810
  C     -0.710360    0.883716   -0.686846
  C     -2.104191    1.185152   -0.117970
  H     -2.434594   -0.321791    1.424266
  H     -2.744102    1.582158   -0.906873
  H     -2.076336    1.918747    0.688968
  H     -3.693045   -0.303705    0.174630
  O      3.026672   -0.003702    0.140232
  O     -1.937982   -1.159835   -0.402326
  H      0.205024   -1.640839    2.096983
  H      0.183964    0.935823    2.497286
  H     -0.639902   -0.942632   -1.943705
  H      0.837619   -2.186577   -0.375433
  H     -0.559850    1.400747   -1.634239
  H      0.789439    2.213582    0.301086

 Total Charge           Charge          ....    0
 Multiplicity           Mult            ....    1
 Number of Electrons    NEL             ....   90
 Basis Dimension        Dim             .... 1344

ORBITAL ENERGIES
----------------

  NO   OCC          E(Eh)            E(eV)
   0   2.0000     -92.062829     -2505.1569
   1   2.0000     -20.564520      -559.5890
   2   2.0000     -20.507822      -558.0462
   3   2.0000     -11.302511      -307.5570
   4   2.0000     -11.282713      -307.0182
   5   2.0000     -11.277625      -306.8798
   6   2.0000     -11.272104      -306.7296
   7   2.0000     -11.258731      -306.3656
   8   2.0000     -11.247439      -306.0584
   9   2.0000     -11.244998      -305.9919
  10   2.0000     -11.243026      -305.9383
  11   2.0000      -9.050412      -246.2742
  12   2.0000      -6.732001      -183.1871
  13   2.0000      -6.731906      -183.1845
  14   2.0000      -6.730757      -183.1532
  15   2.0000      -1.394390       -37.9433
  16   2.0000      -1.336857       -36.3777
  17   2.0000      -1.186278       -32.2803
  18   2.0000      -1.075327       -29.2611
  19   2.0000      -1.033291       -28.1173
  20   2.0000      -0.988313       -26.8934
  21   2.0000      -0.947532       -25.7837
  22   2.0000      -0.827568       -22.5193
  23   2.0000      -0.816720       -22.2241
  24   2.0000      -0.800336       -21.7782
  25   2.0000      -0.731441       -19.9035
  26   2.0000      -0.727517       -19.7967
  27   2.0000      -0.690081       -18.7781
  28   2.0000      -0.675176       -18.3725
  29   2.0000      -0.623030       -16.9535
  30   2.0000      -0.611470       -16.6390
  31   2.0000      -0.594454       -16.1759
  32   2.0000      -0.582562       -15.8523
  33   2.0000      -0.573969       -15.6185
  34   2.0000      -0.555726       -15.1221
  35   2.0000      -0.543386       -14.7863
  36   2.0000      -0.530000       -14.4220
  37   2.0000      -0.516066       -14.0429
  38   2.0000      -0.497254       -13.5310
  39   2.0000      -0.479118       -13.0375
  40   2.0000      -0.476052       -12.9540
  41   2.0000      -0.437508       -11.9052
  42   2.0000      -0.398270       -10.8375
  43   2.0000      -0.395480       -10.7615
  44   2.0000      -0.346059        -9.4167
  45   0.0000       0.018288         0.4976
  46   0.0000       0.025543         0.6951
  47   0.0000       0.027215         0.7406
  48   0.0000       0.030034         0.8173
  49   0.0000       0.039512         1.0752

MULLIKEN ATOMIC CHARGES
-----------------------
   0 C :   -0.347241
   1 C :   -0.453514
   2 C :   -0.274257
   3 C :   -0.387834
   4 S :    1.008150
   5 C :   -0.353763
   6 C :    0.552408
   7 C :   -0.110952
   8 C :   -0.717828
   9 H :    0.288299
  10 H :    0.265817
  11 H :    0.296936
  12 H :    0.376956
  13 O :   -1.281951
  14 O :   -1.043236
  15 H :    0.291082
  16 H :    0.294636
  17 H :    0.423326
  18 H :    0.418606
  19 H :    0.380563
  20 H :    0.373800
Sum of atomic charges:   -0.0000000

LOEWDIN ATOMIC CHARGES
----------------------
   0 C :   -0.035935
   1 C :    0.312410
   2 C :   -0.039219
   3 C :    0.312431
   4 S :    0.761639
   5 C :    0.210966
   6 C :   -0.293183
   7 C :    0.041977
   8 C :    0.547808
   9 H :   -0.304890
  10 H :   -0.260396
  11 H :   -0.258375
  12 H :   -0.290417
  13 O :    0.071930
  14 O :    0.926257
  15 H :   -0.272470
  16 H :   -0.274845
  17 H :   -0.291974
  18 H :   -0.299457
  19 H :   -0.270194
  20 H :   -0.294061

  Mayer bond orders larger than 0.100000
B(  0-C ,  1-C ) :   0.9813 B(  0-C ,  3-C ) :  -0.1494 B(  0-C ,  4-S ) :   0.8813
B(  0-C ,  6-C ) :   0.8038 B(  0-C , 14-O ) :   0.2645 B(  0-C , 18-H ) :   0.8781
B(  1-C ,  2-C ) :  -0.1255 B(  1-C ,  3-C ) :   1.4909 B(  1-C , 15-H ) :   1.0829
B(  2-C ,  3-C ) :   0.9672 B(  2-C ,  4-S ) :   0.8315 B(  2-C ,  7-C ) :   0.7541
B(  2-C , 13-O ) :  -0.1089 B(  2-C , 20-H ) :   0.9385 B(  3-C , 16-H ) :   1.0656
B(  4-S , 13-O ) :   1.2492 B(  5-C ,  8-C ) :   1.1460 B(  5-C ,  9-H ) :   0.9408
B(  5-C , 12-H ) :   0.8417 B(  5-C , 14-O ) :   0.8396 B(  6-C ,  7-C ) :   0.9588
B(  6-C , 17-H ) :   0.8807 B(  7-C ,  8-C ) :   0.6761 B(  7-C , 14-O ) :   0.2908
B(  7-C , 19-H ) :   0.8546 B(  8-C , 10-H ) :   0.9881 B(  8-C , 11-H ) :   0.9091
B( 14-O , 17-H ) :  -0.1212

MP2 TOTAL ENERGY:     -858.260601368 Eh
FINAL SINGLE POINT ENERGY      -858.260601368245

DIPOLE MOMENT
-------------
                                X             Y             Z
Electronic contribution:      8.30349      -1.96252      -2.34595
Nuclear contribution   :    -10.09741       2.61493       2.32231
                        -----------------------------------------
Total Dipole Moment    :     -1.79392       0.65241      -0.02364
                        -----------------------------------------
Magnitude (a.u.)       :      1.90902
Magnitude (Debye)      :      4.85234

Rotational constants in cm-1:     0.074429     0.027988     0.027287
Rotational constants in MHz :  2231.339704   839.052788   818.053274

                             ****ORCA TERMINATED NORMALLY****
TOTAL RUN TIME: 0 days 1 hours 14 minutes 38 seconds 379 msec
