                         Program Version 4.2.1 -  RELEASE  -
|  1> %pal
|  2>  nprocs 32
|  3> end
|  4> !RI-MP2 aug-cc-pVQZ aug-cc-pVQZ/C TightSCF
|  5> %maxcore 4500
|  6> *xyzfile 0 1  04_62P2.xyz
|  7>
|  8>
|  9>                          ****END OF INPUT****

CARTESIAN COORDINATES (ANGSTROEM)
---------------------------------
  C      1.388317   -0.122941    0.000022
  C     -0.088371    0.125751   -0.000012
  O     -0.625843    1.199017   -0.000034
  O     -0.788572   -1.028404    0.000008
  H     -1.727330   -0.794605    0.000010
  H      1.917158    0.826074   -0.000212
  H      1.662905   -0.706849   -0.879591
  H      1.662911   -0.706389    0.879941

 Total Charge           Charge          ....    0
 Multiplicity           Mult            ....    1
 Number of Electrons    NEL             ....   32
 Basis Dimension        Dim             ....  504

ORBITAL ENERGIES
----------------

  NO   OCC          E(Eh)            E(eV)
   0   2.0000     -20.611118      -560.8570
   1   2.0000     -20.548156      -559.1438
   2   2.0000     -11.387123      -309.8594
   3   2.0000     -11.245740      -306.0121
   4   2.0000      -1.468933       -39.9717
   5   2.0000      -1.364328       -37.1253
   6   2.0000      -1.029693       -28.0194
   7   2.0000      -0.826340       -22.4858
   8   2.0000      -0.707220       -19.2444
   9   2.0000      -0.683638       -18.6027
  10   2.0000      -0.653629       -17.7862
  11   2.0000      -0.585945       -15.9444
  12   2.0000      -0.575330       -15.6555
  13   2.0000      -0.563062       -15.3217
  14   2.0000      -0.486171       -13.2294
  15   2.0000      -0.456782       -12.4297
  16   0.0000       0.024378         0.6634
  17   0.0000       0.034721         0.9448
  18   0.0000       0.040372         1.0986
  19   0.0000       0.046065         1.2535
  20   0.0000       0.069897         1.9020

MULLIKEN ATOMIC CHARGES
-----------------------
   0 C :   -0.776693
   1 C :    0.936794
   2 O :   -0.683098
   3 O :   -0.638761
   4 H :    0.326426
   5 H :    0.287469
   6 H :    0.273923
   7 H :    0.273942
Sum of atomic charges:   -0.0000000

LOEWDIN ATOMIC CHARGES
----------------------
   0 C :    0.861866
   1 C :   -1.044193
   2 O :    0.690378
   3 O :    1.240072
   4 H :   -0.821745
   5 H :   -0.322186
   6 H :   -0.302101
   7 H :   -0.302092

  Mayer bond orders larger than 0.100000
B(  0-C ,  1-C ) :   0.9712 B(  0-C ,  5-H ) :   0.9697 B(  0-C ,  6-H ) :   0.9174
B(  0-C ,  7-H ) :   0.9173 B(  1-C ,  2-O ) :   1.5696 B(  1-C ,  3-O ) :   0.9203
B(  3-O ,  4-H ) :   0.9119

MP2 TOTAL ENERGY:     -228.787539632 Eh
FINAL SINGLE POINT ENERGY      -228.787539631646

DIPOLE MOMENT
-------------
                                X             Y             Z
Electronic contribution:     -3.12412       0.69016      -0.00011
Nuclear contribution   :      3.49604      -1.38014       0.00015
                        -----------------------------------------
Total Dipole Moment    :      0.37192      -0.68998       0.00004
                        -----------------------------------------
Magnitude (a.u.)       :      0.78384
Magnitude (Debye)      :      1.99236

Rotational constants in cm-1:     0.382065     0.317249     0.179072
Rotational constants in MHz : 11454.008367  9510.893082  5368.456687

                             ****ORCA TERMINATED NORMALLY****
TOTAL RUN TIME: 0 days 0 hours 2 minutes 32 seconds 253 msec
