                         Program Version 4.2.1 -  RELEASE  -
|  1> %pal
|  2>  nprocs 32
|  3> end
|  4> !RI-MP2 aug-cc-pVQZ aug-cc-pVQZ/C TightSCF
|  5> %maxcore 4500
|  6> *xyzfile 0 1  06_16TS.xyz
|  7>
|  8>
|  9>                          ****END OF INPUT****

CARTESIAN COORDINATES (ANGSTROEM)
---------------------------------
  C      1.836847    1.619630    1.919106
  H      1.489688    2.293449    2.703563
  H      0.316284    0.251307    2.672482
  C     -1.002814    0.106638    0.258815
  H     -1.385914    0.715361   -1.817600
  C     -4.432863    0.391117   -0.779497
  H     -4.556998    0.129459    0.258808
  H     -4.046219    2.013211   -2.134854
  H     -2.964337    1.926482    0.748632
  B     -2.462252   -1.665882    0.306175
  C     -1.670888   -2.918580   -0.293282
  H     -1.326080   -3.577485    0.510048
  C     -3.755259   -2.005843    1.169243
  H     -4.579148   -2.365303    0.544929
  C      0.667625    1.864194   -0.027841
  O      0.280705    2.339836   -1.054042
  H      0.946866   -1.719324    1.380686
  C      2.629427   -0.873722    0.343190
  C      2.996812   -0.879356   -2.045823
  C      4.849531   -0.543889   -0.559739
  H      4.393383   -0.586113    1.532322
  H      5.016815   -0.557641   -2.700010
  H      1.091767   -1.188493   -1.124507
  H      2.884238    1.374967    2.078056
  C      0.942866    0.378786    1.790828
  N      0.114778    0.796868    0.661973
  C     -1.673516    0.178016   -0.934062
  O     -2.729978   -0.660174   -0.921275
  H     -5.014924   -0.186037   -1.484870
  C     -3.951681    1.660282   -1.113638
  C     -3.052952    2.249503   -0.281887
  H     -2.485875    3.124623   -0.571798
  O     -1.491485   -0.756959    1.103286
  H     -0.797792   -2.633827   -0.888262
  H     -2.320519   -3.515111   -0.940677
  H     -4.124949   -1.173559    1.774866
  H     -3.519224   -2.816083    1.865421
  O      1.733331    2.306487    0.664327
  C      1.693126   -0.935596    1.521031
  H      2.249159   -1.184405    2.428915
  C      2.144838   -0.995662   -0.957982
  C      4.351487   -0.648851   -1.850211
  C      3.992974   -0.656708    0.526303
  H      5.907373   -0.376086   -0.396920
  H      2.600278   -0.971338   -3.049616

 Total Charge           Charge          ....    0
 Multiplicity           Mult            ....    1
 Number of Electrons    NEL             ....  168
 Basis Dimension        Dim             .... 2852

ORBITAL ENERGIES
----------------

  NO   OCC          E(Eh)            E(eV)
   0   2.0000     -20.610926      -560.8518
   1   2.0000     -20.575026      -559.8749
   2   2.0000     -20.552829      -559.2709
   3   2.0000     -20.539081      -558.8968
   4   2.0000     -15.617699      -424.9792
   5   2.0000     -11.413523      -310.5778
   6   2.0000     -11.345625      -308.7301
   7   2.0000     -11.310729      -307.7806
   8   2.0000     -11.308986      -307.7332
   9   2.0000     -11.299043      -307.4626
  10   2.0000     -11.282481      -307.0119
  11   2.0000     -11.256479      -306.3044
  12   2.0000     -11.242596      -305.9266
  13   2.0000     -11.241232      -305.8895
  14   2.0000     -11.237648      -305.7919
  15   2.0000     -11.235063      -305.7216
  16   2.0000     -11.233803      -305.6873
  17   2.0000     -11.232721      -305.6579
  18   2.0000     -11.231046      -305.6123
  19   2.0000     -11.229228      -305.5628
  20   2.0000     -11.165116      -303.8182
  21   2.0000     -11.152742      -303.4815
  22   2.0000      -7.587697      -206.4717
  23   2.0000      -1.488588       -40.5065
  24   2.0000      -1.428629       -38.8750
  25   2.0000      -1.381560       -37.5942
  26   2.0000      -1.353433       -36.8288
  27   2.0000      -1.274037       -34.6683
  28   2.0000      -1.162307       -31.6280
  29   2.0000      -1.109446       -30.1896
  30   2.0000      -1.090293       -29.6684
  31   2.0000      -1.029978       -28.0271
  32   2.0000      -1.017732       -27.6939
  33   2.0000      -0.995182       -27.0803
  34   2.0000      -0.954006       -25.9598
  35   2.0000      -0.946797       -25.7636
  36   2.0000      -0.930175       -25.3114
  37   2.0000      -0.892133       -24.2762
  38   2.0000      -0.883019       -24.0282
  39   2.0000      -0.863638       -23.5008
  40   2.0000      -0.831343       -22.6220
  41   2.0000      -0.800763       -21.7899
  42   2.0000      -0.795994       -21.6601
  43   2.0000      -0.763854       -20.7855
  44   2.0000      -0.745848       -20.2956
  45   2.0000      -0.721533       -19.6339
  46   2.0000      -0.715355       -19.4658
  47   2.0000      -0.699203       -19.0263
  48   2.0000      -0.695468       -18.9247
  49   2.0000      -0.670159       -18.2360
  50   2.0000      -0.665447       -18.1077
  51   2.0000      -0.648065       -17.6347
  52   2.0000      -0.640397       -17.4261
  53   2.0000      -0.637199       -17.3391
  54   2.0000      -0.631515       -17.1844
  55   2.0000      -0.616630       -16.7794
  56   2.0000      -0.605988       -16.4898
  57   2.0000      -0.601573       -16.3696
  58   2.0000      -0.594640       -16.1810
  59   2.0000      -0.586681       -15.9644
  60   2.0000      -0.577069       -15.7029
  61   2.0000      -0.576078       -15.6759
  62   2.0000      -0.565174       -15.3792
  63   2.0000      -0.557260       -15.1638
  64   2.0000      -0.548875       -14.9356
  65   2.0000      -0.539757       -14.6875
  66   2.0000      -0.531696       -14.4682
  67   2.0000      -0.524692       -14.2776
  68   2.0000      -0.519611       -14.1393
  69   2.0000      -0.505564       -13.7571
  70   2.0000      -0.500545       -13.6205
  71   2.0000      -0.496013       -13.4972
  72   2.0000      -0.492530       -13.4024
  73   2.0000      -0.490050       -13.3349
  74   2.0000      -0.484916       -13.1952
  75   2.0000      -0.467707       -12.7270
  76   2.0000      -0.465382       -12.6637
  77   2.0000      -0.461035       -12.5454
  78   2.0000      -0.443041       -12.0558
  79   2.0000      -0.409888       -11.1536
  80   2.0000      -0.376568       -10.2469
  81   2.0000      -0.339376        -9.2349
  82   2.0000      -0.333348        -9.0709
  83   2.0000      -0.278015        -7.5652
  84   0.0000       0.016915         0.4603
  85   0.0000       0.023885         0.6499
  86   0.0000       0.025376         0.6905
  87   0.0000       0.028672         0.7802
  88   0.0000       0.032344         0.8801

MULLIKEN ATOMIC CHARGES
-----------------------
   0 C :   -0.499734
   1 H :    0.327789
   2 H :    0.552539
   3 C :    1.933740
   4 H :    0.400019
   5 C :   -0.547612
   6 H :    0.362129
   7 H :    0.290337
   8 H :    0.422953
   9 B :    1.447112
  10 C :   -1.104210
  11 H :    0.267653
  12 C :   -1.165899
  13 H :    0.378368
  14 C :    1.685769
  15 O :   -1.093357
  16 H :    0.542873
  17 C :    1.020826
  18 C :   -0.676012
  19 C :   -0.476288
  20 H :    0.227723
  21 H :    0.341929
  22 H :    0.611163
  23 H :    0.402841
  24 C :   -0.270185
  25 N :   -0.612312
  26 C :    0.006297
  27 O :   -1.505596
  28 H :    0.350389
  29 C :   -0.318793
  30 C :   -0.609494
  31 H :    0.320047
  32 O :   -1.338568
  33 H :    0.289850
  34 H :    0.237372
  35 H :    0.241632
  36 H :    0.282342
  37 O :   -1.151226
  38 C :   -0.578216
  39 H :    0.113044
  40 C :   -0.554123
  41 C :   -0.425755
  42 C :   -0.591292
  43 H :    0.238287
  44 H :    0.223649
Sum of atomic charges:    0.0000000

LOEWDIN ATOMIC CHARGES
----------------------
   0 C :    0.236615
   1 H :   -0.267865
   2 H :   -0.266452
   3 C :   -0.712235
   4 H :   -0.348378
   5 C :    0.653599
   6 H :   -0.377237
   7 H :   -0.316780
   8 H :   -0.308555
   9 B :   -1.489736
  10 C :    1.024107
  11 H :   -0.292186
  12 C :    1.028518
  13 H :   -0.286029
  14 C :   -1.246194
  15 O :    0.715232
  16 H :   -0.287065
  17 C :   -0.068555
  18 C :    0.366550
  19 C :    0.353261
  20 H :   -0.312223
  21 H :   -0.319925
  22 H :   -0.340142
  23 H :   -0.308252
  24 C :   -0.003120
  25 N :    0.398459
  26 C :   -0.097490
  27 O :    0.940978
  28 H :   -0.256928
  29 C :    0.346201
  30 C :    0.769105
  31 H :   -0.288388
  32 O :    0.996538
  33 H :   -0.315820
  34 H :   -0.288581
  35 H :   -0.307816
  36 H :   -0.291412
  37 O :    0.895306
  38 C :    0.536337
  39 H :   -0.273772
  40 C :    0.347934
  41 C :    0.346224
  42 C :    0.344487
  43 H :   -0.317326
  44 H :   -0.310992

  Mayer bond orders larger than 0.100000
B(  0-C ,  1-H ) :   1.0047 B(  0-C , 23-H ) :   0.9101 B(  0-C , 24-C ) :   0.8383
B(  0-C , 25-N ) :  -0.1783 B(  0-C , 37-O ) :   0.5920 B(  2-H , 24-C ) :   0.7569
B(  3-C , 14-C ) :   0.1314 B(  3-C , 15-O ) :   0.1388 B(  3-C , 25-N ) :   0.7711
B(  3-C , 26-C ) :   0.9475 B(  3-C , 27-O ) :  -0.3100 B(  3-C , 32-O ) :   0.1373
B(  3-C , 37-O ) :  -0.1899 B(  3-C , 40-C ) :   0.1427 B(  4-H , 26-C ) :   0.9689
B(  5-C ,  6-H ) :   0.9592 B(  5-C ,  9-B ) :  -0.1312 B(  5-C , 27-O ) :   0.4360
B(  5-C , 28-H ) :   0.9287 B(  5-C , 29-C ) :   1.2415 B(  7-H , 29-C ) :   0.9894
B(  8-H , 30-C ) :   0.8814 B(  9-B , 10-C ) :   0.6084 B(  9-B , 12-C ) :   0.6752
B(  9-B , 27-O ) :   0.2757 B(  9-B , 32-O ) :   0.4717 B(  9-B , 36-H ) :  -0.1045
B( 10-C , 11-H ) :   0.9599 B( 10-C , 33-H ) :   0.9304 B( 10-C , 34-H ) :   1.0774
B( 12-C , 13-H ) :   0.9034 B( 12-C , 35-H ) :   1.0077 B( 12-C , 36-H ) :   0.9930
B( 14-C , 15-O ) :   0.7997 B( 14-C , 25-N ) :   1.1824 B( 14-C , 37-O ) :   0.8319
B( 14-C , 40-C ) :  -0.1090 B( 15-O , 25-N ) :   0.3677 B( 16-H , 17-C ) :  -0.1396
B( 16-H , 38-C ) :   0.6847 B( 17-C , 18-C ) :  -0.4108 B( 17-C , 19-C ) :  -0.2541
B( 17-C , 20-H ) :  -0.1002 B( 17-C , 22-H ) :  -0.1745 B( 17-C , 25-N ) :   0.1635
B( 17-C , 38-C ) :   0.4915 B( 17-C , 39-H ) :  -0.1113 B( 17-C , 40-C ) :   0.8696
B( 17-C , 41-C ) :   0.1558 B( 17-C , 42-C ) :   0.8797 B( 18-C , 19-C ) :   0.1771
B( 18-C , 21-H ) :  -0.1367 B( 18-C , 40-C ) :   1.1876 B( 18-C , 41-C ) :   1.3442
B( 18-C , 42-C ) :   0.2148 B( 18-C , 44-H ) :   1.0945 B( 19-C , 41-C ) :   1.1554
B( 19-C , 42-C ) :   1.3465 B( 19-C , 43-H ) :   1.1656 B( 20-H , 42-C ) :   1.0800
B( 21-H , 41-C ) :   1.0341 B( 22-H , 40-C ) :   0.4751 B( 24-C , 25-N ) :   0.7613
B( 24-C , 38-C ) :   0.8089 B( 25-N , 37-O ) :  -0.2168 B( 26-C , 27-O ) :   0.9937
B( 26-C , 29-C ) :  -0.1128 B( 26-C , 32-O ) :   0.3820 B( 27-O , 29-C ) :  -0.1003
B( 29-C , 30-C ) :   1.4402 B( 30-C , 31-H ) :   0.9820 B( 38-C , 39-H ) :   1.1769
B( 38-C , 40-C ) :  -0.1557 B( 38-C , 42-C ) :  -0.2606 B( 40-C , 41-C ) :  -0.1855
B( 40-C , 42-C ) :  -0.3245 B( 40-C , 44-H ) :  -0.1059 B( 42-C , 43-H ) :  -0.1647

MP2 TOTAL ENERGY:    -1039.879855465 Eh
FINAL SINGLE POINT ENERGY     -1039.879855464562

DIPOLE MOMENT
-------------
                                X             Y             Z
Electronic contribution:      8.19191      10.31568      -2.18987
Nuclear contribution   :     -8.28510      -9.63438       3.14690
                        -----------------------------------------
Total Dipole Moment    :     -0.09319       0.68130       0.95703
                        -----------------------------------------
Magnitude (a.u.)       :      1.17846
Magnitude (Debye)      :      2.99541

Rotational constants in cm-1:     0.015464     0.006150     0.005582
Rotational constants in MHz :   463.610109   184.357654   167.345852

                             ****ORCA TERMINATED NORMALLY****
TOTAL RUN TIME: 0 days 13 hours 36 minutes 44 seconds 371 msec
