                         Program Version 4.2.1 -  RELEASE  -
|  1> %pal
|  2>  nprocs 32
|  3> end
|  4> !RI-MP2 aug-cc-pVQZ aug-cc-pVQZ/C TightSCF
|  5> %maxcore 4500
|  6> *xyzfile 0 1  02_17P.xyz
|  7>
|  8>
|  9>                          ****END OF INPUT****

CARTESIAN COORDINATES (ANGSTROEM)
---------------------------------
  C      2.022647   -0.791767    0.093297
  C      0.534009   -0.903962   -0.217855
  C     -0.222809    0.290517    0.447305
  C      2.567601    0.571034   -0.333980
  H      2.184973   -0.941829    1.172300
  C      1.776317    1.747944    0.206707
  H      3.610588    0.681246   -0.032864
  H      2.539659    0.613772   -1.426801
  C      0.293559    1.611359   -0.116423
  H      1.886773    1.793812    1.303136
  C     -0.132162   -2.245371    0.068283
  C     -1.435960   -2.308952   -0.211837
  C     -1.750861    0.068593    0.379411
  C     -2.066374   -1.032134   -0.652171
  C      0.622975   -3.412832    0.628422
  H     -0.065194   -4.220182    0.883287
  H      1.167747   -3.133975    1.535237
  H      1.362015   -3.782600   -0.081588
  H     -0.275032    2.438035    0.305247
  H      0.159252    1.649743   -1.203139
  C     -3.553459   -0.847210   -0.861507
  H     -3.911198   -1.157417   -1.841414
  H     -4.164776   -1.319675   -0.089373
  C     -2.680418    1.168432   -0.117707
  O      2.689338   -1.823741   -0.616080
  O      2.360930    2.909708   -0.350693
  O     -2.634469    2.349519    0.056580
  O     -3.718750    0.585329   -0.776081
  C      3.990549   -2.109186   -0.160702
  H      3.990328   -2.348802    0.910860
  H      4.339886   -2.978166   -0.716925
  H      4.684212   -1.280400   -0.336044
  C      1.928780    4.121351    0.225244
  H      2.552397    4.910913   -0.191687
  H      0.881537    4.340548   -0.005967
  H      2.054291    4.106837    1.315874
  C     -2.274360   -0.275256    1.788554
  H     -2.092705    0.572455    2.451656
  H     -1.748653   -1.144637    2.181861
  H     -3.345548   -0.484398    1.804330
  H     -2.016861   -3.211373   -0.054521
  H     -1.593335   -0.709474   -1.590121
  H      0.044439    0.276429    1.509741
  H      0.458599   -0.752743   -1.303143

 Total Charge           Charge          ....    0
 Multiplicity           Mult            ....    1
 Number of Electrons    NEL             ....  152
 Basis Dimension        Dim             .... 2704

ORBITAL ENERGIES
----------------

  NO   OCC          E(Eh)            E(eV)
   0   2.0000     -20.594914      -560.4161
   1   2.0000     -20.557283      -559.3921
   2   2.0000     -20.549736      -559.1868
   3   2.0000     -20.535757      -558.8064
   4   2.0000     -11.370940      -309.4190
   5   2.0000     -11.297099      -307.4097
   6   2.0000     -11.286951      -307.1335
   7   2.0000     -11.277987      -306.8896
   8   2.0000     -11.275009      -306.8086
   9   2.0000     -11.264177      -306.5138
  10   2.0000     -11.258608      -306.3623
  11   2.0000     -11.245777      -306.0131
  12   2.0000     -11.245232      -305.9983
  13   2.0000     -11.242303      -305.9186
  14   2.0000     -11.239854      -305.8520
  15   2.0000     -11.230750      -305.6042
  16   2.0000     -11.224670      -305.4388
  17   2.0000     -11.221055      -305.3404
  18   2.0000     -11.217757      -305.2507
  19   2.0000     -11.215056      -305.1772
  20   2.0000      -1.455659       -39.6105
  21   2.0000      -1.383819       -37.6556
  22   2.0000      -1.373579       -37.3770
  23   2.0000      -1.364096       -37.1189
  24   2.0000      -1.176077       -32.0027
  25   2.0000      -1.105996       -30.0957
  26   2.0000      -1.084113       -29.5002
  27   2.0000      -1.029729       -28.0204
  28   2.0000      -1.007722       -27.4215
  29   2.0000      -0.993569       -27.0364
  30   2.0000      -0.952115       -25.9084
  31   2.0000      -0.926478       -25.2107
  32   2.0000      -0.920365       -25.0444
  33   2.0000      -0.916816       -24.9478
  34   2.0000      -0.850389       -23.1403
  35   2.0000      -0.825143       -22.4533
  36   2.0000      -0.812126       -22.0991
  37   2.0000      -0.788336       -21.4517
  38   2.0000      -0.755113       -20.5477
  39   2.0000      -0.717803       -19.5324
  40   2.0000      -0.700218       -19.0539
  41   2.0000      -0.691050       -18.8044
  42   2.0000      -0.675235       -18.3741
  43   2.0000      -0.667150       -18.1541
  44   2.0000      -0.655240       -17.8300
  45   2.0000      -0.651746       -17.7349
  46   2.0000      -0.639509       -17.4019
  47   2.0000      -0.638283       -17.3686
  48   2.0000      -0.623904       -16.9773
  49   2.0000      -0.616172       -16.7669
  50   2.0000      -0.612410       -16.6645
  51   2.0000      -0.596559       -16.2332
  52   2.0000      -0.591406       -16.0930
  53   2.0000      -0.581131       -15.8134
  54   2.0000      -0.572980       -15.5916
  55   2.0000      -0.569797       -15.5050
  56   2.0000      -0.567171       -15.4335
  57   2.0000      -0.551011       -14.9938
  58   2.0000      -0.543715       -14.7952
  59   2.0000      -0.537035       -14.6135
  60   2.0000      -0.522555       -14.2194
  61   2.0000      -0.518592       -14.1116
  62   2.0000      -0.510850       -13.9009
  63   2.0000      -0.508917       -13.8483
  64   2.0000      -0.499485       -13.5917
  65   2.0000      -0.497284       -13.5318
  66   2.0000      -0.485883       -13.2216
  67   2.0000      -0.467379       -12.7180
  68   2.0000      -0.465714       -12.6727
  69   2.0000      -0.459047       -12.4913
  70   2.0000      -0.452307       -12.3079
  71   2.0000      -0.446989       -12.1632
  72   2.0000      -0.420705       -11.4480
  73   2.0000      -0.411682       -11.2024
  74   2.0000      -0.408680       -11.1208
  75   2.0000      -0.345298        -9.3960
  76   0.0000       0.018018         0.4903
  77   0.0000       0.023173         0.6306
  78   0.0000       0.026035         0.7085
  79   0.0000       0.028298         0.7700
  80   0.0000       0.034948         0.9510

MULLIKEN ATOMIC CHARGES
-----------------------
   0 C :    1.411566
   1 C :    1.071561
   2 C :    1.023384
   3 C :   -0.982551
   4 H :    0.063348
   5 C :    1.705783
   6 H :    0.157211
   7 H :    0.240015
   8 C :   -1.097076
   9 H :    0.104435
  10 C :   -0.251058
  11 C :   -0.809337
  12 C :    0.003817
  13 C :    0.114247
  14 C :   -1.093152
  15 H :    0.171084
  16 H :    0.048107
  17 H :    0.192015
  18 H :    0.255242
  19 H :    0.069502
  20 C :   -0.258978
  21 H :    0.323662
  22 H :    0.154877
  23 C :    2.069615
  24 O :   -1.225690
  25 O :   -1.146803
  26 O :   -1.218939
  27 O :   -1.190369
  28 C :   -0.874295
  29 H :    0.211817
  30 H :    0.387304
  31 H :    0.296234
  32 C :   -0.802443
  33 H :    0.416491
  34 H :    0.270707
  35 H :    0.210360
  36 C :   -1.269031
  37 H :    0.237635
  38 H :    0.215467
  39 H :    0.221438
  40 H :    0.106329
  41 H :    0.010795
  42 H :    0.176424
  43 H :    0.279250
Sum of atomic charges:    0.0000000

LOEWDIN ATOMIC CHARGES
----------------------
   0 C :   -0.215604
   1 C :    0.136198
   2 C :    0.182212
   3 C :    0.517094
   4 H :   -0.285379
   5 C :   -0.212279
   6 H :   -0.275257
   7 H :   -0.260623
   8 C :    0.536099
   9 H :   -0.279594
  10 C :    0.040533
  11 C :    0.433521
  12 C :   -0.276125
  13 C :    0.049564
  14 C :    0.925638
  15 H :   -0.297674
  16 H :   -0.281064
  17 H :   -0.306514
  18 H :   -0.336571
  19 H :   -0.236743
  20 C :    0.246789
  21 H :   -0.271733
  22 H :   -0.286714
  23 C :   -1.036785
  24 O :    0.920955
  25 O :    0.920974
  26 O :    0.730538
  27 O :    0.898261
  28 C :    0.588403
  29 H :   -0.297558
  30 H :   -0.311791
  31 H :   -0.309367
  32 C :    0.585410
  33 H :   -0.319302
  34 H :   -0.311023
  35 H :   -0.300378
  36 C :    0.945178
  37 H :   -0.249502
  38 H :   -0.265181
  39 H :   -0.269284
  40 H :   -0.280456
  41 H :   -0.294840
  42 H :   -0.290592
  43 H :   -0.299433

  Mayer bond orders larger than 0.100000
B(  0-C ,  1-C ) :   1.2180 B(  0-C ,  2-C ) :   0.2118 B(  0-C ,  3-C ) :   0.5867
B(  0-C ,  4-H ) :   0.7711 B(  0-C ,  6-H ) :  -0.2334 B(  0-C , 10-C ) :  -0.1622
B(  0-C , 24-O ) :  -0.1221 B(  0-C , 28-C ) :  -0.6003 B(  0-C , 29-H ) :  -0.1202
B(  0-C , 31-H ) :  -0.1015 B(  1-C ,  2-C ) :   0.9654 B(  1-C ,  3-C ) :  -0.2649
B(  1-C ,  4-H ) :   0.1525 B(  1-C , 10-C ) :  -0.6479 B(  1-C , 11-C ) :  -0.6174
B(  1-C , 13-C ) :   0.2407 B(  1-C , 14-C ) :  -0.1888 B(  1-C , 28-C ) :   0.1015
B(  1-C , 43-H ) :   1.1384 B(  2-C ,  3-C ) :   0.1012 B(  2-C ,  5-C ) :  -0.1219
B(  2-C ,  8-C ) :   0.1566 B(  2-C , 11-C ) :  -0.1062 B(  2-C , 12-C ) :   0.5889
B(  2-C , 19-H ) :  -0.1462 B(  2-C , 26-O ) :   0.3444 B(  2-C , 36-C ) :  -0.3089
B(  2-C , 42-H ) :   0.8874 B(  3-C ,  5-C ) :   0.6596 B(  3-C ,  6-H ) :   1.2174
B(  3-C ,  7-H ) :   1.0672 B(  3-C , 24-O ) :   0.1460 B(  3-C , 25-O ) :   0.5045
B(  4-H , 24-O ) :   0.1286 B(  5-C ,  6-H ) :  -0.1607 B(  5-C ,  8-C ) :   0.8161
B(  5-C ,  9-H ) :   1.1543 B(  5-C , 25-O ) :  -0.7774 B(  5-C , 32-C ) :  -0.5843
B(  5-C , 34-H ) :  -0.1499 B(  5-C , 35-H ) :  -0.1031 B(  8-C ,  9-H ) :  -0.1102
B(  8-C , 12-C ) :   0.1945 B(  8-C , 18-H ) :   1.0785 B(  8-C , 19-H ) :   1.2247
B(  8-C , 25-O ) :   0.3699 B(  8-C , 32-C ) :   0.2127 B( 10-C , 11-C ) :   1.6115
B( 10-C , 12-C ) :   0.1156 B( 10-C , 13-C ) :  -0.5034 B( 10-C , 14-C ) :   0.4454
B( 10-C , 15-H ) :  -0.1314 B( 10-C , 16-H ) :  -0.2073 B( 10-C , 17-H ) :  -0.2898
B( 10-C , 40-H ) :  -0.1355 B( 10-C , 43-H ) :  -0.1725 B( 11-C , 12-C ) :   0.1005
B( 11-C , 13-C ) :   1.0601 B( 11-C , 40-H ) :   1.2821 B( 11-C , 43-H ) :  -0.1173
B( 12-C , 13-C ) :   0.3064 B( 12-C , 20-C ) :  -0.3588 B( 12-C , 23-C ) :   1.2151
B( 12-C , 26-O ) :   0.9312 B( 12-C , 27-O ) :  -0.2638 B( 12-C , 36-C ) :   0.2046
B( 12-C , 37-H ) :  -0.1801 B( 12-C , 38-H ) :  -0.1619 B( 12-C , 39-H ) :  -0.1778
B( 13-C , 20-C ) :   0.3257 B( 13-C , 21-H ) :  -0.1700 B( 13-C , 22-H ) :  -0.3435
B( 13-C , 26-O ) :  -0.1387 B( 13-C , 41-H ) :   1.1473 B( 13-C , 43-H ) :  -0.1358
B( 14-C , 15-H ) :   1.1442 B( 14-C , 16-H ) :   1.2679 B( 14-C , 17-H ) :   1.1622
B( 14-C , 24-O ) :  -0.1142 B( 18-H , 26-O ) :  -0.1069 B( 20-C , 21-H ) :   1.0337
B( 20-C , 22-H ) :   1.2306 B( 20-C , 23-C ) :   0.1218 B( 20-C , 27-O ) :   0.7043
B( 23-C , 27-O ) :   0.6674 B( 24-O , 28-C ) :   1.1347 B( 24-O , 43-H ) :  -0.1890
B( 25-O , 32-C ) :   1.1213 B( 26-O , 27-O ) :   0.2644 B( 27-O , 41-H ) :   0.1577
B( 28-C , 29-H ) :   0.9961 B( 28-C , 30-H ) :   0.9362 B( 28-C , 31-H ) :   0.9176
B( 32-C , 33-H ) :   0.8864 B( 32-C , 34-H ) :   0.9304 B( 32-C , 35-H ) :   0.9583
B( 36-C , 37-H ) :   1.1474 B( 36-C , 38-H ) :   1.0894 B( 36-C , 39-H ) :   1.1777
B( 36-C , 42-H ) :   0.1022 B( 42-H , 43-H ) :   0.1277

MP2 TOTAL ENERGY:     -923.545696136 Eh
FINAL SINGLE POINT ENERGY      -923.545696136140

DIPOLE MOMENT
-------------
                                X             Y             Z
Electronic contribution:    -12.24675       4.57897      -5.75325
Nuclear contribution   :     12.91370      -6.12804       6.59119
                        -----------------------------------------
Total Dipole Moment    :      0.66695      -1.54907       0.83793
                        -----------------------------------------
Magnitude (a.u.)       :      1.88324
Magnitude (Debye)      :      4.78681

Rotational constants in cm-1:     0.014020     0.010271     0.006477
Rotational constants in MHz :   420.312891   307.925339   194.183078

                             ****ORCA TERMINATED NORMALLY****
TOTAL RUN TIME: 0 days 11 hours 14 minutes 4 seconds 849 msec
