                         Program Version 4.2.1 -  RELEASE  -
|  1> %pal
|  2>  nprocs 32
|  3> end
|  4> !RI-MP2 aug-cc-pVQZ aug-cc-pVQZ/C TightSCF
|  5> %maxcore 4500
|  6> *xyzfile 0 1  10_69P.xyz
|  7>
|  8>
|  9>                          ****END OF INPUT****

CARTESIAN COORDINATES (ANGSTROEM)
---------------------------------
  C     -0.643265    1.187208   -0.137089
  C      0.772278    0.886355   -0.542848
  C     -1.181829    2.410238   -0.152119
  C      1.659184    1.543854    0.479107
  C     -0.436272    3.617130   -0.414861
  C      1.717948    2.876814    0.596785
  C      0.860011    3.820147   -0.084425
  H      2.275946    0.919344    1.112708
  H      2.448786    3.302321    1.277686
  H      1.254599    4.822602   -0.218928
  H     -0.999626    4.465384   -0.789829
  C      1.575630   -1.802724    1.305369
  C      0.857854   -0.658932   -0.659387
  H      0.973613    1.354055   -1.513125
  C      2.061483   -1.293954    0.018132
  C     -0.360032   -1.217474    0.120020
  H      0.799852   -0.931686   -1.712253
  C      0.248604   -1.722021    1.401055
  C      3.306447   -1.341420   -0.467569
  C      4.452165   -1.980736    0.262886
  C      3.679109   -0.731899   -1.788278
  H      2.824083   -0.327922   -2.327614
  H      4.171180   -1.469144   -2.430370
  H      4.395121    0.083648   -1.641123
  H      4.162463   -2.418652    1.215794
  H      5.242995   -1.247570    0.452003
  H      4.898794   -2.771780   -0.347736
  C     -1.401180   -0.077433    0.224015
  C     -2.024708    0.044432    1.550084
  N     -2.482514    0.196740    2.589955
  C     -3.295813   -1.260301   -0.676608
  O     -3.216455   -2.094898    0.179513
  O     -2.437088   -0.215852   -0.778148
  C     -4.328767   -1.197812   -1.759601
  H     -3.852814   -1.053707   -2.729538
  H     -4.914649   -2.113162   -1.752189
  H     -4.982455   -0.342180   -1.580920
  H     -0.831505   -2.055009   -0.394430
  H     -0.349353   -2.039236    2.244566
  H      2.215823   -2.198364    2.081584
  H     -2.239983    2.521039    0.065098

 Total Charge           Charge          ....    0
 Multiplicity           Mult            ....    1
 Number of Electrons    NEL             ....  156
 Basis Dimension        Dim             .... 2634

ORBITAL ENERGIES
----------------

  NO   OCC          E(Eh)            E(eV)
   0   2.0000     -20.618920      -561.0693
   1   2.0000     -20.555651      -559.3477
   2   2.0000     -15.564404      -423.5290
   3   2.0000     -11.392260      -309.9991
   4   2.0000     -11.354346      -308.9675
   5   2.0000     -11.266437      -306.5753
   6   2.0000     -11.253928      -306.2350
   7   2.0000     -11.253153      -306.2138
   8   2.0000     -11.248963      -306.0999
   9   2.0000     -11.247623      -306.0634
  10   2.0000     -11.245061      -305.9937
  11   2.0000     -11.244560      -305.9800
  12   2.0000     -11.242304      -305.9186
  13   2.0000     -11.241413      -305.8944
  14   2.0000     -11.240434      -305.8678
  15   2.0000     -11.240262      -305.8631
  16   2.0000     -11.237054      -305.7758
  17   2.0000     -11.234879      -305.7166
  18   2.0000     -11.233294      -305.6735
  19   2.0000     -11.229942      -305.5823
  20   2.0000     -11.225666      -305.4659
  21   2.0000     -11.225428      -305.4594
  22   2.0000      -1.480260       -40.2799
  23   2.0000      -1.380351       -37.5613
  24   2.0000      -1.223104       -33.2824
  25   2.0000      -1.194585       -32.5063
  26   2.0000      -1.144865       -31.1534
  27   2.0000      -1.106709       -30.1151
  28   2.0000      -1.075259       -29.2593
  29   2.0000      -1.060034       -28.8450
  30   2.0000      -1.039797       -28.2943
  31   2.0000      -1.004388       -27.3308
  32   2.0000      -0.987683       -26.8762
  33   2.0000      -0.947281       -25.7768
  34   2.0000      -0.941423       -25.6174
  35   2.0000      -0.895998       -24.3813
  36   2.0000      -0.861905       -23.4536
  37   2.0000      -0.833943       -22.6927
  38   2.0000      -0.816916       -22.2294
  39   2.0000      -0.780763       -21.2456
  40   2.0000      -0.752241       -20.4695
  41   2.0000      -0.739486       -20.1224
  42   2.0000      -0.708502       -19.2793
  43   2.0000      -0.701329       -19.0841
  44   2.0000      -0.695674       -18.9303
  45   2.0000      -0.681520       -18.5451
  46   2.0000      -0.672360       -18.2958
  47   2.0000      -0.661572       -18.0023
  48   2.0000      -0.649688       -17.6789
  49   2.0000      -0.629849       -17.1391
  50   2.0000      -0.604883       -16.4597
  51   2.0000      -0.603382       -16.4189
  52   2.0000      -0.597139       -16.2490
  53   2.0000      -0.592056       -16.1106
  54   2.0000      -0.587163       -15.9775
  55   2.0000      -0.577760       -15.7216
  56   2.0000      -0.572093       -15.5674
  57   2.0000      -0.569295       -15.4913
  58   2.0000      -0.558069       -15.1858
  59   2.0000      -0.554684       -15.0937
  60   2.0000      -0.543334       -14.7849
  61   2.0000      -0.537592       -14.6286
  62   2.0000      -0.527223       -14.3465
  63   2.0000      -0.523841       -14.2544
  64   2.0000      -0.513552       -13.9745
  65   2.0000      -0.505156       -13.7460
  66   2.0000      -0.501199       -13.6383
  67   2.0000      -0.486915       -13.2496
  68   2.0000      -0.483955       -13.1691
  69   2.0000      -0.479668       -13.0524
  70   2.0000      -0.464288       -12.6339
  71   2.0000      -0.458165       -12.4673
  72   2.0000      -0.449243       -12.2245
  73   2.0000      -0.440021       -11.9736
  74   2.0000      -0.420404       -11.4398
  75   2.0000      -0.361449        -9.8355
  76   2.0000      -0.318238        -8.6597
  77   2.0000      -0.304508        -8.2861
  78   0.0000       0.017177         0.4674
  79   0.0000       0.021830         0.5940
  80   0.0000       0.023987         0.6527
  81   0.0000       0.027942         0.7604
  82   0.0000       0.032715         0.8902

MULLIKEN ATOMIC CHARGES
-----------------------
   0 C :   -0.014771
   1 C :    1.313201
   2 C :   -0.557946
   3 C :   -0.995113
   4 C :   -0.493421
   5 C :   -0.527224
   6 C :   -0.407204
   7 H :    0.368679
   8 H :    0.230416
   9 H :    0.339162
  10 H :    0.293257
  11 C :   -0.940244
  12 C :    0.385538
  13 H :    0.292450
  14 C :    0.198218
  15 C :   -0.280908
  16 H :    0.427268
  17 C :   -0.593170
  18 C :    0.475440
  19 C :   -1.113930
  20 C :   -1.014431
  21 H :    0.261479
  22 H :    0.331188
  23 H :    0.157808
  24 H :    0.287197
  25 H :    0.206131
  26 H :    0.287359
  27 C :    1.380814
  28 C :    0.717219
  29 N :   -1.214652
  30 C :    0.944672
  31 O :   -0.884856
  32 O :   -0.792609
  33 C :   -0.793089
  34 H :    0.272150
  35 H :    0.341091
  36 H :    0.285292
  37 H :    0.175660
  38 H :    0.256502
  39 H :    0.117258
  40 H :    0.278121
Sum of atomic charges:   -0.0000000

LOEWDIN ATOMIC CHARGES
----------------------
   0 C :   -0.083917
   1 C :    0.117090
   2 C :    0.378729
   3 C :    0.407736
   4 C :    0.377246
   5 C :    0.383127
   6 C :    0.362620
   7 H :   -0.325348
   8 H :   -0.326096
   9 H :   -0.330262
  10 H :   -0.329190
  11 C :    0.412216
  12 C :    0.123754
  13 H :   -0.274356
  14 C :   -0.059318
  15 C :    0.085060
  16 H :   -0.257305
  17 C :    0.434969
  18 C :   -0.002947
  19 C :    0.909457
  20 C :    0.914433
  21 H :   -0.319793
  22 H :   -0.271509
  23 H :   -0.268456
  24 H :   -0.326281
  25 H :   -0.273857
  26 H :   -0.276356
  27 C :   -0.686138
  28 C :   -0.342005
  29 N :    0.482610
  30 C :   -1.051723
  31 O :    0.759814
  32 O :    0.880914
  33 C :    0.889812
  34 H :   -0.298496
  35 H :   -0.314342
  36 H :   -0.291594
  37 H :   -0.311001
  38 H :   -0.284741
  39 H :   -0.305448
  40 H :   -0.309109

  Mayer bond orders larger than 0.100000
B(  0-C ,  1-C ) :   0.1486 B(  0-C ,  2-C ) :   1.5942 B(  0-C ,  3-C ) :   0.3491
B(  0-C ,  4-C ) :  -0.4873 B(  0-C , 12-C ) :  -0.4164 B(  0-C , 13-H ) :  -0.1858
B(  0-C , 27-C ) :   0.1339 B(  0-C , 28-C ) :  -0.2626 B(  0-C , 29-N ) :  -0.1891
B(  0-C , 32-O ) :   0.6300 B(  1-C ,  2-C ) :  -0.4619 B(  1-C ,  3-C ) :   0.1365
B(  1-C ,  5-C ) :  -0.6922 B(  1-C , 12-C ) :   0.7880 B(  1-C , 13-H ) :   1.0326
B(  1-C , 15-C ) :   0.2729 B(  1-C , 18-C ) :  -0.1255 B(  2-C ,  4-C ) :   0.9430
B(  2-C , 10-H ) :  -0.1199 B(  2-C , 27-C ) :  -0.4153 B(  2-C , 40-H ) :   1.0261
B(  3-C ,  4-C ) :   0.1165 B(  3-C ,  5-C ) :   1.8690 B(  3-C ,  7-H ) :   0.8058
B(  3-C , 13-H ) :  -0.1236 B(  3-C , 14-C ) :   0.1214 B(  3-C , 27-C ) :  -0.1208
B(  4-C ,  6-C ) :   1.6681 B(  4-C , 10-H ) :   1.0421 B(  5-C ,  6-C ) :   1.0466
B(  5-C ,  8-H ) :   1.0232 B(  5-C , 12-C ) :   0.3054 B(  6-C ,  9-H ) :   0.9728
B(  6-C , 27-C ) :  -0.1050 B( 11-C , 12-C ) :  -0.2816 B( 11-C , 14-C ) :   1.0196
B( 11-C , 15-C ) :  -0.1857 B( 11-C , 17-C ) :   1.6354 B( 11-C , 18-C ) :  -0.3989
B( 11-C , 38-H ) :  -0.1370 B( 11-C , 39-H ) :   1.2618 B( 12-C , 14-C ) :   0.5492
B( 12-C , 15-C ) :   0.6262 B( 12-C , 16-H ) :   1.0981 B( 12-C , 18-C ) :  -0.3815
B( 12-C , 27-C ) :   0.1764 B( 12-C , 31-O ) :  -0.1689 B( 12-C , 32-O ) :   0.1309
B( 14-C , 15-C ) :   0.1588 B( 14-C , 16-H ) :  -0.2551 B( 14-C , 17-C ) :  -0.4445
B( 14-C , 18-C ) :   1.0016 B( 14-C , 20-C ) :   0.1602 B( 14-C , 24-H ) :   0.1140
B( 15-C , 16-H ) :  -0.1083 B( 15-C , 17-C ) :   0.7726 B( 15-C , 27-C ) :   0.9496
B( 15-C , 32-O ) :   0.3711 B( 15-C , 37-H ) :   1.0008 B( 15-C , 38-H ) :  -0.1337
B( 17-C , 31-O ) :   0.1293 B( 17-C , 38-H ) :   1.1957 B( 17-C , 39-H ) :  -0.1585
B( 18-C , 19-C ) :   0.5676 B( 18-C , 20-C ) :   0.4796 B( 18-C , 22-H ) :  -0.1082
B( 18-C , 24-H ) :  -0.1383 B( 18-C , 25-H ) :  -0.1727 B( 18-C , 26-H ) :  -0.1302
B( 19-C , 24-H ) :   1.0343 B( 19-C , 25-H ) :   1.0853 B( 19-C , 26-H ) :   1.0359
B( 20-C , 21-H ) :   1.0415 B( 20-C , 22-H ) :   0.9703 B( 20-C , 23-H ) :   1.0801
B( 27-C , 28-C ) :   1.4632 B( 27-C , 29-N ) :   0.6083 B( 27-C , 30-C ) :   0.1493
B( 27-C , 31-O ) :   0.2600 B( 27-C , 32-O ) :  -1.2767 B( 28-C , 29-N ) :   1.3838
B( 28-C , 32-O ) :   0.1743 B( 30-C , 31-O ) :   1.0851 B( 30-C , 32-O ) :   0.8368
B( 30-C , 33-C ) :   0.8049 B( 32-O , 33-C ) :  -0.1820 B( 33-C , 34-H ) :   0.9627
B( 33-C , 35-H ) :   0.9569 B( 33-C , 36-H ) :   0.9440

MP2 TOTAL ENERGY:     -939.007025825 Eh
FINAL SINGLE POINT ENERGY      -939.007025824578

DIPOLE MOMENT
-------------
                                X             Y             Z
Electronic contribution:    -16.35557       1.80148       7.10306
Nuclear contribution   :     17.36626      -1.53327      -8.97101
                        -----------------------------------------
Total Dipole Moment    :      1.01069       0.26822      -1.86795
                        -----------------------------------------
Magnitude (a.u.)       :      2.14072
Magnitude (Debye)      :      5.44128

Rotational constants in cm-1:     0.013108     0.008263     0.006313
Rotational constants in MHz :   392.958887   247.705633   189.245449

                             ****ORCA TERMINATED NORMALLY****
TOTAL RUN TIME: 0 days 10 hours 19 minutes 32 seconds 17 msec
