                         Program Version 4.2.1 -  RELEASE  -
|  1> %pal
|  2>  nprocs 32
|  3> end
|  4> !RI-MP2 aug-cc-pVQZ aug-cc-pVQZ/C TightSCF
|  5> %maxcore 4500
|  6> *xyzfile 0 1  05_13R1.xyz
|  7>
|  8>
|  9>                          ****END OF INPUT****

CARTESIAN COORDINATES (ANGSTROEM)
---------------------------------
  C     -1.178451   -0.517540    0.000014
  O      0.000000    0.257645   -0.000004
  C      1.178451   -0.517540   -0.000010
  H      1.194853   -1.169151   -0.885849
  H      1.194863   -1.169152    0.885828
  C     -2.370223    0.411913    0.000016
  H     -2.355628    1.050774   -0.884419
  H     -2.355603    1.050799    0.884433
  C      2.370223    0.411913   -0.000017
  H      2.355629    1.050778    0.884415
  H      3.300569   -0.160087   -0.000036
  H      2.355603    1.050795   -0.884436
  H     -3.300569   -0.160087    0.000037
  H     -1.194850   -1.169144    0.885859
  H     -1.194866   -1.169159   -0.885819

 Total Charge           Charge          ....    0
 Multiplicity           Mult            ....    1
 Number of Electrons    NEL             ....   42
 Basis Dimension        Dim             ....  860

ORBITAL ENERGIES
----------------

  NO   OCC          E(Eh)            E(eV)
   0   2.0000     -20.546653      -559.1028
   1   2.0000     -11.269763      -306.6658
   2   2.0000     -11.269742      -306.6653
   3   2.0000     -11.210120      -305.0429
   4   2.0000     -11.210120      -305.0429
   5   2.0000      -1.372293       -37.3420
   6   2.0000      -1.041785       -28.3484
   7   2.0000      -0.982342       -26.7309
   8   2.0000      -0.840875       -22.8814
   9   2.0000      -0.825246       -22.4561
  10   2.0000      -0.675736       -18.3877
  11   2.0000      -0.663504       -18.0548
  12   2.0000      -0.604033       -16.4366
  13   2.0000      -0.597581       -16.2610
  14   2.0000      -0.548846       -14.9349
  15   2.0000      -0.529139       -14.3986
  16   2.0000      -0.520448       -14.1621
  17   2.0000      -0.493326       -13.4241
  18   2.0000      -0.485405       -13.2085
  19   2.0000      -0.470330       -12.7983
  20   2.0000      -0.417048       -11.3485
  21   0.0000       0.027786         0.7561
  22   0.0000       0.031580         0.8593
  23   0.0000       0.035934         0.9778
  24   0.0000       0.036096         0.9822
  25   0.0000       0.049402         1.3443

MULLIKEN ATOMIC CHARGES
-----------------------
   0 C :    0.088271
   1 O :   -0.845379
   2 C :    0.088271
   3 H :    0.243222
   4 H :    0.243220
   5 C :   -0.909785
   6 H :    0.238048
   7 H :    0.238047
   8 C :   -0.909784
   9 H :    0.238047
  10 H :    0.281666
  11 H :    0.238049
  12 H :    0.281666
  13 H :    0.243222
  14 H :    0.243219
Sum of atomic charges:    0.0000000

LOEWDIN ATOMIC CHARGES
----------------------
   0 C :    0.124427
   1 O :    0.890882
   2 C :    0.124428
   3 H :   -0.297484
   4 H :   -0.297484
   5 C :    0.901530
   6 H :   -0.292290
   7 H :   -0.292290
   8 C :    0.901530
   9 H :   -0.292290
  10 H :   -0.291851
  11 H :   -0.292291
  12 H :   -0.291852
  13 H :   -0.297483
  14 H :   -0.297484

  Mayer bond orders larger than 0.100000
B(  0-C ,  1-O ) :   0.8450 B(  0-C ,  5-C ) :   0.8997 B(  0-C , 13-H ) :   0.8679
B(  0-C , 14-H ) :   0.8679 B(  1-O ,  2-C ) :   0.8450 B(  2-C ,  3-H ) :   0.8679
B(  2-C ,  4-H ) :   0.8679 B(  2-C ,  8-C ) :   0.8997 B(  5-C ,  6-H ) :   0.9489
B(  5-C ,  7-H ) :   0.9489 B(  5-C , 12-H ) :   0.9795 B(  8-C ,  9-H ) :   0.9489
B(  8-C , 10-H ) :   0.9795 B(  8-C , 11-H ) :   0.9489

MP2 TOTAL ENERGY:     -233.264776627 Eh
FINAL SINGLE POINT ENERGY      -233.264776626773

DIPOLE MOMENT
-------------
                                X             Y             Z
Electronic contribution:     -0.00000       0.34704      -0.00001
Nuclear contribution   :      0.00000      -0.84024       0.00001
                        -----------------------------------------
Total Dipole Moment    :      0.00000      -0.49320       0.00000
                        -----------------------------------------
Magnitude (a.u.)       :      0.49320
Magnitude (Debye)      :      1.25361

Rotational constants in cm-1:     0.604289     0.075015     0.070244
Rotational constants in MHz : 18116.132317  2248.886001  2105.876086

                             ****ORCA TERMINATED NORMALLY****
TOTAL RUN TIME: 0 days 0 hours 10 minutes 42 seconds 712 msec
