                         Program Version 4.2.1 -  RELEASE  -
|  1> %pal
|  2>  nprocs 32
|  3> end
|  4> !RI-MP2 aug-cc-pVQZ aug-cc-pVQZ/C TightSCF
|  5> %maxcore 4500
|  6> *xyzfile 0 1  10_48TS.xyz
|  7>
|  8>
|  9>                          ****END OF INPUT****

CARTESIAN COORDINATES (ANGSTROEM)
---------------------------------
  C      2.912111    0.185060    0.192950
  C      1.927244    1.353843    0.341131
  C      0.519082    0.823287    0.314061
  C      0.259604   -0.533235    0.276224
  C      1.146730   -1.523131   -0.428923
  C      2.429022   -0.803479   -0.874446
  H      2.065542    2.064680   -0.480303
  H      2.118433    1.911443    1.264962
  H      3.905420    0.564123   -0.058281
  H      3.007433   -0.341912    1.148715
  H      1.404426   -2.352847    0.240016
  H      0.646296   -1.977311   -1.293395
  H      3.208111   -1.535018   -1.101281
  H      2.233347   -0.251206   -1.800472
  C     -2.009677    0.011538   -1.403474
  C     -1.805605    1.392901   -0.785081
  C     -1.109807   -0.679031    0.680202
  C     -2.166963   -1.049343   -0.289586
  H     -1.139160   -0.251569   -2.009489
  H     -2.742067    1.694881   -0.298537
  H     -1.659081    2.117944   -1.598467
  H     -3.146408   -0.999477    0.189837
  H     -2.035144   -2.058569   -0.689697
  H     -2.875800    0.017187   -2.069509
  O     -1.502870   -0.643624    1.974640
  H     -0.741579   -0.373112    2.504418
  C     -0.686714    1.551255    0.236100
  H     -0.716966    2.541778    0.699419

 Total Charge           Charge          ....    0
 Multiplicity           Mult            ....    1
 Number of Electrons    NEL             ....   90
 Basis Dimension        Dim             .... 1696

ORBITAL ENERGIES
----------------

  NO   OCC          E(Eh)            E(eV)
   0   2.0000     -20.592021      -560.3374
   1   2.0000     -11.334803      -308.4357
   2   2.0000     -11.231469      -305.6238
   3   2.0000     -11.225273      -305.4552
   4   2.0000     -11.222274      -305.3736
   5   2.0000     -11.219217      -305.2904
   6   2.0000     -11.217656      -305.2479
   7   2.0000     -11.215456      -305.1881
   8   2.0000     -11.214344      -305.1578
   9   2.0000     -11.213457      -305.1337
  10   2.0000     -11.198045      -304.7143
  11   2.0000     -11.193979      -304.6036
  12   2.0000      -1.413613       -38.4664
  13   2.0000      -1.147600       -31.2278
  14   2.0000      -1.089847       -29.6562
  15   2.0000      -1.029323       -28.0093
  16   2.0000      -1.013993       -27.5921
  17   2.0000      -0.980320       -26.6759
  18   2.0000      -0.890087       -24.2205
  19   2.0000      -0.860064       -23.4035
  20   2.0000      -0.840132       -22.8612
  21   2.0000      -0.783824       -21.3289
  22   2.0000      -0.749220       -20.3873
  23   2.0000      -0.734586       -19.9891
  24   2.0000      -0.661473       -17.9996
  25   2.0000      -0.650146       -17.6914
  26   2.0000      -0.628524       -17.1030
  27   2.0000      -0.620939       -16.8966
  28   2.0000      -0.601156       -16.3583
  29   2.0000      -0.591354       -16.0915
  30   2.0000      -0.578977       -15.7548
  31   2.0000      -0.559586       -15.2271
  32   2.0000      -0.554417       -15.0865
  33   2.0000      -0.538237       -14.6462
  34   2.0000      -0.527490       -14.3537
  35   2.0000      -0.516783       -14.0624
  36   2.0000      -0.509497       -13.8641
  37   2.0000      -0.480383       -13.0719
  38   2.0000      -0.478881       -13.0310
  39   2.0000      -0.467852       -12.7309
  40   2.0000      -0.464486       -12.6393
  41   2.0000      -0.445531       -12.1235
  42   2.0000      -0.440890       -11.9972
  43   2.0000      -0.332330        -9.0432
  44   2.0000      -0.239209        -6.5092
  45   0.0000       0.023901         0.6504
  46   0.0000       0.027224         0.7408
  47   0.0000       0.029221         0.7951
  48   0.0000       0.030080         0.8185
  49   0.0000       0.039997         1.0884

MULLIKEN ATOMIC CHARGES
-----------------------
   0 C :   -0.556119
   1 C :   -0.463081
   2 C :    0.202153
   3 C :   -0.039004
   4 C :   -0.466161
   5 C :   -0.483877
   6 H :    0.100154
   7 H :    0.219835
   8 H :    0.235567
   9 H :    0.168287
  10 H :    0.214580
  11 H :    0.200220
  12 H :    0.205321
  13 H :    0.153189
  14 C :   -0.592394
  15 C :   -0.435901
  16 C :    1.560908
  17 C :   -0.643974
  18 H :    0.175859
  19 H :    0.176174
  20 H :    0.272389
  21 H :    0.188207
  22 H :    0.289925
  23 H :    0.298446
  24 O :   -1.172862
  25 H :    0.340582
  26 C :   -0.301363
  27 H :    0.152940
Sum of atomic charges:   -0.0000000

LOEWDIN ATOMIC CHARGES
----------------------
   0 C :    0.521650
   1 C :    0.542612
   2 C :   -0.081907
   3 C :   -0.077406
   4 C :    0.532124
   5 C :    0.524781
   6 H :   -0.270104
   7 H :   -0.260704
   8 H :   -0.259711
   9 H :   -0.263220
  10 H :   -0.268736
  11 H :   -0.270890
  12 H :   -0.258213
  13 H :   -0.261492
  14 C :    0.519530
  15 C :    0.500138
  16 C :   -0.436380
  17 C :    0.538823
  18 H :   -0.279232
  19 H :   -0.281784
  20 H :   -0.269480
  21 H :   -0.276335
  22 H :   -0.253292
  23 H :   -0.250186
  24 O :    1.336064
  25 H :   -0.778534
  26 C :    0.383149
  27 H :   -0.301265

  Mayer bond orders larger than 0.100000
B(  0-C ,  1-C ) :   0.9158 B(  0-C ,  2-C ) :  -0.1055 B(  0-C ,  5-C ) :   0.8838
B(  0-C ,  8-H ) :   1.0022 B(  0-C ,  9-H ) :   1.0437 B(  1-C ,  2-C ) :   0.2885
B(  1-C ,  6-H ) :   1.1744 B(  1-C ,  7-H ) :   1.0785 B(  1-C , 26-C ) :  -0.1223
B(  2-C ,  3-C ) :   1.3577 B(  2-C ,  6-H ) :  -0.2167 B(  2-C ,  7-H ) :  -0.1741
B(  2-C , 15-C ) :  -0.1062 B(  2-C , 16-C ) :  -0.1503 B(  2-C , 26-C ) :   1.1082
B(  2-C , 27-H ) :  -0.1343 B(  3-C ,  4-C ) :   0.5414 B(  3-C ,  5-C ) :  -0.1669
B(  3-C , 10-H ) :  -0.1858 B(  3-C , 16-C ) :   1.0465 B(  3-C , 17-C ) :  -0.1381
B(  3-C , 24-O ) :   0.4470 B(  3-C , 26-C ) :  -0.1394 B(  4-C ,  5-C ) :   0.8532
B(  4-C , 10-H ) :   1.0803 B(  4-C , 11-H ) :   0.9732 B(  5-C , 12-H ) :   1.0253
B(  5-C , 13-H ) :   1.0527 B( 14-C , 15-C ) :   0.8700 B( 14-C , 17-C ) :   0.9216
B( 14-C , 18-H ) :   0.9734 B( 14-C , 23-H ) :   0.9252 B( 15-C , 19-H ) :   1.0835
B( 15-C , 20-H ) :   0.8855 B( 15-C , 26-C ) :   0.6624 B( 16-C , 17-C ) :   0.9254
B( 16-C , 24-O ) :  -0.5268 B( 16-C , 25-H ) :  -0.1274 B( 16-C , 26-C ) :   0.4814
B( 17-C , 21-H ) :   1.0758 B( 17-C , 22-H ) :   0.8945 B( 17-C , 24-O ) :   0.1002
B( 19-H , 26-C ) :  -0.1161 B( 24-O , 25-H ) :   0.9235 B( 24-O , 26-C ) :   0.1486
B( 26-C , 27-H ) :   1.1618

MP2 TOTAL ENERGY:     -503.038577111 Eh
FINAL SINGLE POINT ENERGY      -503.038577111115

DIPOLE MOMENT
-------------
                                X             Y             Z
Electronic contribution:     -3.42026      -1.06150       5.30172
Nuclear contribution   :      3.61120       0.78300      -5.47574
                        -----------------------------------------
Total Dipole Moment    :      0.19095      -0.27849      -0.17402
                        -----------------------------------------
Magnitude (a.u.)       :      0.37987
Magnitude (Debye)      :      0.96556

Rotational constants in cm-1:     0.051008     0.025256     0.023692
Rotational constants in MHz :  1529.182986   757.149360   710.266669

                             ****ORCA TERMINATED NORMALLY****
TOTAL RUN TIME: 0 days 2 hours 57 minutes 30 seconds 987 msec
