                         Program Version 4.2.1 -  RELEASE  -
|  1> %pal
|  2>  nprocs 32
|  3> end
|  4> !RI-MP2 aug-cc-pVQZ aug-cc-pVQZ/C TightSCF
|  5> %maxcore 4500
|  6> *xyzfile 0 1  09_2R1.xyz
|  7>
|  8>
|  9>                          ****END OF INPUT****

CARTESIAN COORDINATES (ANGSTROEM)
---------------------------------
  C     -2.205380   -0.244027   -0.000107
  C     -1.323653   -1.321492   -0.000059
  C      0.041307   -1.097885    0.000008
  C      0.529112    0.208118    0.000028
  C     -0.354708    1.282515   -0.000018
  C     -1.723616    1.057655   -0.000087
  H     -3.274005   -0.422831   -0.000160
  H     -1.707892   -2.334134   -0.000074
  H      0.749022   -1.917644    0.000044
  H      0.033725    2.295509   -0.000001
  H     -2.412893    1.892875   -0.000125
  C      1.984932    0.463980    0.000098
  O      2.831919   -0.392852    0.000127
  H      2.268734    1.535859    0.000124

 Total Charge           Charge          ....    0
 Multiplicity           Mult            ....    1
 Number of Electrons    NEL             ....   56
 Basis Dimension        Dim             ....  916

ORBITAL ENERGIES
----------------

  NO   OCC          E(Eh)            E(eV)
   0   2.0000     -20.553198      -559.2809
   1   2.0000     -11.333087      -308.3890
   2   2.0000     -11.258749      -306.3661
   3   2.0000     -11.256221      -306.2974
   4   2.0000     -11.252005      -306.1826
   5   2.0000     -11.249926      -306.1260
   6   2.0000     -11.249196      -306.1062
   7   2.0000     -11.247590      -306.0625
   8   2.0000      -1.395258       -37.9669
   9   2.0000      -1.176277       -32.0081
  10   2.0000      -1.052684       -28.6450
  11   2.0000      -1.036232       -28.1973
  12   2.0000      -0.894685       -24.3456
  13   2.0000      -0.848494       -23.0887
  14   2.0000      -0.793552       -21.5937
  15   2.0000      -0.722818       -19.6689
  16   2.0000      -0.680471       -18.5166
  17   2.0000      -0.655415       -17.8348
  18   2.0000      -0.622471       -16.9383
  19   2.0000      -0.618268       -16.8239
  20   2.0000      -0.606177       -16.4949
  21   2.0000      -0.558373       -15.1941
  22   2.0000      -0.531241       -14.4558
  23   2.0000      -0.511076       -13.9071
  24   2.0000      -0.505897       -13.7662
  25   2.0000      -0.429100       -11.6764
  26   2.0000      -0.357587        -9.7304
  27   2.0000      -0.354110        -9.6358
  28   0.0000       0.020898         0.5687
  29   0.0000       0.026223         0.7136
  30   0.0000       0.031834         0.8662
  31   0.0000       0.040990         1.1154
  32   0.0000       0.045969         1.2509

MULLIKEN ATOMIC CHARGES
-----------------------
   0 C :   -0.327656
   1 C :   -0.401004
   2 C :   -0.024286
   3 C :   -0.178144
   4 C :   -0.199165
   5 C :   -0.341833
   6 H :    0.294866
   7 H :    0.284847
   8 H :    0.348851
   9 H :    0.315927
  10 H :    0.281684
  11 C :    0.422696
  12 O :   -0.771530
  13 H :    0.294745
Sum of atomic charges:   -0.0000000

LOEWDIN ATOMIC CHARGES
----------------------
   0 C :    0.343670
   1 C :    0.354683
   2 C :    0.318268
   3 C :   -0.145278
   4 C :    0.315232
   5 C :    0.350297
   6 H :   -0.315794
   7 H :   -0.319018
   8 H :   -0.326163
   9 H :   -0.320251
  10 H :   -0.320057
  11 C :   -0.279402
  12 O :    0.709330
  13 H :   -0.365517

  Mayer bond orders larger than 0.100000
B(  0-C ,  1-C ) :   1.1556 B(  0-C ,  5-C ) :   1.2049 B(  0-C ,  6-H ) :   1.0256
B(  0-C , 10-H ) :  -0.1081 B(  1-C ,  2-C ) :   1.2805 B(  1-C ,  3-C ) :  -0.2026
B(  1-C ,  7-H ) :   1.0701 B(  2-C ,  3-C ) :   1.0474 B(  2-C ,  5-C ) :   0.1286
B(  2-C ,  7-H ) :  -0.1126 B(  2-C ,  8-H ) :   0.8529 B(  2-C , 11-C ) :  -0.2215
B(  3-C ,  4-C ) :   0.9348 B(  3-C ,  5-C ) :  -0.2909 B(  3-C , 11-C ) :   1.0317
B(  3-C , 12-O ) :   0.2569 B(  3-C , 13-H ) :  -0.2428 B(  4-C ,  5-C ) :   1.2433
B(  4-C ,  9-H ) :   0.9353 B(  4-C , 10-H ) :  -0.1190 B(  4-C , 11-C ) :  -0.2612
B(  5-C , 10-H ) :   1.0810 B( 11-C , 12-O ) :   1.3159 B( 11-C , 13-H ) :   1.0396

MP2 TOTAL ENERGY:     -344.992186365 Eh
FINAL SINGLE POINT ENERGY      -344.992186364731

DIPOLE MOMENT
-------------
                                X             Y             Z
Electronic contribution:      2.94401      -0.43460       0.00013
Nuclear contribution   :     -4.26011       1.03408      -0.00019
                        -----------------------------------------
Total Dipole Moment    :     -1.31610       0.59949      -0.00005
                        -----------------------------------------
Magnitude (a.u.)       :      1.44620
Magnitude (Debye)      :      3.67596

Rotational constants in cm-1:     0.176393     0.052532     0.040477
Rotational constants in MHz :  5288.128253  1574.867178  1213.478823

                             ****ORCA TERMINATED NORMALLY****
TOTAL RUN TIME: 0 days 0 hours 23 minutes 33 seconds 116 msec
