                         Program Version 4.2.1 -  RELEASE  -
|  1> %pal
|  2>  nprocs 32
|  3> end
|  4> !RI-MP2 aug-cc-pVQZ aug-cc-pVQZ/C TightSCF
|  5> %maxcore 4500
|  6> *xyzfile -1 1  05_1P.xyz
|  7>
|  8>
|  9>                          ****END OF INPUT****

CARTESIAN COORDINATES (ANGSTROEM)
---------------------------------
  O     -0.326863   -0.695573    1.398723
  C     -0.454451   -0.439600    0.101567
  C     -1.851411    0.147973   -0.135182
  O     -2.808963   -0.812570   -0.248777
  O     -2.176899    1.315244   -0.137655
  C      0.579976    0.608423   -0.454824
  C      1.951346    0.059860   -0.293195
  H      0.458671    1.532688    0.105848
  H      0.407122    0.782404   -1.520873
  O      2.455627   -0.808889   -0.968886
  O      2.648642    0.623901    0.721236
  H     -3.649715   -0.336588   -0.228943
  H      3.465311    0.111924    0.789808
  H     -0.366501   -1.327267   -0.573158

 Total Charge           Charge          ....   -1
 Multiplicity           Mult            ....    1
 Number of Electrons    NEL             ....   70
 Basis Dimension        Dim             ....  950

ORBITAL ENERGIES
----------------

  NO   OCC          E(Eh)            E(eV)
   0   2.0000     -20.468864      -556.9861
   1   2.0000     -20.456316      -556.6447
   2   2.0000     -20.401708      -555.1587
   3   2.0000     -20.389426      -554.8245
   4   2.0000     -20.254973      -551.1658
   5   2.0000     -11.239565      -305.8441
   6   2.0000     -11.215164      -305.1801
   7   2.0000     -11.111645      -302.3632
   8   2.0000     -11.076352      -301.4029
   9   2.0000      -1.323600       -36.0170
  10   2.0000      -1.308204       -35.5980
  11   2.0000      -1.214837       -33.0574
  12   2.0000      -1.199925       -32.6516
  13   2.0000      -1.078534       -29.3484
  14   2.0000      -0.879651       -23.9365
  15   2.0000      -0.763115       -20.7654
  16   2.0000      -0.677119       -18.4254
  17   2.0000      -0.606416       -16.5014
  18   2.0000      -0.566310       -15.4101
  19   2.0000      -0.552192       -15.0259
  20   2.0000      -0.539352       -14.6765
  21   2.0000      -0.510193       -13.8830
  22   2.0000      -0.491044       -13.3620
  23   2.0000      -0.474089       -12.9006
  24   2.0000      -0.446015       -12.1367
  25   2.0000      -0.426316       -11.6006
  26   2.0000      -0.411081       -11.1861
  27   2.0000      -0.368742       -10.0340
  28   2.0000      -0.347758        -9.4630
  29   2.0000      -0.337412        -9.1814
  30   2.0000      -0.324352        -8.8261
  31   2.0000      -0.310133        -8.4391
  32   2.0000      -0.305476        -8.3124
  33   2.0000      -0.171362        -4.6630
  34   2.0000      -0.167196        -4.5496
  35   0.0000       0.110976         3.0198
  36   0.0000       0.111842         3.0434
  37   0.0000       0.122170         3.3244
  38   0.0000       0.132233         3.5982
  39   0.0000       0.142175         3.8688

MULLIKEN ATOMIC CHARGES
-----------------------
   0 O :   -1.158750
   1 C :    0.504529
   2 C :    1.010276
   3 O :   -0.740237
   4 O :   -0.884150
   5 C :   -0.654309
   6 C :    1.180068
   7 H :    0.276068
   8 H :    0.277726
   9 O :   -0.874784
  10 O :   -0.708150
  11 H :    0.309443
  12 H :    0.294860
  13 H :    0.167409
Sum of atomic charges:   -1.0000000

LOEWDIN ATOMIC CHARGES
----------------------
   0 O :    0.527073
   1 C :   -0.729628
   2 C :   -1.127543
   3 O :    1.220071
   4 O :    0.669231
   5 C :    0.342408
   6 C :   -1.073336
   7 H :   -0.347486
   8 H :   -0.316882
   9 O :    0.685351
  10 O :    1.249447
  11 H :   -0.868565
  12 H :   -0.849439
  13 H :   -0.380702

  Mayer bond orders larger than 0.100000
B(  0-O ,  1-C ) :   0.8239 B(  0-O ,  2-C ) :   0.1718 B(  0-O ,  5-C ) :   0.1299
B(  1-C ,  2-C ) :   0.9153 B(  1-C ,  5-C ) :   0.8666 B(  1-C , 13-H ) :   1.0026
B(  2-C ,  3-O ) :   0.7745 B(  2-C ,  4-O ) :   1.3432 B(  3-O , 11-H ) :   0.9384
B(  5-C ,  6-C ) :   1.1707 B(  5-C ,  7-H ) :   0.8777 B(  5-C ,  8-H ) :   0.9196
B(  5-C ,  9-O ) :   0.1223 B(  6-C ,  9-O ) :   1.2538 B(  6-C , 10-O ) :   0.7492
B(  9-O , 10-O ) :   0.1035 B( 10-O , 12-H ) :   0.9365

MP2 TOTAL ENERGY:     -530.949337642 Eh
FINAL SINGLE POINT ENERGY      -530.949337642070

DIPOLE MOMENT
-------------
                                X             Y             Z
Electronic contribution:      0.01247      -0.04345       0.09898
Nuclear contribution   :      0.30343       0.73734      -1.37813
                        -----------------------------------------
Total Dipole Moment    :      0.31590       0.69389      -1.27915
                        -----------------------------------------
Magnitude (a.u.)       :      1.48912
Magnitude (Debye)      :      3.78505

Rotational constants in cm-1:     0.122399     0.028327     0.027790
Rotational constants in MHz :  3669.428593   849.227132   833.130161

                             ****ORCA TERMINATED NORMALLY****
TOTAL RUN TIME: 0 days 0 hours 19 minutes 10 seconds 292 msec
