                         Program Version 4.2.1 -  RELEASE  -
|  1> %pal
|  2>  nprocs 32
|  3> end
|  4> !RI-MP2 aug-cc-pVQZ aug-cc-pVQZ/C TightSCF
|  5> %maxcore 4500
|  6> *xyzfile 0 1  10_1TS.xyz
|  7>
|  8>
|  9>                          ****END OF INPUT****

CARTESIAN COORDINATES (ANGSTROEM)
---------------------------------
  C      1.632472    1.094286    0.620386
  C      0.503210    0.003578    0.601711
  C      0.863163    2.415193    0.666106
  C      2.542487    1.063931   -0.607415
  C      0.998869   -1.319287    0.027001
  C     -0.609922    0.679432   -0.247704
  C      0.034207   -0.203196    2.060160
  C      1.925892   -1.269340   -1.164023
  C      3.104671   -0.320992   -0.917182
  C      4.035269   -0.847340    0.174150
  C     -0.377228    2.147180   -0.168716
  C     -2.195121    0.030599    1.136200
  C     -1.395460   -0.742964    2.125696
  N     -2.935452   -0.508480    0.162649
  O     -3.212717    0.364211   -0.784169
  C     -1.563494   -1.207865   -1.649158
  C     -2.502286   -1.731618   -0.505134
  H      2.237732    0.951945    1.518387
  H      1.417110    3.260780    0.258490
  H      0.553905    2.689225    1.678138
  H      3.356090    1.778848   -0.453740
  H      1.981371    1.417995   -1.479457
  O      0.674558   -2.376462    0.522551
  H      0.061077    0.765168    2.564895
  H      0.720010   -0.862317    2.594993
  H      1.360066   -0.904597   -2.026184
  H      2.250751   -2.289045   -1.374302
  H      3.678364   -0.255662   -1.846295
  H      4.462068   -1.811102   -0.111279
  H      3.514755   -0.994800    1.123812
  H      4.859544   -0.152732    0.351506
  O     -1.044534    2.998328   -0.707126
  H     -1.399917   -1.807514    1.911047
  H     -1.801137   -0.601760    3.131050
  H     -2.002127   -2.414761    0.174765
  H     -3.380626   -2.211989   -0.928680
  C     -1.324136    0.247982   -1.384766
  H     -2.056968   -1.326644   -2.611337
  H     -0.656915   -1.808710   -1.660707
  H     -1.484030    0.966783   -2.176828
  H     -2.496973    1.044154    1.369261

 Total Charge           Charge          ....    0
 Multiplicity           Mult            ....    1
 Number of Electrons    NEL             ....  148
 Basis Dimension        Dim             .... 2566

ORBITAL ENERGIES
----------------

  NO   OCC          E(Eh)            E(eV)
   0   2.0000     -20.555060      -559.3316
   1   2.0000     -20.534168      -558.7631
   2   2.0000     -20.523208      -558.4649
   3   2.0000     -15.649805      -425.8529
   4   2.0000     -11.337790      -308.5170
   5   2.0000     -11.314770      -307.8905
   6   2.0000     -11.312570      -307.8307
   7   2.0000     -11.287127      -307.1383
   8   2.0000     -11.272479      -306.7397
   9   2.0000     -11.265731      -306.5561
  10   2.0000     -11.249502      -306.1145
  11   2.0000     -11.248178      -306.0785
  12   2.0000     -11.247535      -306.0610
  13   2.0000     -11.242711      -305.9297
  14   2.0000     -11.241417      -305.8945
  15   2.0000     -11.240344      -305.8653
  16   2.0000     -11.234775      -305.7138
  17   2.0000     -11.232001      -305.6383
  18   2.0000     -11.228341      -305.5387
  19   2.0000     -11.228002      -305.5295
  20   2.0000      -1.430992       -38.9393
  21   2.0000      -1.403521       -38.1917
  22   2.0000      -1.371255       -37.3137
  23   2.0000      -1.180307       -32.1178
  24   2.0000      -1.147197       -31.2168
  25   2.0000      -1.110039       -30.2057
  26   2.0000      -1.092301       -29.7230
  27   2.0000      -1.063270       -28.9330
  28   2.0000      -1.016620       -27.6636
  29   2.0000      -1.003819       -27.3153
  30   2.0000      -0.965327       -26.2679
  31   2.0000      -0.963362       -26.2144
  32   2.0000      -0.907908       -24.7054
  33   2.0000      -0.868333       -23.6285
  34   2.0000      -0.841674       -22.9031
  35   2.0000      -0.813617       -22.1396
  36   2.0000      -0.791705       -21.5434
  37   2.0000      -0.769560       -20.9408
  38   2.0000      -0.735553       -20.0154
  39   2.0000      -0.712499       -19.3881
  40   2.0000      -0.703028       -19.1304
  41   2.0000      -0.689645       -18.7662
  42   2.0000      -0.676891       -18.4191
  43   2.0000      -0.665704       -18.1147
  44   2.0000      -0.653480       -17.7821
  45   2.0000      -0.644900       -17.5486
  46   2.0000      -0.633554       -17.2399
  47   2.0000      -0.626489       -17.0476
  48   2.0000      -0.609997       -16.5989
  49   2.0000      -0.608309       -16.5529
  50   2.0000      -0.601573       -16.3696
  51   2.0000      -0.594585       -16.1795
  52   2.0000      -0.586834       -15.9686
  53   2.0000      -0.575002       -15.6466
  54   2.0000      -0.564649       -15.3649
  55   2.0000      -0.550236       -14.9727
  56   2.0000      -0.544797       -14.8247
  57   2.0000      -0.535857       -14.5814
  58   2.0000      -0.531084       -14.4515
  59   2.0000      -0.522538       -14.2190
  60   2.0000      -0.514676       -14.0050
  61   2.0000      -0.509886       -13.8747
  62   2.0000      -0.505889       -13.7659
  63   2.0000      -0.498010       -13.5515
  64   2.0000      -0.491572       -13.3763
  65   2.0000      -0.485757       -13.2181
  66   2.0000      -0.477957       -13.0059
  67   2.0000      -0.461952       -12.5703
  68   2.0000      -0.454524       -12.3682
  69   2.0000      -0.431693       -11.7470
  70   2.0000      -0.415107       -11.2956
  71   2.0000      -0.386011       -10.5039
  72   2.0000      -0.358505        -9.7554
  73   2.0000      -0.330323        -8.9886
  74   0.0000       0.017164         0.4671
  75   0.0000       0.020894         0.5686
  76   0.0000       0.024478         0.6661
  77   0.0000       0.028638         0.7793
  78   0.0000       0.033277         0.9055

MULLIKEN ATOMIC CHARGES
-----------------------
   0 C :   -0.162361
   1 C :    1.428760
   2 C :   -1.048272
   3 C :   -0.437007
   4 C :    2.597483
   5 C :    0.921244
   6 C :   -1.039425
   7 C :   -0.650042
   8 C :   -0.211411
   9 C :   -0.978911
  10 C :    1.240987
  11 C :    0.232178
  12 C :   -0.560312
  13 N :   -0.276958
  14 O :   -1.073830
  15 C :   -1.023111
  16 C :   -0.682804
  17 H :    0.300866
  18 H :    0.068275
  19 H :    0.153165
  20 H :    0.100880
  21 H :    0.232870
  22 O :   -1.441241
  23 H :    0.269956
  24 H :    0.084197
  25 H :    0.221463
  26 H :    0.158100
  27 H :    0.142730
  28 H :    0.197483
  29 H :    0.134705
  30 H :    0.185552
  31 O :   -1.170913
  32 H :    0.238392
  33 H :    0.234525
  34 H :    0.396801
  35 H :    0.398912
  36 C :   -0.219985
  37 H :    0.161075
  38 H :    0.386516
  39 H :    0.180546
  40 H :    0.308921
Sum of atomic charges:    0.0000000

LOEWDIN ATOMIC CHARGES
----------------------
   0 C :    0.128845
   1 C :   -0.248552
   2 C :    0.532005
   3 C :    0.547672
   4 C :   -0.631663
   5 C :   -0.121653
   6 C :    0.517590
   7 C :    0.520933
   8 C :    0.153901
   9 C :    0.951257
  10 C :   -0.667560
  11 C :    0.144720
  12 C :    0.585634
  13 N :   -0.014727
  14 O :    0.646884
  15 C :    0.542908
  16 C :    0.400737
  17 H :   -0.262906
  18 H :   -0.264910
  19 H :   -0.257590
  20 H :   -0.240898
  21 H :   -0.256254
  22 O :    0.843011
  23 H :   -0.289630
  24 H :   -0.251268
  25 H :   -0.279835
  26 H :   -0.275557
  27 H :   -0.253549
  28 H :   -0.261170
  29 H :   -0.281431
  30 H :   -0.259399
  31 O :    0.759333
  32 H :   -0.328754
  33 H :   -0.239248
  34 H :   -0.318912
  35 H :   -0.262787
  36 C :    0.170600
  37 H :   -0.260636
  38 H :   -0.343064
  39 H :   -0.296276
  40 H :   -0.277798

  Mayer bond orders larger than 0.100000
B(  0-C ,  1-C ) :   0.3183 B(  0-C ,  2-C ) :   0.8263 B(  0-C ,  3-C ) :   0.3362
B(  0-C ,  4-C ) :   0.1383 B(  0-C ,  5-C ) :   0.3258 B(  0-C ,  8-C ) :  -0.1107
B(  0-C , 10-C ) :   0.1809 B(  0-C , 17-H ) :   1.0905 B(  0-C , 18-H ) :  -0.1282
B(  0-C , 19-H ) :  -0.1452 B(  0-C , 20-H ) :  -0.1700 B(  0-C , 21-H ) :  -0.1079
B(  1-C ,  2-C ) :  -0.3822 B(  1-C ,  3-C ) :  -0.2360 B(  1-C ,  4-C ) :   0.7668
B(  1-C ,  5-C ) :   0.3739 B(  1-C ,  6-C ) :  -0.4252 B(  1-C ,  7-C ) :  -0.1711
B(  1-C , 10-C ) :  -0.3175 B(  1-C , 11-C ) :   0.2790 B(  1-C , 12-C ) :  -0.4902
B(  1-C , 13-N ) :  -0.1304 B(  1-C , 15-C ) :   0.3237 B(  1-C , 16-C ) :  -0.1232
B(  1-C , 17-H ) :  -0.1941 B(  1-C , 19-H ) :  -0.1588 B(  1-C , 22-O ) :   1.2189
B(  1-C , 23-H ) :  -0.2972 B(  1-C , 24-H ) :  -0.2956 B(  1-C , 25-H ) :  -0.1446
B(  1-C , 36-C ) :   0.1785 B(  2-C ,  5-C ) :  -0.4595 B(  2-C , 10-C ) :   1.3340
B(  2-C , 17-H ) :  -0.1326 B(  2-C , 18-H ) :   1.2809 B(  2-C , 19-H ) :   1.2755
B(  2-C , 31-O ) :   0.3319 B(  3-C ,  5-C ) :  -0.1383 B(  3-C ,  8-C ) :   0.7828
B(  3-C ,  9-C ) :  -0.1392 B(  3-C , 20-H ) :   1.2024 B(  3-C , 21-H ) :   1.0627
B(  4-C ,  7-C ) :   0.7828 B(  4-C , 15-C ) :  -0.1829 B(  4-C , 22-O ) :  -0.9544
B(  5-C , 10-C ) :   0.6395 B(  5-C , 14-O ) :  -0.2783 B(  5-C , 15-C ) :  -0.2784
B(  5-C , 31-O ) :   0.5496 B(  5-C , 36-C ) :   0.5849 B(  5-C , 39-H ) :  -0.2083
B(  6-C , 12-C ) :   0.9336 B(  6-C , 23-H ) :   1.1560 B(  6-C , 24-H ) :   1.2835
B(  7-C ,  8-C ) :   0.6486 B(  7-C , 22-O ) :   0.2237 B(  7-C , 25-H ) :   1.0503
B(  7-C , 26-H ) :   1.0817 B(  8-C ,  9-C ) :   0.8280 B(  8-C , 27-H ) :   1.1127
B(  8-C , 28-H ) :  -0.1207 B(  9-C , 28-H ) :   1.1172 B(  9-C , 29-H ) :   1.0304
B(  9-C , 30-H ) :   1.0961 B( 10-C , 31-O ) :  -0.4878 B( 11-C , 12-C ) :   0.7750
B( 11-C , 13-N ) :   0.8254 B( 11-C , 14-O ) :  -0.1022 B( 11-C , 33-H ) :  -0.1374
B( 11-C , 36-C ) :   0.2700 B( 11-C , 40-H ) :   0.9803 B( 12-C , 32-H ) :   1.1382
B( 12-C , 33-H ) :   1.0491 B( 13-N , 14-O ) :   0.7250 B( 13-N , 16-C ) :   0.8862
B( 13-N , 36-C ) :   0.1486 B( 14-O , 15-C ) :   0.1586 B( 14-O , 36-C ) :   0.3590
B( 15-C , 16-C ) :   1.0820 B( 15-C , 22-O ) :   0.1295 B( 15-C , 36-C ) :   0.7408
B( 15-C , 37-H ) :   1.1434 B( 15-C , 38-H ) :   0.8649 B( 16-C , 34-H ) :   0.9580
B( 16-C , 35-H ) :   0.8834 B( 16-C , 36-C ) :  -0.1626 B( 16-C , 38-H ) :   0.1212
B( 22-O , 24-H ) :   0.1097 B( 31-O , 36-C ) :   0.2772 B( 36-C , 37-H ) :  -0.1566
B( 36-C , 39-H ) :   1.2787

MP2 TOTAL ENERGY:     -901.213496696 Eh
FINAL SINGLE POINT ENERGY      -901.213496696469

DIPOLE MOMENT
-------------
                                X             Y             Z
Electronic contribution:    -13.43153       3.58307      -1.32923
Nuclear contribution   :     15.24340      -4.59729       2.01209
                        -----------------------------------------
Total Dipole Moment    :      1.81187      -1.01422       0.68286
                        -----------------------------------------
Magnitude (a.u.)       :      2.18582
Magnitude (Debye)      :      5.55591

Rotational constants in cm-1:     0.019178     0.011564     0.009830
Rotational constants in MHz :   574.944823   346.678646   294.709390

                             ****ORCA TERMINATED NORMALLY****
TOTAL RUN TIME: 0 days 11 hours 51 minutes 8 seconds 392 msec
