                         Program Version 4.2.1 -  RELEASE  -
|  1> %pal
|  2>  nprocs 32
|  3> end
|  4> !RI-MP2 aug-cc-pVQZ aug-cc-pVQZ/C TightSCF
|  5> %maxcore 4500
|  6> *xyzfile 1 1  10_16R.xyz
|  7>
|  8>
|  9>                          ****END OF INPUT****

CARTESIAN COORDINATES (ANGSTROEM)
---------------------------------
  C      0.424806    2.645812   -0.595382
  C     -0.595380    2.929640    0.468640
  C     -1.490008    1.728334    0.795770
  C     -2.386098    1.289991   -0.361503
  C     -3.177736    0.022250   -0.065475
  C     -2.392639   -1.265775   -0.076895
  H     -2.121920    1.976748    1.653757
  H     -1.225710    3.769311    0.156883
  H     -0.084271    3.245151    1.380874
  H     -1.804253    1.150024   -1.276769
  H     -3.099734    2.086540   -0.583529
  H     -3.972126   -0.126305   -0.806060
  H     -3.680665    0.082153    0.904919
  H     -0.847408    0.902363    1.116813
  C     -3.034539   -2.545004    0.368283
  H     -2.386808   -3.404947    0.212569
  H     -3.963661   -2.683042   -0.188322
  H     -3.291676   -2.469311    1.426977
  C      1.728504    2.552767   -0.377071
  N     -1.198991   -1.274133   -0.462167
  N     -0.152947   -1.276489   -1.052584
  C      1.066656   -1.116052   -0.387082
  C      1.184586   -1.030761    1.004368
  C      2.179222   -1.040618   -1.223366
  C      2.436116   -0.853811    1.550377
  H      0.312076   -1.112412    1.640314
  C      3.429560   -0.857478   -0.660878
  H      2.040614   -1.118445   -2.293961
  C      3.554092   -0.762466    0.718476
  H      2.554761   -0.788842    2.624014
  H      4.304792   -0.791615   -1.293439
  H      4.533561   -0.622464    1.159022
  H      0.057402    2.524297   -1.611895
  H      2.148833    2.694904    0.613436
  H      2.426911    2.359266   -1.181915

 Total Charge           Charge          ....    1
 Multiplicity           Mult            ....    1
 Number of Electrons    NEL             ....  116
 Basis Dimension        Dim             .... 2154

ORBITAL ENERGIES
----------------

  NO   OCC          E(Eh)            E(eV)
   0   2.0000     -15.857554      -431.5060
   1   2.0000     -15.855591      -431.4526
   2   2.0000     -11.511440      -313.2422
   3   2.0000     -11.421013      -310.7816
   4   2.0000     -11.396856      -310.1242
   5   2.0000     -11.396801      -310.1227
   6   2.0000     -11.391202      -309.9704
   7   2.0000     -11.388734      -309.9032
   8   2.0000     -11.381932      -309.7181
   9   2.0000     -11.371465      -309.4333
  10   2.0000     -11.367104      -309.3146
  11   2.0000     -11.358380      -309.0772
  12   2.0000     -11.343273      -308.6661
  13   2.0000     -11.329464      -308.2904
  14   2.0000     -11.328312      -308.2590
  15   2.0000     -11.317067      -307.9530
  16   2.0000      -1.610485       -43.8235
  17   2.0000      -1.373634       -37.3785
  18   2.0000      -1.299535       -35.3621
  19   2.0000      -1.223886       -33.3036
  20   2.0000      -1.194259       -32.4974
  21   2.0000      -1.168551       -31.7979
  22   2.0000      -1.166687       -31.7472
  23   2.0000      -1.136330       -30.9211
  24   2.0000      -1.103359       -30.0239
  25   2.0000      -1.032367       -28.0921
  26   2.0000      -1.014056       -27.5939
  27   2.0000      -0.981844       -26.7173
  28   2.0000      -0.941121       -25.6092
  29   2.0000      -0.905700       -24.6453
  30   2.0000      -0.858933       -23.3728
  31   2.0000      -0.857556       -23.3353
  32   2.0000      -0.843674       -22.9575
  33   2.0000      -0.825629       -22.4665
  34   2.0000      -0.819212       -22.2919
  35   2.0000      -0.780453       -21.2372
  36   2.0000      -0.762232       -20.7414
  37   2.0000      -0.751947       -20.4615
  38   2.0000      -0.749523       -20.3956
  39   2.0000      -0.735455       -20.0128
  40   2.0000      -0.733946       -19.9717
  41   2.0000      -0.724038       -19.7021
  42   2.0000      -0.721510       -19.6333
  43   2.0000      -0.714031       -19.4298
  44   2.0000      -0.688775       -18.7425
  45   2.0000      -0.670120       -18.2349
  46   2.0000      -0.660898       -17.9840
  47   2.0000      -0.644422       -17.5356
  48   2.0000      -0.642247       -17.4764
  49   2.0000      -0.632889       -17.2218
  50   2.0000      -0.629845       -17.1389
  51   2.0000      -0.606514       -16.5041
  52   2.0000      -0.591582       -16.0978
  53   2.0000      -0.572809       -15.5869
  54   2.0000      -0.568230       -15.4623
  55   2.0000      -0.483474       -13.1560
  56   2.0000      -0.481706       -13.1079
  57   2.0000      -0.461610       -12.5610
  58   0.0000      -0.111554        -3.0355
  59   0.0000      -0.069215        -1.8834
  60   0.0000      -0.057870        -1.5747
  61   0.0000      -0.054331        -1.4784
  62   0.0000      -0.050266        -1.3678

MULLIKEN ATOMIC CHARGES
-----------------------
   0 C :   -0.262623
   1 C :   -0.350883
   2 C :   -0.618666
   3 C :   -0.296862
   4 C :   -0.354453
   5 C :    0.748903
   6 H :    0.278016
   7 H :    0.297609
   8 H :    0.248334
   9 H :    0.250669
  10 H :    0.258013
  11 H :    0.337360
  12 H :    0.288703
  13 H :    0.296190
  14 C :   -0.961517
  15 H :    0.263357
  16 H :    0.326299
  17 H :    0.315909
  18 C :   -0.815635
  19 N :    0.412987
  20 N :   -0.901734
  21 C :    0.602299
  22 C :   -0.172864
  23 C :   -0.581674
  24 C :   -0.326605
  25 H :    0.312264
  26 C :   -0.372222
  27 H :    0.351685
  28 C :   -0.201011
  29 H :    0.238367
  30 H :    0.254339
  31 H :    0.297861
  32 H :    0.181527
  33 H :    0.296397
  34 H :    0.359659
Sum of atomic charges:    1.0000000

LOEWDIN ATOMIC CHARGES
----------------------
   0 C :    0.367044
   1 C :    0.512049
   2 C :    0.528493
   3 C :    0.534806
   4 C :    0.557793
   5 C :   -0.159208
   6 H :   -0.250795
   7 H :   -0.264884
   8 H :   -0.291214
   9 H :   -0.293501
  10 H :   -0.245464
  11 H :   -0.251501
  12 H :   -0.259603
  13 H :   -0.317716
  14 C :    0.977690
  15 H :   -0.275707
  16 H :   -0.263358
  17 H :   -0.261589
  18 C :    0.797528
  19 N :    0.397634
  20 N :    0.502052
  21 C :   -0.334857
  22 C :    0.329266
  23 C :    0.324237
  24 C :    0.383949
  25 H :   -0.312776
  26 C :    0.375637
  27 H :   -0.299366
  28 C :    0.380313
  29 H :   -0.301280
  30 H :   -0.301877
  31 H :   -0.292708
  32 H :   -0.318109
  33 H :   -0.332600
  34 H :   -0.340379

  Mayer bond orders larger than 0.100000
B(  0-C ,  1-C ) :   0.7341 B(  0-C ,  2-C ) :  -0.1133 B(  0-C , 18-C ) :   1.6774
B(  0-C , 32-H ) :   1.0728 B(  0-C , 34-H ) :  -0.1467 B(  1-C ,  2-C ) :   0.9028
B(  1-C ,  3-C ) :  -0.1088 B(  1-C ,  7-H ) :   0.9548 B(  1-C ,  8-H ) :   1.0147
B(  2-C ,  3-C ) :   0.7794 B(  2-C ,  4-C ) :  -0.1042 B(  2-C ,  6-H ) :   0.9333
B(  2-C , 13-H ) :   0.8678 B(  3-C ,  4-C ) :   0.9879 B(  3-C ,  5-C ) :  -0.1291
B(  3-C ,  9-H ) :   0.8934 B(  3-C , 10-H ) :   0.9347 B(  4-C ,  5-C ) :   0.6752
B(  4-C , 11-H ) :   0.9215 B(  4-C , 12-H ) :   0.8766 B(  5-C , 14-C ) :   0.5804
B(  5-C , 15-H ) :  -0.1178 B(  5-C , 19-N ) :   1.0145 B(  5-C , 20-N ) :  -0.3140
B( 14-C , 15-H ) :   1.0522 B( 14-C , 16-H ) :   0.9657 B( 14-C , 17-H ) :   0.8926
B( 18-C , 33-H ) :   0.9352 B( 18-C , 34-H ) :   0.9579 B( 19-N , 20-N ) :   0.7244
B( 20-N , 21-C ) :   0.4073 B( 20-N , 22-C ) :  -0.1208 B( 20-N , 23-C ) :   0.1484
B( 21-C , 22-C ) :   1.0109 B( 21-C , 23-C ) :   1.2278 B( 21-C , 24-C ) :  -0.2395
B( 21-C , 26-C ) :  -0.2900 B( 21-C , 28-C ) :   0.1292 B( 22-C , 24-C ) :   1.1071
B( 22-C , 25-H ) :   0.9421 B( 22-C , 28-C ) :  -0.1124 B( 22-C , 29-H ) :  -0.1109
B( 23-C , 24-C ) :   0.1994 B( 23-C , 26-C ) :   1.3758 B( 23-C , 27-H ) :   0.8937
B( 23-C , 30-H ) :  -0.1171 B( 24-C , 28-C ) :   1.2382 B( 24-C , 29-H ) :   1.1223
B( 24-C , 31-H ) :  -0.1178 B( 26-C , 28-C ) :   1.1062 B( 26-C , 30-H ) :   1.1369
B( 26-C , 31-H ) :  -0.1099 B( 28-C , 31-H ) :   1.0910

MP2 TOTAL ENERGY:     -652.926787181 Eh
FINAL SINGLE POINT ENERGY      -652.926787181300

DIPOLE MOMENT
-------------
                                X             Y             Z
Electronic contribution:      6.86576      -9.26843      -3.32658
Nuclear contribution   :     -8.27343       7.81542       3.71952
                        -----------------------------------------
Total Dipole Moment    :     -1.40767      -1.45301       0.39295
                        -----------------------------------------
Magnitude (a.u.)       :      2.06087
Magnitude (Debye)      :      5.23831

Rotational constants in cm-1:     0.022271     0.014083     0.010120
Rotational constants in MHz :   667.675119   422.203358   303.401837

                             ****ORCA TERMINATED NORMALLY****
TOTAL RUN TIME: 0 days 5 hours 27 minutes 10 seconds 621 msec
