                         Program Version 4.2.1 -  RELEASE  -
|  1> %pal
|  2>  nprocs 32
|  3> end
|  4> !RI-MP2 aug-cc-pVQZ aug-cc-pVQZ/C TightSCF
|  5> %maxcore 4500
|  6> *xyzfile -1 1  05_2TS.xyz
|  7>
|  8>
|  9>                          ****END OF INPUT****

CARTESIAN COORDINATES (ANGSTROEM)
---------------------------------
  O     -0.892797    1.817263   -0.414849
  C     -0.576459    0.771431    0.204751
  C     -1.450041   -0.405767    0.185787
  O     -2.606514   -0.155101   -0.518302
  O     -1.136136   -1.594106    0.452898
  C      0.792194    0.626550    0.861828
  H     -1.518959    0.427888    1.360549
  C      1.814579   -0.065111   -0.029994
  H      0.705268    0.035386    1.775649
  H      1.171361    1.617270    1.101176
  O      2.908924    0.422722   -0.279876
  N      1.416790   -1.272908   -0.482541
  H     -2.486243    0.765958   -0.821885
  H      0.493460   -1.647717   -0.208505
  H      2.048131   -1.777269   -1.082397

 Total Charge           Charge          ....   -1
 Multiplicity           Mult            ....    1
 Number of Electrons    NEL             ....   70
 Basis Dimension        Dim             ....  996

ORBITAL ENERGIES
----------------

  NO   OCC          E(Eh)            E(eV)
   0   2.0000     -20.420451      -555.6687
   1   2.0000     -20.382732      -554.6423
   2   2.0000     -20.350374      -553.7618
   3   2.0000     -20.338053      -553.4265
   4   2.0000     -15.431105      -419.9017
   5   2.0000     -11.215070      -305.1776
   6   2.0000     -11.209760      -305.0331
   7   2.0000     -11.178345      -304.1782
   8   2.0000     -11.104256      -302.1622
   9   2.0000      -1.268306       -34.5124
  10   2.0000      -1.243674       -33.8421
  11   2.0000      -1.185549       -32.2604
  12   2.0000      -1.158545       -31.5256
  13   2.0000      -1.067482       -29.0477
  14   2.0000      -0.899090       -24.4655
  15   2.0000      -0.782356       -21.2890
  16   2.0000      -0.660389       -17.9701
  17   2.0000      -0.614628       -16.7249
  18   2.0000      -0.586606       -15.9624
  19   2.0000      -0.550393       -14.9770
  20   2.0000      -0.526164       -14.3177
  21   2.0000      -0.488615       -13.2959
  22   2.0000      -0.480626       -13.0785
  23   2.0000      -0.459753       -12.5105
  24   2.0000      -0.443394       -12.0654
  25   2.0000      -0.433401       -11.7935
  26   2.0000      -0.398428       -10.8418
  27   2.0000      -0.387490       -10.5441
  28   2.0000      -0.361272        -9.8307
  29   2.0000      -0.320053        -8.7091
  30   2.0000      -0.305394        -8.3102
  31   2.0000      -0.290786        -7.9127
  32   2.0000      -0.273172        -7.4334
  33   2.0000      -0.247688        -6.7399
  34   2.0000      -0.170045        -4.6272
  35   0.0000       0.111391         3.0311
  36   0.0000       0.120061         3.2670
  37   0.0000       0.124377         3.3845
  38   0.0000       0.128660         3.5010
  39   0.0000       0.141443         3.8489

MULLIKEN ATOMIC CHARGES
-----------------------
   0 O :   -1.095447
   1 C :    0.636986
   2 C :    1.073379
   3 O :   -0.919498
   4 O :   -1.022600
   5 C :   -0.546354
   6 H :    0.021196
   7 C :    0.988080
   8 H :    0.272206
   9 H :    0.333284
  10 O :   -0.901062
  11 N :   -0.749552
  12 H :    0.386006
  13 H :    0.424919
  14 H :    0.098456
Sum of atomic charges:   -1.0000000

LOEWDIN ATOMIC CHARGES
----------------------
   0 O :    0.713534
   1 C :   -0.754787
   2 C :   -1.072019
   3 O :    1.226956
   4 O :    0.726083
   5 C :    0.413204
   6 H :   -0.276278
   7 C :   -0.856472
   8 H :   -0.312001
   9 H :   -0.338234
  10 O :    0.651391
  11 N :    1.209692
  12 H :   -1.016631
  13 H :   -0.819016
  14 H :   -0.495423

  Mayer bond orders larger than 0.100000
B(  0-O ,  1-C ) :   0.6740 B(  0-O ,  2-C ) :   0.2028 B(  0-O ,  5-C ) :   0.1358
B(  1-C ,  2-C ) :   1.2996 B(  1-C ,  3-O ) :   0.1356 B(  1-C ,  4-O ) :   0.1203
B(  1-C ,  5-C ) :   0.9448 B(  1-C ,  6-H ) :   0.4600 B(  2-C ,  3-O ) :   0.5212
B(  2-C ,  4-O ) :   1.0369 B(  2-C ,  6-H ) :   0.5546 B(  3-O , 12-H ) :   0.7989
B(  5-C ,  7-C ) :   0.9815 B(  5-C ,  8-H ) :   0.9295 B(  5-C ,  9-H ) :   0.8896
B(  7-C , 10-O ) :   1.0544 B(  7-C , 11-N ) :   1.1805 B( 10-O , 11-N ) :   0.1773
B( 11-N , 13-H ) :   0.7319 B( 11-N , 14-H ) :   1.1303

MP2 TOTAL ENERGY:     -511.061763599 Eh
FINAL SINGLE POINT ENERGY      -511.061763598677

DIPOLE MOMENT
-------------
                                X             Y             Z
Electronic contribution:      0.16348       0.13460      -1.88732
Nuclear contribution   :      0.38663      -0.56724       2.06972
                        -----------------------------------------
Total Dipole Moment    :      0.55012      -0.43265       0.18240
                        -----------------------------------------
Magnitude (a.u.)       :      0.72324
Magnitude (Debye)      :      1.83834

Rotational constants in cm-1:     0.096115     0.039237     0.031238
Rotational constants in MHz :  2881.446008  1176.303738   936.505682

                             ****ORCA TERMINATED NORMALLY****
TOTAL RUN TIME: 0 days 0 hours 24 minutes 37 seconds 25 msec
