                         Program Version 4.2.1 -  RELEASE  -
|  1> %pal
|  2>  nprocs 32
|  3> end
|  4> !RI-MP2 aug-cc-pVQZ aug-cc-pVQZ/C TightSCF
|  5> %maxcore 4500
|  6> *xyzfile 1 1  05_32P1.xyz
|  7>
|  8>
|  9>                          ****END OF INPUT****

CARTESIAN COORDINATES (ANGSTROEM)
---------------------------------
  C      2.979808    1.188282    0.068152
  C      1.601378    1.222888    0.036321
  C      0.868912    0.024001   -0.020131
  C      1.552332   -1.206202   -0.047298
  C      2.929801   -1.229476   -0.021457
  C      3.642456   -0.034773    0.037085
  H      3.543228    2.110763    0.114576
  H      1.099915    2.180615    0.060825
  H      0.991896   -2.129656   -0.090163
  H      3.455795   -2.174729   -0.045605
  H      4.725274   -0.057228    0.058120
  C     -0.567731    0.044273   -0.038431
  C     -1.361869    1.308908   -0.008655
  C     -2.847723    1.126990   -0.301911
  C     -2.599963   -1.314497   -0.077757
  C     -3.359680   -0.113161    0.415532
  H     -3.007053    1.027963   -1.378977
  H     -3.387075    2.018091    0.016505
  H     -2.820076   -1.555581   -1.117825
  H     -2.728729   -2.204010    0.533207
  O     -1.139475   -1.097045   -0.052641
  H     -4.420017   -0.280032    0.219141
  H     -3.245730   -0.009538    1.498409
  H     -1.216632    1.724137    0.996956
  H     -0.901332    2.022152   -0.692743

 Total Charge           Charge          ....    1
 Multiplicity           Mult            ....    1
 Number of Electrons    NEL             ....   86
 Basis Dimension        Dim             .... 1558

ORBITAL ENERGIES
----------------

  NO   OCC          E(Eh)            E(eV)
   0   2.0000     -20.800068      -565.9986
   1   2.0000     -11.550352      -314.3010
   2   2.0000     -11.454919      -311.7042
   3   2.0000     -11.409320      -310.4634
   4   2.0000     -11.403632      -310.3086
   5   2.0000     -11.399760      -310.2032
   6   2.0000     -11.398305      -310.1637
   7   2.0000     -11.394645      -310.0640
   8   2.0000     -11.382868      -309.7436
   9   2.0000     -11.380089      -309.6680
  10   2.0000     -11.374527      -309.5166
  11   2.0000     -11.373374      -309.4853
  12   2.0000      -1.642733       -44.7010
  13   2.0000      -1.321991       -35.9732
  14   2.0000      -1.263399       -34.3788
  15   2.0000      -1.245495       -33.8916
  16   2.0000      -1.173767       -31.9398
  17   2.0000      -1.166956       -31.7545
  18   2.0000      -1.081371       -29.4256
  19   2.0000      -1.052892       -28.6506
  20   2.0000      -0.983948       -26.7746
  21   2.0000      -0.974837       -26.5267
  22   2.0000      -0.907947       -24.7065
  23   2.0000      -0.896793       -24.4030
  24   2.0000      -0.847737       -23.0681
  25   2.0000      -0.839213       -22.8362
  26   2.0000      -0.824445       -22.4343
  27   2.0000      -0.785703       -21.3801
  28   2.0000      -0.775858       -21.1122
  29   2.0000      -0.764280       -20.7971
  30   2.0000      -0.757401       -20.6099
  31   2.0000      -0.747900       -20.3514
  32   2.0000      -0.738678       -20.1005
  33   2.0000      -0.720713       -19.6116
  34   2.0000      -0.670388       -18.2422
  35   2.0000      -0.662040       -18.0150
  36   2.0000      -0.656626       -17.8677
  37   2.0000      -0.648381       -17.6433
  38   2.0000      -0.641759       -17.4631
  39   2.0000      -0.635871       -17.3029
  40   2.0000      -0.621156       -16.9025
  41   2.0000      -0.500244       -13.6123
  42   2.0000      -0.488461       -13.2917
  43   0.0000      -0.118768        -3.2318
  44   0.0000      -0.072665        -1.9773
  45   0.0000      -0.060188        -1.6378
  46   0.0000      -0.059191        -1.6107
  47   0.0000      -0.055385        -1.5071

MULLIKEN ATOMIC CHARGES
-----------------------
   0 C :   -0.370189
   1 C :   -0.308304
   2 C :    0.050539
   3 C :   -0.385282
   4 C :   -0.351042
   5 C :   -0.286895
   6 H :    0.278195
   7 H :    0.224262
   8 H :    0.307909
   9 H :    0.277034
  10 H :    0.351726
  11 C :    1.122682
  12 C :   -0.150558
  13 C :   -0.484725
  14 C :   -0.274421
  15 C :   -0.568797
  16 H :    0.211115
  17 H :    0.280023
  18 H :    0.252605
  19 H :    0.359391
  20 O :   -0.702335
  21 H :    0.337254
  22 H :    0.211858
  23 H :    0.318700
  24 H :    0.299254
Sum of atomic charges:    1.0000000

LOEWDIN ATOMIC CHARGES
----------------------
   0 C :    0.403822
   1 C :    0.366841
   2 C :   -0.064632
   3 C :    0.364386
   4 C :    0.400976
   5 C :    0.395941
   6 H :   -0.303489
   7 H :   -0.323355
   8 H :   -0.318949
   9 H :   -0.304138
  10 H :   -0.288489
  11 C :   -0.317671
  12 C :    0.564970
  13 C :    0.568178
  14 C :    0.353101
  15 C :    0.551623
  16 H :   -0.247581
  17 H :   -0.241024
  18 H :   -0.266682
  19 H :   -0.270093
  20 O :    0.984116
  21 H :   -0.244015
  22 H :   -0.249381
  23 H :   -0.239293
  24 H :   -0.275161

  Mayer bond orders larger than 0.100000
B(  0-C ,  1-C ) :   1.2265 B(  0-C ,  2-C ) :  -0.3426 B(  0-C ,  5-C ) :   1.1997
B(  0-C ,  6-H ) :   1.0912 B(  1-C ,  2-C ) :   0.9763 B(  1-C ,  6-H ) :  -0.1248
B(  1-C ,  7-H ) :   1.0645 B(  1-C , 11-C ) :  -0.3833 B(  2-C ,  3-C ) :   0.9226
B(  2-C ,  4-C ) :  -0.4109 B(  2-C ,  7-H ) :  -0.1840 B(  2-C ,  8-H ) :  -0.1772
B(  2-C , 11-C ) :   0.4482 B(  2-C , 12-C ) :  -0.1790 B(  2-C , 20-O ) :   0.3796
B(  3-C ,  4-C ) :   1.2019 B(  3-C ,  8-H ) :   0.9398 B(  3-C ,  9-H ) :  -0.1564
B(  3-C , 11-C ) :  -0.4507 B(  4-C ,  5-C ) :   1.1773 B(  4-C ,  9-H ) :   1.1193
B(  4-C , 10-H ) :  -0.1054 B(  4-C , 11-C ) :   0.1037 B(  5-C , 10-H ) :   1.0096
B(  7-H , 11-C ) :   0.1497 B(  8-H , 11-C ) :   0.1390 B( 11-C , 12-C ) :   0.9408
B( 11-C , 13-C ) :  -0.1193 B( 11-C , 20-O ) :   0.4354 B( 12-C , 13-C ) :   0.8090
B( 12-C , 23-H ) :   0.8339 B( 12-C , 24-H ) :   0.8865 B( 13-C , 15-C ) :   1.0264
B( 13-C , 16-H ) :   0.9544 B( 13-C , 17-H ) :   0.9833 B( 14-C , 15-C ) :   1.0653
B( 14-C , 18-H ) :   0.9230 B( 14-C , 19-H ) :   0.8717 B( 14-C , 20-O ) :   0.6722
B( 15-C , 21-H ) :   0.8460 B( 15-C , 22-H ) :   0.9447

MP2 TOTAL ENERGY:     -501.087925565 Eh
FINAL SINGLE POINT ENERGY      -501.087925565345

DIPOLE MOMENT
-------------
                                X             Y             Z
Electronic contribution:      7.10669      -2.42376      -0.16974
Nuclear contribution   :     -8.03513       2.69137       0.17390
                        -----------------------------------------
Total Dipole Moment    :     -0.92843       0.26762       0.00417
                        -----------------------------------------
Magnitude (a.u.)       :      0.96624
Magnitude (Debye)      :      2.45599

Rotational constants in cm-1:     0.086187     0.018174     0.015301
Rotational constants in MHz :  2583.828784   544.834131   458.711820

                             ****ORCA TERMINATED NORMALLY****
TOTAL RUN TIME: 0 days 2 hours 0 minutes 37 seconds 107 msec
