                         Program Version 4.2.1 -  RELEASE  -
|  1> %pal
|  2>  nprocs 32
|  3> end
|  4> !RI-MP2 aug-cc-pVQZ aug-cc-pVQZ/C TightSCF
|  5> %maxcore 4500
|  6> *xyzfile 0 1  04_86R1.xyz
|  7>
|  8>
|  9>                          ****END OF INPUT****

CARTESIAN COORDINATES (ANGSTROEM)
---------------------------------
  C     -4.754364   -1.590978   -0.279232
  C     -3.385422   -1.735821   -0.135579
  C     -2.558046   -0.625550    0.016816
  C     -3.117375    0.649953    0.028504
  C     -4.496749    0.787226   -0.115669
  C     -5.314496   -0.318960   -0.269580
  H     -5.383232   -2.464639   -0.400381
  H     -2.944950   -2.727680   -0.145122
  H     -4.931033    1.781472   -0.103853
  H     -6.384711   -0.192463   -0.380064
  C     -0.879756    1.486876    0.760830
  H     -0.203145    2.336945    0.722328
  H     -0.984167    1.204344    1.822175
  N     -0.315000    0.377687    0.000509
  C      1.090289    0.258901   -0.016582
  C      1.869489    1.353830   -0.421667
  C      1.756121   -0.916748    0.307693
  C      3.242095    1.275309   -0.476656
  H      1.381566    2.272278   -0.722759
  C      3.147444   -1.009389    0.236114
  H      1.205243   -1.789986    0.627093
  C      3.897662    0.088027   -0.147466
  H      3.836139    2.122753   -0.794915
  H      3.619072   -1.947273    0.493862
  C     -2.234463    1.861065    0.185930
  H     -2.086909    2.331813   -0.791208
  H     -2.723066    2.597418    0.829791
  C     -1.073324   -0.839504    0.192774
  O      5.257492    0.108913   -0.243262
  C      5.960074   -1.071289    0.076242
  H      7.014675   -0.843912   -0.063293
  H      5.789494   -1.368988    1.116001
  H      5.677853   -1.896144   -0.586205
  H     -0.732620   -1.580753   -0.532890
  H     -0.900226   -1.267995    1.197141

 Total Charge           Charge          ....    0
 Multiplicity           Mult            ....    1
 Number of Electrons    NEL             ....  128
 Basis Dimension        Dim             .... 2222

ORBITAL ENERGIES
----------------

  NO   OCC          E(Eh)            E(eV)
   0   2.0000     -20.575716      -559.8937
   1   2.0000     -15.557245      -423.3342
   2   2.0000     -11.286342      -307.1170
   3   2.0000     -11.279272      -306.9246
   4   2.0000     -11.262517      -306.4687
   5   2.0000     -11.259017      -306.3734
   6   2.0000     -11.254913      -306.2618
   7   2.0000     -11.235569      -305.7354
   8   2.0000     -11.234155      -305.6969
   9   2.0000     -11.229198      -305.5620
  10   2.0000     -11.228412      -305.5406
  11   2.0000     -11.228409      -305.5405
  12   2.0000     -11.227554      -305.5173
  13   2.0000     -11.227551      -305.5172
  14   2.0000     -11.226750      -305.4954
  15   2.0000     -11.226433      -305.4868
  16   2.0000     -11.226328      -305.4839
  17   2.0000     -11.225059      -305.4494
  18   2.0000      -1.405305       -38.2403
  19   2.0000      -1.260075       -34.2884
  20   2.0000      -1.161130       -31.5960
  21   2.0000      -1.136445       -30.9242
  22   2.0000      -1.062924       -28.9236
  23   2.0000      -1.042356       -28.3640
  24   2.0000      -1.020075       -27.7576
  25   2.0000      -1.003246       -27.2997
  26   2.0000      -0.988825       -26.9073
  27   2.0000      -0.938965       -25.5505
  28   2.0000      -0.897791       -24.4301
  29   2.0000      -0.860878       -23.4257
  30   2.0000      -0.832112       -22.6429
  31   2.0000      -0.819639       -22.3035
  32   2.0000      -0.797284       -21.6952
  33   2.0000      -0.757187       -20.6041
  34   2.0000      -0.722938       -19.6721
  35   2.0000      -0.694517       -18.8988
  36   2.0000      -0.683014       -18.5858
  37   2.0000      -0.669576       -18.2201
  38   2.0000      -0.652627       -17.7589
  39   2.0000      -0.644043       -17.5253
  40   2.0000      -0.631700       -17.1894
  41   2.0000      -0.625360       -17.0169
  42   2.0000      -0.614518       -16.7219
  43   2.0000      -0.612189       -16.6585
  44   2.0000      -0.591041       -16.0830
  45   2.0000      -0.582226       -15.8432
  46   2.0000      -0.573613       -15.6088
  47   2.0000      -0.567165       -15.4333
  48   2.0000      -0.545793       -14.8518
  49   2.0000      -0.542517       -14.7626
  50   2.0000      -0.531555       -14.4643
  51   2.0000      -0.528802       -14.3894
  52   2.0000      -0.521651       -14.1948
  53   2.0000      -0.510372       -13.8879
  54   2.0000      -0.484671       -13.1886
  55   2.0000      -0.481788       -13.1101
  56   2.0000      -0.478472       -13.0199
  57   2.0000      -0.465171       -12.6579
  58   2.0000      -0.462904       -12.5962
  59   2.0000      -0.390468       -10.6252
  60   2.0000      -0.340998        -9.2790
  61   2.0000      -0.330177        -8.9846
  62   2.0000      -0.322278        -8.7696
  63   2.0000      -0.280834        -7.6419
  64   0.0000       0.022396         0.6094
  65   0.0000       0.024355         0.6627
  66   0.0000       0.025870         0.7040
  67   0.0000       0.031289         0.8514
  68   0.0000       0.033037         0.8990

MULLIKEN ATOMIC CHARGES
-----------------------
   0 C :   -0.326742
   1 C :   -0.923972
   2 C :    0.397583
   3 C :    0.656468
   4 C :   -0.699403
   5 C :   -0.364768
   6 H :    0.243448
   7 H :    0.180702
   8 H :    0.238277
   9 H :    0.265920
  10 C :   -0.520977
  11 H :    0.304249
  12 H :    0.304894
  13 N :   -0.485181
  14 C :    0.931495
  15 C :   -0.612707
  16 C :   -0.362963
  17 C :   -0.426692
  18 H :    0.123949
  19 C :   -0.703668
  20 H :    0.052828
  21 C :    1.219536
  22 H :    0.177829
  23 H :    0.126761
  24 C :   -0.509489
  25 H :    0.223900
  26 H :    0.247770
  27 C :    0.363192
  28 O :   -0.879845
  29 C :   -0.740157
  30 H :    0.494536
  31 H :    0.262258
  32 H :    0.250370
  33 H :    0.237907
  34 H :    0.252693
Sum of atomic charges:   -0.0000000

LOEWDIN ATOMIC CHARGES
----------------------
   0 C :    0.347132
   1 C :    0.356228
   2 C :   -0.033255
   3 C :   -0.042968
   4 C :    0.355217
   5 C :    0.345978
   6 H :   -0.321469
   7 H :   -0.308042
   8 H :   -0.312134
   9 H :   -0.321517
  10 C :    0.365100
  11 H :   -0.312529
  12 H :   -0.238460
  13 N :    0.499190
  14 C :   -0.217989
  15 C :    0.347509
  16 C :    0.359773
  17 C :    0.335749
  18 H :   -0.320988
  19 C :    0.339759
  20 H :   -0.348511
  21 C :   -0.458022
  22 H :   -0.320835
  23 H :   -0.354281
  24 C :    0.527906
  25 H :   -0.256887
  26 H :   -0.271280
  27 C :    0.314694
  28 O :    0.872403
  29 C :    0.561778
  30 H :   -0.318667
  31 H :   -0.306714
  32 H :   -0.307042
  33 H :   -0.297816
  34 H :   -0.259010

  Mayer bond orders larger than 0.100000
B(  0-C ,  1-C ) :   1.3130 B(  0-C ,  2-C ) :  -0.4047 B(  0-C ,  4-C ) :   0.1032
B(  0-C ,  5-C ) :   1.1682 B(  0-C ,  6-H ) :   1.1578 B(  1-C ,  2-C ) :   0.9503
B(  1-C ,  3-C ) :  -0.1593 B(  1-C ,  4-C ) :   0.1993 B(  1-C ,  5-C ) :   0.1365
B(  1-C ,  6-H ) :  -0.1827 B(  1-C ,  7-H ) :   1.1264 B(  1-C , 27-C ) :  -0.5271
B(  2-C ,  3-C ) :   1.2346 B(  2-C ,  4-C ) :  -0.3520 B(  2-C ,  7-H ) :  -0.1213
B(  2-C , 13-N ) :  -0.1571 B(  2-C , 24-C ) :  -0.1053 B(  2-C , 27-C ) :   0.4491
B(  2-C , 33-H ) :  -0.1137 B(  3-C ,  4-C ) :   0.8304 B(  3-C ,  5-C ) :  -0.2992
B(  3-C ,  8-H ) :  -0.1096 B(  3-C , 10-C ) :  -0.1942 B(  3-C , 24-C ) :   0.4584
B(  3-C , 26-H ) :  -0.1356 B(  3-C , 27-C ) :  -0.3694 B(  4-C ,  5-C ) :   1.2681
B(  4-C ,  8-H ) :   1.0481 B(  4-C ,  9-H ) :  -0.1886 B(  4-C , 24-C ) :  -0.1336
B(  5-C ,  9-H ) :   1.1262 B( 10-C , 11-H ) :   0.9782 B( 10-C , 12-H ) :   0.8608
B( 10-C , 13-N ) :   0.6095 B( 10-C , 24-C ) :   1.1350 B( 13-N , 14-C ) :   0.8728
B( 13-N , 16-C ) :   0.1008 B( 13-N , 27-C ) :   0.8211 B( 14-C , 15-C ) :   1.0465
B( 14-C , 16-C ) :   1.1366 B( 14-C , 17-C ) :  -0.3490 B( 14-C , 19-C ) :  -0.5210
B( 14-C , 27-C ) :  -0.1429 B( 15-C , 17-C ) :   1.1691 B( 15-C , 18-H ) :   1.1740
B( 15-C , 19-C ) :   0.1286 B( 15-C , 21-C ) :  -0.2049 B( 15-C , 22-H ) :  -0.1113
B( 16-C , 17-C ) :   0.1262 B( 16-C , 19-C ) :   0.5972 B( 16-C , 20-H ) :   1.2244
B( 16-C , 21-C ) :  -0.2624 B( 16-C , 23-H ) :  -0.2059 B( 16-C , 27-C ) :  -0.2893
B( 17-C , 18-H ) :  -0.1671 B( 17-C , 21-C ) :   1.1870 B( 17-C , 22-H ) :   1.0957
B( 17-C , 28-O ) :   0.2706 B( 19-C , 20-H ) :  -0.1882 B( 19-C , 21-C ) :   1.5510
B( 19-C , 23-H ) :   1.2256 B( 19-C , 28-O ) :   0.3153 B( 19-C , 29-C ) :   0.2328
B( 21-C , 22-H ) :  -0.1431 B( 21-C , 23-H ) :  -0.1297 B( 21-C , 28-O ) :  -0.2452
B( 21-C , 29-C ) :  -0.2527 B( 24-C , 25-H ) :   0.9940 B( 24-C , 26-H ) :   1.0668
B( 27-C , 33-H ) :   1.0411 B( 27-C , 34-H ) :   0.9509 B( 28-O , 29-C ) :   0.9304
B( 29-C , 30-H ) :   0.7634 B( 29-C , 31-H ) :   0.9165 B( 29-C , 32-H ) :   0.9278

MP2 TOTAL ENERGY:     -748.600294979 Eh
FINAL SINGLE POINT ENERGY      -748.600294978710

DIPOLE MOMENT
-------------
                                X             Y             Z
Electronic contribution:     -1.34467       1.11002      -1.94720
Nuclear contribution   :      1.33699      -1.43530       2.29413
                        -----------------------------------------
Total Dipole Moment    :     -0.00767      -0.32527       0.34693
                        -----------------------------------------
Magnitude (a.u.)       :      0.47563
Magnitude (Debye)      :      1.20896

Rotational constants in cm-1:     0.050450     0.005705     0.005216
Rotational constants in MHz :  1512.458729   171.034606   156.379990

                             ****ORCA TERMINATED NORMALLY****
TOTAL RUN TIME: 0 days 4 hours 56 minutes 2 seconds 361 msec
