                         Program Version 4.2.1 -  RELEASE  -
|  1> %pal
|  2>  nprocs 32
|  3> end
|  4> !RI-MP2 aug-cc-pVQZ aug-cc-pVQZ/C TightSCF
|  5> %maxcore 4500
|  6> *xyzfile 0 1  02_16TS.xyz
|  7>
|  8>
|  9>                          ****END OF INPUT****

CARTESIAN COORDINATES (ANGSTROEM)
---------------------------------
  C     -2.327729    1.297197    0.234251
  C     -0.825116    1.344088    0.020390
  C     -0.179804   -0.361552    0.934433
  C     -2.969776    0.029977   -0.306914
  H     -2.516837    1.361011    1.317310
  C     -2.453361   -1.248595    0.346131
  H     -4.046273    0.127114   -0.158677
  H     -2.800718   -0.036176   -1.384605
  C     -0.951132   -1.429773    0.195184
  H     -2.703378   -1.231345    1.420092
  C     -0.299298    1.244554   -1.261244
  H     -0.287282    1.964583    0.728674
  C      1.072216    1.258819   -1.506067
  C      1.216997   -0.293808    1.079000
  C      2.008353    1.449463   -0.521912
  H      1.752216    1.981876    0.383494
  H     -0.682120   -0.056404    1.851609
  H     -0.691109   -2.412093    0.596897
  H     -0.688804   -1.453402   -0.860428
  C      3.483069    1.376095   -0.815474
  H      3.772532    2.297436   -1.332154
  H      3.685870    0.547846   -1.506357
  C      2.158827   -1.171361    0.391794
  C      2.532721   -2.740495   -1.319517
  H      3.337449   -2.168074   -1.781248
  H      1.931923   -3.233859   -2.079441
  H      2.966499   -3.471724   -0.638316
  O      1.633678   -1.876232   -0.623999
  O     -3.001700    2.376670   -0.395566
  O     -3.048504   -2.397141   -0.232926
  O      3.335665   -1.292547    0.696738
  O      4.294657    1.291496    0.331401
  H      4.231312    0.381861    0.660469
  C     -2.645941    3.649985    0.091790
  H     -3.319035    4.368096   -0.373870
  H     -2.765320    3.704692    1.182044
  H     -1.614610    3.912700   -0.166788
  C     -4.399727   -2.603799    0.104108
  H     -4.541488   -2.595153    1.192743
  H     -5.061461   -1.854363   -0.343261
  H     -4.676642   -3.584698   -0.279831
  C      1.740121    0.376903    2.326432
  H      1.760154   -0.327383    3.163953
  H      2.744703    0.772342    2.203034
  H      1.083658    1.203349    2.611826
  H      1.413737    0.955784   -2.492088
  H     -0.957865    0.961821   -2.074573

 Total Charge           Charge          ....    0
 Multiplicity           Mult            ....    1
 Number of Electrons    NEL             ....  162
 Basis Dimension        Dim             .... 2876

ORBITAL ENERGIES
----------------

  NO   OCC          E(Eh)            E(eV)
   0   2.0000     -20.592070      -560.3387
   1   2.0000     -20.559736      -559.4588
   2   2.0000     -20.555265      -559.3372
   3   2.0000     -20.535780      -558.8070
   4   2.0000     -20.524196      -558.4918
   5   2.0000     -11.371274      -309.4281
   6   2.0000     -11.293723      -307.3178
   7   2.0000     -11.283575      -307.0417
   8   2.0000     -11.281231      -306.9779
   9   2.0000     -11.278899      -306.9145
  10   2.0000     -11.273578      -306.7697
  11   2.0000     -11.271818      -306.7217
  12   2.0000     -11.266606      -306.5799
  13   2.0000     -11.259809      -306.3950
  14   2.0000     -11.248255      -306.0806
  15   2.0000     -11.245435      -306.0038
  16   2.0000     -11.241905      -305.9078
  17   2.0000     -11.232112      -305.6413
  18   2.0000     -11.223105      -305.3962
  19   2.0000     -11.222771      -305.3871
  20   2.0000     -11.217605      -305.2466
  21   2.0000      -1.455590       -39.6086
  22   2.0000      -1.383766       -37.6542
  23   2.0000      -1.379167       -37.5290
  24   2.0000      -1.353822       -36.8394
  25   2.0000      -1.341313       -36.4990
  26   2.0000      -1.144265       -31.1370
  27   2.0000      -1.098905       -29.9027
  28   2.0000      -1.082841       -29.4656
  29   2.0000      -1.032439       -28.0941
  30   2.0000      -1.009289       -27.4641
  31   2.0000      -0.976687       -26.5770
  32   2.0000      -0.958416       -26.0798
  33   2.0000      -0.927513       -25.2389
  34   2.0000      -0.925429       -25.1822
  35   2.0000      -0.887939       -24.1620
  36   2.0000      -0.861748       -23.4494
  37   2.0000      -0.836398       -22.7595
  38   2.0000      -0.820174       -22.3181
  39   2.0000      -0.796348       -21.6697
  40   2.0000      -0.755538       -20.5592
  41   2.0000      -0.729287       -19.8449
  42   2.0000      -0.709556       -19.3080
  43   2.0000      -0.693164       -18.8619
  44   2.0000      -0.688723       -18.7411
  45   2.0000      -0.676757       -18.4155
  46   2.0000      -0.671541       -18.2736
  47   2.0000      -0.661940       -18.0123
  48   2.0000      -0.655446       -17.8356
  49   2.0000      -0.641029       -17.4433
  50   2.0000      -0.638699       -17.3799
  51   2.0000      -0.634223       -17.2581
  52   2.0000      -0.620824       -16.8935
  53   2.0000      -0.612685       -16.6720
  54   2.0000      -0.611031       -16.6270
  55   2.0000      -0.600694       -16.3457
  56   2.0000      -0.594376       -16.1738
  57   2.0000      -0.587886       -15.9972
  58   2.0000      -0.573854       -15.6154
  59   2.0000      -0.564097       -15.3499
  60   2.0000      -0.558555       -15.1991
  61   2.0000      -0.541033       -14.7222
  62   2.0000      -0.534275       -14.5384
  63   2.0000      -0.533394       -14.5144
  64   2.0000      -0.531789       -14.4707
  65   2.0000      -0.521949       -14.2030
  66   2.0000      -0.513033       -13.9603
  67   2.0000      -0.507996       -13.8233
  68   2.0000      -0.502923       -13.6852
  69   2.0000      -0.495651       -13.4874
  70   2.0000      -0.492135       -13.3917
  71   2.0000      -0.468744       -12.7552
  72   2.0000      -0.463157       -12.6032
  73   2.0000      -0.459147       -12.4940
  74   2.0000      -0.456899       -12.4329
  75   2.0000      -0.446126       -12.1397
  76   2.0000      -0.439813       -11.9679
  77   2.0000      -0.431689       -11.7468
  78   2.0000      -0.422058       -11.4848
  79   2.0000      -0.340151        -9.2560
  80   2.0000      -0.289116        -7.8672
  81   0.0000       0.018294         0.4978
  82   0.0000       0.023195         0.6312
  83   0.0000       0.024782         0.6744
  84   0.0000       0.027686         0.7534
  85   0.0000       0.034776         0.9463

MULLIKEN ATOMIC CHARGES
-----------------------
   0 C :    1.997085
   1 C :    0.142346
   2 C :    0.826899
   3 C :   -1.009697
   4 H :    0.100526
   5 C :    1.415102
   6 H :    0.230866
   7 H :    0.140569
   8 C :   -0.730948
   9 H :    0.203460
  10 C :   -0.213974
  11 H :    0.162897
  12 C :   -0.558541
  13 C :   -0.407428
  14 C :    0.394182
  15 H :    0.034017
  16 H :    0.309470
  17 H :    0.267716
  18 H :    0.101986
  19 C :   -0.123127
  20 H :    0.325891
  21 H :    0.071743
  22 C :    2.115682
  23 C :   -1.114056
  24 H :    0.415198
  25 H :    0.402196
  26 H :    0.346789
  27 O :   -0.919921
  28 O :   -1.285219
  29 O :   -1.183018
  30 O :   -1.313580
  31 O :   -1.153292
  32 H :    0.410319
  33 C :   -0.858552
  34 H :    0.411968
  35 H :    0.219680
  36 H :    0.262922
  37 C :   -0.787956
  38 H :    0.237285
  39 H :    0.271461
  40 H :    0.390898
  41 C :   -1.259391
  42 H :    0.192023
  43 H :    0.240908
  44 H :    0.178835
  45 H :   -0.020211
  46 H :    0.117990
Sum of atomic charges:   -0.0000000

LOEWDIN ATOMIC CHARGES
----------------------
   0 C :   -0.231958
   1 C :    0.229617
   2 C :    0.269135
   3 C :    0.500050
   4 H :   -0.290942
   5 C :   -0.217926
   6 H :   -0.286790
   7 H :   -0.277660
   8 C :    0.500815
   9 H :   -0.287075
  10 C :    0.385241
  11 H :   -0.333965
  12 C :    0.389638
  13 C :   -0.112280
  14 C :    0.329153
  15 H :   -0.357724
  16 H :   -0.321533
  17 H :   -0.263011
  18 H :   -0.315535
  19 C :    0.176811
  20 H :   -0.302705
  21 H :   -0.310053
  22 C :   -1.057607
  23 C :    0.596592
  24 H :   -0.312453
  25 H :   -0.313838
  26 H :   -0.310254
  27 O :    0.868824
  28 O :    0.916556
  29 O :    0.921081
  30 O :    0.826470
  31 O :    1.304941
  32 H :   -1.026991
  33 C :    0.581898
  34 H :   -0.317057
  35 H :   -0.298234
  36 H :   -0.311461
  37 C :    0.582072
  38 H :   -0.301249
  39 H :   -0.314102
  40 H :   -0.319214
  41 C :    0.886989
  42 H :   -0.251225
  43 H :   -0.340385
  44 H :   -0.279992
  45 H :   -0.305014
  46 H :   -0.297649

  Mayer bond orders larger than 0.100000
B(  0-C ,  1-C ) :   0.8417 B(  0-C ,  3-C ) :   0.6136 B(  0-C ,  4-H ) :   1.2281
B(  0-C ,  5-C ) :   0.1161 B(  0-C , 10-C ) :  -0.3460 B(  0-C , 28-O ) :  -1.0816
B(  0-C , 33-C ) :  -0.6790 B(  0-C , 35-H ) :  -0.1139 B(  0-C , 36-H ) :  -0.1795
B(  1-C ,  2-C ) :   0.4983 B(  1-C ,  3-C ) :   0.1194 B(  1-C ,  4-H ) :  -0.1246
B(  1-C , 10-C ) :   1.0096 B(  1-C , 11-H ) :   0.8772 B(  1-C , 12-C ) :  -0.5273
B(  1-C , 15-H ) :  -0.1003 B(  1-C , 28-O ) :   0.6163 B(  1-C , 33-C ) :   0.1055
B(  2-C ,  8-C ) :   0.8172 B(  2-C , 10-C ) :  -0.1130 B(  2-C , 11-H ) :   0.1381
B(  2-C , 13-C ) :  -0.5737 B(  2-C , 14-C ) :   0.1106 B(  2-C , 16-H ) :   1.0750
B(  2-C , 17-H ) :  -0.1578 B(  2-C , 22-C ) :  -0.3301 B(  2-C , 27-O ) :   0.1242
B(  2-C , 29-O ) :   0.1803 B(  2-C , 41-C ) :  -0.3446 B(  3-C ,  5-C ) :   0.8941
B(  3-C ,  6-H ) :   0.9983 B(  3-C ,  7-H ) :   1.0237 B(  3-C , 28-O ) :   0.4466
B(  3-C , 29-O ) :   0.2986 B(  5-C ,  8-C ) :   1.1398 B(  5-C ,  9-H ) :   0.9748
B(  5-C , 29-O ) :  -0.6987 B(  5-C , 37-C ) :  -0.5487 B(  5-C , 39-H ) :  -0.1585
B(  7-H , 29-O ) :   0.1023 B(  8-C , 17-H ) :   1.0438 B(  8-C , 18-H ) :   0.9617
B(  8-C , 27-O ) :  -0.1732 B(  8-C , 29-O ) :   0.3631 B( 10-C , 12-C ) :   0.8633
B( 10-C , 13-C ) :   0.1339 B( 10-C , 14-C ) :  -0.2077 B( 10-C , 45-H ) :  -0.2825
B( 10-C , 46-H ) :   1.2564 B( 11-H , 33-C ) :   0.1250 B( 12-C , 14-C ) :   0.9081
B( 12-C , 45-H ) :   1.4529 B( 12-C , 46-H ) :  -0.2782 B( 13-C , 14-C ) :   0.1579
B( 13-C , 16-H ) :  -0.1310 B( 13-C , 22-C ) :   1.4824 B( 13-C , 27-O ) :  -0.3097
B( 13-C , 30-O ) :   0.5967 B( 13-C , 31-O ) :   0.1041 B( 13-C , 41-C ) :   0.3305
B( 13-C , 42-H ) :  -0.2727 B( 13-C , 43-H ) :  -0.1754 B( 13-C , 44-H ) :  -0.2552
B( 14-C , 15-H ) :   1.2323 B( 14-C , 19-C ) :   0.2862 B( 14-C , 20-H ) :  -0.2004
B( 14-C , 21-H ) :  -0.2637 B( 14-C , 31-O ) :  -0.3860 B( 15-H , 31-O ) :   0.2715
B( 18-H , 27-O ) :   0.1548 B( 19-C , 20-H ) :   1.0592 B( 19-C , 21-H ) :   1.2367
B( 19-C , 31-O ) :   0.5732 B( 21-H , 31-O ) :   0.1026 B( 22-C , 23-C ) :  -0.1999
B( 22-C , 27-O ) :   0.9490 B( 22-C , 30-O ) :  -0.3975 B( 22-C , 31-O ) :  -0.1317
B( 22-C , 41-C ) :   0.1857 B( 23-C , 24-H ) :   0.8695 B( 23-C , 25-H ) :   0.9030
B( 23-C , 26-H ) :   0.9617 B( 23-C , 27-O ) :   0.9480 B( 27-O , 30-O ) :   0.3227
B( 28-O , 33-C ) :   1.2047 B( 29-O , 37-C ) :   1.1390 B( 30-O , 32-H ) :   0.1415
B( 31-O , 32-H ) :   0.6847 B( 33-C , 34-H ) :   0.8795 B( 33-C , 35-H ) :   0.9691
B( 33-C , 36-H ) :   0.9602 B( 37-C , 38-H ) :   0.9281 B( 37-C , 39-H ) :   0.9327
B( 37-C , 40-H ) :   0.9210 B( 41-C , 42-H ) :   1.1664 B( 41-C , 43-H ) :   1.1212
B( 41-C , 44-H ) :   1.1898

MP2 TOTAL ENERGY:     -999.816299081 Eh
FINAL SINGLE POINT ENERGY      -999.816299080823

DIPOLE MOMENT
-------------
                                X             Y             Z
Electronic contribution:      7.35509      -2.08765      -1.96769
Nuclear contribution   :     -8.79182       2.12695       1.87310
                        -----------------------------------------
Total Dipole Moment    :     -1.43672       0.03930      -0.09458
                        -----------------------------------------
Magnitude (a.u.)       :      1.44037
Magnitude (Debye)      :      3.66113

Rotational constants in cm-1:     0.014102     0.007481     0.005723
Rotational constants in MHz :   422.781932   224.268374   171.583975

                             ****ORCA TERMINATED NORMALLY****
TOTAL RUN TIME: 0 days 13 hours 28 minutes 40 seconds 147 msec
