                         Program Version 4.2.1 -  RELEASE  -
|  1> %pal
|  2>  nprocs 32
|  3> end
|  4> !RI-MP2 aug-cc-pVQZ aug-cc-pVQZ/C TightSCF
|  5> %maxcore 4500
|  6> *xyzfile 0 1  08_3P1.xyz
|  7>
|  8>
|  9>                          ****END OF INPUT****

CARTESIAN COORDINATES (ANGSTROEM)
---------------------------------
  C     -0.000002    0.530601   -0.000010
  O     -1.161577   -0.247387    0.095194
  O      1.161563   -0.247401   -0.095195
  H      1.246720   -0.770069    0.708473
  H     -0.001612    1.157495   -0.894718
  H      0.001610    1.157513    0.894685
  H     -1.246600   -0.770237   -0.708370

 Total Charge           Charge          ....    0
 Multiplicity           Mult            ....    1
 Number of Electrons    NEL             ....   26
 Basis Dimension        Dim             ....  424

ORBITAL ENERGIES
----------------

  NO   OCC          E(Eh)            E(eV)
   0   2.0000     -20.568105      -559.6866
   1   2.0000     -20.568083      -559.6860
   2   2.0000     -11.333074      -308.3886
   3   2.0000      -1.414215       -38.4827
   4   2.0000      -1.338607       -36.4254
   5   2.0000      -0.916120       -24.9289
   6   2.0000      -0.753768       -20.5111
   7   2.0000      -0.661496       -18.0002
   8   2.0000      -0.646141       -17.5824
   9   2.0000      -0.617046       -16.7907
  10   2.0000      -0.502975       -13.6866
  11   2.0000      -0.500099       -13.6084
  12   2.0000      -0.468621       -12.7518
  13   0.0000       0.026638         0.7249
  14   0.0000       0.036218         0.9855
  15   0.0000       0.039182         1.0662
  16   0.0000       0.050280         1.3682
  17   0.0000       0.081781         2.2254

MULLIKEN ATOMIC CHARGES
-----------------------
   0 C :    0.315376
   1 O :   -0.754046
   2 O :   -0.754043
   3 H :    0.351178
   4 H :    0.245181
   5 H :    0.245186
   6 H :    0.351169
Sum of atomic charges:    0.0000000

LOEWDIN ATOMIC CHARGES
----------------------
   0 C :   -0.183767
   1 O :    1.242883
   2 O :    1.242885
   3 H :   -0.801742
   4 H :   -0.349252
   5 H :   -0.349254
   6 H :   -0.801753

  Mayer bond orders larger than 0.100000
B(  0-C ,  1-O ) :   0.7970 B(  0-C ,  2-O ) :   0.7970 B(  0-C ,  4-H ) :   0.9099
B(  0-C ,  5-H ) :   0.9099 B(  1-O ,  6-H ) :   0.8746 B(  2-O ,  3-H ) :   0.8746

MP2 TOTAL ENERGY:     -190.723254909 Eh
FINAL SINGLE POINT ENERGY      -190.723254908879

DIPOLE MOMENT
-------------
                                X             Y             Z
Electronic contribution:     -0.00002      -0.79905      -0.00000
Nuclear contribution   :      0.00012       0.77950       0.00007
                        -----------------------------------------
Total Dipole Moment    :      0.00010      -0.01955       0.00007
                        -----------------------------------------
Magnitude (a.u.)       :      0.01955
Magnitude (Debye)      :      0.04970

Rotational constants in cm-1:     1.396733     0.342483     0.303185
Rotational constants in MHz : 41873.013360 10267.383305  9089.253709

                             ****ORCA TERMINATED NORMALLY****
TOTAL RUN TIME: 0 days 0 hours 1 minutes 13 seconds 556 msec
