                         Program Version 4.2.1 -  RELEASE  -
|  1> %pal
|  2>  nprocs 32
|  3> end
|  4> !RI-MP2 aug-cc-pVQZ aug-cc-pVQZ/C TightSCF
|  5> %maxcore 4500
|  6> *xyzfile 0 1  10_44P.xyz
|  7>
|  8>
|  9>                          ****END OF INPUT****

CARTESIAN COORDINATES (ANGSTROEM)
---------------------------------
  C      0.321519   -2.549670    0.399329
  H      0.265980   -3.481021   -0.173753
  H      0.428913   -2.849216    1.463297
  C     -0.963722   -1.797296    0.240716
  C      0.284683    0.286311   -0.170231
  H      0.506455    0.474981   -1.225572
  H      0.178544    1.260968    0.304854
  C      1.467662   -0.446564    0.459517
  H      1.304076   -0.471247    1.555566
  N      1.477868   -1.807378   -0.059271
  C     -2.302916    0.209790   -0.163228
  C     -2.242955   -2.562230    0.450574
  C     -3.399141   -0.537206   -0.363708
  C     -3.348690   -2.039869   -0.459323
  C     -0.998406   -0.488634   -0.029731
  C     -4.696088   -2.685401   -0.156135
  H     -4.647096   -3.771087   -0.267639
  H     -5.008811   -2.466012    0.868490
  H     -5.472153   -2.314054   -0.829705
  C      2.777110    0.278834    0.214741
  C      2.716633   -2.512301    0.201136
  H      2.593151   -3.551463   -0.111984
  H      2.956642   -2.523161    1.280585
  C      3.840346   -1.857021   -0.577963
  H      3.668977   -2.019111   -1.646484
  C      3.898023   -0.380690   -0.288277
  H      4.797772   -2.320979   -0.327159
  C      5.076113    0.334099   -0.497733
  H      5.943827   -0.187671   -0.887714
  C      2.875073    1.635794    0.523906
  H      2.020006    2.153822    0.941939
  C      5.157744    1.684587   -0.208256
  H      6.082459    2.223220   -0.376714
  C      4.048916    2.338314    0.314256
  H      4.100271    3.392022    0.560526
  Si    -2.493790    2.082456   -0.033313
  C     -1.909997    2.673609    1.655770
  H     -0.855337    2.460077    1.840245
  H     -2.049749    3.753559    1.754705
  H     -2.485525    2.189273    2.448500
  C     -1.546977    2.977583   -1.389834
  H     -0.466074    2.858686   -1.303920
  H     -1.843632    2.608370   -2.374736
  H     -1.766602    4.048439   -1.357689
  C     -4.309762    2.530885   -0.207636
  H     -4.924533    2.064007    0.565029
  H     -4.428395    3.613597   -0.112820
  H     -4.711529    2.242120   -1.181577
  H     -3.072708   -2.286339   -1.496427
  H     -2.559721   -2.459285    1.499196
  H     -2.086224   -3.630498    0.276495
  H     -4.372010   -0.072280   -0.491591

 Total Charge           Charge          ....    0
 Multiplicity           Mult            ....    1
 Number of Electrons    NEL             ....  176
 Basis Dimension        Dim             .... 3178

ORBITAL ENERGIES
----------------

  NO   OCC          E(Eh)            E(eV)
   0   2.0000     -68.743864     -1870.6157
   1   2.0000     -15.542343      -422.9286
   2   2.0000     -11.257143      -306.3224
   3   2.0000     -11.250063      -306.1298
   4   2.0000     -11.246848      -306.0423
   5   2.0000     -11.232575      -305.6539
   6   2.0000     -11.231352      -305.6206
   7   2.0000     -11.227339      -305.5114
   8   2.0000     -11.226813      -305.4971
   9   2.0000     -11.226136      -305.4787
  10   2.0000     -11.225071      -305.4497
  11   2.0000     -11.224773      -305.4416
  12   2.0000     -11.224231      -305.4269
  13   2.0000     -11.221673      -305.3572
  14   2.0000     -11.220912      -305.3365
  15   2.0000     -11.220311      -305.3202
  16   2.0000     -11.218930      -305.2826
  17   2.0000     -11.217509      -305.2439
  18   2.0000     -11.213939      -305.1468
  19   2.0000     -11.204342      -304.8857
  20   2.0000     -11.191635      -304.5399
  21   2.0000     -11.191091      -304.5251
  22   2.0000     -11.189160      -304.4725
  23   2.0000      -6.092553      -165.7868
  24   2.0000      -4.199155      -114.2648
  25   2.0000      -4.199002      -114.2607
  26   2.0000      -4.198907      -114.2581
  27   2.0000      -1.251805       -34.0633
  28   2.0000      -1.155475       -31.4421
  29   2.0000      -1.139469       -31.0065
  30   2.0000      -1.077558       -29.3218
  31   2.0000      -1.056371       -28.7453
  32   2.0000      -1.040603       -28.3163
  33   2.0000      -1.016569       -27.6622
  34   2.0000      -0.993139       -27.0247
  35   2.0000      -0.970773       -26.4161
  36   2.0000      -0.958386       -26.0790
  37   2.0000      -0.928387       -25.2627
  38   2.0000      -0.919207       -25.0129
  39   2.0000      -0.917779       -24.9740
  40   2.0000      -0.877733       -23.8843
  41   2.0000      -0.858926       -23.3726
  42   2.0000      -0.840086       -22.8599
  43   2.0000      -0.814630       -22.1672
  44   2.0000      -0.808671       -22.0051
  45   2.0000      -0.762395       -20.7458
  46   2.0000      -0.741228       -20.1698
  47   2.0000      -0.693503       -18.8712
  48   2.0000      -0.676314       -18.4035
  49   2.0000      -0.667869       -18.1736
  50   2.0000      -0.649102       -17.6630
  51   2.0000      -0.639837       -17.4109
  52   2.0000      -0.637622       -17.3506
  53   2.0000      -0.620878       -16.8950
  54   2.0000      -0.617004       -16.7895
  55   2.0000      -0.596217       -16.2239
  56   2.0000      -0.592207       -16.1148
  57   2.0000      -0.588891       -16.0245
  58   2.0000      -0.581310       -15.8182
  59   2.0000      -0.574141       -15.6232
  60   2.0000      -0.564227       -15.3534
  61   2.0000      -0.558950       -15.2098
  62   2.0000      -0.557061       -15.1584
  63   2.0000      -0.553179       -15.0528
  64   2.0000      -0.542654       -14.7664
  65   2.0000      -0.538196       -14.6451
  66   2.0000      -0.533472       -14.5165
  67   2.0000      -0.533234       -14.5100
  68   2.0000      -0.528793       -14.3892
  69   2.0000      -0.525293       -14.2940
  70   2.0000      -0.524001       -14.2588
  71   2.0000      -0.518932       -14.1209
  72   2.0000      -0.508476       -13.8363
  73   2.0000      -0.499974       -13.6050
  74   2.0000      -0.495644       -13.4872
  75   2.0000      -0.484701       -13.1894
  76   2.0000      -0.478030       -13.0079
  77   2.0000      -0.472881       -12.8677
  78   2.0000      -0.454531       -12.3684
  79   2.0000      -0.434171       -11.8144
  80   2.0000      -0.431474       -11.7410
  81   2.0000      -0.423298       -11.5185
  82   2.0000      -0.407200       -11.0805
  83   2.0000      -0.390860       -10.6358
  84   2.0000      -0.358398        -9.7525
  85   2.0000      -0.326760        -8.8916
  86   2.0000      -0.319659        -8.6984
  87   2.0000      -0.291928        -7.9438
  88   0.0000       0.019938         0.5425
  89   0.0000       0.023979         0.6525
  90   0.0000       0.024263         0.6602
  91   0.0000       0.028459         0.7744
  92   0.0000       0.031327         0.8525

MULLIKEN ATOMIC CHARGES
-----------------------
   0 C :   -0.422045
   1 H :    0.173790
   2 H :    0.187511
   3 C :   -0.374032
   4 C :   -0.467181
   5 H :    0.262275
   6 H :    0.077168
   7 C :    1.948991
   8 H :    0.294861
   9 N :   -0.276588
  10 C :   -1.682201
  11 C :   -0.648491
  12 C :   -0.721229
  13 C :    0.256456
  14 C :    1.912785
  15 C :   -1.125911
  16 H :    0.221625
  17 H :    0.179484
  18 H :    0.238817
  19 C :    0.581711
  20 C :   -0.864109
  21 H :    0.222928
  22 H :    0.250700
  23 C :   -0.719291
  24 H :    0.199376
  25 C :    0.169763
  26 H :    0.188213
  27 C :   -0.670698
  28 H :    0.243953
  29 C :   -0.977915
  30 H :    0.191053
  31 C :   -0.416801
  32 H :    0.264130
  33 C :   -0.600115
  34 H :    0.188902
  35 Si:    2.002689
  36 C :   -1.407017
  37 H :    0.365082
  38 H :    0.284526
  39 H :    0.244984
  40 C :   -1.391997
  41 H :    0.296959
  42 H :    0.268175
  43 H :    0.266469
  44 C :   -0.892889
  45 H :    0.256774
  46 H :    0.276854
  47 H :    0.249275
  48 H :    0.283949
  49 H :    0.221539
  50 H :    0.200378
  51 H :    0.186365
Sum of atomic charges:    0.0000000

LOEWDIN ATOMIC CHARGES
----------------------
   0 C :    0.351357
   1 H :   -0.282930
   2 H :   -0.240959
   3 C :    0.020179
   4 C :    0.487301
   5 H :   -0.236492
   6 H :   -0.378887
   7 C :   -0.044338
   8 H :   -0.248596
   9 N :    0.536521
  10 C :    0.083968
  11 C :    0.504547
  12 C :    0.337672
  13 C :    0.094640
  14 C :   -0.026507
  15 C :    0.930408
  16 H :   -0.270778
  17 H :   -0.272347
  18 H :   -0.274731
  19 C :   -0.019976
  20 C :    0.352846
  21 H :   -0.275175
  22 H :   -0.238855
  23 C :    0.524655
  24 H :   -0.255877
  25 C :   -0.036774
  26 H :   -0.273919
  27 C :    0.357682
  28 H :   -0.312727
  29 C :    0.361600
  30 H :   -0.321926
  31 C :    0.349590
  32 H :   -0.320605
  33 C :    0.358492
  34 H :   -0.319122
  35 Si:    0.147357
  36 C :    1.007392
  37 H :   -0.347597
  38 H :   -0.330379
  39 H :   -0.328526
  40 C :    1.003902
  41 H :   -0.355235
  42 H :   -0.327016
  43 H :   -0.332007
  44 C :    0.982035
  45 H :   -0.331092
  46 H :   -0.331807
  47 H :   -0.330392
  48 H :   -0.257536
  49 H :   -0.249378
  50 H :   -0.268493
  51 H :   -0.351165

  Mayer bond orders larger than 0.100000
B(  0-C ,  1-H ) :   1.2247 B(  0-C ,  2-H ) :   1.0681 B(  0-C ,  3-C ) :   0.4962
B(  0-C ,  9-N ) :   0.9604 B(  0-C , 14-C ) :  -0.4042 B(  1-H ,  3-C ) :  -0.2525
B(  2-H ,  3-C ) :  -0.1136 B(  2-H ,  9-N ) :  -0.1257 B(  3-C ,  7-C ) :   0.1159
B(  3-C ,  9-N ) :   0.2242 B(  3-C , 10-C ) :  -0.5213 B(  3-C , 11-C ) :   0.6677
B(  3-C , 12-C ) :   0.3539 B(  3-C , 13-C ) :  -0.1809 B(  3-C , 14-C ) :   1.1459
B(  3-C , 50-H ) :  -0.2006 B(  4-C ,  5-H ) :   0.7952 B(  4-C ,  6-H ) :   0.9873
B(  4-C ,  7-C ) :   1.0859 B(  4-C ,  8-H ) :   0.1421 B(  4-C , 12-C ) :  -0.1342
B(  4-C , 19-C ) :   0.1847 B(  4-C , 25-C ) :  -0.1772 B(  4-C , 29-C ) :   0.2058
B(  5-H , 14-C ) :   0.1536 B(  6-H , 10-C ) :   0.2747 B(  6-H , 14-C ) :   0.1954
B(  6-H , 19-C ) :  -0.2012 B(  6-H , 29-C ) :  -0.1953 B(  7-C ,  8-H ) :   0.8953
B(  7-C ,  9-N ) :   0.2340 B(  7-C , 10-C ) :  -0.1353 B(  7-C , 14-C ) :  -0.4465
B(  7-C , 19-C ) :  -0.5346 B(  7-C , 20-C ) :  -0.2528 B(  7-C , 25-C ) :  -0.3472
B(  7-C , 29-C ) :  -0.9005 B(  8-H , 14-C ) :  -0.1548 B(  9-N , 20-C ) :   0.6689
B(  9-N , 22-H ) :  -0.1348 B( 10-C , 12-C ) :   2.0213 B( 10-C , 13-C ) :  -0.3511
B( 10-C , 14-C ) :  -0.9057 B( 10-C , 35-Si) :   0.7466 B( 10-C , 36-C ) :   0.2044
B( 10-C , 40-C ) :   0.1748 B( 10-C , 44-C ) :   0.3350 B( 11-C , 13-C ) :   0.8646
B( 11-C , 14-C ) :  -0.3432 B( 11-C , 49-H ) :   0.8845 B( 11-C , 50-H ) :   1.1067
B( 12-C , 13-C ) :   0.4135 B( 12-C , 14-C ) :  -0.9776 B( 12-C , 15-C ) :  -0.2560
B( 12-C , 44-C ) :  -0.2919 B( 12-C , 51-H ) :   1.1519 B( 13-C , 15-C ) :   0.7066
B( 13-C , 17-H ) :  -0.1494 B( 13-C , 18-H ) :  -0.1259 B( 13-C , 48-H ) :   0.8578
B( 14-C , 35-Si) :  -0.2944 B( 14-C , 44-C ) :  -0.1011 B( 14-C , 49-H ) :   0.1114
B( 15-C , 16-H ) :   1.0972 B( 15-C , 17-H ) :   1.0860 B( 15-C , 18-H ) :   1.0863
B( 19-C , 20-C ) :   0.1839 B( 19-C , 23-C ) :  -0.1866 B( 19-C , 25-C ) :   1.0181
B( 19-C , 27-C ) :  -0.6079 B( 19-C , 29-C ) :   1.1126 B( 19-C , 33-C ) :  -0.4102
B( 20-C , 21-H ) :   1.0396 B( 20-C , 22-H ) :   1.0059 B( 20-C , 23-C ) :   1.1733
B( 23-C , 24-H ) :   1.0612 B( 23-C , 25-C ) :   0.4025 B( 23-C , 26-H ) :   1.1533
B( 25-C , 26-H ) :  -0.1786 B( 25-C , 27-C ) :   1.1073 B( 25-C , 28-H ) :  -0.1109
B( 25-C , 31-C ) :  -0.2473 B( 27-C , 28-H ) :   1.0430 B( 27-C , 29-C ) :   0.1257
B( 27-C , 31-C ) :   1.2833 B( 27-C , 32-H ) :  -0.2037 B( 27-C , 33-C ) :   0.1968
B( 29-C , 30-H ) :   1.1677 B( 29-C , 33-C ) :   1.1726 B( 29-C , 34-H ) :  -0.1766
B( 31-C , 32-H ) :   1.1553 B( 31-C , 33-C ) :   1.2727 B( 32-H , 33-C ) :  -0.1523
B( 33-C , 34-H ) :   1.2078 B( 35-Si, 36-C ) :   0.2533 B( 35-Si, 40-C ) :   0.2236
B( 35-Si, 44-C ) :   1.0612 B( 35-Si, 46-H ) :  -0.1364 B( 35-Si, 47-H ) :  -0.1415
B( 36-C , 37-H ) :   0.9298 B( 36-C , 38-H ) :   1.0233 B( 36-C , 39-H ) :   1.0240
B( 40-C , 41-H ) :   0.9511 B( 40-C , 42-H ) :   0.9804 B( 40-C , 43-H ) :   1.0500
B( 44-C , 45-H ) :   0.9823 B( 44-C , 46-H ) :   1.0174 B( 44-C , 47-H ) :   1.0209

MP2 TOTAL ENERGY:    -1159.933264695 Eh
FINAL SINGLE POINT ENERGY     -1159.933264695478

DIPOLE MOMENT
-------------
                                X             Y             Z
Electronic contribution:     15.97316      -1.23318      -1.07096
Nuclear contribution   :    -16.08281       0.82002       1.22143
                        -----------------------------------------
Total Dipole Moment    :     -0.10965      -0.41317       0.15047
                        -----------------------------------------
Magnitude (a.u.)       :      0.45318
Magnitude (Debye)      :      1.15189

Rotational constants in cm-1:     0.012387     0.005341     0.003953
Rotational constants in MHz :   371.338711   160.111176   118.497478

                             ****ORCA TERMINATED NORMALLY****
TOTAL RUN TIME: 0 days 17 hours 9 minutes 49 seconds 250 msec
