                         Program Version 4.2.1 -  RELEASE  -
|  1> %pal
|  2>  nprocs 32
|  3> end
|  4> !RI-MP2 aug-cc-pVQZ aug-cc-pVQZ/C TightSCF
|  5> %maxcore 4500
|  6> *xyzfile 0 2  01_27P.xyz
|  7>
|  8>
|  9>                          ****END OF INPUT****

CARTESIAN COORDINATES (ANGSTROEM)
---------------------------------
  C      0.041261   -0.194698    0.578741
  C     -0.133108    1.272496    0.978692
  C     -1.059886    1.884148   -0.080339
  H      0.811322    1.806531    1.089211
  H     -0.618008    1.288399    1.960790
  C     -1.896109    0.704195   -0.625885
  H     -0.473406    2.331289   -0.883640
  H     -1.681344    2.674406    0.343293
  C     -1.407952   -0.553383    0.118568
  H     -1.735045    0.584453   -1.698350
  H     -2.967509    0.846401   -0.476927
  C     -1.564762   -1.822846   -0.629641
  S      1.120252   -0.381627   -0.912289
  C      0.534313   -1.081715    1.710406
  H      1.533227   -0.791628    2.041902
  H      0.573600   -2.126102    1.398825
  H     -0.135387   -0.998631    2.571822
  C      2.644614    0.445526   -0.391838
  H      2.511795    1.521218   -0.282377
  H      3.370162    0.267609   -1.185001
  H      3.038919    0.023929    0.532336
  H     -1.553913   -2.776240   -0.117458
  H     -1.584217   -1.829007   -1.711858
  H     -1.964458   -0.638937    1.061827

 Total Charge           Charge          ....    0
 Multiplicity           Mult            ....    2
 Number of Electrons    NEL             ....   79
 Basis Dimension        Dim             .... 1414

ORBITAL ENERGIES
----------------
                 SPIN UP ORBITALS
  NO   OCC          E(Eh)            E(eV)
   0   1.0000     -91.930855     -2501.5657
   1   1.0000     -11.261387      -306.4379
   2   1.0000     -11.244682      -305.9834
   3   1.0000     -11.228694      -305.5483
   4   1.0000     -11.225131      -305.4514
   5   1.0000     -11.219278      -305.2921
   6   1.0000     -11.215528      -305.1900
   7   1.0000     -11.213329      -305.1302
   8   1.0000     -11.212590      -305.1101
   9   1.0000      -8.933201      -243.0848
  10   1.0000      -6.614698      -179.9951
  11   1.0000      -6.613729      -179.9687
  12   1.0000      -6.613007      -179.9491
  13   1.0000      -1.151715       -31.3398
  14   1.0000      -1.039998       -28.2998
  15   1.0000      -1.017768       -27.6949
  16   1.0000      -0.993928       -27.0461
  17   1.0000      -0.913346       -24.8534
  18   1.0000      -0.881215       -23.9791
  19   1.0000      -0.846383       -23.0312
  20   1.0000      -0.773357       -21.0441
  21   1.0000      -0.710850       -19.3432
  22   1.0000      -0.648696       -17.6519
  23   1.0000      -0.634732       -17.2719
  24   1.0000      -0.605990       -16.4898
  25   1.0000      -0.601849       -16.3771
  26   1.0000      -0.587282       -15.9808
  27   1.0000      -0.580660       -15.8006
  28   1.0000      -0.557768       -15.1776
  29   1.0000      -0.544490       -14.8163
  30   1.0000      -0.524811       -14.2808
  31   1.0000      -0.499212       -13.5843
  32   1.0000      -0.480235       -13.0679
  33   1.0000      -0.473302       -12.8792
  34   1.0000      -0.471561       -12.8318
  35   1.0000      -0.455866       -12.4048
  36   1.0000      -0.451215       -12.2782
  37   1.0000      -0.406986       -11.0746
  38   1.0000      -0.347073        -9.4443
  39   1.0000      -0.328075        -8.9274
  40   0.0000       0.025299         0.6884
  41   0.0000       0.029309         0.7975
  42   0.0000       0.030451         0.8286
  43   0.0000       0.032661         0.8888
  44   0.0000       0.043748         1.1904

                 SPIN DOWN ORBITALS
  NO   OCC          E(Eh)            E(eV)
   0   1.0000     -91.930829     -2501.5650
   1   1.0000     -11.258565      -306.3611
   2   1.0000     -11.244662      -305.9828
   3   1.0000     -11.232117      -305.6414
   4   1.0000     -11.219379      -305.2948
   5   1.0000     -11.215683      -305.1943
   6   1.0000     -11.213292      -305.1292
   7   1.0000     -11.212138      -305.0978
   8   1.0000     -11.201689      -304.8135
   9   1.0000      -8.933147      -243.0833
  10   1.0000      -6.614758      -179.9967
  11   1.0000      -6.613744      -179.9691
  12   1.0000      -6.612894      -179.9460
  13   1.0000      -1.146514       -31.1982
  14   1.0000      -1.037807       -28.2402
  15   1.0000      -0.997364       -27.1396
  16   1.0000      -0.989290       -26.9200
  17   1.0000      -0.904071       -24.6010
  18   1.0000      -0.861220       -23.4350
  19   1.0000      -0.825104       -22.4522
  20   1.0000      -0.765808       -20.8387
  21   1.0000      -0.703876       -19.1535
  22   1.0000      -0.645520       -17.5655
  23   1.0000      -0.632039       -17.1987
  24   1.0000      -0.601134       -16.3577
  25   1.0000      -0.597954       -16.2712
  26   1.0000      -0.582486       -15.8503
  27   1.0000      -0.577427       -15.7126
  28   1.0000      -0.556679       -15.1480
  29   1.0000      -0.539678       -14.6854
  30   1.0000      -0.521486       -14.1904
  31   1.0000      -0.490641       -13.3510
  32   1.0000      -0.478850       -13.0302
  33   1.0000      -0.471348       -12.8260
  34   1.0000      -0.467586       -12.7237
  35   1.0000      -0.451331       -12.2814
  36   1.0000      -0.438742       -11.9388
  37   1.0000      -0.404565       -11.0088
  38   1.0000      -0.331513        -9.0209
  39   0.0000       0.025308         0.6887
  40   0.0000       0.029349         0.7986
  41   0.0000       0.030518         0.8304
  42   0.0000       0.032737         0.8908
  43   0.0000       0.043831         1.1927

MULLIKEN ATOMIC CHARGES AND SPIN POPULATIONS
--------------------------------------------
   0 C :    1.143415    0.097186
   1 C :   -0.769242    0.001129
   2 C :   -0.582115   -0.003887
   3 H :    0.369462    0.003925
   4 H :    0.242375   -0.000619
   5 C :   -0.446973    0.019503
   6 H :    0.124032   -0.000314
   7 H :    0.285056    0.000173
   8 C :   -0.040324   -0.261071
   9 H :    0.173188    0.002150
  10 H :    0.284478   -0.001105
  11 C :   -0.963862    1.300371
  12 S :   -0.174163   -0.003634
  13 C :   -1.156113   -0.015475
  14 H :    0.263925   -0.000534
  15 H :    0.231726   -0.004236
  16 H :    0.258387   -0.000924
  17 C :   -1.079460    0.000301
  18 H :    0.331975    0.001246
  19 H :    0.407256   -0.000081
  20 H :    0.294874   -0.000203
  21 H :    0.287368   -0.085654
  22 H :    0.266610   -0.080512
  23 H :    0.248125    0.032266
Sum of atomic charges         :    0.0000000

LOEWDIN ATOMIC CHARGES AND SPIN POPULATIONS
-------------------------------------------
   0 C :   -0.600464    0.037073
   1 C :    0.452686    0.006395
   2 C :    0.544788    0.001329
   3 H :   -0.292008    0.001527
   4 H :   -0.264233    0.000329
   5 C :    0.514111    0.012752
   6 H :   -0.272916    0.000129
   7 H :   -0.255879    0.000042
   8 C :   -0.028567    0.132513
   9 H :   -0.289115    0.001696
  10 H :   -0.250912    0.002742
  11 C :    0.831184    0.454454
  12 S :    1.396400    0.018962
  13 C :    0.853307    0.006419
  14 H :   -0.296450    0.000452
  15 H :   -0.289084    0.003110
  16 H :   -0.273609    0.000376
  17 C :    0.582397    0.002118
  18 H :   -0.367918    0.000630
  19 H :   -0.383822    0.000291
  20 H :   -0.365991    0.000248
  21 H :   -0.315671    0.148827
  22 H :   -0.327548    0.150153
  23 H :   -0.300684    0.017431

  Mayer bond orders larger than 0.100000
B(  0-C ,  1-C ) :   0.6592 B(  0-C ,  2-C ) :  -0.1255 B(  0-C ,  8-C ) :   0.5941
B(  0-C , 12-S ) :   0.6634 B(  0-C , 13-C ) :   0.2105 B(  0-C , 14-H ) :  -0.1522
B(  0-C , 15-H ) :  -0.2360 B(  0-C , 16-H ) :  -0.1117 B(  1-C ,  2-C ) :   0.9602
B(  1-C ,  3-H ) :   0.8821 B(  1-C ,  4-H ) :   0.9640 B(  2-C ,  5-C ) :   1.0805
B(  2-C ,  6-H ) :   1.0938 B(  2-C ,  7-H ) :   0.9243 B(  5-C ,  8-C ) :   0.7003
B(  5-C ,  9-H ) :   1.0430 B(  5-C , 10-H ) :   0.9328 B(  8-C , 11-C ) :   0.6342
B(  8-C , 12-S ) :   0.1750 B(  8-C , 13-C ) :   0.1183 B(  8-C , 21-H ) :  -0.1230
B(  8-C , 22-H ) :  -0.1051 B(  8-C , 23-H ) :   0.9799 B( 11-C , 21-H ) :   1.0550
B( 11-C , 22-H ) :   1.0153 B( 12-S , 17-C ) :   1.0837 B( 13-C , 14-H ) :   1.0739
B( 13-C , 15-H ) :   1.1361 B( 13-C , 16-H ) :   0.9975 B( 17-C , 18-H ) :   0.8868
B( 17-C , 19-H ) :   0.8476 B( 17-C , 20-H ) :   0.9107

MP2 TOTAL ENERGY:     -710.952641691 Eh
FINAL SINGLE POINT ENERGY      -710.952641691280

DIPOLE MOMENT
-------------
                                X             Y             Z
Electronic contribution:      1.02858      -1.93610      -4.25011
Nuclear contribution   :     -0.94118       2.27362       4.83887
                        -----------------------------------------
Total Dipole Moment    :      0.08740       0.33751       0.58876
                        -----------------------------------------
Magnitude (a.u.)       :      0.68424
Magnitude (Debye)      :      1.73921

Rotational constants in cm-1:     0.058448     0.041216     0.036264
Rotational constants in MHz :  1752.225533  1235.631946  1087.169548

                             ****ORCA TERMINATED NORMALLY****
TOTAL RUN TIME: 0 days 2 hours 4 minutes 52 seconds 783 msec
