                         Program Version 4.2.1 -  RELEASE  -
|  1> %pal
|  2>  nprocs 32
|  3> end
|  4> !RI-MP2 aug-cc-pVQZ aug-cc-pVQZ/C TightSCF
|  5> %maxcore 4500
|  6> *xyzfile 1 1  10_25R.xyz
|  7>
|  8>
|  9>                          ****END OF INPUT****

CARTESIAN COORDINATES (ANGSTROEM)
---------------------------------
  C     -2.514475   -2.357043   -0.926454
  C     -1.132372   -1.699788   -0.830870
  C     -2.063329   -1.100375    1.083247
  C     -3.177787   -1.919867    0.412037
  H     -3.058531   -2.007900   -1.801865
  H     -2.419671   -3.440318   -0.993135
  H     -4.087030   -1.335555    0.273794
  H     -3.423641   -2.770252    1.047681
  C     -0.791806   -1.833301    0.658285
  H      0.132070   -1.331240    0.944920
  H     -0.781812   -2.864152    1.008372
  H     -0.390015   -2.026818   -1.552750
  H     -2.202706   -0.829177    2.125645
  N     -1.913930    0.137153    0.251896
  N     -1.348185   -0.235757   -0.976025
  C      1.089402    1.694614    0.494424
  C      2.126824    0.689321    0.227267
  C      2.522796    0.329801   -1.065229
  C      2.705367    0.023550    1.309120
  C      3.461028   -0.668746   -1.263133
  H      2.115208    0.843981   -1.927825
  C      3.646305   -0.976806    1.111579
  H      2.420384    0.300832    2.318271
  C      4.023722   -1.328439   -0.175654
  H      3.765077   -0.928471   -2.269646
  H      4.089803   -1.476013    1.964059
  H      4.761061   -2.105284   -0.334242
  C     -2.290349    1.320523    0.551223
  C      0.378843    2.381275   -0.399300
  H     -0.475540    0.277374   -1.086545
  C     -2.132089    2.500422   -0.332217
  C     -0.795134    3.239872   -0.043427
  H     -0.803302    4.160733   -0.629058
  H     -0.754112    3.529204    1.009407
  H     -2.967773    3.177590   -0.147531
  H     -2.166657    2.181915   -1.376227
  H      0.864329    1.846507    1.548816
  H     -2.717584    1.428611    1.543024
  H      0.593572    2.288594   -1.461647

 Total Charge           Charge          ....    1
 Multiplicity           Mult            ....    1
 Number of Electrons    NEL             ....  130
 Basis Dimension        Dim             .... 2406

ORBITAL ENERGIES
----------------

  NO   OCC          E(Eh)            E(eV)
   0   2.0000     -15.840550      -431.0433
   1   2.0000     -15.749071      -428.5540
   2   2.0000     -11.485786      -312.5441
   3   2.0000     -11.434936      -311.1604
   4   2.0000     -11.406627      -310.3901
   5   2.0000     -11.391308      -309.9733
   6   2.0000     -11.373859      -309.4984
   7   2.0000     -11.367504      -309.3255
   8   2.0000     -11.366623      -309.3015
   9   2.0000     -11.361296      -309.1566
  10   2.0000     -11.355935      -309.0107
  11   2.0000     -11.353407      -308.9419
  12   2.0000     -11.352634      -308.9209
  13   2.0000     -11.340829      -308.5997
  14   2.0000     -11.339719      -308.5694
  15   2.0000     -11.336448      -308.4804
  16   2.0000     -11.335014      -308.4414
  17   2.0000     -11.333524      -308.4009
  18   2.0000      -1.547396       -42.1068
  19   2.0000      -1.336364       -36.3643
  20   2.0000      -1.271991       -34.6126
  21   2.0000      -1.266155       -34.4538
  22   2.0000      -1.234573       -33.5944
  23   2.0000      -1.182707       -32.1831
  24   2.0000      -1.132863       -30.8268
  25   2.0000      -1.123149       -30.5624
  26   2.0000      -1.113934       -30.3117
  27   2.0000      -1.091312       -29.6961
  28   2.0000      -1.032876       -28.1060
  29   2.0000      -0.984448       -26.7882
  30   2.0000      -0.974037       -26.5049
  31   2.0000      -0.946208       -25.7476
  32   2.0000      -0.926801       -25.2195
  33   2.0000      -0.909187       -24.7402
  34   2.0000      -0.886245       -24.1159
  35   2.0000      -0.874011       -23.7831
  36   2.0000      -0.835971       -22.7479
  37   2.0000      -0.816936       -22.2299
  38   2.0000      -0.806309       -21.9408
  39   2.0000      -0.790822       -21.5194
  40   2.0000      -0.776572       -21.1316
  41   2.0000      -0.756971       -20.5982
  42   2.0000      -0.755956       -20.5706
  43   2.0000      -0.742922       -20.2159
  44   2.0000      -0.722115       -19.6497
  45   2.0000      -0.713939       -19.4273
  46   2.0000      -0.707589       -19.2545
  47   2.0000      -0.696963       -18.9653
  48   2.0000      -0.691006       -18.8032
  49   2.0000      -0.674943       -18.3661
  50   2.0000      -0.665563       -18.1109
  51   2.0000      -0.660794       -17.9811
  52   2.0000      -0.649266       -17.6674
  53   2.0000      -0.640594       -17.4314
  54   2.0000      -0.629622       -17.1329
  55   2.0000      -0.623772       -16.9737
  56   2.0000      -0.622250       -16.9323
  57   2.0000      -0.613560       -16.6958
  58   2.0000      -0.604855       -16.4590
  59   2.0000      -0.598999       -16.2996
  60   2.0000      -0.594362       -16.1734
  61   2.0000      -0.537658       -14.6304
  62   2.0000      -0.519246       -14.1294
  63   2.0000      -0.444729       -12.1017
  64   2.0000      -0.416723       -11.3396
  65   0.0000      -0.070834        -1.9275
  66   0.0000      -0.064688        -1.7603
  67   0.0000      -0.056867        -1.5474
  68   0.0000      -0.055280        -1.5043
  69   0.0000      -0.046015        -1.2521

MULLIKEN ATOMIC CHARGES
-----------------------
   0 C :   -0.683445
   1 C :    0.284006
   2 C :   -0.112745
   3 C :   -0.732930
   4 H :    0.261392
   5 H :    0.247215
   6 H :    0.282971
   7 H :    0.243688
   8 C :   -1.327353
   9 H :    0.911048
  10 H :    0.163882
  11 H :    0.385122
  12 H :    0.342973
  13 N :    0.192525
  14 N :   -1.008895
  15 C :   -0.214793
  16 C :    0.694822
  17 C :   -0.192194
  18 C :   -0.525662
  19 C :   -0.443305
  20 H :    0.247046
  21 C :   -0.372393
  22 H :    0.273069
  23 C :   -0.287361
  24 H :    0.211376
  25 H :    0.222922
  26 H :    0.385606
  27 C :    0.332366
  28 C :   -0.019253
  29 H :    0.433348
  30 C :   -0.324651
  31 C :   -0.661478
  32 H :    0.309183
  33 H :    0.274599
  34 H :    0.339037
  35 H :    0.290251
  36 H :    0.167291
  37 H :    0.328313
  38 H :    0.082407
Sum of atomic charges:    1.0000000

LOEWDIN ATOMIC CHARGES
----------------------
   0 C :    0.586488
   1 C :    0.035920
   2 C :    0.074621
   3 C :    0.592561
   4 H :   -0.248172
   5 H :   -0.243070
   6 H :   -0.243409
   7 H :   -0.241599
   8 C :    0.573994
   9 H :   -0.261064
  10 H :   -0.225592
  11 H :   -0.220641
  12 H :   -0.226030
  13 N :    0.390517
  14 N :    0.868619
  15 C :    0.374373
  16 C :   -0.100196
  17 C :    0.336175
  18 C :    0.330631
  19 C :    0.365709
  20 H :   -0.328974
  21 C :    0.363564
  22 H :   -0.312393
  23 C :    0.359394
  24 H :   -0.309397
  25 H :   -0.309439
  26 H :   -0.309956
  27 C :    0.342832
  28 C :    0.382454
  29 H :   -0.579553
  30 C :    0.583008
  31 C :    0.547417
  32 H :   -0.257821
  33 H :   -0.278477
  34 H :   -0.257187
  35 H :   -0.278357
  36 H :   -0.324865
  37 H :   -0.244624
  38 H :   -0.307460

  Mayer bond orders larger than 0.100000
B(  0-C ,  1-C ) :   0.5608 B(  0-C ,  2-C ) :  -0.1790 B(  0-C ,  3-C ) :   1.1527
B(  0-C ,  4-H ) :   0.9946 B(  0-C ,  5-H ) :   1.0108 B(  0-C , 14-N ) :   0.1715
B(  1-C ,  3-C ) :  -0.2537 B(  1-C ,  8-C ) :   0.9301 B(  1-C , 11-H ) :   0.8623
B(  1-C , 13-N ) :  -0.1219 B(  1-C , 14-N ) :   0.6991 B(  2-C ,  3-C ) :   0.7415
B(  2-C ,  8-C ) :   1.0303 B(  2-C ,  9-H ) :  -0.1348 B(  2-C , 12-H ) :   0.9636
B(  2-C , 13-N ) :   0.7981 B(  3-C ,  6-H ) :   0.9735 B(  3-C ,  7-H ) :   1.0033
B(  8-C ,  9-H ) :   0.1197 B(  8-C , 10-H ) :   1.2066 B(  9-H , 10-H ) :  -0.1718
B( 11-H , 14-N ) :  -0.1042 B( 13-N , 14-N ) :   0.1929 B( 13-N , 27-C ) :   1.6518
B( 14-N , 29-H ) :   0.7720 B( 15-C , 16-C ) :   0.2236 B( 15-C , 17-C ) :  -0.1727
B( 15-C , 18-C ) :  -0.2762 B( 15-C , 28-C ) :   1.3345 B( 15-C , 31-C ) :  -0.2430
B( 15-C , 36-H ) :   1.1818 B( 16-C , 17-C ) :   1.1383 B( 16-C , 18-C ) :   1.0371
B( 16-C , 19-C ) :  -0.2830 B( 16-C , 21-C ) :  -0.2741 B( 16-C , 22-H ) :  -0.1114
B( 16-C , 23-C ) :   0.1555 B( 16-C , 28-C ) :  -0.3424 B( 16-C , 36-H ) :  -0.2590
B( 17-C , 19-C ) :   1.1639 B( 17-C , 20-H ) :   0.9870 B( 17-C , 23-C ) :  -0.1176
B( 17-C , 24-H ) :  -0.1297 B( 18-C , 19-C ) :   0.1741 B( 18-C , 21-C ) :   1.3419
B( 18-C , 22-H ) :   1.0303 B( 18-C , 25-H ) :  -0.1567 B( 19-C , 23-C ) :   1.2004
B( 19-C , 24-H ) :   1.1787 B( 21-C , 23-C ) :   1.1431 B( 21-C , 25-H ) :   1.1888
B( 23-C , 26-H ) :   0.9767 B( 27-C , 30-C ) :   0.4779 B( 27-C , 31-C ) :  -0.1123
B( 27-C , 34-H ) :  -0.1242 B( 27-C , 37-H ) :   0.9032 B( 28-C , 30-C ) :  -0.1058
B( 28-C , 31-C ) :   0.7474 B( 28-C , 32-H ) :  -0.1966 B( 28-C , 36-H ) :  -0.1220
B( 28-C , 38-H ) :   1.1625 B( 30-C , 31-C ) :   1.1018 B( 30-C , 34-H ) :   0.8921
B( 30-C , 35-H ) :   0.9062 B( 31-C , 32-H ) :   0.9994 B( 31-C , 33-H ) :   1.0025

MP2 TOTAL ENERGY:     -730.260060405 Eh
FINAL SINGLE POINT ENERGY      -730.260060405396

DIPOLE MOMENT
-------------
                                X             Y             Z
Electronic contribution:      5.32695       1.24518       0.42123
Nuclear contribution   :     -7.67162      -1.10132       0.20312
                        -----------------------------------------
Total Dipole Moment    :     -2.34468       0.14385       0.62436
                        -----------------------------------------
Magnitude (a.u.)       :      2.43064
Magnitude (Debye)      :      6.17820

Rotational constants in cm-1:     0.019753     0.011084     0.008348
Rotational constants in MHz :   592.165538   332.289220   250.258276

                             ****ORCA TERMINATED NORMALLY****
TOTAL RUN TIME: 0 days 7 hours 34 minutes 57 seconds 939 msec
