                         Program Version 4.2.1 -  RELEASE  -
|  1> %pal
|  2>  nprocs 32
|  3> end
|  4> !RI-MP2 aug-cc-pVQZ aug-cc-pVQZ/C TightSCF
|  5> %maxcore 4500
|  6> *xyzfile 0 1  02_18P.xyz
|  7>
|  8>
|  9>                          ****END OF INPUT****

CARTESIAN COORDINATES (ANGSTROEM)
---------------------------------
  C     -2.164419    0.068362   -0.608049
  C     -0.959771   -0.855743   -0.342153
  C      0.312092   -0.077183   -0.731084
  C     -2.089255    1.359142    0.185196
  H     -2.115160    0.322521   -1.679256
  C     -0.821511    2.116978   -0.162227
  H     -2.964151    1.972212   -0.034173
  H     -2.092865    1.151162    1.257977
  C      0.407241    1.239529    0.053358
  H     -0.862152    2.424881   -1.219378
  C     -0.834909   -1.444769    1.055628
  C      0.366191   -1.744183    1.548850
  C      1.557329   -0.980912   -0.580170
  C      1.669966   -1.563591    0.835609
  C     -2.070510   -1.778399    1.844875
  H     -1.795620   -2.220337    2.803496
  H     -2.695500   -0.904431    2.024392
  H     -2.698735   -2.491583    1.305941
  H      1.304720    1.781445   -0.249287
  H      0.478067    1.047102    1.125734
  C      2.663977   -0.626046    1.541361
  H      3.374061   -1.151284    2.178228
  H      2.164858    0.146053    2.127331
  C      2.814444   -0.127338   -0.702662
  O     -3.425921   -0.522541   -0.364922
  O     -0.794551    3.277843    0.646177
  O      3.248669    0.375568   -1.696409
  O      3.414253    0.014407    0.497550
  C     -3.807452   -1.504951   -1.296779
  H     -4.847091   -1.755129   -1.089995
  H     -3.728925   -1.127738   -2.324551
  H     -3.205242   -2.417326   -1.212088
  C      0.125885    4.262046    0.233414
  H      1.165043    3.940370    0.360391
  H     -0.032305    4.534369   -0.817904
  H     -0.046158    5.139025    0.855758
  C      1.583380   -2.058857   -1.663086
  H      0.736193   -2.738041   -1.558783
  H      2.496349   -2.653580   -1.594087
  H      1.554691   -1.603409   -2.653668
  H      0.424966   -2.198534    2.534641
  H      0.244037    0.179216   -1.793834
  H     -1.064615   -1.698718   -1.033684
  H      2.149871   -2.544970    0.755156

 Total Charge           Charge          ....    0
 Multiplicity           Mult            ....    1
 Number of Electrons    NEL             ....  152
 Basis Dimension        Dim             .... 2704

ORBITAL ENERGIES
----------------

  NO   OCC          E(Eh)            E(eV)
   0   2.0000     -20.598738      -560.5201
   1   2.0000     -20.559385      -559.4493
   2   2.0000     -20.552341      -559.2576
   3   2.0000     -20.535458      -558.7982
   4   2.0000     -11.369671      -309.3845
   5   2.0000     -11.296495      -307.3933
   6   2.0000     -11.287633      -307.1521
   7   2.0000     -11.280475      -306.9573
   8   2.0000     -11.277536      -306.8774
   9   2.0000     -11.267310      -306.5991
  10   2.0000     -11.258159      -306.3501
  11   2.0000     -11.249882      -306.1249
  12   2.0000     -11.247667      -306.0646
  13   2.0000     -11.245576      -306.0077
  14   2.0000     -11.242275      -305.9178
  15   2.0000     -11.228568      -305.5449
  16   2.0000     -11.228525      -305.5437
  17   2.0000     -11.222723      -305.3858
  18   2.0000     -11.218706      -305.2765
  19   2.0000     -11.217188      -305.2352
  20   2.0000      -1.460499       -39.7422
  21   2.0000      -1.386153       -37.7191
  22   2.0000      -1.376341       -37.4521
  23   2.0000      -1.365730       -37.1634
  24   2.0000      -1.175790       -31.9949
  25   2.0000      -1.106386       -30.1063
  26   2.0000      -1.084894       -29.5215
  27   2.0000      -1.037272       -28.2256
  28   2.0000      -1.012479       -27.5509
  29   2.0000      -0.993952       -27.0468
  30   2.0000      -0.943949       -25.6862
  31   2.0000      -0.940532       -25.5932
  32   2.0000      -0.915631       -24.9156
  33   2.0000      -0.914491       -24.8846
  34   2.0000      -0.858908       -23.3721
  35   2.0000      -0.828516       -22.5451
  36   2.0000      -0.819015       -22.2865
  37   2.0000      -0.793715       -21.5981
  38   2.0000      -0.754383       -20.5278
  39   2.0000      -0.710218       -19.3260
  40   2.0000      -0.703532       -19.1441
  41   2.0000      -0.687703       -18.7134
  42   2.0000      -0.677018       -18.4226
  43   2.0000      -0.671387       -18.2694
  44   2.0000      -0.663147       -18.0451
  45   2.0000      -0.648827       -17.6555
  46   2.0000      -0.641090       -17.4449
  47   2.0000      -0.637806       -17.3556
  48   2.0000      -0.628603       -17.1052
  49   2.0000      -0.617865       -16.8130
  50   2.0000      -0.612840       -16.6762
  51   2.0000      -0.606457       -16.5025
  52   2.0000      -0.594206       -16.1692
  53   2.0000      -0.584201       -15.8969
  54   2.0000      -0.578482       -15.7413
  55   2.0000      -0.576066       -15.6756
  56   2.0000      -0.567024       -15.4295
  57   2.0000      -0.557980       -15.1834
  58   2.0000      -0.543142       -14.7796
  59   2.0000      -0.533791       -14.5252
  60   2.0000      -0.523378       -14.2418
  61   2.0000      -0.517533       -14.0828
  62   2.0000      -0.513162       -13.9639
  63   2.0000      -0.507859       -13.8195
  64   2.0000      -0.502848       -13.6832
  65   2.0000      -0.495469       -13.4824
  66   2.0000      -0.483121       -13.1464
  67   2.0000      -0.473885       -12.8951
  68   2.0000      -0.462186       -12.5767
  69   2.0000      -0.458225       -12.4689
  70   2.0000      -0.454754       -12.3745
  71   2.0000      -0.450358       -12.2549
  72   2.0000      -0.428127       -11.6499
  73   2.0000      -0.418103       -11.3772
  74   2.0000      -0.410472       -11.1695
  75   2.0000      -0.349891        -9.5210
  76   0.0000       0.017430         0.4743
  77   0.0000       0.022416         0.6100
  78   0.0000       0.026533         0.7220
  79   0.0000       0.027574         0.7503
  80   0.0000       0.033993         0.9250

MULLIKEN ATOMIC CHARGES
-----------------------
   0 C :    1.712463
   1 C :    0.609253
   2 C :    0.739267
   3 C :   -0.812210
   4 H :   -0.065096
   5 C :    1.295434
   6 H :    0.187760
   7 H :    0.178911
   8 C :   -0.484094
   9 H :    0.065275
  10 C :   -0.244623
  11 C :   -0.689536
  12 C :    0.541875
  13 C :   -0.312038
  14 C :   -1.024805
  15 H :    0.224649
  16 H :    0.182085
  17 H :    0.174529
  18 H :    0.138121
  19 H :   -0.128098
  20 C :   -0.107917
  21 H :    0.361323
  22 H :    0.270257
  23 C :    1.842184
  24 O :   -1.249796
  25 O :   -1.189261
  26 O :   -1.145278
  27 O :   -1.267463
  28 C :   -0.851224
  29 H :    0.359192
  30 H :    0.252322
  31 H :    0.234487
  32 C :   -0.772788
  33 H :    0.235144
  34 H :    0.235750
  35 H :    0.407120
  36 C :   -1.283378
  37 H :    0.118113
  38 H :    0.135233
  39 H :    0.156898
  40 H :    0.033962
  41 H :    0.211314
  42 H :    0.480355
  43 H :    0.244327
Sum of atomic charges:   -0.0000000

LOEWDIN ATOMIC CHARGES
----------------------
   0 C :   -0.217482
   1 C :    0.149540
   2 C :    0.152150
   3 C :    0.516994
   4 H :   -0.297760
   5 C :   -0.204774
   6 H :   -0.248766
   7 H :   -0.275082
   8 C :    0.541316
   9 H :   -0.278512
  10 C :    0.044205
  11 C :    0.438265
  12 C :   -0.295479
  13 C :    0.106072
  14 C :    0.923911
  15 H :   -0.300705
  16 H :   -0.307767
  17 H :   -0.282687
  18 H :   -0.294240
  19 H :   -0.289459
  20 C :    0.249635
  21 H :   -0.272641
  22 H :   -0.299574
  23 C :   -1.081567
  24 O :    0.925192
  25 O :    0.923703
  26 O :    0.727409
  27 O :    0.906730
  28 C :    0.589396
  29 H :   -0.309725
  30 H :   -0.294756
  31 H :   -0.309135
  32 C :    0.587621
  33 H :   -0.309939
  34 H :   -0.300100
  35 H :   -0.318755
  36 C :    0.943897
  37 H :   -0.268447
  38 H :   -0.255239
  39 H :   -0.260589
  40 H :   -0.299861
  41 H :   -0.258837
  42 H :   -0.311793
  43 H :   -0.282366

  Mayer bond orders larger than 0.100000
B(  0-C ,  1-C ) :   0.9069 B(  0-C ,  3-C ) :   0.3959 B(  0-C ,  4-H ) :   1.3502
B(  0-C ,  6-H ) :  -0.1812 B(  0-C , 10-C ) :  -0.1789 B(  0-C , 24-O ) :  -0.5525
B(  0-C , 28-C ) :  -0.6312 B(  0-C , 31-H ) :  -0.1411 B(  1-C ,  2-C ) :   1.2085
B(  1-C ,  4-H ) :  -0.2024 B(  1-C , 10-C ) :  -0.3791 B(  1-C , 11-C ) :  -0.5146
B(  1-C , 12-C ) :  -0.1494 B(  1-C , 14-C ) :  -0.2717 B(  1-C , 24-O ) :   0.4616
B(  1-C , 28-C ) :   0.1832 B(  1-C , 36-C ) :   0.1640 B(  1-C , 42-H ) :   0.8485
B(  2-C ,  3-C ) :  -0.1207 B(  2-C ,  5-C ) :  -0.1245 B(  2-C ,  8-C ) :   0.3532
B(  2-C , 10-C ) :   0.3202 B(  2-C , 13-C ) :   0.1818 B(  2-C , 18-H ) :  -0.1218
B(  2-C , 19-H ) :  -0.1873 B(  2-C , 23-C ) :  -0.1998 B(  2-C , 26-O ) :   0.2369
B(  2-C , 36-C ) :  -0.1117 B(  2-C , 41-H ) :   0.9032 B(  2-C , 42-H ) :   0.1328
B(  2-C , 43-H ) :   0.1337 B(  3-C ,  5-C ) :   0.9769 B(  3-C ,  6-H ) :   1.1345
B(  3-C ,  7-H ) :   1.1623 B(  3-C , 10-C ) :  -0.1632 B(  3-C , 24-O ) :   0.1432
B(  3-C , 25-O ) :   0.3023 B(  5-C ,  8-C ) :   0.6816 B(  5-C ,  9-H ) :   1.2429
B(  5-C , 25-O ) :  -0.4949 B(  5-C , 32-C ) :  -0.5268 B(  5-C , 33-H ) :  -0.1324
B(  8-C ,  9-H ) :  -0.1150 B(  8-C , 12-C ) :   0.1861 B(  8-C , 13-C ) :  -0.1561
B(  8-C , 18-H ) :   1.1940 B(  8-C , 19-H ) :   1.2607 B(  8-C , 25-O ) :   0.2104
B(  8-C , 32-C ) :   0.1820 B( 10-C , 11-C ) :   1.4703 B( 10-C , 12-C ) :   0.1168
B( 10-C , 13-C ) :  -0.1995 B( 10-C , 14-C ) :   0.6033 B( 10-C , 15-H ) :  -0.1335
B( 10-C , 16-H ) :  -0.1961 B( 10-C , 17-H ) :  -0.1481 B( 10-C , 19-H ) :   0.1132
B( 10-C , 40-H ) :  -0.1857 B( 10-C , 41-H ) :   0.1684 B( 11-C , 13-C ) :   0.6943
B( 11-C , 40-H ) :   1.3340 B( 11-C , 43-H ) :  -0.2029 B( 12-C , 20-C ) :  -0.4258
B( 12-C , 23-C ) :   1.4871 B( 12-C , 26-O ) :   0.4820 B( 12-C , 27-O ) :  -0.4179
B( 12-C , 36-C ) :  -0.1214 B( 12-C , 37-H ) :  -0.2617 B( 12-C , 38-H ) :  -0.3344
B( 12-C , 39-H ) :  -0.3109 B( 12-C , 43-H ) :  -0.2125 B( 13-C , 20-C ) :   1.1664
B( 13-C , 23-C ) :  -0.2117 B( 13-C , 26-O ) :  -0.1240 B( 13-C , 27-O ) :   0.3633
B( 13-C , 40-H ) :  -0.1202 B( 13-C , 43-H ) :   1.0424 B( 14-C , 15-H ) :   1.0689
B( 14-C , 16-H ) :   1.1980 B( 14-C , 17-H ) :   1.2342 B( 19-H , 25-O ) :   0.1264
B( 20-C , 21-H ) :   0.8884 B( 20-C , 22-H ) :   0.9616 B( 20-C , 23-C ) :   0.1473
B( 20-C , 27-O ) :   0.4559 B( 23-C , 26-O ) :   0.3463 B( 23-C , 27-O ) :   0.6765
B( 23-C , 36-C ) :   0.1152 B( 24-O , 28-C ) :   1.0361 B( 25-O , 32-C ) :   1.1537
B( 26-O , 27-O ) :   0.3032 B( 28-C , 29-H ) :   0.9558 B( 28-C , 30-H ) :   1.0011
B( 28-C , 31-H ) :   0.9669 B( 32-C , 33-H ) :   0.9496 B( 32-C , 34-H ) :   0.9358
B( 32-C , 35-H ) :   0.8903 B( 36-C , 37-H ) :   1.2346 B( 36-C , 38-H ) :   1.2782
B( 36-C , 39-H ) :   1.2642 B( 36-C , 42-H ) :  -0.1497

MP2 TOTAL ENERGY:     -923.561645355 Eh
FINAL SINGLE POINT ENERGY      -923.561645354660

DIPOLE MOMENT
-------------
                                X             Y             Z
Electronic contribution:     11.35280       1.75154       0.20457
Nuclear contribution   :    -12.23589      -2.86842       0.05487
                        -----------------------------------------
Total Dipole Moment    :     -0.88309      -1.11688       0.25944
                        -----------------------------------------
Magnitude (a.u.)       :      1.44727
Magnitude (Debye)      :      3.67866

Rotational constants in cm-1:     0.014328     0.010332     0.007770
Rotational constants in MHz :   429.557317   309.735979   232.935190

                             ****ORCA TERMINATED NORMALLY****
TOTAL RUN TIME: 0 days 11 hours 44 minutes 0 seconds 405 msec
