                         Program Version 4.2.1 -  RELEASE  -
|  1> %pal
|  2>  nprocs 32
|  3> end
|  4> !RI-MP2 aug-cc-pVQZ aug-cc-pVQZ/C TightSCF
|  5> %maxcore 4500
|  6> *xyzfile -1 1  02_13R.xyz
|  7>
|  8>
|  9>                          ****END OF INPUT****

CARTESIAN COORDINATES (ANGSTROEM)
---------------------------------
  C      4.957057   -1.808000   -0.059909
  C      3.807836   -2.582513   -0.730649
  H      4.145861   -3.610392   -0.908532
  H      3.590452   -2.152577   -1.711789
  H      5.817660   -1.789882   -0.739669
  H      5.278509   -2.356885    0.832247
  C      2.559111   -2.590098    0.097418
  C      1.438756   -1.957357   -0.230943
  C      3.657433    1.848126   -0.332544
  C      2.369389    2.190200   -0.369385
  C      1.826665    3.427708    0.172042
  C      0.521347    3.691104    0.232320
  C     -0.072713    4.935246    0.811312
  H      0.699773    5.619824    1.170143
  H     -0.735291    4.698392    1.649991
  H     -0.681413    5.465698    0.071421
  C      0.258087   -1.920554    0.697073
  C     -0.758504   -0.931831    0.427523
  O      0.216256   -2.701297    1.645251
  C     -0.770328    0.021606   -0.663995
  C     -1.940888   -0.733240    1.209825
  O     -2.382569   -1.299069    2.200884
  O     -0.014114    0.174536   -1.628022
  C     -2.740270    0.420900    0.564354
  H     -2.867442    1.199172    1.326111
  C     -4.132028   -0.037457    0.109047
  C     -4.057033   -1.165705   -0.924331
  H     -3.591376   -0.790408   -1.842028
  H     -3.390501   -1.941276   -0.541436
  C     -5.407776   -1.793801   -1.255150
  H     -5.899342   -2.157828   -0.348216
  H     -5.285595   -2.645307   -1.929127
  H     -6.085444   -1.087353   -1.741328
  N     -1.859341    0.871561   -0.490215
  H     -2.198168    1.334335   -1.318912
  C     -4.963288    1.148712   -0.380600
  H     -5.998405    0.865409   -0.582925
  H     -4.553898    1.566387   -1.307029
  H     -4.977851    1.946858    0.366205
  H     -4.598415   -0.442134    1.014425
  C      4.167459    0.522466   -0.809162
  H      3.374340    0.039030   -1.381377
  H      5.019361    0.655898   -1.488982
  C      4.589097   -0.382928    0.354103
  H      3.764542   -0.422158    1.069917
  H      5.437029    0.072157    0.879064
  H     -0.176246    2.944226   -0.140939
  H      2.538795    4.153699    0.565040
  H      4.380111    2.525991    0.123218
  H      1.650588    1.501672   -0.810637
  H      2.589404   -3.104345    1.056617
  H      1.355307   -1.397999   -1.154974

 Total Charge           Charge          ....   -1
 Multiplicity           Mult            ....    1
 Number of Electrons    NEL             ....  180
 Basis Dimension        Dim             .... 3208

ORBITAL ENERGIES
----------------

  NO   OCC          E(Eh)            E(eV)
   0   2.0000     -20.373072      -554.3795
   1   2.0000     -20.368637      -554.2588
   2   2.0000     -20.362476      -554.0911
   3   2.0000     -15.440666      -420.1619
   4   2.0000     -11.207314      -304.9665
   5   2.0000     -11.172748      -304.0259
   6   2.0000     -11.171084      -303.9807
   7   2.0000     -11.140463      -303.1474
   8   2.0000     -11.135674      -303.0171
   9   2.0000     -11.128713      -302.8277
  10   2.0000     -11.128326      -302.8171
  11   2.0000     -11.125973      -302.7531
  12   2.0000     -11.125414      -302.7379
  13   2.0000     -11.124532      -302.7139
  14   2.0000     -11.124392      -302.7101
  15   2.0000     -11.123500      -302.6858
  16   2.0000     -11.121118      -302.6210
  17   2.0000     -11.120385      -302.6011
  18   2.0000     -11.119376      -302.5736
  19   2.0000     -11.115649      -302.4722
  20   2.0000     -11.114359      -302.4371
  21   2.0000     -11.111460      -302.3582
  22   2.0000     -11.087975      -301.7192
  23   2.0000     -11.055568      -300.8373
  24   2.0000      -1.238649       -33.7053
  25   2.0000      -1.215709       -33.0811
  26   2.0000      -1.204483       -32.7757
  27   2.0000      -1.112698       -30.2780
  28   2.0000      -1.009270       -27.4636
  29   2.0000      -0.991956       -26.9925
  30   2.0000      -0.987160       -26.8620
  31   2.0000      -0.958628       -26.0856
  32   2.0000      -0.924035       -25.1443
  33   2.0000      -0.902973       -24.5712
  34   2.0000      -0.897037       -24.4096
  35   2.0000      -0.873653       -23.7733
  36   2.0000      -0.834878       -22.7182
  37   2.0000      -0.827315       -22.5124
  38   2.0000      -0.781076       -21.2542
  39   2.0000      -0.767430       -20.8828
  40   2.0000      -0.729200       -19.8425
  41   2.0000      -0.687141       -18.6981
  42   2.0000      -0.677125       -18.4255
  43   2.0000      -0.662190       -18.0191
  44   2.0000      -0.649551       -17.6752
  45   2.0000      -0.638965       -17.3871
  46   2.0000      -0.610834       -16.6216
  47   2.0000      -0.581442       -15.8218
  48   2.0000      -0.557373       -15.1669
  49   2.0000      -0.551822       -15.0158
  50   2.0000      -0.538200       -14.6452
  51   2.0000      -0.533007       -14.5039
  52   2.0000      -0.524276       -14.2663
  53   2.0000      -0.522091       -14.2068
  54   2.0000      -0.514891       -14.0109
  55   2.0000      -0.503348       -13.6968
  56   2.0000      -0.500526       -13.6200
  57   2.0000      -0.486530       -13.2391
  58   2.0000      -0.481096       -13.0913
  59   2.0000      -0.476754       -12.9731
  60   2.0000      -0.468192       -12.7402
  61   2.0000      -0.464084       -12.6284
  62   2.0000      -0.456709       -12.4277
  63   2.0000      -0.449052       -12.2193
  64   2.0000      -0.446457       -12.1487
  65   2.0000      -0.442157       -12.0317
  66   2.0000      -0.436686       -11.8828
  67   2.0000      -0.429757       -11.6943
  68   2.0000      -0.420426       -11.4404
  69   2.0000      -0.414667       -11.2837
  70   2.0000      -0.413195       -11.2436
  71   2.0000      -0.410229       -11.1629
  72   2.0000      -0.394789       -10.7428
  73   2.0000      -0.394012       -10.7216
  74   2.0000      -0.383455       -10.4343
  75   2.0000      -0.378319       -10.2946
  76   2.0000      -0.368898       -10.0382
  77   2.0000      -0.366816        -9.9816
  78   2.0000      -0.363636        -9.8950
  79   2.0000      -0.362979        -9.8772
  80   2.0000      -0.359409        -9.7800
  81   2.0000      -0.346596        -9.4314
  82   2.0000      -0.322637        -8.7794
  83   2.0000      -0.297049        -8.0831
  84   2.0000      -0.273605        -7.4452
  85   2.0000      -0.261850        -7.1253
  86   2.0000      -0.235814        -6.4168
  87   2.0000      -0.233013        -6.3406
  88   2.0000      -0.202937        -5.5222
  89   2.0000      -0.173477        -4.7206
  90   0.0000       0.080538         2.1916
  91   0.0000       0.082407         2.2424
  92   0.0000       0.084028         2.2865
  93   0.0000       0.089865         2.4454
  94   0.0000       0.092722         2.5231

MULLIKEN ATOMIC CHARGES
-----------------------
   0 C :   -0.486638
   1 C :   -0.388711
   2 H :    0.327482
   3 H :    0.161491
   4 H :    0.171264
   5 H :    0.201029
   6 C :   -0.239105
   7 C :   -0.823662
   8 C :   -0.230328
   9 C :   -0.560803
  10 C :   -0.232523
  11 C :   -0.703169
  12 C :   -0.880748
  13 H :    0.303261
  14 H :    0.267722
  15 H :    0.249082
  16 C :    1.879767
  17 C :   -1.582834
  18 O :   -1.193173
  19 C :    1.727860
  20 C :    2.169407
  21 O :   -1.285691
  22 O :   -1.373005
  23 C :   -0.256033
  24 H :    0.257674
  25 C :    0.403317
  26 C :   -0.448834
  27 H :    0.143446
  28 H :    0.248984
  29 C :   -0.943158
  30 H :    0.203271
  31 H :    0.269403
  32 H :    0.214863
  33 N :   -0.554085
  34 H :    0.061736
  35 C :   -1.132768
  36 H :    0.291418
  37 H :    0.180886
  38 H :    0.250263
  39 H :    0.146240
  40 C :   -0.476016
  41 H :    0.232943
  42 H :    0.350721
  43 C :   -0.383593
  44 H :    0.270231
  45 H :    0.237812
  46 H :    0.474364
  47 H :    0.317684
  48 H :    0.220545
  49 H :    0.538129
  50 H :    0.099108
  51 H :    0.303473
Sum of atomic charges:   -1.0000000

LOEWDIN ATOMIC CHARGES
----------------------
   0 C :    0.525742
   1 C :    0.497718
   2 H :   -0.274564
   3 H :   -0.310663
   4 H :   -0.267804
   5 H :   -0.271562
   6 C :    0.359186
   7 C :    0.319540
   8 C :    0.394622
   9 C :    0.354997
  10 C :    0.353209
  11 C :    0.374979
  12 C :    0.881333
  13 H :   -0.320669
  14 H :   -0.297619
  15 H :   -0.299360
  16 C :   -0.748633
  17 C :   -0.170196
  18 O :    0.679571
  19 C :   -0.901367
  20 C :   -0.787946
  21 O :    0.698962
  22 O :    0.735618
  23 C :   -0.099880
  24 H :   -0.285563
  25 C :    0.108272
  26 C :    0.510318
  27 H :   -0.266915
  28 H :   -0.286147
  29 C :    0.935161
  30 H :   -0.274704
  31 H :   -0.279190
  32 H :   -0.299198
  33 N :    0.822841
  34 H :   -0.500946
  35 C :    0.927236
  36 H :   -0.291048
  37 H :   -0.275104
  38 H :   -0.273177
  39 H :   -0.289534
  40 C :    0.483319
  41 H :   -0.341142
  42 H :   -0.263433
  43 C :    0.513350
  44 H :   -0.288596
  45 H :   -0.263089
  46 H :   -0.358444
  47 H :   -0.345548
  48 H :   -0.314833
  49 H :   -0.432346
  50 H :   -0.329255
  51 H :   -0.467500

  Mayer bond orders larger than 0.100000
B(  0-C ,  1-C ) :   0.8922 B(  0-C ,  4-H ) :   1.0225 B(  0-C ,  5-H ) :   0.9936
B(  0-C ,  6-C ) :  -0.1505 B(  0-C , 43-C ) :   0.8011 B(  1-C ,  2-H ) :   0.9374
B(  1-C ,  3-H ) :   1.0383 B(  1-C ,  6-C ) :   1.0381 B(  1-C ,  7-C ) :  -0.3785
B(  2-H ,  6-C ) :  -0.1788 B(  6-C ,  7-C ) :   1.3201 B(  6-C , 16-C ) :  -0.2056
B(  6-C , 50-H ) :   1.1487 B(  7-C , 16-C ) :   0.8505 B(  7-C , 17-C ) :  -0.5514
B(  7-C , 18-O ) :   0.4238 B(  7-C , 22-O ) :  -0.1341 B(  7-C , 51-H ) :   0.9240
B(  8-C ,  9-C ) :   1.3641 B(  8-C , 10-C ) :  -0.6205 B(  8-C , 40-C ) :   1.1849
B(  8-C , 43-C ) :  -0.2052 B(  8-C , 48-H ) :   1.0645 B(  9-C , 10-C ) :   0.8749
B(  9-C , 11-C ) :  -0.5834 B(  9-C , 40-C ) :  -0.5008 B(  9-C , 49-H ) :   0.7098
B( 10-C , 11-C ) :   1.6522 B( 10-C , 12-C ) :  -0.2242 B( 10-C , 47-H ) :   0.8800
B( 10-C , 49-H ) :  -0.1028 B( 11-C , 12-C ) :   0.8993 B( 11-C , 15-H ) :  -0.1395
B( 11-C , 46-H ) :   0.6772 B( 12-C , 13-H ) :   0.9561 B( 12-C , 14-H ) :   0.9632
B( 12-C , 15-H ) :   1.0325 B( 16-C , 17-C ) :   1.2567 B( 16-C , 18-O ) :  -0.6159
B( 16-C , 22-O ) :  -0.1089 B( 16-C , 51-H ) :  -0.1049 B( 17-C , 18-O ) :   1.1278
B( 17-C , 19-C ) :   1.0916 B( 17-C , 20-C ) :   0.7730 B( 17-C , 21-O ) :   0.9771
B( 17-C , 22-O ) :   0.5590 B( 17-C , 23-C ) :  -0.4026 B( 17-C , 33-N ) :  -0.1244
B( 18-O , 20-C ) :  -0.1117 B( 18-O , 50-H ) :   0.1432 B( 19-C , 22-O ) :  -0.1359
B( 19-C , 23-C ) :   0.1894 B( 19-C , 33-N ) :   0.9912 B( 19-C , 34-H ) :   0.1158
B( 20-C , 21-O ) :  -0.6955 B( 20-C , 23-C ) :   1.4016 B( 20-C , 24-H ) :   0.1015
B( 20-C , 25-C ) :   0.1374 B( 20-C , 33-N ) :  -0.1389 B( 21-O , 23-C ) :   0.2193
B( 21-O , 25-C ) :   0.1559 B( 22-O , 51-H ) :   0.1322 B( 23-C , 24-H ) :   0.8785
B( 23-C , 25-C ) :   0.8674 B( 23-C , 33-N ) :   0.5703 B( 25-C , 26-C ) :   0.6301
B( 25-C , 33-N ) :   0.1111 B( 25-C , 35-C ) :   0.4093 B( 25-C , 36-H ) :  -0.1575
B( 25-C , 37-H ) :  -0.1089 B( 25-C , 39-H ) :   0.9901 B( 26-C , 27-H ) :   1.0090
B( 26-C , 28-H ) :   0.8969 B( 26-C , 29-C ) :   0.6109 B( 26-C , 31-H ) :  -0.1445
B( 26-C , 32-H ) :  -0.1104 B( 29-C , 30-H ) :   1.0525 B( 29-C , 31-H ) :   1.0244
B( 29-C , 32-H ) :   1.0550 B( 33-N , 34-H ) :   1.2191 B( 35-C , 36-H ) :   1.0686
B( 35-C , 37-H ) :   1.0681 B( 35-C , 38-H ) :   1.0575 B( 40-C , 41-H ) :   0.9278
B( 40-C , 42-H ) :   0.8170 B( 40-C , 43-C ) :   0.9783 B( 43-C , 44-H ) :   0.8722
B( 43-C , 45-H ) :   0.9537

MP2 TOTAL ENERGY:    -1057.696398267 Eh
FINAL SINGLE POINT ENERGY     -1057.696398266789

DIPOLE MOMENT
-------------
                                X             Y             Z
Electronic contribution:      1.98361      -8.68416       6.36364
Nuclear contribution   :     -1.46795      10.81933      -7.92644
                        -----------------------------------------
Total Dipole Moment    :      0.51567       2.13517      -1.56280
                        -----------------------------------------
Magnitude (a.u.)       :      2.69578
Magnitude (Debye)      :      6.85212

Rotational constants in cm-1:     0.009813     0.004963     0.003728
Rotational constants in MHz :   294.175576   148.798940   111.753363

                             ****ORCA TERMINATED NORMALLY****
TOTAL RUN TIME: 0 days 13 hours 39 minutes 35 seconds 598 msec
