                         Program Version 4.2.1 -  RELEASE  -
|  1> %pal
|  2>  nprocs 32
|  3> end
|  4> !RI-MP2 aug-cc-pVQZ aug-cc-pVQZ/C TightSCF
|  5> %maxcore 4500
|  6> *xyzfile 0 1  02_3R1.xyz
|  7>
|  8>
|  9>                          ****END OF INPUT****

CARTESIAN COORDINATES (ANGSTROEM)
---------------------------------
  C     -1.481834    1.491753    0.000007
  C     -0.761902    0.364361   -0.000007
  C      0.720488    0.330802   -0.000006
  C      1.418141    1.662707   -0.000003
  C      1.352091   -0.846639   -0.000007
  C      2.824218   -1.104711   -0.000004
  H      1.144331    2.249251   -0.880418
  H      1.144335    2.249243    0.880419
  H      2.499314    1.551405   -0.000003
  H      3.104713   -1.696612    0.876557
  H      3.104685   -1.696778   -0.876461
  H      3.429980   -0.200314   -0.000099
  O     -1.311553   -0.878860   -0.000028
  C     -2.717247   -0.987666    0.000031
  H     -3.149586   -0.524508    0.892229
  H     -2.938800   -2.052806    0.000057
  H     -3.149660   -0.524539   -0.892149
  H      0.730084   -1.734216   -0.000004
  H     -0.989996    2.450676    0.000025
  H     -2.560703    1.496434    0.000000

 Total Charge           Charge          ....    0
 Multiplicity           Mult            ....    1
 Number of Electrons    NEL             ....   62
 Basis Dimension        Dim             .... 1192

ORBITAL ENERGIES
----------------

  NO   OCC          E(Eh)            E(eV)
   0   2.0000     -20.574520      -559.8611
   1   2.0000     -11.293257      -307.3051
   2   2.0000     -11.276230      -306.8418
   3   2.0000     -11.229372      -305.5667
   4   2.0000     -11.223131      -305.3969
   5   2.0000     -11.218296      -305.2653
   6   2.0000     -11.214823      -305.1709
   7   2.0000     -11.201053      -304.7961
   8   2.0000      -1.407149       -38.2905
   9   2.0000      -1.105455       -30.0810
  10   2.0000      -1.024404       -27.8754
  11   2.0000      -0.969192       -26.3731
  12   2.0000      -0.953173       -25.9372
  13   2.0000      -0.895332       -24.3632
  14   2.0000      -0.777634       -21.1605
  15   2.0000      -0.719104       -19.5678
  16   2.0000      -0.683883       -18.6094
  17   2.0000      -0.654778       -17.8174
  18   2.0000      -0.650989       -17.7143
  19   2.0000      -0.600554       -16.3419
  20   2.0000      -0.577829       -15.7235
  21   2.0000      -0.562512       -15.3067
  22   2.0000      -0.557154       -15.1609
  23   2.0000      -0.555357       -15.1120
  24   2.0000      -0.524541       -14.2735
  25   2.0000      -0.520258       -14.1569
  26   2.0000      -0.501158       -13.6372
  27   2.0000      -0.489286       -13.3141
  28   2.0000      -0.475086       -12.9277
  29   2.0000      -0.375655       -10.2221
  30   2.0000      -0.308638        -8.3985
  31   0.0000       0.025739         0.7004
  32   0.0000       0.028367         0.7719
  33   0.0000       0.031304         0.8518
  34   0.0000       0.038061         1.0357
  35   0.0000       0.040665         1.1066

MULLIKEN ATOMIC CHARGES
-----------------------
   0 C :   -0.934144
   1 C :    0.715779
   2 C :    0.146292
   3 C :   -0.610127
   4 C :   -0.396341
   5 C :   -0.750251
   6 H :    0.217584
   7 H :    0.217565
   8 H :    0.313542
   9 H :    0.226533
  10 H :    0.226526
  11 H :    0.264294
  12 O :   -0.761631
  13 C :   -0.641193
  14 H :    0.266104
  15 H :    0.362155
  16 H :    0.266093
  17 H :    0.257033
  18 H :    0.273178
  19 H :    0.341010
Sum of atomic charges:   -0.0000000

LOEWDIN ATOMIC CHARGES
----------------------
   0 C :    0.772570
   1 C :   -0.448534
   2 C :   -0.058657
   3 C :    0.873657
   4 C :    0.383767
   5 C :    0.916529
   6 H :   -0.280992
   7 H :   -0.280992
   8 H :   -0.332501
   9 H :   -0.284846
  10 H :   -0.284849
  11 H :   -0.333735
  12 O :    0.871251
  13 C :    0.570094
  14 H :   -0.308429
  15 H :   -0.313825
  16 H :   -0.308423
  17 H :   -0.381203
  18 H :   -0.388019
  19 H :   -0.382862

  Mayer bond orders larger than 0.100000
B(  0-C ,  1-C ) :   1.4631 B(  0-C ,  2-C ) :  -0.2063 B(  0-C , 18-H ) :   1.0091
B(  0-C , 19-H ) :   1.0062 B(  1-C ,  2-C ) :   0.6955 B(  1-C ,  3-C ) :  -0.1120
B(  1-C ,  4-C ) :  -0.2958 B(  1-C , 12-O ) :   0.5955 B(  1-C , 13-C ) :  -0.1007
B(  1-C , 19-H ) :  -0.1575 B(  2-C ,  3-C ) :   0.7129 B(  2-C ,  4-C ) :   1.3912
B(  2-C ,  8-H ) :  -0.1134 B(  2-C , 12-O ) :   0.1499 B(  2-C , 17-H ) :  -0.1433
B(  3-C ,  6-H ) :   1.0053 B(  3-C ,  7-H ) :   1.0053 B(  3-C ,  8-H ) :   0.9610
B(  4-C ,  5-C ) :   0.7392 B(  4-C ,  9-H ) :  -0.1204 B(  4-C , 10-H ) :  -0.1204
B(  4-C , 12-O ) :  -0.1087 B(  4-C , 17-H ) :   1.0217 B(  5-C ,  9-H ) :   1.0285
B(  5-C , 10-H ) :   1.0285 B(  5-C , 11-H ) :   0.9556 B( 12-O , 13-C ) :   0.9322
B( 13-C , 14-H ) :   0.9228 B( 13-C , 15-H ) :   0.9072 B( 13-C , 16-H ) :   0.9228

MP2 TOTAL ENERGY:     -348.538154063 Eh
FINAL SINGLE POINT ENERGY      -348.538154063221

DIPOLE MOMENT
-------------
                                X             Y             Z
Electronic contribution:     -2.55455      -1.66972      -0.00013
Nuclear contribution   :      2.43737       1.61249       0.00016
                        -----------------------------------------
Total Dipole Moment    :     -0.11718      -0.05723       0.00003
                        -----------------------------------------
Magnitude (a.u.)       :      0.13040
Magnitude (Debye)      :      0.33146

Rotational constants in cm-1:     0.112765     0.044428     0.032450
Rotational constants in MHz :  3380.614787  1331.922368   972.824602

                             ****ORCA TERMINATED NORMALLY****
TOTAL RUN TIME: 0 days 0 hours 36 minutes 36 seconds 285 msec
