                         Program Version 4.2.1 -  RELEASE  -
|  1> %pal
|  2>  nprocs 32
|  3> end
|  4> !RI-MP2 aug-cc-pVQZ aug-cc-pVQZ/C TightSCF
|  5> %maxcore 4500
|  6> *xyzfile 0 1  02_44TS.xyz
|  7>
|  8>
|  9>                          ****END OF INPUT****

CARTESIAN COORDINATES (ANGSTROEM)
---------------------------------
  C     -0.907374    1.217133   -0.455359
  C     -0.474402    1.510775    0.810110
  C     -0.680469   -0.781424    0.951898
  C     -0.370654    0.374869    1.634761
  H     -0.811023   -1.755439    1.404689
  H      0.005516    0.394594    2.648853
  H     -0.164765    2.502450    1.114696
  H     -1.151325    1.933297   -1.226837
  S     -1.717344   -0.398406   -0.507970
  C      2.723605    0.292868    0.264588
  C      1.002059    0.027283   -1.207256
  C      0.930476   -1.114414   -0.421100
  C      2.173034   -1.129107    0.448433
  H      2.535174    0.928236    1.128204
  H      0.614729    0.163131   -2.203950
  H      0.523742   -2.029759   -0.824724
  H      2.876538   -1.878998    0.078645
  H      1.969274   -1.350090    1.496363
  H      3.786690    0.322303    0.026986
  O     -3.153259   -0.258251   -0.093224
  O      2.017673    0.852860   -0.865759

 Total Charge           Charge          ....    0
 Multiplicity           Mult            ....    1
 Number of Electrons    NEL             ....   90
 Basis Dimension        Dim             .... 1344

ORBITAL ENERGIES
----------------

  NO   OCC          E(Eh)            E(eV)
   0   2.0000     -92.062034     -2505.1353
   1   2.0000     -20.592802      -560.3586
   2   2.0000     -20.497398      -557.7625
   3   2.0000     -11.323545      -308.1293
   4   2.0000     -11.298261      -307.4413
   5   2.0000     -11.281819      -306.9939
   6   2.0000     -11.256239      -306.2978
   7   2.0000     -11.255696      -306.2831
   8   2.0000     -11.251901      -306.1798
   9   2.0000     -11.251216      -306.1612
  10   2.0000     -11.238234      -305.8079
  11   2.0000      -9.048264      -246.2158
  12   2.0000      -6.730076      -183.1347
  13   2.0000      -6.729854      -183.1286
  14   2.0000      -6.728624      -183.0952
  15   2.0000      -1.429048       -38.8864
  16   2.0000      -1.324704       -36.0470
  17   2.0000      -1.158140       -31.5146
  18   2.0000      -1.085800       -29.5461
  19   2.0000      -1.025193       -27.8969
  20   2.0000      -0.987927       -26.8829
  21   2.0000      -0.953914       -25.9573
  22   2.0000      -0.847470       -23.0608
  23   2.0000      -0.803515       -21.8647
  24   2.0000      -0.778952       -21.1963
  25   2.0000      -0.747509       -20.3408
  26   2.0000      -0.730899       -19.8888
  27   2.0000      -0.703066       -19.1314
  28   2.0000      -0.691955       -18.8290
  29   2.0000      -0.619263       -16.8510
  30   2.0000      -0.586291       -15.9538
  31   2.0000      -0.581530       -15.8242
  32   2.0000      -0.578800       -15.7500
  33   2.0000      -0.574126       -15.6227
  34   2.0000      -0.561213       -15.2714
  35   2.0000      -0.559898       -15.2356
  36   2.0000      -0.546711       -14.8768
  37   2.0000      -0.541215       -14.7272
  38   2.0000      -0.512791       -13.9538
  39   2.0000      -0.507528       -13.8105
  40   2.0000      -0.455394       -12.3919
  41   2.0000      -0.416869       -11.3436
  42   2.0000      -0.369774       -10.0621
  43   2.0000      -0.345414        -9.3992
  44   2.0000      -0.298001        -8.1090
  45   0.0000       0.017758         0.4832
  46   0.0000       0.025020         0.6808
  47   0.0000       0.026487         0.7208
  48   0.0000       0.030121         0.8196
  49   0.0000       0.038657         1.0519

MULLIKEN ATOMIC CHARGES
-----------------------
   0 C :   -0.484719
   1 C :   -0.414183
   2 C :   -0.180791
   3 C :   -0.389073
   4 H :    0.411145
   5 H :    0.303915
   6 H :    0.300267
   7 H :    0.369209
   8 S :    1.105345
   9 C :   -0.252341
  10 C :    0.204727
  11 C :    0.000926
  12 C :   -0.801727
  13 H :    0.278541
  14 H :    0.506109
  15 H :    0.349485
  16 H :    0.347660
  17 H :    0.243514
  18 H :    0.414306
  19 O :   -1.294874
  20 O :   -1.017440
Sum of atomic charges:    0.0000000

LOEWDIN ATOMIC CHARGES
----------------------
   0 C :    0.075038
   1 C :    0.238434
   2 C :    0.044899
   3 C :    0.245547
   4 H :   -0.321559
   5 H :   -0.298732
   6 H :   -0.291582
   7 H :   -0.345749
   8 S :    0.642699
   9 C :    0.230325
  10 C :   -0.124978
  11 C :    0.178278
  12 C :    0.503118
  13 H :   -0.296971
  14 H :   -0.314527
  15 H :   -0.307321
  16 H :   -0.262925
  17 H :   -0.283965
  18 H :   -0.282844
  19 O :    0.067606
  20 O :    0.905210

  Mayer bond orders larger than 0.100000
B(  0-C ,  1-C ) :   1.5497 B(  0-C ,  3-C ) :  -0.1037 B(  0-C ,  7-H ) :   0.9587
B(  0-C ,  8-S ) :   0.9240 B(  0-C , 10-C ) :   0.2692 B(  1-C ,  2-C ) :  -0.1661
B(  1-C ,  3-C ) :   0.8688 B(  1-C ,  5-H ) :  -0.1201 B(  1-C ,  6-H ) :   1.0860
B(  2-C ,  3-C ) :   1.4749 B(  2-C ,  4-H ) :   0.9032 B(  2-C ,  8-S ) :   0.7593
B(  2-C , 11-C ) :   0.2881 B(  3-C ,  5-H ) :   1.0327 B(  3-C ,  6-H ) :  -0.1074
B(  3-C ,  8-S ) :   0.1121 B(  8-S , 19-O ) :   1.1162 B(  9-C , 11-C ) :  -0.1417
B(  9-C , 12-C ) :   1.2143 B(  9-C , 13-H ) :   0.9219 B(  9-C , 18-H ) :   0.8068
B(  9-C , 20-O ) :   0.7022 B( 10-C , 11-C ) :   1.4755 B( 10-C , 14-H ) :   0.7994
B( 10-C , 20-O ) :   0.5535 B( 11-C , 12-C ) :   0.6652 B( 11-C , 15-H ) :   0.9212
B( 12-C , 16-H ) :   0.8688 B( 12-C , 17-H ) :   0.9692 B( 12-C , 20-O ) :   0.1208

MP2 TOTAL ENERGY:     -858.187287464 Eh
FINAL SINGLE POINT ENERGY      -858.187287463535

DIPOLE MOMENT
-------------
                                X             Y             Z
Electronic contribution:     -7.74251       0.45608      -3.34014
Nuclear contribution   :     10.14763      -0.74333       3.61781
                        -----------------------------------------
Total Dipole Moment    :      2.40512      -0.28725       0.27767
                        -----------------------------------------
Magnitude (a.u.)       :      2.43808
Magnitude (Debye)      :      6.19710

Rotational constants in cm-1:     0.068931     0.025555     0.025183
Rotational constants in MHz :  2066.506381   766.123549   754.955807

                             ****ORCA TERMINATED NORMALLY****
TOTAL RUN TIME: 0 days 1 hours 35 minutes 57 seconds 319 msec
