                         Program Version 4.2.1 -  RELEASE  -
|  1> %pal
|  2>  nprocs 32
|  3> end
|  4> !RI-MP2 aug-cc-pVQZ aug-cc-pVQZ/C TightSCF
|  5> %maxcore 4500
|  6> *xyzfile 0 1  03_31R1.xyz
|  7>
|  8>
|  9>                          ****END OF INPUT****

CARTESIAN COORDINATES (ANGSTROEM)
---------------------------------
  C      2.830055    0.460317    0.001654
  C      2.401084   -0.620679    0.986220
  C      1.644037    1.159617   -0.652470
  C      1.081757   -1.259530    0.565787
  C     -0.051925   -0.219787    0.616931
  C      0.453282    1.198387    0.300082
  C     -2.749633    0.147323    0.099494
  C     -4.021773   -0.047548   -0.683510
  O     -2.667709    0.867199    1.059890
  H      2.301991   -0.178238    1.982100
  H      3.198848   -1.362619    1.048389
  H      1.378560    0.595952   -1.551389
  H      1.924139    2.161728   -0.979619
  H      0.833518   -2.110565    1.201183
  H      1.196407   -1.652780   -0.448420
  H     -0.521962   -0.218166    1.599303
  H      0.746116    1.679674    1.238659
  H     -0.353931    1.806361   -0.105090
  H     -4.851719   -0.155908    0.014691
  H     -3.974024   -0.909243   -1.348161
  H     -4.196079    0.850406   -1.280496
  S     -1.359809   -0.767533   -0.538000
  F      3.599669   -0.138492   -1.015053
  H      3.498424    1.174172    0.488076

 Total Charge           Charge          ....    0
 Multiplicity           Mult            ....    1
 Number of Electrons    NEL             ....   94
 Basis Dimension        Dim             .... 1482

ORBITAL ENERGIES
----------------

  NO   OCC          E(Eh)            E(eV)
   0   2.0000     -91.964815     -2502.4898
   1   2.0000     -26.263826      -714.6750
   2   2.0000     -20.554087      -559.3051
   3   2.0000     -11.362555      -309.1909
   4   2.0000     -11.308895      -307.7307
   5   2.0000     -11.268743      -306.6381
   6   2.0000     -11.244909      -305.9895
   7   2.0000     -11.236145      -305.7510
   8   2.0000     -11.232255      -305.6452
   9   2.0000     -11.232180      -305.6432
  10   2.0000     -11.227485      -305.5154
  11   2.0000      -8.968352      -244.0413
  12   2.0000      -6.649724      -180.9482
  13   2.0000      -6.648651      -180.9190
  14   2.0000      -6.648130      -180.9048
  15   2.0000      -1.573884       -42.8276
  16   2.0000      -1.406642       -38.2767
  17   2.0000      -1.145200       -31.1625
  18   2.0000      -1.063459       -28.9382
  19   2.0000      -1.025073       -27.8937
  20   2.0000      -1.023216       -27.8431
  21   2.0000      -0.949624       -25.8406
  22   2.0000      -0.872788       -23.7498
  23   2.0000      -0.837663       -22.7940
  24   2.0000      -0.754985       -20.5442
  25   2.0000      -0.732337       -19.9279
  26   2.0000      -0.711910       -19.3721
  27   2.0000      -0.678886       -18.4734
  28   2.0000      -0.675827       -18.3902
  29   2.0000      -0.650785       -17.7088
  30   2.0000      -0.638922       -17.3859
  31   2.0000      -0.631845       -17.1934
  32   2.0000      -0.617864       -16.8129
  33   2.0000      -0.596667       -16.2361
  34   2.0000      -0.577357       -15.7107
  35   2.0000      -0.566348       -15.4111
  36   2.0000      -0.548565       -14.9272
  37   2.0000      -0.535020       -14.5586
  38   2.0000      -0.532562       -14.4918
  39   2.0000      -0.523209       -14.2372
  40   2.0000      -0.515843       -14.0368
  41   2.0000      -0.492338       -13.3972
  42   2.0000      -0.468721       -12.7545
  43   2.0000      -0.455612       -12.3978
  44   2.0000      -0.434581       -11.8256
  45   2.0000      -0.408598       -11.1185
  46   2.0000      -0.371503       -10.1091
  47   0.0000       0.023514         0.6399
  48   0.0000       0.025935         0.7057
  49   0.0000       0.028684         0.7805
  50   0.0000       0.035297         0.9605
  51   0.0000       0.039758         1.0819

MULLIKEN ATOMIC CHARGES
-----------------------
   0 C :    0.378699
   1 C :   -0.647649
   2 C :   -0.498516
   3 C :   -0.508689
   4 C :    0.248840
   5 C :   -0.584146
   6 C :    0.457374
   7 C :   -0.770825
   8 O :   -0.842334
   9 H :    0.243428
  10 H :    0.303011
  11 H :    0.206200
  12 H :    0.297147
  13 H :    0.304602
  14 H :    0.246868
  15 H :    0.191792
  16 H :    0.306090
  17 H :    0.268262
  18 H :    0.289631
  19 H :    0.259007
  20 H :    0.283530
  21 S :    0.087736
  22 F :   -0.825571
  23 H :    0.305512
Sum of atomic charges:    0.0000000

LOEWDIN ATOMIC CHARGES
----------------------
   0 C :   -0.389966
   1 C :    0.506643
   2 C :    0.497560
   3 C :    0.441391
   4 C :   -0.221753
   5 C :    0.458323
   6 C :   -1.064171
   7 C :    0.789439
   8 O :    0.665863
   9 H :   -0.265906
  10 H :   -0.272239
  11 H :   -0.294503
  12 H :   -0.257255
  13 H :   -0.260626
  14 H :   -0.303621
  15 H :   -0.377858
  16 H :   -0.257236
  17 H :   -0.301991
  18 H :   -0.311705
  19 H :   -0.345716
  20 H :   -0.302736
  21 S :    1.388241
  22 F :    0.790537
  23 H :   -0.310715

  Mayer bond orders larger than 0.100000
B(  0-C ,  1-C ) :   0.9203 B(  0-C ,  2-C ) :   0.9627 B(  0-C , 22-F ) :   0.2079
B(  0-C , 23-H ) :   0.9534 B(  1-C ,  3-C ) :   0.9836 B(  1-C ,  4-C ) :  -0.1379
B(  1-C ,  9-H ) :   0.9743 B(  1-C , 10-H ) :   0.9088 B(  1-C , 22-F ) :   0.1393
B(  2-C ,  5-C ) :   0.9096 B(  2-C , 11-H ) :   0.9674 B(  2-C , 12-H ) :   0.9370
B(  3-C ,  4-C ) :   0.7454 B(  3-C , 13-H ) :   0.9179 B(  3-C , 14-H ) :   0.9502
B(  4-C ,  5-C ) :   0.8269 B(  4-C , 15-H ) :   0.9740 B(  4-C , 21-S ) :   0.5656
B(  5-C , 16-H ) :   0.8740 B(  5-C , 17-H ) :   0.9369 B(  6-C ,  7-C ) :   0.7149
B(  6-C ,  8-O ) :   1.2936 B(  6-C , 21-S ) :   0.9678 B(  7-C , 18-H ) :   0.9829
B(  7-C , 19-H ) :   1.0051 B(  7-C , 20-H ) :   0.9116

MP2 TOTAL ENERGY:     -884.751562920 Eh
FINAL SINGLE POINT ENERGY      -884.751562919800

DIPOLE MOMENT
-------------
                                X             Y             Z
Electronic contribution:      1.99000      -1.87878      -2.75331
Nuclear contribution   :     -2.37871       1.85795       2.89975
                        -----------------------------------------
Total Dipole Moment    :     -0.38871      -0.02083       0.14644
                        -----------------------------------------
Magnitude (a.u.)       :      0.41590
Magnitude (Debye)      :      1.05714

Rotational constants in cm-1:     0.079720     0.015204     0.014925
Rotational constants in MHz :  2389.938237   455.797767   447.428597

                             ****ORCA TERMINATED NORMALLY****
TOTAL RUN TIME: 0 days 1 hours 32 minutes 40 seconds 620 msec
