                         Program Version 4.2.1 -  RELEASE  -
|  1> %pal
|  2>  nprocs 32
|  3> end
|  4> !RI-MP2 aug-cc-pVQZ aug-cc-pVQZ/C TightSCF
|  5> %maxcore 4500
|  6> *xyzfile 1 1  10_28P.xyz
|  7>
|  8>
|  9>                          ****END OF INPUT****

CARTESIAN COORDINATES (ANGSTROEM)
---------------------------------
  C     -0.710283    3.312647   -0.689516
  C     -0.950470    1.963663   -0.001823
  C      1.094298    2.477468    0.674018
  C      0.751179    3.636090   -0.266857
  H     -0.833789    3.234050   -1.767365
  H     -1.407778    4.063110   -0.317087
  H      1.442180    3.698344   -1.110267
  H      0.828545    4.577322    0.276401
  C     -0.237353    2.152881    1.341003
  H     -0.223119    1.266602    1.973313
  H     -0.615087    2.998315    1.913675
  H     -1.977919    1.620253    0.015975
  H      1.986732    2.587224    1.284869
  N      1.247192    1.241528   -0.200853
  N     -0.097011    0.980672   -0.715164
  C     -0.339671   -0.492186   -0.648804
  C     -1.756065   -0.832221   -0.250222
  C     -2.698013   -1.028789   -1.255476
  C     -2.163406   -0.923268    1.079165
  C     -4.022367   -1.303220   -0.943488
  H     -2.391836   -0.968585   -2.293920
  C     -3.485625   -1.196637    1.394180
  H     -1.453941   -0.786464    1.886416
  C     -4.418707   -1.385405    0.382884
  H     -4.742019   -1.458720   -1.737370
  H     -3.787863   -1.269666    2.431460
  H     -5.449872   -1.604225    0.630121
  C      1.791341    0.016849    0.504472
  C      0.776536   -1.108669    0.217288
  C      1.635629   -2.149004   -0.529830
  C      3.096664   -0.477047   -0.122595
  C      2.576896   -1.249813   -1.347506
  H      1.041312   -2.869251   -1.089660
  H      3.364896   -1.802923   -1.858200
  H      2.064490   -0.632319   -2.091004
  H      3.833800    0.308886   -0.296170
  C      2.607372   -2.776715    0.482041
  C      3.603281   -1.619333    0.779179
  H      3.120677   -3.630547    0.040162
  H      2.094964   -3.134064    1.376090
  H      4.621025   -1.888411    0.498414
  H      3.625707   -1.334158    1.832385
  H      0.369298   -1.520361    1.137453
  H     -0.204940   -0.849726   -1.670885
  H      1.887093    0.278011    1.555971
  H      1.848754    1.458154   -0.997339

 Total Charge           Charge          ....    1
 Multiplicity           Mult            ....    1
 Number of Electrons    NEL             ....  152
 Basis Dimension        Dim             .... 2830

ORBITAL ENERGIES
----------------

  NO   OCC          E(Eh)            E(eV)
   0   2.0000     -15.840806      -431.0503
   1   2.0000     -15.739504      -428.2937
   2   2.0000     -11.433100      -311.1105
   3   2.0000     -11.421163      -310.7856
   4   2.0000     -11.402753      -310.2847
   5   2.0000     -11.398992      -310.1823
   6   2.0000     -11.370127      -309.3969
   7   2.0000     -11.367153      -309.3160
   8   2.0000     -11.367030      -309.3126
   9   2.0000     -11.366657      -309.3025
  10   2.0000     -11.352333      -308.9127
  11   2.0000     -11.350253      -308.8561
  12   2.0000     -11.350171      -308.8539
  13   2.0000     -11.346733      -308.7603
  14   2.0000     -11.342870      -308.6552
  15   2.0000     -11.340393      -308.5878
  16   2.0000     -11.339548      -308.5648
  17   2.0000     -11.336980      -308.4949
  18   2.0000     -11.334880      -308.4378
  19   2.0000     -11.333529      -308.4010
  20   2.0000     -11.332322      -308.3681
  21   2.0000      -1.527280       -41.5594
  22   2.0000      -1.324466       -36.0405
  23   2.0000      -1.303373       -35.4666
  24   2.0000      -1.270594       -34.5746
  25   2.0000      -1.257387       -34.2152
  26   2.0000      -1.174128       -31.9496
  27   2.0000      -1.135304       -30.8932
  28   2.0000      -1.125179       -30.6177
  29   2.0000      -1.123980       -30.5851
  30   2.0000      -1.120357       -30.4865
  31   2.0000      -1.084672       -29.5154
  32   2.0000      -1.076801       -29.3013
  33   2.0000      -1.003896       -27.3174
  34   2.0000      -0.967604       -26.3299
  35   2.0000      -0.965511       -26.2729
  36   2.0000      -0.938198       -25.5297
  37   2.0000      -0.936227       -25.4760
  38   2.0000      -0.909140       -24.7390
  39   2.0000      -0.899164       -24.4675
  40   2.0000      -0.875106       -23.8128
  41   2.0000      -0.856137       -23.2967
  42   2.0000      -0.834154       -22.6985
  43   2.0000      -0.827795       -22.5254
  44   2.0000      -0.810164       -22.0457
  45   2.0000      -0.798170       -21.7193
  46   2.0000      -0.778216       -21.1763
  47   2.0000      -0.756895       -20.5962
  48   2.0000      -0.751255       -20.4427
  49   2.0000      -0.740403       -20.1474
  50   2.0000      -0.735699       -20.0194
  51   2.0000      -0.720019       -19.5927
  52   2.0000      -0.711416       -19.3586
  53   2.0000      -0.699321       -19.0295
  54   2.0000      -0.692182       -18.8352
  55   2.0000      -0.688482       -18.7346
  56   2.0000      -0.672870       -18.3097
  57   2.0000      -0.663261       -18.0483
  58   2.0000      -0.649753       -17.6807
  59   2.0000      -0.643194       -17.5022
  60   2.0000      -0.637318       -17.3423
  61   2.0000      -0.626170       -17.0389
  62   2.0000      -0.622472       -16.9383
  63   2.0000      -0.617979       -16.8161
  64   2.0000      -0.612099       -16.6561
  65   2.0000      -0.608479       -16.5575
  66   2.0000      -0.606791       -16.5116
  67   2.0000      -0.602975       -16.4078
  68   2.0000      -0.600249       -16.3336
  69   2.0000      -0.591421       -16.0934
  70   2.0000      -0.584331       -15.9005
  71   2.0000      -0.571432       -15.5495
  72   2.0000      -0.561591       -15.2817
  73   2.0000      -0.522440       -14.2163
  74   2.0000      -0.444594       -12.0980
  75   2.0000      -0.442812       -12.0495
  76   0.0000      -0.066927        -1.8212
  77   0.0000      -0.058985        -1.6051
  78   0.0000      -0.051398        -1.3986
  79   0.0000      -0.049918        -1.3583
  80   0.0000      -0.040254        -1.0954

MULLIKEN ATOMIC CHARGES
-----------------------
   0 C :   -0.888505
   1 C :    0.385732
   2 C :   -0.088764
   3 C :   -0.789985
   4 H :    0.276437
   5 H :    0.210396
   6 H :    0.251145
   7 H :    0.182997
   8 C :   -0.796721
   9 H :    0.289814
  10 H :    0.076305
  11 H :    0.543344
  12 H :    0.365839
  13 N :    1.452639
  14 N :   -0.389759
  15 C :    0.271383
  16 C :    0.808265
  17 C :   -0.768342
  18 C :   -0.222783
  19 C :   -0.528604
  20 H :    0.220721
  21 C :   -0.560617
  22 H :    0.181788
  23 C :   -0.477390
  24 H :    0.216457
  25 H :    0.213185
  26 H :    0.341372
  27 C :    0.272179
  28 C :    0.715925
  29 C :   -0.244856
  30 C :   -0.258551
  31 C :   -0.904364
  32 H :    0.355288
  33 H :    0.052417
  34 H :    0.248787
  35 H :    0.297254
  36 C :   -0.866735
  37 C :   -0.858934
  38 H :    0.158487
  39 H :    0.258239
  40 H :    0.170423
  41 H :    0.204265
  42 H :    0.198197
  43 H :    0.390837
  44 H :    0.376575
  45 H :   -0.341781
Sum of atomic charges:    1.0000000

LOEWDIN ATOMIC CHARGES
----------------------
   0 C :    0.598671
   1 C :    0.027245
   2 C :    0.134696
   3 C :    0.609372
   4 H :   -0.245149
   5 H :   -0.239914
   6 H :   -0.238205
   7 H :   -0.236419
   8 C :    0.592643
   9 H :   -0.252732
  10 H :   -0.218881
  11 H :   -0.268043
  12 H :   -0.203247
  13 N :    0.695599
  14 N :    0.584807
  15 C :    0.045370
  16 C :   -0.064173
  17 C :    0.375870
  18 C :    0.353295
  19 C :    0.376502
  20 H :   -0.299245
  21 C :    0.381284
  22 H :   -0.323714
  23 C :    0.366567
  24 H :   -0.307511
  25 H :   -0.306345
  26 H :   -0.308422
  27 C :    0.131533
  28 C :    0.200413
  29 C :    0.197272
  30 C :    0.203602
  31 C :    0.580664
  32 H :   -0.209490
  33 H :   -0.220926
  34 H :   -0.240587
  35 H :   -0.209157
  36 C :    0.597494
  37 C :    0.594785
  38 H :   -0.240719
  39 H :   -0.242968
  40 H :   -0.240476
  41 H :   -0.241881
  42 H :   -0.282860
  43 H :   -0.336194
  44 H :   -0.250070
  45 H :   -0.420359

  Mayer bond orders larger than 0.100000
B(  0-C ,  1-C ) :   0.1979 B(  0-C ,  2-C ) :  -0.2366 B(  0-C ,  3-C ) :   1.2011
B(  0-C ,  4-H ) :   1.0496 B(  0-C ,  5-H ) :   1.0939 B(  0-C , 11-H ) :  -0.1194
B(  1-C ,  3-C ) :  -0.3032 B(  1-C ,  8-C ) :   0.7830 B(  1-C , 11-H ) :   0.6785
B(  1-C , 14-N ) :   0.7311 B(  1-C , 15-C ) :   0.1907 B(  1-C , 16-C ) :  -0.1363
B(  1-C , 17-C ) :  -0.1912 B(  2-C ,  3-C ) :   0.5026 B(  2-C ,  8-C ) :   0.9065
B(  2-C , 12-H ) :   1.0035 B(  2-C , 13-N ) :   0.7365 B(  2-C , 27-C ) :  -0.1223
B(  3-C ,  6-H ) :   1.0325 B(  3-C ,  7-H ) :   1.1162 B(  8-C ,  9-H ) :   0.9656
B(  8-C , 10-H ) :   1.1804 B(  8-C , 13-N ) :  -0.2043 B( 11-H , 16-C ) :   0.1258
B( 11-H , 17-C ) :   0.1300 B( 13-N , 15-C ) :   0.1484 B( 13-N , 27-C ) :   1.3733
B( 13-N , 28-C ) :  -0.1033 B( 13-N , 45-H ) :   0.9473 B( 14-N , 15-C ) :   0.8260
B( 14-N , 16-C ) :   0.2326 B( 14-N , 27-C ) :   0.1173 B( 14-N , 28-C ) :   0.1636
B( 14-N , 43-H ) :  -0.1990 B( 14-N , 45-H ) :   0.1339 B( 15-C , 17-C ) :  -0.5156
B( 15-C , 27-C ) :   0.1228 B( 15-C , 28-C ) :   1.1964 B( 15-C , 29-C ) :   0.1876
B( 15-C , 43-H ) :   1.0550 B( 16-C , 17-C ) :   0.8970 B( 16-C , 18-C ) :   0.7505
B( 16-C , 19-C ) :  -0.4562 B( 16-C , 21-C ) :  -0.3711 B( 16-C , 28-C ) :   0.2061
B( 16-C , 42-H ) :   0.1053 B( 16-C , 43-H ) :  -0.2394 B( 17-C , 18-C ) :  -0.1068
B( 17-C , 19-C ) :   1.3969 B( 17-C , 20-H ) :   1.1195 B( 17-C , 21-C ) :   0.1692
B( 17-C , 24-H ) :  -0.1368 B( 18-C , 19-C ) :   0.1555 B( 18-C , 21-C ) :   1.3884
B( 18-C , 22-H ) :   1.1582 B( 18-C , 28-C ) :  -0.1339 B( 19-C , 23-C ) :   1.2145
B( 19-C , 24-H ) :   1.1959 B( 21-C , 23-C ) :   1.1929 B( 21-C , 25-H ) :   1.1498
B( 21-C , 26-H ) :  -0.1132 B( 23-C , 26-H ) :   1.0441 B( 27-C , 28-C ) :   0.9560
B( 27-C , 31-C ) :  -0.2542 B( 27-C , 32-H ) :   0.1025 B( 27-C , 35-H ) :  -0.1521
B( 27-C , 37-C ) :  -0.2728 B( 27-C , 44-H ) :   0.9571 B( 28-C , 29-C ) :   0.2671
B( 28-C , 31-C ) :  -0.2632 B( 28-C , 32-H ) :  -0.1682 B( 28-C , 36-C ) :  -0.2640
B( 28-C , 42-H ) :   1.0295 B( 29-C , 31-C ) :   0.9476 B( 29-C , 32-H ) :   1.0624
B( 29-C , 36-C ) :   0.6452 B( 29-C , 37-C ) :  -0.1360 B( 30-C , 31-C ) :   0.8561
B( 30-C , 33-H ) :  -0.1025 B( 30-C , 35-H ) :   1.1622 B( 30-C , 36-C ) :  -0.1445
B( 30-C , 37-C ) :   0.6068 B( 31-C , 33-H ) :   1.2218 B( 31-C , 34-H ) :   1.1045
B( 36-C , 37-C ) :   1.0583 B( 36-C , 38-H ) :   1.1652 B( 36-C , 39-H ) :   1.0496
B( 37-C , 40-H ) :   1.1354 B( 37-C , 41-H ) :   1.1382

MP2 TOTAL ENERGY:     -846.811712360 Eh
FINAL SINGLE POINT ENERGY      -846.811712360324

DIPOLE MOMENT
-------------
                                X             Y             Z
Electronic contribution:     -7.93500      -1.01298      -1.33820
Nuclear contribution   :      9.23847       2.40343       1.65211
                        -----------------------------------------
Total Dipole Moment    :      1.30347       1.39045       0.31391
                        -----------------------------------------
Magnitude (a.u.)       :      1.93156
Magnitude (Debye)      :      4.90963

Rotational constants in cm-1:     0.014569     0.009835     0.006874
Rotational constants in MHz :   436.768697   294.852572   206.077484

                             ****ORCA TERMINATED NORMALLY****
TOTAL RUN TIME: 0 days 11 hours 58 minutes 10 seconds 422 msec
