                         Program Version 4.2.1 -  RELEASE  -
|  1> %pal
|  2>  nprocs 32
|  3> end
|  4> !RI-MP2 aug-cc-pVQZ aug-cc-pVQZ/C TightSCF
|  5> %maxcore 4500
|  6> *xyzfile -1 1  08_14TS.xyz
|  7>
|  8>
|  9>                          ****END OF INPUT****

CARTESIAN COORDINATES (ANGSTROEM)
---------------------------------
  N      3.216906   -0.026118   -0.717933
  C      2.535054    1.161211   -0.360481
  C      1.531888    1.088407    0.608842
  N      1.241136   -0.147666    1.159984
  C      1.349874   -1.252344    0.247437
  C      2.736109   -1.244952   -0.387944
  N      3.409484   -2.312290   -0.691572
  C      2.950447   -3.547487   -0.311927
  C      1.123202   -2.549859    1.032315
  N      1.852919   -3.608952    0.562067
  C      2.862317    2.392121   -0.915731
  C      2.219960    3.560337   -0.522895
  C      1.221056    3.487279    0.455841
  C      0.890048    2.256831    1.004655
  O      3.475720   -4.587121   -0.650112
  O      0.325975   -2.658690    1.932324
  O      0.502037   -1.232045   -0.843967
  O     -1.126704   -1.125227   -0.027626
  C      4.452485    0.072435   -1.479051
  H      4.246917    0.406550   -2.499129
  H      4.906241   -0.912309   -1.511778
  H      5.124162    0.783450   -0.996214
  C      2.593365    4.875238   -1.153061
  H      3.392158    4.744083   -1.884901
  H      1.742916    5.332879   -1.667871
  H      2.939184    5.598695   -0.408124
  C      0.488148    4.723192    0.903445
  H      1.171485    5.467327    1.324477
  H     -0.033250    5.204193    0.070191
  H     -0.252044    4.476282    1.664458
  H      3.630118    2.452911   -1.675509
  H      0.097159    2.171897    1.739771
  C     -2.682366   -0.868390    1.163414
  C     -3.737084   -1.153423    0.280920
  C     -4.423803   -0.144360   -0.368993
  C     -4.084936    1.211507   -0.081388
  C     -3.118100    1.531391    0.815471
  C     -2.387742    0.511068    1.544288
  H      1.635513   -4.524005    0.931038
  H      0.392653   -0.178630    1.721309
  H     -3.986832   -2.187008    0.078758
  H     -4.630822    1.986433   -0.607033
  H     -2.875541    2.563524    1.039192
  C     -5.480485   -0.409136   -1.330756
  O     -6.129814    0.422916   -1.931527
  O     -5.725232   -1.733966   -1.535731
  H     -6.433107   -1.765075   -2.190919
  O     -1.530344    0.788151    2.398990
  H     -2.287198   -1.640490    1.808711
  H     -1.392551   -0.514056   -0.729466

 Total Charge           Charge          ....   -1
 Multiplicity           Mult            ....    1
 Number of Electrons    NEL             ....  224
 Basis Dimension        Dim             .... 3354

ORBITAL ENERGIES
----------------

  NO   OCC          E(Eh)            E(eV)
   0   2.0000     -20.556116      -559.3604
   1   2.0000     -20.512047      -558.1612
   2   2.0000     -20.439621      -556.1904
   3   2.0000     -20.437678      -556.1375
   4   2.0000     -20.434457      -556.0499
   5   2.0000     -20.421562      -555.6990
   6   2.0000     -20.392169      -554.8991
   7   2.0000     -15.524260      -422.4366
   8   2.0000     -15.502595      -421.8471
   9   2.0000     -15.458957      -420.6596
  10   2.0000     -15.443931      -420.2507
  11   2.0000     -11.284799      -307.0750
  12   2.0000     -11.281932      -306.9970
  13   2.0000     -11.263177      -306.4866
  14   2.0000     -11.255204      -306.2697
  15   2.0000     -11.236679      -305.7656
  16   2.0000     -11.200991      -304.7945
  17   2.0000     -11.181866      -304.2740
  18   2.0000     -11.177212      -304.1474
  19   2.0000     -11.175311      -304.0957
  20   2.0000     -11.163289      -303.7685
  21   2.0000     -11.152676      -303.4797
  22   2.0000     -11.147854      -303.3485
  23   2.0000     -11.144895      -303.2680
  24   2.0000     -11.144452      -303.2560
  25   2.0000     -11.142776      -303.2103
  26   2.0000     -11.139975      -303.1341
  27   2.0000     -11.128976      -302.8348
  28   2.0000     -11.127759      -302.8017
  29   2.0000     -11.122815      -302.6672
  30   2.0000     -11.117196      -302.5143
  31   2.0000      -1.365070       -37.1454
  32   2.0000      -1.320259       -35.9261
  33   2.0000      -1.294206       -35.2171
  34   2.0000      -1.277819       -34.7712
  35   2.0000      -1.255475       -34.1632
  36   2.0000      -1.241782       -33.7906
  37   2.0000      -1.233716       -33.5711
  38   2.0000      -1.184664       -32.2364
  39   2.0000      -1.158911       -31.5356
  40   2.0000      -1.124942       -30.6112
  41   2.0000      -1.099118       -29.9085
  42   2.0000      -1.057053       -28.7639
  43   2.0000      -1.046602       -28.4795
  44   2.0000      -0.958334       -26.0776
  45   2.0000      -0.946556       -25.7571
  46   2.0000      -0.925929       -25.1958
  47   2.0000      -0.908209       -24.7136
  48   2.0000      -0.902962       -24.5708
  49   2.0000      -0.872745       -23.7486
  50   2.0000      -0.858024       -23.3480
  51   2.0000      -0.814604       -22.1665
  52   2.0000      -0.781229       -21.2583
  53   2.0000      -0.770799       -20.9745
  54   2.0000      -0.746763       -20.3204
  55   2.0000      -0.736488       -20.0409
  56   2.0000      -0.736191       -20.0328
  57   2.0000      -0.692471       -18.8431
  58   2.0000      -0.688776       -18.7425
  59   2.0000      -0.667996       -18.1771
  60   2.0000      -0.639910       -17.4128
  61   2.0000      -0.623540       -16.9674
  62   2.0000      -0.611841       -16.6490
  63   2.0000      -0.606064       -16.4918
  64   2.0000      -0.592347       -16.1186
  65   2.0000      -0.589295       -16.0355
  66   2.0000      -0.569208       -15.4889
  67   2.0000      -0.565557       -15.3896
  68   2.0000      -0.558390       -15.1946
  69   2.0000      -0.548917       -14.9368
  70   2.0000      -0.542421       -14.7600
  71   2.0000      -0.541121       -14.7246
  72   2.0000      -0.536918       -14.6103
  73   2.0000      -0.532890       -14.5007
  74   2.0000      -0.527446       -14.3525
  75   2.0000      -0.524038       -14.2598
  76   2.0000      -0.521156       -14.1814
  77   2.0000      -0.514297       -13.9947
  78   2.0000      -0.512377       -13.9425
  79   2.0000      -0.508097       -13.8260
  80   2.0000      -0.488444       -13.2912
  81   2.0000      -0.485662       -13.2155
  82   2.0000      -0.481691       -13.1075
  83   2.0000      -0.473364       -12.8809
  84   2.0000      -0.472137       -12.8475
  85   2.0000      -0.464165       -12.6306
  86   2.0000      -0.461525       -12.5587
  87   2.0000      -0.453570       -12.3423
  88   2.0000      -0.451332       -12.2814
  89   2.0000      -0.445641       -12.1265
  90   2.0000      -0.440456       -11.9854
  91   2.0000      -0.435459       -11.8494
  92   2.0000      -0.417453       -11.3595
  93   2.0000      -0.410665       -11.1748
  94   2.0000      -0.400575       -10.9002
  95   2.0000      -0.398100       -10.8328
  96   2.0000      -0.392715       -10.6863
  97   2.0000      -0.389046       -10.5865
  98   2.0000      -0.376831       -10.2541
  99   2.0000      -0.357836        -9.7372
 100   2.0000      -0.355482        -9.6732
 101   2.0000      -0.348224        -9.4757
 102   2.0000      -0.337284        -9.1780
 103   2.0000      -0.324452        -8.8288
 104   2.0000      -0.319494        -8.6939
 105   2.0000      -0.313421        -8.5286
 106   2.0000      -0.300142        -8.1673
 107   2.0000      -0.292104        -7.9485
 108   2.0000      -0.240021        -6.5313
 109   2.0000      -0.227625        -6.1940
 110   2.0000      -0.185917        -5.0591
 111   2.0000      -0.165450        -4.5021
 112   0.0000       0.073934         2.0118
 113   0.0000       0.083632         2.2758
 114   0.0000       0.087865         2.3909
 115   0.0000       0.090761         2.4697
 116   0.0000       0.093358         2.5404

MULLIKEN ATOMIC CHARGES
-----------------------
   0 N :   -0.367784
   1 C :    1.473690
   2 C :    0.748971
   3 N :   -1.056763
   4 C :    2.151353
   5 C :    0.729757
   6 N :   -1.053512
   7 C :    1.223861
   8 C :    1.531127
   9 N :   -1.007532
  10 C :   -0.932870
  11 C :    0.422123
  12 C :    0.535173
  13 C :   -0.970116
  14 O :   -0.973472
  15 O :   -1.117034
  16 O :   -1.340877
  17 O :   -0.264633
  18 C :   -1.292439
  19 H :    0.378588
  20 H :    0.333160
  21 H :    0.293064
  22 C :   -1.072536
  23 H :    0.275326
  24 H :    0.182679
  25 H :    0.175151
  26 C :   -1.167633
  27 H :    0.272756
  28 H :    0.195619
  29 H :    0.337760
  30 H :    0.045637
  31 H :    0.238816
  32 C :   -0.014755
  33 C :   -0.406387
  34 C :   -1.041128
  35 C :   -0.136704
  36 C :   -0.599049
  37 C :    1.304077
  38 H :   -0.014339
  39 H :    0.284689
  40 H :    0.240559
  41 H :    0.199176
  42 H :    0.378906
  43 C :    1.776558
  44 O :   -0.922613
  45 O :   -0.758860
  46 H :    0.303922
  47 O :   -1.235069
  48 H :    0.292245
  49 H :    0.421361
Sum of atomic charges:   -1.0000000

LOEWDIN ATOMIC CHARGES
----------------------
   0 N :    0.462062
   1 C :   -0.197779
   2 C :   -0.215320
   3 N :    0.853597
   4 C :   -1.036102
   5 C :   -0.539595
   6 N :    0.563292
   7 C :   -1.118566
   8 C :   -0.883859
   9 N :    0.763266
  10 C :    0.357684
  11 C :   -0.054580
  12 C :   -0.051361
  13 C :    0.378588
  14 O :    0.637873
  15 O :    0.747263
  16 O :    0.666104
  17 O :    1.197997
  18 C :    0.779531
  19 H :   -0.263599
  20 H :   -0.367734
  21 H :   -0.275364
  22 C :    0.892682
  23 H :   -0.306994
  24 H :   -0.284985
  25 H :   -0.286737
  26 C :    0.900376
  27 H :   -0.284162
  28 H :   -0.284239
  29 H :   -0.303396
  30 H :   -0.355765
  31 H :   -0.413870
  32 C :    0.078887
  33 C :    0.297620
  34 C :   -0.180838
  35 C :    0.291067
  36 C :    0.317050
  37 C :   -0.749960
  38 H :   -0.530070
  39 H :   -0.640964
  40 H :   -0.324859
  41 H :   -0.339779
  42 H :   -0.350237
  43 C :   -1.081982
  44 O :    0.677845
  45 O :    1.232215
  46 H :   -0.843364
  47 O :    0.734079
  48 H :   -0.368755
  49 H :   -0.894262

  Mayer bond orders larger than 0.100000
B(  0-N ,  1-C ) :   0.1812 B(  0-N ,  2-C ) :   0.3605 B(  0-N ,  3-N ) :  -0.1096
B(  0-N ,  5-C ) :   1.1608 B(  0-N ,  6-N ) :   0.3710 B(  0-N , 10-C ) :  -0.2063
B(  0-N , 12-C ) :   0.1163 B(  0-N , 18-C ) :   0.9803 B(  0-N , 19-H ) :  -0.1469
B(  1-C ,  2-C ) :   1.1991 B(  1-C ,  3-N ) :   0.1650 B(  1-C ,  4-C ) :   0.2830
B(  1-C ,  5-C ) :  -0.2509 B(  1-C , 10-C ) :   1.0252 B(  1-C , 11-C ) :  -0.3102
B(  1-C , 13-C ) :  -0.3159 B(  1-C , 16-O ) :  -0.2142 B(  1-C , 18-C ) :  -0.4603
B(  1-C , 30-H ) :  -0.1256 B(  2-C ,  3-N ) :   0.5747 B(  2-C ,  4-C ) :  -0.2009
B(  2-C ,  5-C ) :   0.3171 B(  2-C ,  6-N ) :  -0.1103 B(  2-C , 12-C ) :  -0.6564
B(  2-C , 13-C ) :   0.8375 B(  2-C , 16-O ) :   0.2376 B(  2-C , 18-C ) :   0.1480
B(  2-C , 31-H ) :  -0.1976 B(  2-C , 39-H ) :  -0.1291 B(  2-C , 47-O ) :   0.1474
B(  3-N ,  4-C ) :   0.5249 B(  3-N , 13-C ) :  -0.1356 B(  3-N , 16-O ) :   0.2653
B(  3-N , 39-H ) :   0.8461 B(  4-C ,  5-C ) :   0.2883 B(  4-C ,  6-N ) :   0.2098
B(  4-C ,  8-C ) :   1.2948 B(  4-C , 15-O ) :   0.4347 B(  4-C , 16-O ) :  -0.8127
B(  4-C , 17-O ) :  -0.1641 B(  5-C ,  6-N ) :   0.2285 B(  5-C ,  8-C ) :  -0.2071
B(  5-C , 10-C ) :  -0.1836 B(  5-C , 16-O ) :   0.4032 B(  6-N ,  7-C ) :   1.4363
B(  6-N , 10-C ) :   0.1061 B(  6-N , 18-C ) :  -0.1143 B(  7-C ,  9-N ) :   1.0884
B(  7-C , 14-O ) :   1.0127 B(  7-C , 38-H ) :  -0.1289 B(  8-C ,  9-N ) :   0.5984
B(  8-C , 15-O ) :   0.5004 B(  8-C , 16-O ) :   0.3087 B(  8-C , 38-H ) :  -0.1851
B(  9-N , 14-O ) :   0.1710 B(  9-N , 15-O ) :   0.2676 B(  9-N , 38-H ) :   1.3491
B( 10-C , 11-C ) :   0.8909 B( 10-C , 13-C ) :   0.1071 B( 10-C , 22-C ) :  -0.3753
B( 10-C , 30-H ) :   1.0785 B( 11-C , 12-C ) :   0.6563 B( 11-C , 18-C ) :  -0.1223
B( 11-C , 22-C ) :   0.6036 B( 11-C , 24-H ) :  -0.1962 B( 11-C , 25-H ) :  -0.2239
B( 12-C , 13-C ) :   0.8948 B( 12-C , 22-C ) :   0.1064 B( 12-C , 24-H ) :   0.1488
B( 12-C , 25-H ) :   0.1212 B( 12-C , 26-C ) :   0.4532 B( 12-C , 27-H ) :  -0.2018
B( 12-C , 28-H ) :  -0.1895 B( 13-C , 22-C ) :   0.1217 B( 13-C , 26-C ) :  -0.2069
B( 13-C , 30-H ) :   0.1018 B( 13-C , 31-H ) :   0.8322 B( 13-C , 47-O ) :  -0.1605
B( 14-O , 38-H ) :   0.1021 B( 16-O , 17-O ) :   0.4458 B( 16-O , 39-H ) :   0.1417
B( 17-O , 32-C ) :   0.2983 B( 17-O , 49-H ) :   0.7043 B( 18-C , 19-H ) :   0.9875
B( 18-C , 20-H ) :   0.8699 B( 18-C , 21-H ) :   1.0028 B( 22-C , 23-H ) :   1.0277
B( 22-C , 24-H ) :   1.0966 B( 22-C , 25-H ) :   1.1363 B( 26-C , 27-H ) :   1.0829
B( 26-C , 28-H ) :   1.0947 B( 26-C , 29-H ) :   0.9630 B( 32-C , 33-C ) :   1.0558
B( 32-C , 34-C ) :  -0.2680 B( 32-C , 36-C ) :  -0.2370 B( 32-C , 37-C ) :   1.0195
B( 32-C , 40-H ) :  -0.1047 B( 32-C , 47-O ) :   0.2478 B( 32-C , 48-H ) :   0.9856
B( 33-C , 34-C ) :   1.0614 B( 33-C , 36-C ) :   0.1078 B( 33-C , 40-H ) :   1.0456
B( 33-C , 43-C ) :  -0.2868 B( 33-C , 48-H ) :  -0.1738 B( 34-C , 35-C ) :   0.8296
B( 34-C , 36-C ) :  -0.2311 B( 34-C , 37-C ) :  -0.1159 B( 34-C , 43-C ) :   1.4502
B( 34-C , 44-O ) :   0.7157 B( 34-C , 45-O ) :   0.2289 B( 35-C , 36-C ) :   1.4492
B( 35-C , 37-C ) :  -0.1888 B( 35-C , 41-H ) :   1.0720 B( 35-C , 42-H ) :  -0.1643
B( 35-C , 43-C ) :  -0.3598 B( 35-C , 44-O ) :  -0.1816 B( 35-C , 47-O ) :   0.1211
B( 36-C , 37-C ) :   1.1721 B( 36-C , 41-H ) :  -0.1488 B( 36-C , 42-H ) :   0.8340
B( 36-C , 47-O ) :   0.2100 B( 43-C , 44-O ) :   0.7696 B( 43-C , 45-O ) :   0.6280
B( 45-O , 46-H ) :   0.9458

MP2 TOTAL ENERGY:    -1516.965524547 Eh
FINAL SINGLE POINT ENERGY     -1516.965524547134

DIPOLE MOMENT
-------------
                                X             Y             Z
Electronic contribution:     -6.41396     -26.52631       3.04036
Nuclear contribution   :      7.13703      28.68344      -3.72523
                        -----------------------------------------
Total Dipole Moment    :      0.72307       2.15713      -0.68487
                        -----------------------------------------
Magnitude (a.u.)       :      2.37594
Magnitude (Debye)      :      6.03915

Rotational constants in cm-1:     0.005806     0.003689     0.002624
Rotational constants in MHz :   174.059292   110.579251    78.656332

                             ****ORCA TERMINATED NORMALLY****
TOTAL RUN TIME: 0 days 21 hours 5 minutes 45 seconds 329 msec
