                         Program Version 4.2.1 -  RELEASE  -
|  1> %pal
|  2>  nprocs 32
|  3> end
|  4> !RI-MP2 aug-cc-pVQZ aug-cc-pVQZ/C TightSCF
|  5> %maxcore 4500
|  6> *xyzfile 0 1  07_8P2.xyz
|  7>
|  8>
|  9>                          ****END OF INPUT****

CARTESIAN COORDINATES (ANGSTROEM)
---------------------------------
  N     -1.826135    1.411824    1.129052
  C     -2.134059    0.766058   -0.147198
  C     -2.481412   -0.711885    0.100391
  O     -2.594362   -1.512084   -0.786871
  O     -2.677856   -1.012776    1.379510
  C     -1.054181    0.906720   -1.233370
  H     -1.365879    0.307055   -2.089142
  H     -1.025758    1.950457   -1.554742
  C      0.314368    0.486204   -0.761522
  C      1.247481    1.431400   -0.337644
  H      1.001377    2.486636   -0.396788
  C      2.493965    1.059571    0.141043
  H      3.217616    1.797214    0.463301
  C      2.829205   -0.285638    0.201062
  C      1.917977   -1.244867   -0.224335
  H      2.179706   -2.297422   -0.186954
  C      0.674832   -0.858870   -0.700280
  H     -0.026955   -1.615538   -1.029648
  O      4.064196   -0.606860    0.678420
  H     -3.061477    1.202169   -0.529574
  H     -2.497883   -0.180605    1.870397
  H     -2.179999    2.357321    1.181434
  H     -0.825713    1.432138    1.301372
  H      4.183026   -1.560594    0.669618

 Total Charge           Charge          ....    0
 Multiplicity           Mult            ....    1
 Number of Electrons    NEL             ....   96
 Basis Dimension        Dim             .... 1546

ORBITAL ENERGIES
----------------

  NO   OCC          E(Eh)            E(eV)
   0   2.0000     -20.593986      -560.3908
   1   2.0000     -20.591992      -560.3366
   2   2.0000     -20.530565      -558.6651
   3   2.0000     -15.576580      -423.8603
   4   2.0000     -11.370761      -309.4141
   5   2.0000     -11.307160      -307.6835
   6   2.0000     -11.290990      -307.2435
   7   2.0000     -11.246740      -306.0393
   8   2.0000     -11.243052      -305.9390
   9   2.0000     -11.242110      -305.9134
  10   2.0000     -11.240239      -305.8625
  11   2.0000     -11.238262      -305.8086
  12   2.0000     -11.234897      -305.7171
  13   2.0000      -1.453971       -39.5646
  14   2.0000      -1.413130       -38.4532
  15   2.0000      -1.356467       -36.9113
  16   2.0000      -1.223471       -33.2923
  17   2.0000      -1.163588       -31.6628
  18   2.0000      -1.063023       -28.9263
  19   2.0000      -1.029842       -28.0234
  20   2.0000      -0.991971       -26.9929
  21   2.0000      -0.902736       -24.5647
  22   2.0000      -0.857377       -23.3304
  23   2.0000      -0.819100       -22.2888
  24   2.0000      -0.799438       -21.7538
  25   2.0000      -0.744196       -20.2506
  26   2.0000      -0.741246       -20.1703
  27   2.0000      -0.695985       -18.9387
  28   2.0000      -0.680460       -18.5163
  29   2.0000      -0.670946       -18.2574
  30   2.0000      -0.651225       -17.7207
  31   2.0000      -0.627547       -17.0764
  32   2.0000      -0.620049       -16.8724
  33   2.0000      -0.607741       -16.5375
  34   2.0000      -0.599189       -16.3048
  35   2.0000      -0.596502       -16.2317
  36   2.0000      -0.590138       -16.0585
  37   2.0000      -0.567876       -15.4527
  38   2.0000      -0.559402       -15.2221
  39   2.0000      -0.529219       -14.4008
  40   2.0000      -0.504784       -13.7359
  41   2.0000      -0.496890       -13.5211
  42   2.0000      -0.487833       -13.2746
  43   2.0000      -0.465912       -12.6781
  44   2.0000      -0.460998       -12.5444
  45   2.0000      -0.417088       -11.3495
  46   2.0000      -0.352799        -9.6002
  47   2.0000      -0.319520        -8.6946
  48   0.0000       0.016236         0.4418
  49   0.0000       0.023698         0.6449
  50   0.0000       0.028727         0.7817
  51   0.0000       0.031146         0.8475
  52   0.0000       0.039883         1.0853

MULLIKEN ATOMIC CHARGES
-----------------------
   0 N :   -0.766589
   1 C :    0.098547
   2 C :    1.268719
   3 O :   -0.899533
   4 O :   -0.973324
   5 C :   -0.488722
   6 H :    0.257572
   7 H :    0.178026
   8 C :    0.784859
   9 C :   -0.517341
  10 H :    0.168913
  11 C :   -0.682246
  12 H :    0.259188
  13 C :    1.211838
  14 C :   -0.717673
  15 H :    0.091356
  16 C :   -0.392250
  17 H :    0.342029
  18 O :   -0.875357
  19 H :    0.475381
  20 H :    0.383697
  21 H :    0.173655
  22 H :    0.233913
  23 H :    0.385343
Sum of atomic charges:    0.0000000

LOEWDIN ATOMIC CHARGES
----------------------
   0 N :    1.306288
   1 C :   -0.039316
   2 C :   -1.033209
   3 O :    0.704235
   4 O :    1.268125
   5 C :    0.497676
   6 H :   -0.298299
   7 H :   -0.283201
   8 C :   -0.081942
   9 C :    0.337485
  10 H :   -0.307412
  11 C :    0.338219
  12 H :   -0.321969
  13 C :   -0.434847
  14 C :    0.356315
  15 H :   -0.316006
  16 C :    0.351706
  17 H :   -0.335970
  18 O :    1.277071
  19 H :   -0.283970
  20 H :   -0.949837
  21 H :   -0.446614
  22 H :   -0.501236
  23 H :   -0.803290

  Mayer bond orders larger than 0.100000
B(  0-N ,  1-C ) :   0.6510 B(  0-N , 20-H ) :   0.1412 B(  0-N , 21-H ) :   1.0629
B(  0-N , 22-H ) :   0.9099 B(  1-C ,  2-C ) :   1.0678 B(  1-C ,  3-O ) :   0.1081
B(  1-C ,  4-O ) :   0.1479 B(  1-C ,  5-C ) :   0.9684 B(  1-C , 19-H ) :   0.7405
B(  2-C ,  3-O ) :   1.3499 B(  2-C ,  4-O ) :   0.5155 B(  3-O ,  4-O ) :   0.1523
B(  4-O , 20-H ) :   0.7458 B(  5-C ,  6-H ) :   0.9570 B(  5-C ,  7-H ) :   1.0777
B(  5-C ,  8-C ) :   0.5744 B(  5-C , 16-C ) :  -0.1937 B(  6-H ,  8-C ) :  -0.1103
B(  8-C ,  9-C ) :   0.9632 B(  8-C , 11-C ) :  -0.2436 B(  8-C , 14-C ) :  -0.3128
B(  8-C , 16-C ) :   0.8753 B(  9-C , 10-H ) :   1.1221 B(  9-C , 11-C ) :   1.3155
B(  9-C , 12-H ) :  -0.1230 B(  9-C , 13-C ) :  -0.1358 B(  9-C , 14-C ) :   0.1366
B( 10-H , 11-C ) :  -0.1552 B( 11-C , 12-H ) :   1.0302 B( 11-C , 13-C ) :   1.3223
B( 11-C , 18-O ) :   0.3758 B( 13-C , 14-C ) :   1.3424 B( 13-C , 15-H ) :  -0.1010
B( 13-C , 16-C ) :  -0.1619 B( 13-C , 18-O ) :  -0.2984 B( 13-C , 23-H ) :  -0.1362
B( 14-C , 15-H ) :   1.2315 B( 14-C , 16-C ) :   1.1076 B( 14-C , 17-H ) :  -0.1256
B( 14-C , 18-O ) :   0.2623 B( 15-H , 16-C ) :  -0.1890 B( 16-C , 17-H ) :   0.9826
B( 18-O , 23-H ) :   0.8872

MP2 TOTAL ENERGY:     -629.087836334 Eh
FINAL SINGLE POINT ENERGY      -629.087836334284

DIPOLE MOMENT
-------------
                                X             Y             Z
Electronic contribution:      0.94285      -4.33875       0.54411
Nuclear contribution   :     -0.42957       5.80888      -0.27271
                        -----------------------------------------
Total Dipole Moment    :      0.51329       1.47013       0.27140
                        -----------------------------------------
Magnitude (a.u.)       :      1.58064
Magnitude (Debye)      :      4.01766

Rotational constants in cm-1:     0.051526     0.015472     0.014216
Rotational constants in MHz :  1544.725307   463.837839   426.189760

                             ****ORCA TERMINATED NORMALLY****
TOTAL RUN TIME: 0 days 1 hours 42 minutes 38 seconds 426 msec
