                         Program Version 4.2.1 -  RELEASE  -
|  1> %pal
|  2>  nprocs 32
|  3> end
|  4> !RI-MP2 aug-cc-pVQZ aug-cc-pVQZ/C TightSCF
|  5> %maxcore 4500
|  6> *xyzfile -1 1  05_4P.xyz
|  7>
|  8>
|  9>                          ****END OF INPUT****

CARTESIAN COORDINATES (ANGSTROEM)
---------------------------------
  O      2.787313   -1.273171    0.198640
  C      2.448723   -0.011329   -0.359353
  C      1.182492    0.595658    0.232619
  H      2.327062   -0.083371   -1.449320
  H      3.279630    0.668976   -0.161787
  C     -0.074160   -0.171788   -0.176789
  O      0.065590   -1.537987    0.240595
  C     -1.330701    0.495958    0.418496
  H     -0.153945   -0.126614   -1.271320
  C     -2.575526   -0.259488   -0.006724
  O     -2.638308   -1.413476   -0.388465
  O     -1.445133    1.799350    0.059402
  O      1.086066    1.926799   -0.205102
  H      1.264557    0.538462    1.331400
  H      0.092633    2.134470   -0.142793
  H     -0.769008   -1.968856    0.007161
  H      1.956029   -1.766279    0.260131
  H     -3.482824    0.377666    0.010354
  H     -1.263324    0.319360    1.526124

 Total Charge           Charge          ....   -1
 Multiplicity           Mult            ....    1
 Number of Electrons    NEL             ....   80
 Basis Dimension        Dim             .... 1214

ORBITAL ENERGIES
----------------

  NO   OCC          E(Eh)            E(eV)
   0   2.0000     -20.429096      -555.9040
   1   2.0000     -20.424003      -555.7654
   2   2.0000     -20.411130      -555.4151
   3   2.0000     -20.370601      -554.3122
   4   2.0000     -20.291945      -552.1719
   5   2.0000     -11.192174      -304.5545
   6   2.0000     -11.132265      -302.9243
   7   2.0000     -11.131463      -302.9025
   8   2.0000     -11.126177      -302.7587
   9   2.0000     -11.117771      -302.5299
  10   2.0000      -1.268798       -34.5258
  11   2.0000      -1.235559       -33.6213
  12   2.0000      -1.212617       -32.9970
  13   2.0000      -1.186891       -32.2970
  14   2.0000      -1.102345       -29.9963
  15   2.0000      -0.878637       -23.9089
  16   2.0000      -0.813428       -22.1345
  17   2.0000      -0.755428       -20.5562
  18   2.0000      -0.672058       -18.2876
  19   2.0000      -0.633973       -17.2513
  20   2.0000      -0.568813       -15.4782
  21   2.0000      -0.557147       -15.1607
  22   2.0000      -0.526614       -14.3299
  23   2.0000      -0.521307       -14.1855
  24   2.0000      -0.495814       -13.4918
  25   2.0000      -0.466252       -12.6874
  26   2.0000      -0.453263       -12.3339
  27   2.0000      -0.449840       -12.2408
  28   2.0000      -0.438341       -11.9279
  29   2.0000      -0.423647       -11.5280
  30   2.0000      -0.392660       -10.6848
  31   2.0000      -0.379506       -10.3269
  32   2.0000      -0.357730        -9.7343
  33   2.0000      -0.335159        -9.1202
  34   2.0000      -0.322431        -8.7738
  35   2.0000      -0.308038        -8.3821
  36   2.0000      -0.300152        -8.1675
  37   2.0000      -0.270584        -7.3630
  38   2.0000      -0.205102        -5.5811
  39   2.0000      -0.200865        -5.4658
  40   0.0000       0.110765         3.0141
  41   0.0000       0.113122         3.0782
  42   0.0000       0.118481         3.2240
  43   0.0000       0.121189         3.2977
  44   0.0000       0.130652         3.5552

MULLIKEN ATOMIC CHARGES
-----------------------
   0 O :   -0.988109
   1 C :   -0.090090
   2 C :    0.462645
   3 H :    0.167560
   4 H :    0.329597
   5 C :    0.666690
   6 O :   -0.879209
   7 C :    0.379985
   8 H :    0.220446
   9 C :    0.008686
  10 O :   -0.920240
  11 O :   -1.124901
  12 O :   -1.058413
  13 H :    0.250893
  14 H :    0.360799
  15 H :    0.273360
  16 H :    0.335124
  17 H :    0.482905
  18 H :    0.122270
Sum of atomic charges:   -1.0000000

LOEWDIN ATOMIC CHARGES
----------------------
   0 O :    1.263967
   1 C :    0.144706
   2 C :   -0.300749
   3 H :   -0.305585
   4 H :   -0.326807
   5 C :   -0.282873
   6 O :    1.333236
   7 C :   -0.538096
   8 H :   -0.302494
   9 C :   -0.263505
  10 O :    0.746286
  11 O :    0.752697
  12 O :    1.244306
  13 H :   -0.299384
  14 H :   -1.215914
  15 H :   -0.948865
  16 H :   -1.001949
  17 H :   -0.367341
  18 H :   -0.331635

  Mayer bond orders larger than 0.100000
B(  0-O ,  1-C ) :   0.5920 B(  0-O , 16-H ) :   0.8322 B(  1-C ,  2-C ) :   0.7852
B(  1-C ,  3-H ) :   1.0566 B(  1-C ,  4-H ) :   0.9139 B(  1-C , 12-O ) :   0.1554
B(  2-C ,  5-C ) :   0.6722 B(  2-C ,  6-O ) :   0.1241 B(  2-C , 12-O ) :   0.2966
B(  2-C , 13-H ) :   0.9757 B(  5-C ,  6-O ) :   0.2096 B(  5-C ,  7-C ) :   0.6157
B(  5-C ,  8-H ) :   0.9535 B(  5-C ,  9-C ) :  -0.1936 B(  5-C , 12-O ) :   0.1216
B(  6-O ,  7-C ) :   0.1685 B(  6-O , 15-H ) :   1.0383 B(  7-C ,  9-C ) :   0.9138
B(  7-C , 10-O ) :   0.1811 B(  7-C , 11-O ) :   0.6604 B(  7-C , 18-H ) :   1.0399
B(  9-C , 10-O ) :   1.4663 B(  9-C , 11-O ) :   0.1601 B(  9-C , 17-H ) :   0.7746
B( 11-O , 14-H ) :   0.1806 B( 12-O , 14-H ) :   0.7432

MP2 TOTAL ENERGY:     -571.353365375 Eh
FINAL SINGLE POINT ENERGY      -571.353365375471

DIPOLE MOMENT
-------------
                                X             Y             Z
Electronic contribution:     -3.26625      -1.32176      -0.02095
Nuclear contribution   :      3.23210       0.08552       0.10790
                        -----------------------------------------
Total Dipole Moment    :     -0.03415      -1.23624       0.08696
                        -----------------------------------------
Magnitude (a.u.)       :      1.23976
Magnitude (Debye)      :      3.15123

Rotational constants in cm-1:     0.068714     0.031724     0.022719
Rotational constants in MHz :  2060.004650   951.069948   681.100058

                             ****ORCA TERMINATED NORMALLY****
TOTAL RUN TIME: 0 days 0 hours 43 minutes 11 seconds 543 msec
