                         Program Version 4.2.1 -  RELEASE  -
|  1> %pal
|  2>  nprocs 32
|  3> end
|  4> !RI-MP2 aug-cc-pVQZ aug-cc-pVQZ/C TightSCF MORead
|  5> %maxcore 4500
|  6> %moinp "10_74TS.gbw"
|  7> *xyzfile 0 1  10_74TS.xyz
|  8>
|  9>
| 10>                          ****END OF INPUT****

CARTESIAN COORDINATES (ANGSTROEM)
---------------------------------
  C     -0.793699    1.308530   -0.565377
  C     -2.066450    1.564057   -0.169966
  C      0.262868    0.790813    0.234079
  C      1.489251    0.468520   -0.383431
  C      1.736724   -1.435483   -0.725219
  C      2.820622    0.632855    0.315665
  H      1.550865    0.784337   -1.425001
  C     -3.262815   -0.951650   -0.332428
  C     -2.406683   -1.648750    0.455699
  H     -2.903796   -0.660185   -1.313581
  C     -4.681334   -0.587894   -0.064953
  C     -1.061033   -1.802351   -0.004994
  C     -0.028744   -2.383137    0.695829
  C      1.314156   -2.208217    0.367624
  C      3.223776   -1.347786   -0.977733
  H      1.145538   -1.497228   -1.632046
  N      3.751359   -0.339356   -0.243720
  H      2.719785    0.508140    1.397423
  C      3.550461    1.958869    0.058634
  C     -3.109649    2.052176   -1.050309
  H     -2.337798    1.406673    0.866048
  C     -4.932665    0.920485    0.238504
  H     -5.084039   -1.135401    0.785520
  O     -5.528665   -0.957959   -1.159411
  C     -4.410674    1.807698   -0.853530
  H     -4.451096    1.150522    1.191751
  O     -6.318841    1.099747    0.446501
  H     -0.559482    1.454395   -1.618689
  C      0.153179    0.683558    1.725230
  C     -2.764076   -2.146662    1.830454
  H     -0.856265   -1.399726   -0.988160
  H     -0.247899   -2.886007    1.631423
  H      2.062976   -2.550220    1.074364
  H     -5.104920   -0.690421   -1.981269
  H     -6.770142    0.578088   -0.229447
  H     -2.803333    2.617359   -1.926386
  H     -5.152262    2.209651   -1.535178
  C      5.121877    0.167727   -0.380574
  O      3.850759   -2.071136   -1.726364
  H     -3.823276   -2.035109    2.050231
  H     -2.205406   -1.605977    2.599118
  H     -2.514420   -3.204668    1.934457
  H      0.649672   -0.224943    2.076256
  H     -0.879727    0.656152    2.065757
  H      0.647159    1.526721    2.218851
  C      5.013406    1.572831    0.229979
  O      3.196875    2.990022    0.953903
  H      3.364619    2.270626   -0.977638
  H      5.350234    0.226281   -1.449862
  C      6.145382   -0.731569    0.290724
  H      5.232235    1.540873    1.301286
  H      5.695240    2.286318   -0.231488
  H      6.144163   -1.717796   -0.173364
  H      5.918705   -0.841191    1.353899
  H      7.146224   -0.304301    0.193866
  H      2.322629    3.319420    0.727443

 Total Charge           Charge          ....    0
 Multiplicity           Mult            ....    1
 Number of Electrons    NEL             ....  200
 Basis Dimension        Dim             .... 3494

ORBITAL ENERGIES
----------------

  NO   OCC          E(Eh)            E(eV)
   0   2.0000     -20.574431      -559.8587
   1   2.0000     -20.572035      -559.7935
   2   2.0000     -20.553575      -559.2912
   3   2.0000     -20.519247      -558.3571
   4   2.0000     -15.583039      -424.0360
   5   2.0000     -11.349204      -308.8275
   6   2.0000     -11.298061      -307.4359
   7   2.0000     -11.296780      -307.4010
   8   2.0000     -11.291278      -307.2513
   9   2.0000     -11.281688      -306.9903
  10   2.0000     -11.274790      -306.8026
  11   2.0000     -11.266085      -306.5658
  12   2.0000     -11.265811      -306.5583
  13   2.0000     -11.264439      -306.5210
  14   2.0000     -11.252951      -306.2084
  15   2.0000     -11.245740      -306.0121
  16   2.0000     -11.244357      -305.9745
  17   2.0000     -11.244301      -305.9730
  18   2.0000     -11.243688      -305.9563
  19   2.0000     -11.243584      -305.9535
  20   2.0000     -11.243255      -305.9445
  21   2.0000     -11.240720      -305.8755
  22   2.0000     -11.235758      -305.7405
  23   2.0000     -11.234614      -305.7094
  24   2.0000     -11.233996      -305.6926
  25   2.0000     -11.233117      -305.6686
  26   2.0000     -11.216715      -305.2223
  27   2.0000      -1.389389       -37.8072
  28   2.0000      -1.388915       -37.7943
  29   2.0000      -1.382635       -37.6234
  30   2.0000      -1.355498       -36.8850
  31   2.0000      -1.278513       -34.7901
  32   2.0000      -1.153285       -31.3825
  33   2.0000      -1.130385       -30.7593
  34   2.0000      -1.118525       -30.4366
  35   2.0000      -1.092101       -29.7176
  36   2.0000      -1.075544       -29.2670
  37   2.0000      -1.054764       -28.7016
  38   2.0000      -1.025094       -27.8942
  39   2.0000      -1.003433       -27.3048
  40   2.0000      -0.985581       -26.8190
  41   2.0000      -0.966525       -26.3005
  42   2.0000      -0.946948       -25.7678
  43   2.0000      -0.930123       -25.3099
  44   2.0000      -0.898037       -24.4368
  45   2.0000      -0.871759       -23.7218
  46   2.0000      -0.855983       -23.2925
  47   2.0000      -0.828252       -22.5379
  48   2.0000      -0.817004       -22.2318
  49   2.0000      -0.785534       -21.3755
  50   2.0000      -0.763911       -20.7871
  51   2.0000      -0.749898       -20.4058
  52   2.0000      -0.737336       -20.0639
  53   2.0000      -0.733027       -19.9467
  54   2.0000      -0.724983       -19.7278
  55   2.0000      -0.708200       -19.2711
  56   2.0000      -0.686259       -18.6741
  57   2.0000      -0.684506       -18.6264
  58   2.0000      -0.679893       -18.5008
  59   2.0000      -0.675007       -18.3679
  60   2.0000      -0.659218       -17.9382
  61   2.0000      -0.652718       -17.7614
  62   2.0000      -0.640960       -17.4414
  63   2.0000      -0.630002       -17.1432
  64   2.0000      -0.618456       -16.8290
  65   2.0000      -0.617457       -16.8019
  66   2.0000      -0.613564       -16.6959
  67   2.0000      -0.605549       -16.4778
  68   2.0000      -0.595899       -16.2152
  69   2.0000      -0.588179       -16.0052
  70   2.0000      -0.582788       -15.8585
  71   2.0000      -0.579632       -15.7726
  72   2.0000      -0.572008       -15.5651
  73   2.0000      -0.562094       -15.2954
  74   2.0000      -0.561176       -15.2704
  75   2.0000      -0.557862       -15.1802
  76   2.0000      -0.551078       -14.9956
  77   2.0000      -0.544353       -14.8126
  78   2.0000      -0.542385       -14.7591
  79   2.0000      -0.541683       -14.7399
  80   2.0000      -0.536418       -14.5967
  81   2.0000      -0.525705       -14.3052
  82   2.0000      -0.524393       -14.2695
  83   2.0000      -0.515810       -14.0359
  84   2.0000      -0.510532       -13.8923
  85   2.0000      -0.502424       -13.6717
  86   2.0000      -0.498269       -13.5586
  87   2.0000      -0.493991       -13.4422
  88   2.0000      -0.484735       -13.1903
  89   2.0000      -0.479147       -13.0382
  90   2.0000      -0.475698       -12.9444
  91   2.0000      -0.464844       -12.6491
  92   2.0000      -0.451157       -12.2766
  93   2.0000      -0.432756       -11.7759
  94   2.0000      -0.428954       -11.6724
  95   2.0000      -0.407231       -11.0813
  96   2.0000      -0.381446       -10.3797
  97   2.0000      -0.369380       -10.0513
  98   2.0000      -0.311118        -8.4659
  99   2.0000      -0.240076        -6.5328
 100   0.0000       0.016511         0.4493
 101   0.0000       0.020098         0.5469
 102   0.0000       0.021138         0.5752
 103   0.0000       0.023746         0.6462
 104   0.0000       0.027447         0.7469

MULLIKEN ATOMIC CHARGES
-----------------------
   0 C :   -0.454376
   1 C :   -0.287643
   2 C :    1.319618
   3 C :   -0.073879
   4 C :   -0.465105
   5 C :    0.547754
   6 H :    0.196876
   7 C :   -0.625589
   8 C :    1.018553
   9 H :   -0.149835
  10 C :    1.101079
  11 C :    0.007959
  12 C :   -0.132969
  13 C :   -0.567858
  14 C :    2.132435
  15 H :    0.215395
  16 N :   -0.546737
  17 H :    0.048358
  18 C :    0.595973
  19 C :   -0.403074
  20 H :    0.284683
  21 C :    1.000852
  22 H :    0.080264
  23 O :   -1.299667
  24 C :   -0.949165
  25 H :    0.135814
  26 O :   -1.215997
  27 H :   -0.065661
  28 C :   -0.951286
  29 C :   -1.217475
  30 H :    0.355196
  31 H :    0.070862
  32 H :    0.145281
  33 H :    0.375245
  34 H :    0.381995
  35 H :    0.155712
  36 H :    0.231385
  37 C :   -0.178430
  38 O :   -1.232532
  39 H :    0.321564
  40 H :    0.212209
  41 H :    0.232190
  42 H :    0.225786
  43 H :    0.242908
  44 H :    0.134598
  45 C :   -0.604218
  46 O :   -1.179120
  47 H :   -0.022124
  48 H :    0.277834
  49 C :   -1.063910
  50 H :    0.202603
  51 H :    0.351209
  52 H :    0.268106
  53 H :    0.200213
  54 H :    0.276920
  55 H :    0.339218
Sum of atomic charges:   -0.0000000

LOEWDIN ATOMIC CHARGES
----------------------
   0 C :    0.375562
   1 C :    0.325551
   2 C :   -0.008713
   3 C :    0.245702
   4 C :    0.195172
   5 C :   -0.033744
   6 H :   -0.309731
   7 C :    0.356399
   8 C :    0.000719
   9 H :   -0.348755
  10 C :   -0.194411
  11 C :    0.336225
  12 C :    0.367640
  13 C :    0.385231
  14 C :   -0.855101
  15 H :   -0.307525
  16 N :    0.462885
  17 H :   -0.289307
  18 C :   -0.190127
  19 C :    0.368540
  20 H :   -0.367152
  21 C :   -0.244098
  22 H :   -0.354906
  23 O :    1.321285
  24 C :    0.375862
  25 H :   -0.328378
  26 O :    1.301072
  27 H :   -0.321347
  28 C :    0.917454
  29 C :    0.918321
  30 H :   -0.373061
  31 H :   -0.333560
  32 H :   -0.294553
  33 H :   -0.781078
  34 H :   -0.853943
  35 H :   -0.320278
  36 H :   -0.317094
  37 C :   -0.008536
  38 O :    0.727590
  39 H :   -0.314093
  40 H :   -0.271025
  41 H :   -0.275827
  42 H :   -0.307837
  43 H :   -0.307123
  44 H :   -0.248666
  45 C :    0.538991
  46 O :    1.324163
  47 H :   -0.268648
  48 H :   -0.263703
  49 C :    0.950992
  50 H :   -0.269061
  51 H :   -0.238163
  52 H :   -0.284776
  53 H :   -0.274890
  54 H :   -0.267447
  55 H :   -0.768701

  Mayer bond orders larger than 0.100000
B(  0-C ,  1-C ) :   0.5909 B(  0-C ,  2-C ) :   0.4763 B(  0-C ,  3-C ) :  -0.7519
B(  0-C ,  6-H ) :  -0.1258 B(  0-C , 19-C ) :  -0.7686 B(  0-C , 20-H ) :  -0.1521
B(  0-C , 27-H ) :   1.6082 B(  1-C ,  2-C ) :  -0.5945 B(  1-C , 19-C ) :   1.0587
B(  1-C , 20-H ) :   1.1017 B(  1-C , 24-C ) :  -0.4395 B(  1-C , 27-H ) :  -0.1238
B(  2-C ,  3-C ) :   0.8013 B(  2-C ,  4-C ) :   0.1105 B(  2-C ,  5-C ) :   0.1330
B(  2-C ,  6-H ) :  -0.2469 B(  2-C , 11-C ) :   0.1133 B(  2-C , 12-C ) :   0.1695
B(  2-C , 13-C ) :   0.1272 B(  2-C , 14-C ) :   0.1474 B(  2-C , 17-H ) :  -0.1316
B(  2-C , 27-H ) :  -0.2482 B(  2-C , 28-C ) :  -0.1158 B(  2-C , 42-H ) :  -0.2414
B(  2-C , 43-H ) :  -0.1645 B(  2-C , 46-O ) :  -0.2856 B(  3-C ,  4-C ) :   0.1144
B(  3-C ,  5-C ) :   1.2207 B(  3-C ,  6-H ) :   1.0936 B(  3-C , 11-C ) :  -0.1348
B(  3-C , 12-C ) :  -0.1035 B(  3-C , 15-H ) :  -0.1112 B(  3-C , 16-N ) :   0.3659
B(  3-C , 28-C ) :   0.2089 B(  4-C , 12-C ) :  -0.1883 B(  4-C , 13-C ) :   1.3390
B(  4-C , 14-C ) :   0.9100 B(  4-C , 15-H ) :   1.1229 B(  4-C , 30-H ) :  -0.1474
B(  4-C , 38-O ) :   0.6219 B(  5-C , 11-C ) :   0.1149 B(  5-C , 16-N ) :   0.4446
B(  5-C , 17-H ) :   1.0520 B(  5-C , 18-C ) :   0.2866 B(  5-C , 37-C ) :  -0.1878
B(  5-C , 45-C ) :  -0.2461 B(  5-C , 46-O ) :   0.2210 B(  5-C , 47-H ) :  -0.2170
B(  6-H , 17-H ) :   0.1827 B(  7-C ,  8-C ) :   0.9125 B(  7-C ,  9-H ) :   1.7146
B(  7-C , 10-C ) :   0.8128 B(  7-C , 11-C ) :  -0.6666 B(  7-C , 19-C ) :  -0.1276
B(  7-C , 23-O ) :   0.2750 B(  7-C , 30-H ) :  -0.2245 B(  8-C ,  9-H ) :  -0.3008
B(  8-C , 10-C ) :  -0.3840 B(  8-C , 11-C ) :   0.6317 B(  8-C , 12-C ) :  -0.6126
B(  8-C , 23-O ) :   0.1236 B(  8-C , 29-C ) :   0.2873 B(  8-C , 30-H ) :  -0.1748
B(  8-C , 39-H ) :  -0.1414 B(  8-C , 40-H ) :  -0.1909 B(  8-C , 41-H ) :  -0.1866
B(  9-H , 19-C ) :   0.1119 B(  9-H , 23-O ) :  -0.1708 B(  9-H , 30-H ) :  -0.1305
B( 10-C , 21-C ) :   1.0072 B( 10-C , 22-H ) :   1.0120 B( 10-C , 23-O ) :  -0.4472
B( 11-C , 12-C ) :   1.1890 B( 11-C , 13-C ) :  -0.6034 B( 11-C , 30-H ) :   1.1657
B( 11-C , 31-H ) :  -0.1232 B( 12-C , 13-C ) :   0.7248 B( 12-C , 31-H ) :   1.2628
B( 12-C , 32-H ) :  -0.2751 B( 13-C , 14-C ) :  -0.3137 B( 13-C , 15-H ) :   0.1169
B( 13-C , 31-H ) :  -0.2624 B( 13-C , 32-H ) :   1.2426 B( 14-C , 15-H ) :  -0.1240
B( 14-C , 16-N ) :   1.3630 B( 14-C , 38-O ) :  -0.8572 B( 16-N , 37-C ) :   0.4822
B( 16-N , 38-O ) :   0.9177 B( 16-N , 48-H ) :  -0.1327 B( 16-N , 49-C ) :  -0.1140
B( 17-H , 46-O ) :   0.1456 B( 18-C , 37-C ) :  -0.1109 B( 18-C , 45-C ) :   1.0666
B( 18-C , 46-O ) :  -0.1588 B( 18-C , 47-H ) :   1.3423 B( 19-C , 24-C ) :   1.6025
B( 19-C , 35-H ) :   1.1003 B( 19-C , 36-H ) :  -0.1837 B( 20-H , 21-C ) :  -0.1134
B( 21-C , 23-O ) :   0.1845 B( 21-C , 24-C ) :   1.0484 B( 21-C , 25-H ) :   1.0119
B( 21-C , 26-O ) :  -0.4166 B( 22-H , 26-O ) :   0.1132 B( 23-O , 33-H ) :   0.8652
B( 24-C , 26-O ) :   0.2283 B( 24-C , 35-H ) :  -0.1485 B( 24-C , 36-H ) :   1.1219
B( 26-O , 34-H ) :   0.8531 B( 28-C , 42-H ) :   1.1285 B( 28-C , 43-H ) :   1.1471
B( 28-C , 44-H ) :   1.1176 B( 29-C , 39-H ) :   1.0050 B( 29-C , 40-H ) :   1.0721
B( 29-C , 41-H ) :   1.1796 B( 37-C , 45-C ) :   0.8751 B( 37-C , 48-H ) :   1.0611
B( 37-C , 49-C ) :   0.5408 B( 37-C , 52-H ) :  -0.1184 B( 40-H , 41-H ) :   0.1004
B( 45-C , 46-O ) :   0.1202 B( 45-C , 49-C ) :   0.1083 B( 45-C , 50-H ) :   1.0121
B( 45-C , 51-H ) :   0.8635 B( 46-O , 47-H ) :   0.1366 B( 46-O , 55-H ) :   0.9311
B( 49-C , 52-H ) :   1.0614 B( 49-C , 53-H ) :   1.0107 B( 49-C , 54-H ) :   1.0408

MP2 TOTAL ENERGY:    -1209.390537156 Eh
FINAL SINGLE POINT ENERGY     -1209.390537155882

DIPOLE MOMENT
-------------
                                X             Y             Z
Electronic contribution:     -4.01731      -0.93832      -7.82532
Nuclear contribution   :      4.24935       1.81713       8.04940
                        -----------------------------------------
Total Dipole Moment    :      0.23204       0.87881       0.22409
                        -----------------------------------------
Magnitude (a.u.)       :      0.93614
Magnitude (Debye)      :      2.37949

Rotational constants in cm-1:     0.014112     0.003209     0.002874
Rotational constants in MHz :   423.061746    96.217923    86.153475

                             ****ORCA TERMINATED NORMALLY****
TOTAL RUN TIME: 0 days 7 hours 28 minutes 11 seconds 810 msec
