                         Program Version 4.2.1 -  RELEASE  -
|  1> %pal
|  2>  nprocs 32
|  3> end
|  4> !RI-MP2 aug-cc-pVQZ aug-cc-pVQZ/C TightSCF
|  5> %maxcore 4500
|  6> *xyzfile 0 2  01_1P.xyz
|  7>
|  8>
|  9>                          ****END OF INPUT****

CARTESIAN COORDINATES (ANGSTROEM)
---------------------------------
  C     -0.903945    0.744896   -0.135222
  C     -0.903937   -0.744877   -0.135468
  C      0.268864   -0.000061    0.488192
  C      1.567319    0.000056   -0.162858
  H     -1.577030    1.263506    0.535617
  H     -0.712860    1.257833   -1.069199
  H     -0.712833   -1.257508   -1.069607
  H     -1.576996   -1.263719    0.535217
  H      0.288923   -0.000261    1.571504
  H      2.482217   -0.000404    0.412218
  H      1.638776    0.000465   -1.243616

 Total Charge           Charge          ....    0
 Multiplicity           Mult            ....    2
 Number of Electrons    NEL             ....   31
 Basis Dimension        Dim             ....  642

ORBITAL ENERGIES
----------------
                 SPIN UP ORBITALS
  NO   OCC          E(Eh)            E(eV)
   0   1.0000     -11.229711      -305.5760
   1   1.0000     -11.225799      -305.4695
   2   1.0000     -11.225136      -305.4515
   3   1.0000     -11.224906      -305.4452
   4   1.0000      -1.148294       -31.2467
   5   1.0000      -0.967600       -26.3297
   6   1.0000      -0.825247       -22.4561
   7   1.0000      -0.776038       -21.1171
   8   1.0000      -0.672451       -18.2983
   9   1.0000      -0.623772       -16.9737
  10   1.0000      -0.567931       -15.4542
  11   1.0000      -0.517993       -14.0953
  12   1.0000      -0.515858       -14.0372
  13   1.0000      -0.475251       -12.9323
  14   1.0000      -0.430144       -11.7048
  15   1.0000      -0.312479        -8.5030
  16   0.0000       0.028259         0.7690
  17   0.0000       0.034171         0.9298
  18   0.0000       0.034879         0.9491
  19   0.0000       0.038183         1.0390
  20   0.0000       0.051395         1.3985

                 SPIN DOWN ORBITALS
  NO   OCC          E(Eh)            E(eV)
   0   1.0000     -11.234026      -305.6934
   1   1.0000     -11.222822      -305.3885
   2   1.0000     -11.222100      -305.3689
   3   1.0000     -11.202071      -304.8238
   4   1.0000      -1.137899       -30.9638
   5   1.0000      -0.909797       -24.7568
   6   1.0000      -0.815357       -22.1870
   7   1.0000      -0.758101       -20.6290
   8   1.0000      -0.666584       -18.1387
   9   1.0000      -0.618184       -16.8217
  10   1.0000      -0.557439       -15.1687
  11   1.0000      -0.513828       -13.9820
  12   1.0000      -0.509441       -13.8626
  13   1.0000      -0.422131       -11.4868
  14   1.0000      -0.418466       -11.3870
  15   0.0000       0.028581         0.7777
  16   0.0000       0.034487         0.9384
  17   0.0000       0.035006         0.9526
  18   0.0000       0.036537         0.9942
  19   0.0000       0.051464         1.4004

MULLIKEN ATOMIC CHARGES AND SPIN POPULATIONS
--------------------------------------------
   0 C :   -0.702891    0.112761
   1 C :   -0.702920    0.112860
   2 C :   -0.374515   -0.288974
   3 C :   -0.867554    1.211789
   4 H :    0.363934    0.001389
   5 H :    0.353133   -0.011858
   6 H :    0.353164   -0.011869
   7 H :    0.363889    0.001389
   8 H :    0.507232    0.005934
   9 H :    0.342714   -0.069886
  10 H :    0.363814   -0.063536
Sum of atomic charges         :    0.0000000

LOEWDIN ATOMIC CHARGES AND SPIN POPULATIONS
-------------------------------------------
   0 C :    0.572300    0.044479
   1 C :    0.572322    0.044506
   2 C :    0.100694    0.125209
   3 C :    0.849653    0.444313
   4 H :   -0.274398    0.011178
   5 H :   -0.282627    0.010638
   6 H :   -0.282627    0.010651
   7 H :   -0.274401    0.011188
   8 H :   -0.296544   -0.000741
   9 H :   -0.344005    0.151666
  10 H :   -0.340366    0.146913

  Mayer bond orders larger than 0.100000
B(  0-C ,  1-C ) :   1.0874 B(  0-C ,  2-C ) :   0.8818 B(  0-C ,  4-H ) :   0.8409
B(  0-C ,  5-H ) :   0.8565 B(  1-C ,  2-C ) :   0.8818 B(  1-C ,  6-H ) :   0.8565
B(  1-C ,  7-H ) :   0.8410 B(  2-C ,  3-C ) :   0.9711 B(  2-C ,  8-H ) :   0.7255
B(  3-C ,  9-H ) :   0.9676 B(  3-C , 10-H ) :   0.8409

MP2 TOTAL ENERGY:     -156.230341181 Eh
FINAL SINGLE POINT ENERGY      -156.230341180731

DIPOLE MOMENT
-------------
                                X             Y             Z
Electronic contribution:      0.07857       0.00004       0.39703
Nuclear contribution   :     -0.17942      -0.00009      -0.34643
                        -----------------------------------------
Total Dipole Moment    :     -0.10085      -0.00006       0.05060
                        -----------------------------------------
Magnitude (a.u.)       :      0.11283
Magnitude (Debye)      :      0.28680

Rotational constants in cm-1:     0.553628     0.222503     0.198823
Rotational constants in MHz : 16597.361313  6670.473383  5960.557164

                             ****ORCA TERMINATED NORMALLY****
TOTAL RUN TIME: 0 days 0 hours 7 minutes 25 seconds 106 msec
