                         Program Version 4.2.1 -  RELEASE  -
|  1> %pal
|  2>  nprocs 32
|  3> end
|  4> !RI-MP2 aug-cc-pVQZ aug-cc-pVQZ/C TightSCF
|  5> %maxcore 4500
|  6> *xyzfile 0 1  08_1R1.xyz
|  7>
|  8>
|  9>                          ****END OF INPUT****

CARTESIAN COORDINATES (ANGSTROEM)
---------------------------------
  C     -0.461185    0.174945   -0.000014
  O     -0.285321    1.363931    0.000049
  C     -1.793043   -0.514647   -0.000041
  H     -1.878624   -1.153476    0.879999
  H     -1.878367   -1.153998   -0.879721
  H     -2.586075    0.228403   -0.000353
  O      0.546400   -0.713997   -0.000040
  C      1.865869   -0.161884    0.000031
  H      2.540597   -1.013707   -0.000047
  H      2.022004    0.451503   -0.887214
  H      2.021984    0.451323    0.887404

 Total Charge           Charge          ....    0
 Multiplicity           Mult            ....    1
 Number of Electrons    NEL             ....   40
 Basis Dimension        Dim             ....  676

ORBITAL ENERGIES
----------------

  NO   OCC          E(Eh)            E(eV)
   0   2.0000     -20.600060      -560.5561
   1   2.0000     -20.540533      -558.9363
   2   2.0000     -11.376974      -309.5832
   3   2.0000     -11.283835      -307.0488
   4   2.0000     -11.239491      -305.8421
   5   2.0000      -1.462706       -39.8022
   6   2.0000      -1.359615       -36.9970
   7   2.0000      -1.035842       -28.1867
   8   2.0000      -0.948745       -25.8167
   9   2.0000      -0.778031       -21.1713
  10   2.0000      -0.695930       -18.9372
  11   2.0000      -0.678533       -18.4638
  12   2.0000      -0.677792       -18.4437
  13   2.0000      -0.594478       -16.1766
  14   2.0000      -0.592353       -16.1187
  15   2.0000      -0.560353       -15.2480
  16   2.0000      -0.528293       -14.3756
  17   2.0000      -0.523775       -14.2526
  18   2.0000      -0.463549       -12.6138
  19   2.0000      -0.450095       -12.2477
  20   0.0000       0.025148         0.6843
  21   0.0000       0.031873         0.8673
  22   0.0000       0.038612         1.0507
  23   0.0000       0.041554         1.1308
  24   0.0000       0.051281         1.3954

MULLIKEN ATOMIC CHARGES
-----------------------
   0 C :    0.913249
   1 O :   -0.722393
   2 C :   -0.756308
   3 H :    0.288051
   4 H :    0.288034
   5 H :    0.295917
   6 O :   -0.649160
   7 C :   -0.645348
   8 H :    0.418920
   9 H :    0.284522
  10 H :    0.284515
Sum of atomic charges:    0.0000000

LOEWDIN ATOMIC CHARGES
----------------------
   0 C :   -1.089170
   1 O :    0.707138
   2 C :    0.864692
   3 H :   -0.301365
   4 H :   -0.301382
   5 H :   -0.322082
   6 O :    0.836034
   7 C :    0.567480
   8 H :   -0.325399
   9 H :   -0.317977
  10 H :   -0.317970

  Mayer bond orders larger than 0.100000
B(  0-C ,  1-O ) :   1.4895 B(  0-C ,  2-C ) :   0.8808 B(  0-C ,  6-O ) :   1.0005
B(  2-C ,  3-H ) :   0.9205 B(  2-C ,  4-H ) :   0.9206 B(  2-C ,  5-H ) :   0.9686
B(  6-O ,  7-C ) :   0.8381 B(  7-C ,  8-H ) :   0.8360 B(  7-C ,  9-H ) :   0.9175
B(  7-C , 10-H ) :   0.9175

MP2 TOTAL ENERGY:     -268.006149036 Eh
FINAL SINGLE POINT ENERGY      -268.006149035996

DIPOLE MOMENT
-------------
                                X             Y             Z
Electronic contribution:     -0.17143       1.39948      -0.00008
Nuclear contribution   :      0.24910      -2.21042       0.00007
                        -----------------------------------------
Total Dipole Moment    :      0.07767      -0.81095      -0.00001
                        -----------------------------------------
Magnitude (a.u.)       :      0.81466
Magnitude (Debye)      :      2.07070

Rotational constants in cm-1:     0.344536     0.139391     0.103061
Rotational constants in MHz : 10328.920177  4178.849460  3089.679288

                             ****ORCA TERMINATED NORMALLY****
TOTAL RUN TIME: 0 days 0 hours 5 minutes 55 seconds 865 msec
