                         Program Version 4.2.1 -  RELEASE  -
|  1> %pal
|  2>  nprocs 32
|  3> end
|  4> !RI-MP2 aug-cc-pVQZ aug-cc-pVQZ/C TightSCF
|  5> %maxcore 4500
|  6> *xyzfile -1 1  09_6TS.xyz
|  7>
|  8>
|  9>                          ****END OF INPUT****

CARTESIAN COORDINATES (ANGSTROEM)
---------------------------------
  C      1.857431   -0.935521   -0.834395
  C      1.294386   -0.056991    0.278314
  C      0.210077   -0.556220    1.014064
  O      1.732855    1.110978    0.354923
  C     -1.567046    0.142109   -0.113523
  C     -2.474015   -0.841865   -0.055799
  C     -1.285582    1.391242   -0.465254
  H      2.949121   -0.887680   -0.818068
  H      1.532722   -1.976184   -0.763653
  H      1.521525   -0.526778   -1.793048
  H     -0.103620   -0.010451    1.896264
  H     -0.016268   -1.614078    0.984940
  H     -0.512437    1.968854    0.026765
  H     -1.739623    1.799870   -1.362860
  H     -3.501506   -0.612145    0.207272
  H     -2.204255   -1.885761   -0.157438

 Total Charge           Charge          ....   -1
 Multiplicity           Mult            ....    1
 Number of Electrons    NEL             ....   54
 Basis Dimension        Dim             ....  974

ORBITAL ENERGIES
----------------

  NO   OCC          E(Eh)            E(eV)
   0   2.0000     -20.319255      -552.9150
   1   2.0000     -11.121951      -302.6437
   2   2.0000     -11.117377      -302.5192
   3   2.0000     -11.067078      -301.1505
   4   2.0000     -11.044840      -300.5454
   5   2.0000     -11.044308      -300.5309
   6   2.0000     -11.016157      -299.7649
   7   2.0000      -1.154740       -31.4221
   8   2.0000      -0.900691       -24.5090
   9   2.0000      -0.847798       -23.0697
  10   2.0000      -0.767828       -20.8937
  11   2.0000      -0.761115       -20.7110
  12   2.0000      -0.546183       -14.8624
  13   2.0000      -0.537573       -14.6281
  14   2.0000      -0.453371       -12.3368
  15   2.0000      -0.448170       -12.1953
  16   2.0000      -0.443709       -12.0739
  17   2.0000      -0.439199       -11.9512
  18   2.0000      -0.419762       -11.4223
  19   2.0000      -0.411479       -11.1969
  20   2.0000      -0.377345       -10.2681
  21   2.0000      -0.342258        -9.3133
  22   2.0000      -0.309411        -8.4195
  23   2.0000      -0.228612        -6.2208
  24   2.0000      -0.218812        -5.9542
  25   2.0000      -0.201199        -5.4749
  26   2.0000      -0.073204        -1.9920
  27   0.0000       0.111589         3.0365
  28   0.0000       0.112874         3.0715
  29   0.0000       0.118833         3.2336
  30   0.0000       0.123739         3.3671
  31   0.0000       0.128936         3.5085

MULLIKEN ATOMIC CHARGES
-----------------------
   0 C :   -0.932412
   1 C :    0.916720
   2 C :   -0.809165
   3 O :   -1.023118
   4 C :    0.042846
   5 C :   -0.924856
   6 C :   -0.970455
   7 H :    0.280477
   8 H :    0.228003
   9 H :    0.227098
  10 H :    0.210752
  11 H :    0.228997
  12 H :    0.454639
  13 H :    0.372647
  14 H :    0.397021
  15 H :    0.300805
Sum of atomic charges:   -1.0000000

LOEWDIN ATOMIC CHARGES
----------------------
   0 C :    0.815939
   1 C :   -0.836647
   2 C :    0.527697
   3 O :    0.625594
   4 C :   -0.016387
   5 C :    0.651692
   6 C :    0.666804
   7 H :   -0.324223
   8 H :   -0.328698
   9 H :   -0.309886
  10 H :   -0.373871
  11 H :   -0.406250
  12 H :   -0.454442
  13 H :   -0.395770
  14 H :   -0.418898
  15 H :   -0.422652

  Mayer bond orders larger than 0.100000
B(  0-C ,  1-C ) :   0.8232 B(  0-C ,  3-O ) :   0.1462 B(  0-C ,  7-H ) :   0.9844
B(  0-C ,  8-H ) :   1.0151 B(  0-C ,  9-H ) :   0.9300 B(  1-C ,  2-C ) :   1.3288
B(  1-C ,  3-O ) :   0.8226 B(  2-C ,  3-O ) :   0.1608 B(  2-C ,  4-C ) :   0.2156
B(  2-C , 10-H ) :   0.9764 B(  2-C , 11-H ) :   1.0124 B(  4-C ,  5-C ) :   1.5271
B(  4-C ,  6-C ) :   1.6270 B(  5-C ,  6-C ) :  -0.1131 B(  5-C , 14-H ) :   0.9093
B(  5-C , 15-H ) :   0.9272 B(  6-C , 12-H ) :   0.8142 B(  6-C , 13-H ) :   0.9031

MP2 TOTAL ENERGY:     -308.670314248 Eh
FINAL SINGLE POINT ENERGY      -308.670314247856

DIPOLE MOMENT
-------------
                                X             Y             Z
Electronic contribution:      2.04097       2.96139       1.33943
Nuclear contribution   :     -2.09762      -3.81895      -1.81808
                        -----------------------------------------
Total Dipole Moment    :     -0.05665      -0.85756      -0.47865
                        -----------------------------------------
Magnitude (a.u.)       :      0.98374
Magnitude (Debye)      :      2.50046

Rotational constants in cm-1:     0.138253     0.055351     0.047926
Rotational constants in MHz :  4144.722574  1659.383144  1436.780904

                             ****ORCA TERMINATED NORMALLY****
TOTAL RUN TIME: 0 days 0 hours 21 minutes 2 seconds 786 msec
