                         Program Version 4.2.1 -  RELEASE  -
|  1> %pal
|  2>  nprocs 32
|  3> end
|  4> !RI-MP2 aug-cc-pVQZ aug-cc-pVQZ/C TightSCF
|  5> %maxcore 4500
|  6> *xyzfile 0 1  10_92R.xyz
|  7>
|  8>
|  9>                          ****END OF INPUT****

CARTESIAN COORDINATES (ANGSTROEM)
---------------------------------
  C      1.513309    1.951363   -0.730107
  C      2.626949    1.044653   -0.193471
  C      2.358986   -0.437207   -0.472625
  C      3.412688   -1.307303    0.034968
  C      0.212453    1.684215   -0.121607
  H      1.782701    2.995962   -0.553381
  H      1.433153    1.833314   -1.815778
  H      2.735151    1.194751    0.882852
  H      3.573894    1.333643   -0.654825
  H      1.407097   -0.724070   -0.017299
  H      2.249913   -0.595916   -1.550385
  C     -0.847043    1.453294    0.389807
  C      4.287946   -2.004135    0.460528
  C     -2.132359    1.132715    1.004528
  H     -2.939828    1.394858    0.314024
  C     -2.247360   -0.345855    1.394069
  H     -3.205536   -0.510702    1.891336
  H     -1.460463   -0.596155    2.108497
  C     -2.121459   -1.297222    0.198725
  H     -1.166918   -1.137870   -0.308376
  H     -2.144303   -2.336151    0.533524
  C     -3.190879   -1.107307   -0.776533
  N     -4.041851   -0.939484   -1.527340
  H     -2.274497    1.748350    1.896266
  H      5.063212   -2.626897    0.835242

 Total Charge           Charge          ....    0
 Multiplicity           Mult            ....    1
 Number of Electrons    NEL             ....   86
 Basis Dimension        Dim             .... 1558

ORBITAL ENERGIES
----------------

  NO   OCC          E(Eh)            E(eV)
   0   2.0000     -15.564152      -423.5221
   1   2.0000     -11.281133      -306.9752
   2   2.0000     -11.269186      -306.6501
   3   2.0000     -11.261471      -306.4402
   4   2.0000     -11.259102      -306.3757
   5   2.0000     -11.258460      -306.3583
   6   2.0000     -11.257479      -306.3316
   7   2.0000     -11.244066      -305.9666
   8   2.0000     -11.235596      -305.7361
   9   2.0000     -11.229769      -305.5775
  10   2.0000     -11.225734      -305.4678
  11   2.0000     -11.222058      -305.3677
  12   2.0000      -1.222828       -33.2748
  13   2.0000      -1.125169       -30.6174
  14   2.0000      -1.112817       -30.2813
  15   2.0000      -1.061791       -28.8928
  16   2.0000      -1.029692       -28.0193
  17   2.0000      -0.987318       -26.8663
  18   2.0000      -0.948860       -25.8198
  19   2.0000      -0.870125       -23.6773
  20   2.0000      -0.842858       -22.9353
  21   2.0000      -0.724984       -19.7278
  22   2.0000      -0.714484       -19.4421
  23   2.0000      -0.680093       -18.5063
  24   2.0000      -0.666538       -18.1374
  25   2.0000      -0.656274       -17.8581
  26   2.0000      -0.642449       -17.4819
  27   2.0000      -0.632642       -17.2151
  28   2.0000      -0.615040       -16.7361
  29   2.0000      -0.595247       -16.1975
  30   2.0000      -0.559904       -15.2358
  31   2.0000      -0.549682       -14.9576
  32   2.0000      -0.544669       -14.8212
  33   2.0000      -0.539689       -14.6857
  34   2.0000      -0.528198       -14.3730
  35   2.0000      -0.523154       -14.2358
  36   2.0000      -0.509672       -13.8689
  37   2.0000      -0.459660       -12.5080
  38   2.0000      -0.459151       -12.4941
  39   2.0000      -0.397398       -10.8137
  40   2.0000      -0.391319       -10.6483
  41   2.0000      -0.379126       -10.3166
  42   2.0000      -0.375964       -10.2305
  43   0.0000       0.019668         0.5352
  44   0.0000       0.024082         0.6553
  45   0.0000       0.026074         0.7095
  46   0.0000       0.030403         0.8273
  47   0.0000       0.036621         0.9965

MULLIKEN ATOMIC CHARGES
-----------------------
   0 C :   -0.287295
   1 C :   -0.433638
   2 C :   -0.026005
   3 C :    0.157217
   4 C :   -0.189285
   5 H :    0.262056
   6 H :    0.210898
   7 H :    0.194025
   8 H :    0.307210
   9 H :    0.425202
  10 H :    0.268508
  11 C :   -0.072928
  12 C :   -1.221076
  13 C :   -0.246028
  14 H :    0.194676
  15 C :   -0.468179
  16 H :    0.309477
  17 H :    0.286490
  18 C :   -0.659205
  19 H :    0.390552
  20 H :    0.343312
  21 C :    0.475394
  22 N :   -0.758821
  23 H :    0.266794
  24 H :    0.270650
Sum of atomic charges:   -0.0000000

LOEWDIN ATOMIC CHARGES
----------------------
   0 C :    0.452811
   1 C :    0.485299
   2 C :    0.410036
   3 C :    0.105921
   4 C :    0.182923
   5 H :   -0.293131
   6 H :   -0.293072
   7 H :   -0.268000
   8 H :   -0.265594
   9 H :   -0.325283
  10 H :   -0.290595
  11 C :    0.182496
  12 C :    0.575057
  13 C :    0.443665
  14 H :   -0.307089
  15 C :    0.492641
  16 H :   -0.262931
  17 H :   -0.264534
  18 C :    0.438841
  19 H :   -0.321333
  20 H :   -0.286567
  21 C :   -0.263973
  22 N :    0.427717
  23 H :   -0.289113
  24 H :   -0.466191

  Mayer bond orders larger than 0.100000
B(  0-C ,  1-C ) :   1.1339 B(  0-C ,  4-C ) :   0.5270 B(  0-C ,  5-H ) :   1.0103
B(  0-C ,  6-H ) :   0.9584 B(  1-C ,  2-C ) :   0.9747 B(  1-C ,  3-C ) :  -0.1442
B(  1-C ,  4-C ) :  -0.1657 B(  1-C ,  7-H ) :   0.9332 B(  1-C ,  8-H ) :   0.8957
B(  2-C ,  3-C ) :   0.6774 B(  2-C ,  9-H ) :   0.7891 B(  2-C , 10-H ) :   0.8819
B(  2-C , 12-C ) :  -0.5287 B(  3-C ,  9-H ) :  -0.2151 B(  3-C , 12-C ) :   2.5042
B(  3-C , 24-H ) :  -0.2527 B(  4-C ,  5-H ) :  -0.1226 B(  4-C , 11-C ) :   3.0620
B( 11-C , 13-C ) :   0.4674 B( 11-C , 15-C ) :  -0.1673 B( 12-C , 24-H ) :   1.3267
B( 13-C , 14-H ) :   0.9929 B( 13-C , 15-C ) :   1.0493 B( 13-C , 23-H ) :   0.9885
B( 15-C , 16-H ) :   0.8880 B( 15-C , 17-H ) :   0.8914 B( 15-C , 18-C ) :   0.9236
B( 15-C , 21-C ) :  -0.1051 B( 18-C , 19-H ) :   0.7790 B( 18-C , 20-H ) :   0.8542
B( 18-C , 21-C ) :   1.2744 B( 19-H , 21-C ) :  -0.1718 B( 21-C , 22-N ) :   2.3783

MP2 TOTAL ENERGY:     -480.739093517 Eh
FINAL SINGLE POINT ENERGY      -480.739093516958

DIPOLE MOMENT
-------------
                                X             Y             Z
Electronic contribution:     -4.01193      -1.87241      -2.52632
Nuclear contribution   :      5.10194       1.99580       3.60365
                        -----------------------------------------
Total Dipole Moment    :      1.09002       0.12340       1.07733
                        -----------------------------------------
Magnitude (a.u.)       :      1.53754
Magnitude (Debye)      :      3.90810

Rotational constants in cm-1:     0.042229     0.013291     0.011639
Rotational constants in MHz :  1265.985896   398.447848   348.924205

                             ****ORCA TERMINATED NORMALLY****
TOTAL RUN TIME: 0 days 1 hours 19 minutes 38 seconds 939 msec
