                         Program Version 4.2.1 -  RELEASE  -
|  1> %pal
|  2>  nprocs 32
|  3> end
|  4> !RI-MP2 aug-cc-pVQZ aug-cc-pVQZ/C TightSCF
|  5> %maxcore 4500
|  6> *xyzfile 0 1  02_21R.xyz
|  7>
|  8>
|  9>                          ****END OF INPUT****

CARTESIAN COORDINATES (ANGSTROEM)
---------------------------------
  C     -1.245618   -0.530767    1.505374
  C      1.709822   -0.422656    0.665754
  C      1.709822   -0.422656   -0.665754
  C     -1.245618   -0.530767   -1.505374
  C     -1.882857    0.346268    0.730360
  C     -1.882857    0.346268   -0.730360
  C      1.270980    0.618188    1.658658
  C     -0.728784   -0.157893    2.851877
  O      0.696864    0.001927    2.810616
  H      0.604376    1.363893    1.217278
  H      2.150776    1.146552    2.036094
  H     -0.894315   -0.925445    3.608922
  H     -1.197596    0.773744    3.191129
  C      1.270980    0.618188   -1.658658
  O      0.696864    0.001927   -2.810616
  C     -0.728784   -0.157893   -2.851877
  H      0.604376    1.363893   -1.217278
  H      2.150776    1.146552   -2.036094
  H     -1.197596    0.773744   -3.191129
  H     -0.894315   -0.925445   -3.608922
  H     -2.232921    1.267418    1.190184
  H     -0.865021   -1.458809    1.092196
  H     -2.232921    1.267418   -1.190184
  H     -0.865021   -1.458809   -1.092196
  H      2.118533   -1.301605    1.158288
  H      2.118533   -1.301605   -1.158288

 Total Charge           Charge          ....    0
 Multiplicity           Mult            ....    1
 Number of Electrons    NEL             ....   90
 Basis Dimension        Dim             .... 1604

ORBITAL ENERGIES
----------------

  NO   OCC          E(Eh)            E(eV)
   0   2.0000     -20.553295      -559.2836
   1   2.0000     -20.553295      -559.2836
   2   2.0000     -11.282269      -307.0061
   3   2.0000     -11.282269      -307.0061
   4   2.0000     -11.280231      -306.9507
   5   2.0000     -11.280227      -306.9506
   6   2.0000     -11.242467      -305.9231
   7   2.0000     -11.241659      -305.9011
   8   2.0000     -11.234193      -305.6979
   9   2.0000     -11.234192      -305.6979
  10   2.0000     -11.229906      -305.5813
  11   2.0000     -11.228172      -305.5341
  12   2.0000      -1.368220       -37.2312
  13   2.0000      -1.367581       -37.2138
  14   2.0000      -1.116137       -30.3716
  15   2.0000      -1.078253       -29.3408
  16   2.0000      -1.054016       -28.6812
  17   2.0000      -0.976530       -26.5727
  18   2.0000      -0.966884       -26.3102
  19   2.0000      -0.876790       -23.8587
  20   2.0000      -0.862548       -23.4711
  21   2.0000      -0.808786       -22.0082
  22   2.0000      -0.754873       -20.5411
  23   2.0000      -0.733181       -19.9509
  24   2.0000      -0.691803       -18.8249
  25   2.0000      -0.679227       -18.4827
  26   2.0000      -0.666045       -18.1240
  27   2.0000      -0.654688       -17.8150
  28   2.0000      -0.636358       -17.3162
  29   2.0000      -0.617557       -16.8046
  30   2.0000      -0.606421       -16.5016
  31   2.0000      -0.602109       -16.3842
  32   2.0000      -0.580927       -15.8078
  33   2.0000      -0.550895       -14.9906
  34   2.0000      -0.545584       -14.8461
  35   2.0000      -0.529197       -14.4002
  36   2.0000      -0.525291       -14.2939
  37   2.0000      -0.492037       -13.3890
  38   2.0000      -0.474775       -12.9193
  39   2.0000      -0.472928       -12.8690
  40   2.0000      -0.441533       -12.0147
  41   2.0000      -0.428291       -11.6544
  42   2.0000      -0.422720       -11.5028
  43   2.0000      -0.358531        -9.7561
  44   2.0000      -0.320778        -8.7288
  45   0.0000       0.024364         0.6630
  46   0.0000       0.028978         0.7885
  47   0.0000       0.029188         0.7942
  48   0.0000       0.031706         0.8628
  49   0.0000       0.040968         1.1148

MULLIKEN ATOMIC CHARGES
-----------------------
   0 C :   -0.334600
   1 C :   -0.321747
   2 C :   -0.321828
   3 C :   -0.334551
   4 C :   -0.089606
   5 C :   -0.089625
   6 C :   -0.019511
   7 C :   -0.213383
   8 O :   -1.015904
   9 H :    0.179920
  10 H :    0.516026
  11 H :    0.406819
  12 H :    0.213664
  13 C :   -0.019511
  14 O :   -1.015905
  15 C :   -0.213401
  16 H :    0.179916
  17 H :    0.516003
  18 H :    0.213685
  19 H :    0.406797
  20 H :    0.148842
  21 H :    0.334968
  22 H :    0.148886
  23 H :    0.334744
  24 H :    0.194649
  25 H :    0.194654
Sum of atomic charges:   -0.0000000

LOEWDIN ATOMIC CHARGES
----------------------
   0 C :    0.330211
   1 C :    0.369405
   2 C :    0.369405
   3 C :    0.330211
   4 C :    0.363696
   5 C :    0.363696
   6 C :    0.147283
   7 C :    0.174788
   8 O :    0.893077
   9 H :   -0.333772
  10 H :   -0.312258
  11 H :   -0.317283
  12 H :   -0.320226
  13 C :    0.147283
  14 O :    0.893077
  15 C :    0.174788
  16 H :   -0.333772
  17 H :   -0.312258
  18 H :   -0.320226
  19 H :   -0.317283
  20 H :   -0.331010
  21 H :   -0.331575
  22 H :   -0.331010
  23 H :   -0.331575
  24 H :   -0.332338
  25 H :   -0.332338

  Mayer bond orders larger than 0.100000
B(  0-C ,  3-C ) :   0.1280 B(  0-C ,  4-C ) :   1.6136 B(  0-C ,  5-C ) :  -0.2948
B(  0-C ,  7-C ) :   0.8778 B(  0-C , 11-H ) :  -0.1008 B(  0-C , 21-H ) :   0.8394
B(  1-C ,  2-C ) :   1.4900 B(  1-C ,  6-C ) :   0.9036 B(  1-C , 24-H ) :   1.1166
B(  1-C , 25-H ) :  -0.1326 B(  2-C , 13-C ) :   0.9036 B(  2-C , 24-H ) :  -0.1327
B(  2-C , 25-H ) :   1.1166 B(  3-C ,  4-C ) :  -0.2949 B(  3-C ,  5-C ) :   1.6135
B(  3-C , 15-C ) :   0.8778 B(  3-C , 19-H ) :  -0.1008 B(  3-C , 23-H ) :   0.8395
B(  4-C ,  5-C ) :   0.4416 B(  4-C , 20-H ) :   1.1477 B(  4-C , 22-H ) :  -0.1904
B(  5-C , 20-H ) :  -0.1904 B(  5-C , 22-H ) :   1.1476 B(  6-C ,  8-O ) :   0.6143
B(  6-C ,  9-H ) :   1.0114 B(  6-C , 10-H ) :   0.7320 B(  7-C ,  8-O ) :   0.6759
B(  7-C , 11-H ) :   0.8666 B(  7-C , 12-H ) :   1.0250 B( 13-C , 14-O ) :   0.6144
B( 13-C , 16-H ) :   1.0114 B( 13-C , 17-H ) :   0.7320 B( 14-O , 15-C ) :   0.6759
B( 15-C , 18-H ) :   1.0250 B( 15-C , 19-H ) :   0.8666

MP2 TOTAL ENERGY:     -538.925072627 Eh
FINAL SINGLE POINT ENERGY      -538.925072626563

DIPOLE MOMENT
-------------
                                X             Y             Z
Electronic contribution:      0.19283      -1.33646       0.00000
Nuclear contribution   :     -0.62067       1.76079      -0.00000
                        -----------------------------------------
Total Dipole Moment    :     -0.42784       0.42433       0.00000
                        -----------------------------------------
Magnitude (a.u.)       :      0.60258
Magnitude (Debye)      :      1.53163

Rotational constants in cm-1:     0.049740     0.024007     0.017686
Rotational constants in MHz :  1491.172844   719.721669   530.200426

                             ****ORCA TERMINATED NORMALLY****
TOTAL RUN TIME: 0 days 2 hours 1 minutes 43 seconds 535 msec
