                         Program Version 4.2.1 -  RELEASE  -
|  1> %pal
|  2>  nprocs 32
|  3> end
|  4> !RI-MP2 aug-cc-pVQZ aug-cc-pVQZ/C TightSCF
|  5> %maxcore 4500
|  6> *xyzfile 0 1  02_3P.xyz
|  7>
|  8>
|  9>                          ****END OF INPUT****

CARTESIAN COORDINATES (ANGSTROEM)
---------------------------------
  C      1.876157   -0.630663   -1.455050
  C      2.786145   -0.096086   -0.390471
  C      2.492934    0.874283    0.471526
  C      3.497939    1.382082    1.465560
  C      1.124999    1.519514    0.505776
  C      0.371725    1.105520    1.778944
  C      0.362015    1.289776   -0.822203
  C      0.437074   -0.159369   -1.317320
  C     -0.435897   -1.083371   -0.500207
  O     -0.084724   -2.225206   -0.224323
  C     -1.768706   -0.583498   -0.144476
  C     -2.108079    0.773276   -0.326129
  C     -1.067311    1.772015   -0.722834
  O     -1.352058    2.931328   -0.918590
  C     -3.387727    1.218211   -0.062212
  C     -4.347880    0.316281    0.393529
  C     -4.032959   -1.009385    0.603686
  C     -2.739482   -1.473058    0.349715
  O     -2.479167   -2.762437    0.579691
  H      3.237470    1.095401    2.488267
  H      4.491074    0.995867    1.245903
  H      3.538651    2.474924    1.440642
  H      0.957803    1.377311    2.657198
  H     -0.592335    1.609302    1.865410
  H      0.203177    0.028271    1.822440
  H     -3.613988    2.266864   -0.199515
  H     -5.353448    0.662457    0.600252
  H     -4.765561   -1.716745    0.970492
  H     -1.528359   -2.914329    0.382718
  O      4.052199   -0.645490   -0.431641
  C      4.174595   -1.877342    0.262753
  H      4.026381   -1.732881    1.337771
  H      5.183723   -2.242939    0.080425
  H      3.452737   -2.616846   -0.097099
  H      0.842811    1.924445   -1.569229
  H      1.273581    2.602843    0.568455
  H     -0.033656   -0.187355   -2.308985
  H      1.898541   -1.721728   -1.445365
  H      2.278155   -0.319548   -2.424406

 Total Charge           Charge          ....    0
 Multiplicity           Mult            ....    1
 Number of Electrons    NEL             ....  152
 Basis Dimension        Dim             .... 2508

ORBITAL ENERGIES
----------------

  NO   OCC          E(Eh)            E(eV)
   0   2.0000     -20.585767      -560.1672
   1   2.0000     -20.568702      -559.7028
   2   2.0000     -20.565188      -559.6072
   3   2.0000     -20.556624      -559.3742
   4   2.0000     -11.358596      -309.0831
   5   2.0000     -11.343561      -308.6740
   6   2.0000     -11.330587      -308.3209
   7   2.0000     -11.281307      -306.9800
   8   2.0000     -11.276336      -306.8447
   9   2.0000     -11.270027      -306.6730
  10   2.0000     -11.265849      -306.5593
  11   2.0000     -11.262426      -306.4662
  12   2.0000     -11.258877      -306.3696
  13   2.0000     -11.255669      -306.2823
  14   2.0000     -11.251766      -306.1761
  15   2.0000     -11.249072      -306.1028
  16   2.0000     -11.246336      -306.0284
  17   2.0000     -11.237606      -305.7908
  18   2.0000     -11.230143      -305.5877
  19   2.0000     -11.225053      -305.4492
  20   2.0000     -11.219071      -305.2864
  21   2.0000      -1.432213       -38.9725
  22   2.0000      -1.403956       -38.2036
  23   2.0000      -1.401938       -38.1487
  24   2.0000      -1.393638       -37.9228
  25   2.0000      -1.188272       -32.3345
  26   2.0000      -1.159615       -31.5547
  27   2.0000      -1.091922       -29.7127
  28   2.0000      -1.063845       -28.9487
  29   2.0000      -1.042894       -28.3786
  30   2.0000      -1.037140       -28.2220
  31   2.0000      -0.974832       -26.5265
  32   2.0000      -0.961298       -26.1582
  33   2.0000      -0.931893       -25.3581
  34   2.0000      -0.911881       -24.8135
  35   2.0000      -0.876312       -23.8457
  36   2.0000      -0.866502       -23.5787
  37   2.0000      -0.828779       -22.5522
  38   2.0000      -0.802608       -21.8401
  39   2.0000      -0.751922       -20.4608
  40   2.0000      -0.737376       -20.0650
  41   2.0000      -0.721563       -19.6347
  42   2.0000      -0.705385       -19.1945
  43   2.0000      -0.696665       -18.9572
  44   2.0000      -0.683962       -18.6116
  45   2.0000      -0.670733       -18.2516
  46   2.0000      -0.651515       -17.7286
  47   2.0000      -0.645393       -17.5620
  48   2.0000      -0.639317       -17.3967
  49   2.0000      -0.636876       -17.3303
  50   2.0000      -0.622908       -16.9502
  51   2.0000      -0.612303       -16.6616
  52   2.0000      -0.609662       -16.5898
  53   2.0000      -0.605898       -16.4873
  54   2.0000      -0.584550       -15.9064
  55   2.0000      -0.578667       -15.7463
  56   2.0000      -0.573666       -15.6103
  57   2.0000      -0.562778       -15.3140
  58   2.0000      -0.555529       -15.1167
  59   2.0000      -0.553287       -15.0557
  60   2.0000      -0.548582       -14.9277
  61   2.0000      -0.542355       -14.7582
  62   2.0000      -0.535041       -14.5592
  63   2.0000      -0.531162       -14.4537
  64   2.0000      -0.522634       -14.2216
  65   2.0000      -0.517034       -14.0692
  66   2.0000      -0.501183       -13.6379
  67   2.0000      -0.491601       -13.3771
  68   2.0000      -0.482796       -13.1376
  69   2.0000      -0.467220       -12.7137
  70   2.0000      -0.436417       -11.8755
  71   2.0000      -0.433096       -11.7851
  72   2.0000      -0.416719       -11.3395
  73   2.0000      -0.371574       -10.1110
  74   2.0000      -0.338699        -9.2165
  75   2.0000      -0.331908        -9.0317
  76   0.0000       0.020662         0.5622
  77   0.0000       0.024273         0.6605
  78   0.0000       0.026425         0.7190
  79   0.0000       0.029944         0.8148
  80   0.0000       0.033751         0.9184

MULLIKEN ATOMIC CHARGES
-----------------------
   0 C :   -0.570112
   1 C :    1.314517
   2 C :   -0.278757
   3 C :   -1.165710
   4 C :    0.453629
   5 C :   -1.132951
   6 C :   -0.517422
   7 C :   -0.038297
   8 C :    1.687059
   9 O :   -1.049015
  10 C :   -0.168327
  11 C :    0.015034
  12 C :    2.010457
  13 O :   -1.160542
  14 C :   -0.816415
  15 C :   -0.423251
  16 C :   -0.792738
  17 C :    1.147557
  18 O :   -1.080523
  19 H :    0.240617
  20 H :    0.246145
  21 H :    0.272307
  22 H :    0.155176
  23 H :    0.259832
  24 H :    0.229289
  25 H :    0.197809
  26 H :    0.190332
  27 H :    0.316896
  28 H :    0.298533
  29 O :   -1.170939
  30 C :   -0.725806
  31 H :    0.217928
  32 H :    0.502509
  33 H :    0.227910
  34 H :    0.301557
  35 H :    0.189508
  36 H :    0.349963
  37 H :    0.140398
  38 H :    0.125840
Sum of atomic charges:    0.0000000

LOEWDIN ATOMIC CHARGES
----------------------
   0 C :    0.503975
   1 C :   -0.383089
   2 C :   -0.022959
   3 C :    0.916113
   4 C :    0.132389
   5 C :    0.955969
   6 C :    0.099322
   7 C :    0.111118
   8 C :   -0.544398
   9 O :    0.929960
  10 C :   -0.093043
  11 C :   -0.118492
  12 C :   -0.640313
  13 O :    0.794826
  14 C :    0.345487
  15 C :    0.371526
  16 C :    0.360727
  17 C :   -0.421855
  18 O :    1.303210
  19 H :   -0.280074
  20 H :   -0.319208
  21 H :   -0.271320
  22 H :   -0.274034
  23 H :   -0.271364
  24 H :   -0.275838
  25 H :   -0.337265
  26 H :   -0.307237
  27 H :   -0.318728
  28 H :   -1.101675
  29 O :    0.875197
  30 C :    0.601194
  31 H :   -0.297399
  32 H :   -0.310916
  33 H :   -0.310290
  34 H :   -0.284227
  35 H :   -0.277664
  36 H :   -0.256570
  37 H :   -0.335163
  38 H :   -0.247891

  Mayer bond orders larger than 0.100000
B(  0-C ,  1-C ) :   0.7869 B(  0-C ,  2-C ) :  -0.1684 B(  0-C ,  7-C ) :   0.8538
B(  0-C ,  8-C ) :  -0.1294 B(  0-C , 29-O ) :   0.1071 B(  0-C , 37-H ) :   1.0826
B(  0-C , 38-H ) :   1.1433 B(  1-C ,  2-C ) :   1.3442 B(  1-C ,  7-C ) :   0.1415
B(  1-C , 29-O ) :  -0.5223 B(  1-C , 30-C ) :  -0.3551 B(  1-C , 33-H ) :  -0.1055
B(  2-C ,  3-C ) :   0.5234 B(  2-C ,  4-C ) :   0.1758 B(  2-C , 19-H ) :  -0.1818
B(  2-C , 20-H ) :  -0.1042 B(  2-C , 21-H ) :  -0.1451 B(  2-C , 29-O ) :   0.5098
B(  2-C , 35-H ) :  -0.1347 B(  3-C , 19-H ) :   1.0541 B(  3-C , 20-H ) :   1.1140
B(  3-C , 21-H ) :   1.0815 B(  4-C ,  5-C ) :   0.5929 B(  4-C ,  6-C ) :   0.8034
B(  4-C , 13-O ) :   0.1762 B(  4-C , 22-H ) :  -0.1250 B(  4-C , 24-H ) :  -0.1021
B(  4-C , 35-H ) :   1.0738 B(  5-C ,  6-C ) :  -0.1450 B(  5-C , 22-H ) :   1.2020
B(  5-C , 23-H ) :   0.9611 B(  5-C , 24-H ) :   0.9946 B(  6-C ,  7-C ) :   0.8699
B(  6-C , 12-C ) :   1.1038 B(  6-C , 13-O ) :   0.7777 B(  6-C , 34-H ) :   1.0367
B(  7-C ,  8-C ) :   1.2973 B(  7-C ,  9-O ) :   0.2171 B(  7-C , 10-C ) :  -0.3163
B(  7-C , 36-H ) :   0.8194 B(  7-C , 37-H ) :  -0.1333 B(  8-C , 10-C ) :   0.2903
B(  8-C , 11-C ) :  -0.2557 B(  8-C , 16-C ) :   0.1321 B(  8-C , 17-C ) :  -0.2965
B(  9-O , 10-C ) :   0.4915 B(  9-O , 28-H ) :   0.2444 B( 10-C , 11-C ) :   0.5064
B( 10-C , 12-C ) :  -0.5940 B( 10-C , 13-O ) :   0.1179 B( 10-C , 14-C ) :  -0.4166
B( 10-C , 15-C ) :   0.1352 B( 10-C , 16-C ) :  -0.2949 B( 10-C , 17-C ) :   0.8060
B( 10-C , 18-O ) :   0.6789 B( 10-C , 28-H ) :   0.2379 B( 11-C , 12-C ) :   1.0146
B( 11-C , 13-O ) :   0.6881 B( 11-C , 14-C ) :   1.2415 B( 11-C , 15-C ) :  -0.5150
B( 11-C , 17-C ) :  -0.3883 B( 12-C , 13-O ) :  -0.9409 B( 12-C , 14-C ) :  -0.2950
B( 12-C , 17-C ) :   0.1034 B( 13-O , 25-H ) :   0.1207 B( 14-C , 15-C ) :   1.3433
B( 14-C , 16-C ) :   0.2574 B( 14-C , 25-H ) :   1.0508 B( 14-C , 26-H ) :  -0.2223
B( 15-C , 16-C ) :   1.3544 B( 15-C , 17-C ) :  -0.3017 B( 15-C , 26-H ) :   1.2734
B( 16-C , 17-C ) :   1.1945 B( 16-C , 18-O ) :   0.3660 B( 16-C , 26-H ) :  -0.1780
B( 16-C , 27-H ) :   0.9198 B( 17-C , 18-O ) :  -0.6609 B( 18-O , 28-H ) :   0.7607
B( 29-O , 30-C ) :   0.9056 B( 30-C , 31-H ) :   0.9903 B( 30-C , 32-H ) :   0.7705
B( 30-C , 33-H ) :   0.9653

MP2 TOTAL ENERGY:     -958.027895496 Eh
FINAL SINGLE POINT ENERGY      -958.027895495968

DIPOLE MOMENT
-------------
                                X             Y             Z
Electronic contribution:    -15.54636      -1.71380      -7.11062
Nuclear contribution   :     15.45236       1.53809       7.37747
                        -----------------------------------------
Total Dipole Moment    :     -0.09401      -0.17571       0.26685
                        -----------------------------------------
Magnitude (a.u.)       :      0.33305
Magnitude (Debye)      :      0.84655

Rotational constants in cm-1:     0.019209     0.007938     0.006534
Rotational constants in MHz :   575.885433   237.972564   195.896049

                             ****ORCA TERMINATED NORMALLY****
TOTAL RUN TIME: 0 days 10 hours 55 minutes 7 seconds 544 msec
