                         Program Version 4.2.1 -  RELEASE  -
|  1> %pal
|  2>  nprocs 32
|  3> end
|  4> !RI-MP2 aug-cc-pVQZ aug-cc-pVQZ/C TightSCF
|  5> %maxcore 4500
|  6> *xyzfile 0 2  01_30R.xyz
|  7>
|  8>
|  9>                          ****END OF INPUT****

CARTESIAN COORDINATES (ANGSTROEM)
---------------------------------
  C      1.352636   -0.180404    0.101325
  C      2.328037   -0.130698   -0.799735
  C      0.011811    0.540766   -0.059012
  C     -1.121271   -0.469934    0.025839
  C     -2.455845   -0.069842    0.560626
  H     -2.983995    0.615636   -0.122338
  H     -2.392111    0.439347    1.524131
  H     -3.099998   -0.943210    0.684554
  C     -1.079976   -1.664793   -0.868756
  H     -1.596485   -2.515616   -0.414242
  H     -0.059444   -1.968407   -1.106971
  H     -1.590806   -1.470960   -1.825209
  C     -0.096352    1.266342   -1.414050
  H      0.014057    0.576028   -2.251544
  H      0.664579    2.044651   -1.508104
  H     -1.074063    1.745551   -1.497638
  C     -0.093025    1.606933    1.047586
  H     -0.146204    1.162917    2.042300
  H     -0.982164    2.224482    0.909798
  H      0.779309    2.262682    1.012926
  C      1.529093   -0.969098    1.371638
  H      2.471873   -1.516292    1.364008
  H      0.712137   -1.682921    1.504324
  H      1.525775   -0.317530    2.248900
  H      2.243247    0.419794   -1.726548
  H      3.263651   -0.651782   -0.631114

 Total Charge           Charge          ....    0
 Multiplicity           Mult            ....    2
 Number of Electrons    NEL             ....   71
 Basis Dimension        Dim             .... 1502

ORBITAL ENERGIES
----------------
                 SPIN UP ORBITALS
  NO   OCC          E(Eh)            E(eV)
   0   1.0000     -11.236011      -305.7474
   1   1.0000     -11.231803      -305.6329
   2   1.0000     -11.223636      -305.4107
   3   1.0000     -11.212527      -305.1084
   4   1.0000     -11.211048      -305.0681
   5   1.0000     -11.210426      -305.0512
   6   1.0000     -11.209440      -305.0244
   7   1.0000     -11.207194      -304.9633
   8   1.0000     -11.202516      -304.8359
   9   1.0000      -1.138036       -30.9675
  10   1.0000      -1.057124       -28.7658
  11   1.0000      -1.007511       -27.4158
  12   1.0000      -0.948237       -25.8028
  13   1.0000      -0.931187       -25.3389
  14   1.0000      -0.910882       -24.7863
  15   1.0000      -0.847221       -23.0541
  16   1.0000      -0.759022       -20.6540
  17   1.0000      -0.676533       -18.4094
  18   1.0000      -0.649892       -17.6844
  19   1.0000      -0.627896       -17.0859
  20   1.0000      -0.611730       -16.6460
  21   1.0000      -0.593865       -16.1599
  22   1.0000      -0.580803       -15.8045
  23   1.0000      -0.563590       -15.3361
  24   1.0000      -0.551165       -14.9980
  25   1.0000      -0.546151       -14.8615
  26   1.0000      -0.532995       -14.5035
  27   1.0000      -0.525589       -14.3020
  28   1.0000      -0.523296       -14.2396
  29   1.0000      -0.510451       -13.8901
  30   1.0000      -0.500259       -13.6127
  31   1.0000      -0.467311       -12.7162
  32   1.0000      -0.460187       -12.5223
  33   1.0000      -0.448200       -12.1961
  34   1.0000      -0.347003        -9.4424
  35   1.0000      -0.312421        -8.5014
  36   0.0000       0.025068         0.6821
  37   0.0000       0.029171         0.7938
  38   0.0000       0.029982         0.8158
  39   0.0000       0.031050         0.8449
  40   0.0000       0.041504         1.1294

                 SPIN DOWN ORBITALS
  NO   OCC          E(Eh)            E(eV)
   0   1.0000     -11.238921      -305.8266
   1   1.0000     -11.229667      -305.5748
   2   1.0000     -11.214157      -305.1527
   3   1.0000     -11.212516      -305.1081
   4   1.0000     -11.210238      -305.0461
   5   1.0000     -11.209983      -305.0391
   6   1.0000     -11.207625      -304.9750
   7   1.0000     -11.203960      -304.8752
   8   1.0000     -11.198413      -304.7243
   9   1.0000      -1.123060       -30.5600
  10   1.0000      -1.038453       -28.2577
  11   1.0000      -0.998973       -27.1834
  12   1.0000      -0.946518       -25.7561
  13   1.0000      -0.931407       -25.3449
  14   1.0000      -0.909855       -24.7584
  15   1.0000      -0.838256       -22.8101
  16   1.0000      -0.736264       -20.0348
  17   1.0000      -0.665187       -18.1007
  18   1.0000      -0.637396       -17.3444
  19   1.0000      -0.622616       -16.9422
  20   1.0000      -0.598616       -16.2892
  21   1.0000      -0.576840       -15.6966
  22   1.0000      -0.574451       -15.6316
  23   1.0000      -0.557374       -15.1669
  24   1.0000      -0.547802       -14.9064
  25   1.0000      -0.540930       -14.7195
  26   1.0000      -0.527825       -14.3628
  27   1.0000      -0.521630       -14.1943
  28   1.0000      -0.520240       -14.1565
  29   1.0000      -0.508947       -13.8492
  30   1.0000      -0.496312       -13.5053
  31   1.0000      -0.460619       -12.5341
  32   1.0000      -0.451220       -12.2783
  33   1.0000      -0.443832       -12.0773
  34   1.0000      -0.348139        -9.4733
  35   0.0000       0.025146         0.6842
  36   0.0000       0.029154         0.7933
  37   0.0000       0.030024         0.8170
  38   0.0000       0.031116         0.8467
  39   0.0000       0.041525         1.1299

MULLIKEN ATOMIC CHARGES AND SPIN POPULATIONS
--------------------------------------------
   0 C :    0.162397    0.102071
   1 C :   -0.944838   -0.084054
   2 C :    2.160275   -0.238609
   3 C :    0.387992    1.176880
   4 C :   -0.878259   -0.136425
   5 H :    0.155045    0.082818
   6 H :    0.158801    0.029085
   7 H :    0.267292    0.007611
   8 C :   -1.078524   -0.142186
   9 H :    0.266641    0.028360
  10 H :    0.195279    0.008034
  11 H :    0.213683    0.084855
  12 C :   -1.245322    0.068788
  13 H :    0.210244   -0.006254
  14 H :    0.238222    0.012607
  15 H :    0.209693   -0.006934
  16 C :   -1.125809    0.012132
  17 H :    0.222287   -0.003733
  18 H :    0.204775   -0.002244
  19 H :    0.192640   -0.003489
  20 C :   -0.978553   -0.005082
  21 H :    0.304020    0.000662
  22 H :    0.136708    0.004166
  23 H :    0.224067   -0.000794
  24 H :    0.152883    0.005275
  25 H :    0.188362    0.006461
Sum of atomic charges         :   -0.0000000

LOEWDIN ATOMIC CHARGES AND SPIN POPULATIONS
-------------------------------------------
   0 C :   -0.074327    0.029630
   1 C :    0.819976   -0.015418
   2 C :   -0.312557    0.105991
   3 C :    0.002461    0.455650
   4 C :    0.906329    0.122943
   5 H :   -0.263575    0.027905
   6 H :   -0.309682    0.014686
   7 H :   -0.294410    0.009443
   8 C :    0.899692    0.121837
   9 H :   -0.283719    0.016069
  10 H :   -0.308647    0.007216
  11 H :   -0.262931    0.027171
  12 C :    0.881725    0.024938
  13 H :   -0.278988    0.005127
  14 H :   -0.270338    0.007632
  15 H :   -0.266512    0.007013
  16 C :    0.892826    0.007083
  17 H :   -0.283317    0.002999
  18 H :   -0.278985    0.000561
  19 H :   -0.255217    0.000272
  20 C :    0.905545    0.018903
  21 H :   -0.297495    0.001364
  22 H :   -0.283347    0.014612
  23 H :   -0.284493    0.002273
  24 H :   -0.364770   -0.008103
  25 H :   -0.335244   -0.007796

  Mayer bond orders larger than 0.100000
B(  0-C ,  1-C ) :   1.5668 B(  0-C ,  2-C ) :   0.3654 B(  0-C , 20-C ) :   0.5003
B(  0-C , 22-H ) :  -0.1643 B(  0-C , 23-H ) :  -0.1110 B(  0-C , 24-H ) :  -0.1223
B(  0-C , 25-H ) :  -0.1489 B(  1-C ,  2-C ) :  -0.3001 B(  1-C , 20-C ) :   0.1194
B(  1-C , 24-H ) :   1.1967 B(  1-C , 25-H ) :   1.1200 B(  2-C ,  3-C ) :   0.5604
B(  2-C , 13-H ) :  -0.2176 B(  2-C , 14-H ) :  -0.1668 B(  2-C , 15-H ) :  -0.1432
B(  2-C , 17-H ) :  -0.2188 B(  2-C , 18-H ) :  -0.2020 B(  2-C , 19-H ) :  -0.1877
B(  3-C ,  4-C ) :   0.5233 B(  3-C ,  6-H ) :  -0.1126 B(  3-C ,  7-H ) :  -0.1626
B(  3-C ,  8-C ) :   0.4400 B(  3-C ,  9-H ) :  -0.1408 B(  3-C , 10-H ) :  -0.1510
B(  4-C ,  5-H ) :   1.0629 B(  4-C ,  6-H ) :   1.1373 B(  4-C ,  7-H ) :   1.0239
B(  8-C ,  9-H ) :   1.0433 B(  8-C , 10-H ) :   1.1295 B(  8-C , 11-H ) :   1.0257
B( 12-C , 13-H ) :   1.1627 B( 12-C , 14-H ) :   1.0879 B( 12-C , 15-H ) :   1.0819
B( 12-C , 16-C ) :   0.1764 B( 16-C , 17-H ) :   1.1266 B( 16-C , 18-H ) :   1.0775
B( 16-C , 19-H ) :   1.1300 B( 20-C , 21-H ) :   0.9858 B( 20-C , 22-H ) :   1.1406
B( 20-C , 23-H ) :   1.0533

MP2 TOTAL ENERGY:     -352.431454157 Eh
FINAL SINGLE POINT ENERGY      -352.431454157145

DIPOLE MOMENT
-------------
                                X             Y             Z
Electronic contribution:      2.21062      -0.42028      -0.14121
Nuclear contribution   :     -2.39636       0.45184       0.22065
                        -----------------------------------------
Total Dipole Moment    :     -0.18573       0.03156       0.07944
                        -----------------------------------------
Magnitude (a.u.)       :      0.20446
Magnitude (Debye)      :      0.51970

Rotational constants in cm-1:     0.065572     0.043117     0.040612
Rotational constants in MHz :  1965.807781  1292.628954  1217.511899

                             ****ORCA TERMINATED NORMALLY****
TOTAL RUN TIME: 0 days 3 hours 55 minutes 56 seconds 185 msec
