                         Program Version 4.2.1 -  RELEASE  -
|  1> %pal
|  2>  nprocs 32
|  3> end
|  4> !RI-MP2 aug-cc-pVQZ aug-cc-pVQZ/C TightSCF
|  5> %maxcore 4500
|  6> *xyzfile 0 1  04_73R1.xyz
|  7>
|  8>
|  9>                          ****END OF INPUT****

CARTESIAN COORDINATES (ANGSTROEM)
---------------------------------
  N      1.217634   -1.626171    0.235430
  C      0.124074   -2.409341    0.783132
  H      1.843282   -1.137531    0.869609
  C     -1.110132   -1.534151    0.996340
  H     -0.099982   -3.231865    0.102550
  H      0.421078   -2.807779    1.749647
  O     -1.473112   -1.175686    2.098952
  N     -1.740719   -1.172964   -0.155172
  H     -1.285330   -1.414860   -1.030071
  C     -2.769828   -0.178015   -0.143668
  C     -2.261048    1.219394   -0.426833
  H     -3.545940   -0.406135   -0.877481
  H     -3.242680   -0.168070    0.839578
  O     -1.124070    1.530009   -0.667279
  O     -3.264249    2.106536   -0.390358
  H     -2.899384    2.982614   -0.578404
  C      1.241921   -1.261117   -1.062886
  C      2.253600   -0.174554   -1.400687
  O      0.464678   -1.702994   -1.900312
  N      1.876061    1.080577   -0.774015
  H      2.265552   -0.053208   -2.481207
  H      3.249746   -0.444307   -1.050699
  H      1.066023    1.555351   -1.146736
  C      2.200287    1.336260    0.519608
  C      1.669233    2.620604    1.095552
  O      2.897430    0.571641    1.174088
  H      0.946068    3.108713    0.443935
  H      2.509797    3.293390    1.273528
  H      1.206884    2.403067    2.057965

 Total Charge           Charge          ....    0
 Multiplicity           Mult            ....    1
 Number of Electrons    NEL             ....  122
 Basis Dimension        Dim             .... 1878

ORBITAL ENERGIES
----------------

  NO   OCC          E(Eh)            E(eV)
   0   2.0000     -20.632497      -561.4388
   1   2.0000     -20.571624      -559.7824
   2   2.0000     -20.532225      -558.7102
   3   2.0000     -20.526438      -558.5528
   4   2.0000     -20.525996      -558.5407
   5   2.0000     -15.593853      -424.3303
   6   2.0000     -15.590900      -424.2500
   7   2.0000     -15.584438      -424.0741
   8   2.0000     -11.407364      -310.4102
   9   2.0000     -11.359671      -309.1124
  10   2.0000     -11.359247      -309.1008
  11   2.0000     -11.352757      -308.9242
  12   2.0000     -11.294284      -307.3331
  13   2.0000     -11.282525      -307.0131
  14   2.0000     -11.281269      -306.9789
  15   2.0000     -11.237368      -305.7843
  16   2.0000      -1.493006       -40.6268
  17   2.0000      -1.403930       -38.2029
  18   2.0000      -1.394762       -37.9534
  19   2.0000      -1.391159       -37.8554
  20   2.0000      -1.387603       -37.7586
  21   2.0000      -1.253696       -34.1148
  22   2.0000      -1.246110       -33.9084
  23   2.0000      -1.235173       -33.6108
  24   2.0000      -1.050208       -28.5776
  25   2.0000      -1.028963       -27.9995
  26   2.0000      -0.989924       -26.9372
  27   2.0000      -0.949978       -25.8502
  28   2.0000      -0.857462       -23.3327
  29   2.0000      -0.811221       -22.0744
  30   2.0000      -0.798973       -21.7412
  31   2.0000      -0.788592       -21.4587
  32   2.0000      -0.744313       -20.2538
  33   2.0000      -0.732982       -19.9455
  34   2.0000      -0.730144       -19.8682
  35   2.0000      -0.713513       -19.4157
  36   2.0000      -0.692627       -18.8473
  37   2.0000      -0.672107       -18.2890
  38   2.0000      -0.669774       -18.2255
  39   2.0000      -0.662399       -18.0248
  40   2.0000      -0.658134       -17.9087
  41   2.0000      -0.629544       -17.1308
  42   2.0000      -0.614774       -16.7289
  43   2.0000      -0.609267       -16.5790
  44   2.0000      -0.601019       -16.3546
  45   2.0000      -0.591461       -16.0945
  46   2.0000      -0.577909       -15.7257
  47   2.0000      -0.573108       -15.5951
  48   2.0000      -0.560181       -15.2433
  49   2.0000      -0.552979       -15.0473
  50   2.0000      -0.544909       -14.8277
  51   2.0000      -0.543264       -14.7830
  52   2.0000      -0.526730       -14.3331
  53   2.0000      -0.511166       -13.9095
  54   2.0000      -0.484293       -13.1783
  55   2.0000      -0.457402       -12.4465
  56   2.0000      -0.453171       -12.3314
  57   2.0000      -0.438182       -11.9235
  58   2.0000      -0.409050       -11.1308
  59   2.0000      -0.402538       -10.9536
  60   2.0000      -0.395699       -10.7675
  61   0.0000       0.017093         0.4651
  62   0.0000       0.028100         0.7646
  63   0.0000       0.029484         0.8023
  64   0.0000       0.033293         0.9060
  65   0.0000       0.037926         1.0320

MULLIKEN ATOMIC CHARGES
-----------------------
   0 N :   -0.704979
   1 C :   -0.563214
   2 H :    0.393049
   3 C :    1.070510
   4 H :    0.357253
   5 H :    0.377811
   6 O :   -0.959289
   7 N :   -0.691363
   8 H :    0.375384
   9 C :   -0.620567
  10 C :    1.249807
  11 H :    0.393290
  12 H :    0.343466
  13 O :   -0.934235
  14 O :   -0.826202
  15 H :    0.406299
  16 C :    1.276789
  17 C :   -0.561705
  18 O :   -1.018103
  19 N :   -0.661904
  20 H :    0.378075
  21 H :    0.381866
  22 H :    0.362557
  23 C :    1.140722
  24 C :   -0.852702
  25 O :   -1.032849
  26 H :    0.260030
  27 H :    0.369571
  28 H :    0.290632
Sum of atomic charges:    0.0000000

LOEWDIN ATOMIC CHARGES
----------------------
   0 N :    0.851948
   1 C :    0.372307
   2 H :   -0.644552
   3 C :   -0.813938
   4 H :   -0.297360
   5 H :   -0.303335
   6 O :    0.730492
   7 N :    0.814907
   8 H :   -0.678676
   9 C :    0.318927
  10 C :   -0.973864
  11 H :   -0.282050
  12 H :   -0.341503
  13 O :    0.775281
  14 O :    1.268814
  15 H :   -0.798588
  16 C :   -0.781409
  17 C :    0.365866
  18 O :    0.795580
  19 N :    0.848587
  20 H :   -0.302121
  21 H :   -0.308817
  22 H :   -0.601355
  23 C :   -0.802662
  24 C :    0.906574
  25 O :    0.781470
  26 H :   -0.320868
  27 H :   -0.286910
  28 H :   -0.292748

  Mayer bond orders larger than 0.100000
B(  0-N ,  1-C ) :   1.0555 B(  0-N ,  2-H ) :   0.8197 B(  0-N , 16-C ) :   1.1485
B(  0-N , 17-C ) :  -0.1102 B(  0-N , 18-O ) :   0.2086 B(  1-C ,  3-C ) :   1.0073
B(  1-C ,  4-H ) :   0.9159 B(  1-C ,  5-H ) :   0.8626 B(  1-C ,  6-O ) :   0.1433
B(  3-C ,  6-O ) :   0.8377 B(  3-C ,  7-N ) :   1.1538 B(  6-O ,  7-N ) :   0.2705
B(  7-N ,  8-H ) :   0.8436 B(  7-N ,  9-C ) :   1.0572 B(  9-C , 10-C ) :   1.1290
B(  9-C , 11-H ) :   0.8333 B(  9-C , 12-H ) :   0.8498 B(  9-C , 13-O ) :   0.1505
B(  9-C , 14-O ) :   0.2144 B( 10-C , 13-O ) :   1.3615 B( 10-C , 14-O ) :   0.5955
B( 14-O , 15-H ) :   0.8721 B( 16-C , 17-C ) :   0.8583 B( 16-C , 18-O ) :   0.7839
B( 17-C , 18-O ) :   0.1340 B( 17-C , 19-N ) :   0.9856 B( 17-C , 20-H ) :   0.8869
B( 17-C , 21-H ) :   0.9302 B( 19-N , 22-H ) :   0.8587 B( 19-N , 23-C ) :   1.1158
B( 19-N , 24-C ) :  -0.1074 B( 19-N , 25-O ) :   0.2129 B( 23-C , 24-C ) :   0.7527
B( 23-C , 25-O ) :   0.9030 B( 23-C , 26-H ) :  -0.1134 B( 24-C , 26-H ) :   1.0146
B( 24-C , 27-H ) :   0.8849 B( 24-C , 28-H ) :   0.9548

MP2 TOTAL ENERGY:     -851.959942770 Eh
FINAL SINGLE POINT ENERGY      -851.959942770218

DIPOLE MOMENT
-------------
                                X             Y             Z
Electronic contribution:     -2.94943      -2.54781      -1.14336
Nuclear contribution   :      2.38200       3.65700       0.17155
                        -----------------------------------------
Total Dipole Moment    :     -0.56743       1.10919      -0.97181
                        -----------------------------------------
Magnitude (a.u.)       :      1.58009
Magnitude (Debye)      :      4.01628

Rotational constants in cm-1:     0.020513     0.014716     0.011767
Rotational constants in MHz :   614.966408   441.171065   352.766874

                             ****ORCA TERMINATED NORMALLY****
TOTAL RUN TIME: 0 days 3 hours 0 minutes 14 seconds 452 msec
