                         Program Version 4.2.1 -  RELEASE  -
|  1> %pal
|  2>  nprocs 32
|  3> end
|  4> !RI-MP2 aug-cc-pVQZ aug-cc-pVQZ/C TightSCF
|  5> %maxcore 4500
|  6> *xyzfile 0 2  01_6P.xyz
|  7>
|  8>
|  9>                          ****END OF INPUT****

CARTESIAN COORDINATES (ANGSTROEM)
---------------------------------
  C      0.339430   -0.606170   -0.024083
  C     -1.088123   -1.139940   -0.028513
  C     -1.990434    0.110004   -0.102412
  H     -1.246168   -1.721466    0.879399
  H     -1.222554   -1.805552   -0.880418
  C     -1.058347    1.295927    0.184506
  H     -2.826807    0.060949    0.594590
  H     -2.411898    0.208704   -1.105195
  C      0.284034    0.861352   -0.445929
  H     -0.919710    1.432307    1.260097
  H     -1.418973    2.238412   -0.226929
  C      1.470443    1.666438   -0.079226
  F      0.865239   -0.700506    1.246202
  F      1.175272   -1.339400   -0.819181
  H      1.851471    2.426309   -0.746526
  H      1.934391    1.540776    0.889314
  H      0.153640    0.853054   -1.533580

 Total Charge           Charge          ....    0
 Multiplicity           Mult            ....    2
 Number of Electrons    NEL             ....   63
 Basis Dimension        Dim             .... 1054

ORBITAL ENERGIES
----------------
                 SPIN UP ORBITALS
  NO   OCC          E(Eh)            E(eV)
   0   1.0000     -26.292574      -715.4573
   1   1.0000     -26.290708      -715.4065
   2   1.0000     -11.395944      -310.0994
   3   1.0000     -11.243558      -305.9528
   4   1.0000     -11.235405      -305.7309
   5   1.0000     -11.235259      -305.7270
   6   1.0000     -11.234762      -305.7134
   7   1.0000     -11.234383      -305.7031
   8   1.0000      -1.643321       -44.7170
   9   1.0000      -1.581121       -43.0245
  10   1.0000      -1.151075       -31.3223
  11   1.0000      -1.039167       -28.2772
  12   1.0000      -0.977785       -26.6069
  13   1.0000      -0.911304       -24.7978
  14   1.0000      -0.823014       -22.3953
  15   1.0000      -0.810013       -22.0416
  16   1.0000      -0.752563       -20.4783
  17   1.0000      -0.716738       -19.5034
  18   1.0000      -0.707298       -19.2466
  19   1.0000      -0.663847       -18.0642
  20   1.0000      -0.647001       -17.6058
  21   1.0000      -0.639859       -17.4114
  22   1.0000      -0.613504       -16.6943
  23   1.0000      -0.601610       -16.3706
  24   1.0000      -0.568081       -15.4583
  25   1.0000      -0.551645       -15.0110
  26   1.0000      -0.522209       -14.2100
  27   1.0000      -0.509064       -13.8523
  28   1.0000      -0.497225       -13.5302
  29   1.0000      -0.484239       -13.1768
  30   1.0000      -0.473902       -12.8955
  31   1.0000      -0.356827        -9.7098
  32   0.0000       0.024085         0.6554
  33   0.0000       0.030175         0.8211
  34   0.0000       0.032530         0.8852
  35   0.0000       0.036781         1.0009
  36   0.0000       0.047631         1.2961

                 SPIN DOWN ORBITALS
  NO   OCC          E(Eh)            E(eV)
   0   1.0000     -26.292624      -715.4587
   1   1.0000     -26.290797      -715.4090
   2   1.0000     -11.394692      -310.0653
   3   1.0000     -11.246879      -306.0431
   4   1.0000     -11.235153      -305.7241
   5   1.0000     -11.234572      -305.7083
   6   1.0000     -11.232078      -305.6404
   7   1.0000     -11.211891      -305.0911
   8   1.0000      -1.643261       -44.7154
   9   1.0000      -1.581298       -43.0293
  10   1.0000      -1.145729       -31.1769
  11   1.0000      -1.017576       -27.6896
  12   1.0000      -0.974064       -26.5056
  13   1.0000      -0.866155       -23.5693
  14   1.0000      -0.819552       -22.3011
  15   1.0000      -0.795678       -21.6515
  16   1.0000      -0.752199       -20.4684
  17   1.0000      -0.712818       -19.3968
  18   1.0000      -0.705788       -19.2055
  19   1.0000      -0.663287       -18.0490
  20   1.0000      -0.645271       -17.5587
  21   1.0000      -0.637153       -17.3378
  22   1.0000      -0.613338       -16.6898
  23   1.0000      -0.594323       -16.1724
  24   1.0000      -0.562090       -15.2952
  25   1.0000      -0.542063       -14.7503
  26   1.0000      -0.516942       -14.0667
  27   1.0000      -0.496576       -13.5125
  28   1.0000      -0.492325       -13.3968
  29   1.0000      -0.478648       -13.0247
  30   1.0000      -0.468698       -12.7539
  31   0.0000       0.024084         0.6554
  32   0.0000       0.030394         0.8271
  33   0.0000       0.032230         0.8770
  34   0.0000       0.036841         1.0025
  35   0.0000       0.047607         1.2954

MULLIKEN ATOMIC CHARGES AND SPIN POPULATIONS
--------------------------------------------
   0 C :    1.508550    0.040393
   1 C :   -0.612165   -0.002690
   2 C :   -0.567607    0.003285
   3 H :    0.291719    0.001464
   4 H :    0.279464    0.000153
   5 C :   -0.555788    0.084256
   6 H :    0.326489    0.002020
   7 H :    0.178504   -0.000792
   8 C :   -0.002707   -0.247495
   9 H :    0.244797   -0.002870
  10 H :    0.388493   -0.013589
  11 C :   -0.878278    1.277712
  12 F :   -0.777149    0.000150
  13 F :   -0.757138   -0.001287
  14 H :    0.301336   -0.080745
  15 H :    0.347577   -0.071439
  16 H :    0.283903    0.011475
Sum of atomic charges         :    0.0000000

LOEWDIN ATOMIC CHARGES AND SPIN POPULATIONS
-------------------------------------------
   0 C :   -1.451933    0.022616
   1 C :    0.495870    0.001884
   2 C :    0.545163    0.007018
   3 H :   -0.288142    0.000410
   4 H :   -0.281383    0.000113
   5 C :    0.515825    0.033447
   6 H :   -0.256597    0.001730
   7 H :   -0.265290    0.000756
   8 C :   -0.003395    0.136009
   9 H :   -0.264483    0.010280
  10 H :   -0.248586    0.007675
  11 C :    0.865280    0.460070
  12 F :    0.806405    0.001046
  13 F :    0.800247    0.003566
  14 H :   -0.324468    0.153309
  15 H :   -0.341616    0.150913
  16 H :   -0.302898    0.009157

  Mayer bond orders larger than 0.100000
B(  0-C ,  1-C ) :   1.0653 B(  0-C ,  8-C ) :   0.8900 B(  0-C , 12-F ) :   0.1615
B(  1-C ,  2-C ) :   0.9556 B(  1-C ,  3-H ) :   0.8961 B(  1-C ,  4-H ) :   0.9203
B(  1-C ,  8-C ) :  -0.1243 B(  1-C , 12-F ) :   0.1286 B(  1-C , 13-F ) :   0.1172
B(  2-C ,  5-C ) :   1.0022 B(  2-C ,  6-H ) :   0.8581 B(  2-C ,  7-H ) :   0.9852
B(  5-C ,  8-C ) :   0.8140 B(  5-C ,  9-H ) :   0.9564 B(  5-C , 10-H ) :   0.7862
B(  8-C , 11-C ) :   0.6303 B(  8-C , 13-F ) :   0.1082 B(  8-C , 14-H ) :  -0.1217
B(  8-C , 16-H ) :   0.9306 B( 11-C , 14-H ) :   1.0335 B( 11-C , 15-H ) :   0.9115

MP2 TOTAL ENERGY:     -433.082155880 Eh
FINAL SINGLE POINT ENERGY      -433.082155880385

DIPOLE MOMENT
-------------
                                X             Y             Z
Electronic contribution:      7.12240      -6.64543       1.02528
Nuclear contribution   :     -8.06621       7.19847      -1.28213
                        -----------------------------------------
Total Dipole Moment    :     -0.94381       0.55304      -0.25686
                        -----------------------------------------
Magnitude (a.u.)       :      1.12366
Magnitude (Debye)      :      2.85611

Rotational constants in cm-1:     0.084681     0.074202     0.052894
Rotational constants in MHz :  2538.659718  2224.517261  1585.726569

                             ****ORCA TERMINATED NORMALLY****
TOTAL RUN TIME: 0 days 0 hours 37 minutes 22 seconds 451 msec
