                         Program Version 4.2.1 -  RELEASE  -
|  1> %pal
|  2>  nprocs 32
|  3> end
|  4> !RI-MP2 aug-cc-pVQZ aug-cc-pVQZ/C TightSCF
|  5> %maxcore 4500
|  6> *xyzfile 0 1  04_47P2.xyz
|  7>
|  8>
|  9>                          ****END OF INPUT****

CARTESIAN COORDINATES (ANGSTROEM)
---------------------------------
  C     -0.306272   -1.204069   -0.003346
  C      1.080685   -1.193753   -0.009953
  C      1.797090   -0.000001   -0.010084
  C      1.080685    1.193753   -0.009954
  C     -0.306271    1.204069   -0.003345
  C     -0.989481   -0.000000    0.000825
  H     -0.853503   -2.137435   -0.005041
  H     -0.853502    2.137435   -0.005040
  H      1.614222    2.137627   -0.017025
  H      1.614221   -2.137628   -0.017025
  C      3.301139    0.000001    0.014234
  Cl    -2.738379    0.000000    0.005625
  H      3.705812    0.883215   -0.482042
  H      3.705815   -0.883192   -0.482077
  H      3.673922   -0.000019    1.042361

 Total Charge           Charge          ....    0
 Multiplicity           Mult            ....    1
 Number of Electrons    NEL             ....   66
 Basis Dimension        Dim             ....  966

ORBITAL ENERGIES
----------------

  NO   OCC          E(Eh)            E(eV)
   0   2.0000    -104.834814     -2852.7003
   1   2.0000     -11.296321      -307.3885
   2   2.0000     -11.249633      -306.1181
   3   2.0000     -11.246285      -306.0270
   4   2.0000     -11.246249      -306.0260
   5   2.0000     -11.241069      -305.8850
   6   2.0000     -11.240975      -305.8825
   7   2.0000     -11.230574      -305.5995
   8   2.0000     -10.560154      -287.3564
   9   2.0000      -8.027289      -218.4337
  10   2.0000      -8.025591      -218.3874
  11   2.0000      -8.025528      -218.3857
  12   2.0000      -1.190064       -32.3833
  13   2.0000      -1.123725       -30.5781
  14   2.0000      -1.032236       -28.0886
  15   2.0000      -1.030585       -28.0437
  16   2.0000      -0.928785       -25.2735
  17   2.0000      -0.847833       -23.0707
  18   2.0000      -0.801578       -21.8121
  19   2.0000      -0.687129       -18.6977
  20   2.0000      -0.660638       -17.9769
  21   2.0000      -0.641518       -17.4566
  22   2.0000      -0.600810       -16.3489
  23   2.0000      -0.586528       -15.9602
  24   2.0000      -0.569010       -15.4836
  25   2.0000      -0.553373       -15.0581
  26   2.0000      -0.536041       -14.5864
  27   2.0000      -0.505760       -13.7624
  28   2.0000      -0.502997       -13.6872
  29   2.0000      -0.460375       -12.5274
  30   2.0000      -0.451446       -12.2845
  31   2.0000      -0.351310        -9.5596
  32   2.0000      -0.327126        -8.9015
  33   0.0000       0.023767         0.6467
  34   0.0000       0.028416         0.7732
  35   0.0000       0.031905         0.8682
  36   0.0000       0.038852         1.0572
  37   0.0000       0.043212         1.1758

MULLIKEN ATOMIC CHARGES
-----------------------
   0 C :   -0.140175
   1 C :   -0.297168
   2 C :    0.403510
   3 C :   -0.297265
   4 C :   -0.140205
   5 C :   -0.428888
   6 H :    0.400917
   7 H :    0.400911
   8 H :    0.269747
   9 H :    0.269769
  10 C :   -0.790305
  11 Cl:   -0.379610
  12 H :    0.220498
  13 H :    0.220492
  14 H :    0.287772
Sum of atomic charges:    0.0000000

LOEWDIN ATOMIC CHARGES
----------------------
   0 C :    0.204575
   1 C :    0.331553
   2 C :   -0.082027
   3 C :    0.331554
   4 C :    0.204575
   5 C :   -0.853702
   6 H :   -0.353838
   7 H :   -0.353838
   8 H :   -0.316117
   9 H :   -0.316117
  10 C :    0.906741
  11 Cl:    1.169128
  12 H :   -0.297967
  13 H :   -0.297965
  14 H :   -0.276554

  Mayer bond orders larger than 0.100000
B(  0-C ,  1-C ) :   1.3371 B(  0-C ,  2-C ) :  -0.1994 B(  0-C ,  3-C ) :   0.1316
B(  0-C ,  5-C ) :   1.0991 B(  0-C ,  6-H ) :   0.9053 B(  0-C ,  9-H ) :  -0.1136
B(  0-C , 11-Cl) :  -0.1862 B(  1-C ,  2-C ) :   0.9812 B(  1-C ,  4-C ) :   0.1316
B(  1-C ,  6-H ) :  -0.1059 B(  1-C ,  9-H ) :   1.0092 B(  2-C ,  3-C ) :   0.9811
B(  2-C ,  4-C ) :  -0.1994 B(  2-C , 10-C ) :   0.7322 B(  2-C , 12-H ) :  -0.1078
B(  2-C , 13-H ) :  -0.1078 B(  3-C ,  4-C ) :   1.3370 B(  3-C ,  7-H ) :  -0.1059
B(  3-C ,  8-H ) :   1.0093 B(  4-C ,  5-C ) :   1.0991 B(  4-C ,  7-H ) :   0.9053
B(  4-C ,  8-H ) :  -0.1136 B(  4-C , 11-Cl) :  -0.1861 B(  5-C , 11-Cl) :   1.0696
B( 10-C , 12-H ) :   1.0350 B( 10-C , 13-H ) :   1.0350 B( 10-C , 14-H ) :   0.9343

MP2 TOTAL ENERGY:     -730.194616305 Eh
FINAL SINGLE POINT ENERGY      -730.194616305158

DIPOLE MOMENT
-------------
                                X             Y             Z
Electronic contribution:    -15.21283      -0.00000      -0.01525
Nuclear contribution   :     16.18093       0.00000       0.02552
                        -----------------------------------------
Total Dipole Moment    :      0.96809      -0.00000       0.01027
                        -----------------------------------------
Magnitude (a.u.)       :      0.96815
Magnitude (Debye)      :      2.46083

Rotational constants in cm-1:     0.186014     0.032106     0.027521
Rotational constants in MHz :  5576.556742   962.528140   825.059966

                             ****ORCA TERMINATED NORMALLY****
TOTAL RUN TIME: 0 days 0 hours 23 minutes 53 seconds 102 msec
