                         Program Version 4.2.1 -  RELEASE  -
|  1> %pal
|  2>  nprocs 32
|  3> end
|  4> !RI-MP2 aug-cc-pVQZ aug-cc-pVQZ/C TightSCF
|  5> %maxcore 4500
|  6> *xyzfile 0 1  10_89R.xyz
|  7>
|  8>
|  9>                          ****END OF INPUT****

CARTESIAN COORDINATES (ANGSTROEM)
---------------------------------
  O     -1.289030   -0.132246    0.974262
  C     -2.161885   -1.035789    0.440528
  C     -2.146055   -2.321931    0.758523
  C      2.156024   -0.067629   -0.119454
  C      0.935203   -0.558417    0.104564
  C     -0.254694    0.349850    0.100425
  C      2.353669    1.376364   -0.323306
  C      1.376007    2.227137   -0.025645
  C      0.083019    1.752500    0.570796
  H      3.307345    1.719574   -0.698839
  H      1.488610    3.297955   -0.141065
  H      0.203602    1.703983    1.665913
  O     -0.940189    2.665551    0.239154
  H     -1.788224    2.254733    0.445059
  C     -3.238775   -0.499620   -0.448548
  O     -3.249890    0.848958   -0.478794
  O     -4.021582   -1.169156   -1.062513
  C      3.292282   -1.022747   -0.172066
  O      3.210834   -2.210771   -0.002192
  O      4.464131   -0.413706   -0.438233
  H     -3.960429    1.119000   -1.077828
  H      5.145025   -1.100512   -0.455301
  H     -1.394655   -2.712958    1.430869
  H     -2.902411   -2.982233    0.358802
  H     -0.647680    0.416998   -0.924327
  H      0.785857   -1.623889    0.228335

 Total Charge           Charge          ....    0
 Multiplicity           Mult            ....    1
 Number of Electrons    NEL             ....  118
 Basis Dimension        Dim             .... 1740

ORBITAL ENERGIES
----------------

  NO   OCC          E(Eh)            E(eV)
   0   2.0000     -20.632934      -561.4507
   1   2.0000     -20.619286      -561.0793
   2   2.0000     -20.600898      -560.5789
   3   2.0000     -20.564193      -559.5801
   4   2.0000     -20.560805      -559.4879
   5   2.0000     -20.550064      -559.1957
   6   2.0000     -11.407585      -310.4162
   7   2.0000     -11.395416      -310.0850
   8   2.0000     -11.322690      -308.1061
   9   2.0000     -11.316706      -307.9432
  10   2.0000     -11.299244      -307.4680
  11   2.0000     -11.269624      -306.6621
  12   2.0000     -11.264204      -306.5146
  13   2.0000     -11.262879      -306.4785
  14   2.0000     -11.246856      -306.0425
  15   2.0000     -11.244576      -305.9805
  16   2.0000      -1.491926       -40.5974
  17   2.0000      -1.476510       -40.1779
  18   2.0000      -1.432416       -38.9780
  19   2.0000      -1.384833       -37.6832
  20   2.0000      -1.372535       -37.3486
  21   2.0000      -1.369917       -37.2773
  22   2.0000      -1.165294       -31.7093
  23   2.0000      -1.090229       -29.6666
  24   2.0000      -1.046253       -28.4700
  25   2.0000      -1.018934       -27.7266
  26   2.0000      -0.929680       -25.2979
  27   2.0000      -0.907660       -24.6987
  28   2.0000      -0.873385       -23.7660
  29   2.0000      -0.812895       -22.1200
  30   2.0000      -0.791630       -21.5413
  31   2.0000      -0.754351       -20.5269
  32   2.0000      -0.743572       -20.2336
  33   2.0000      -0.737110       -20.0578
  34   2.0000      -0.721807       -19.6414
  35   2.0000      -0.699154       -19.0249
  36   2.0000      -0.696688       -18.9578
  37   2.0000      -0.671981       -18.2855
  38   2.0000      -0.664948       -18.0942
  39   2.0000      -0.648138       -17.6367
  40   2.0000      -0.644404       -17.5351
  41   2.0000      -0.638633       -17.3781
  42   2.0000      -0.630759       -17.1638
  43   2.0000      -0.617821       -16.8118
  44   2.0000      -0.605592       -16.4790
  45   2.0000      -0.588474       -16.0132
  46   2.0000      -0.571619       -15.5545
  47   2.0000      -0.564683       -15.3658
  48   2.0000      -0.555635       -15.1196
  49   2.0000      -0.520631       -14.1671
  50   2.0000      -0.511861       -13.9285
  51   2.0000      -0.500624       -13.6227
  52   2.0000      -0.485875       -13.2213
  53   2.0000      -0.470228       -12.7955
  54   2.0000      -0.464376       -12.6363
  55   2.0000      -0.458818       -12.4851
  56   2.0000      -0.446697       -12.1552
  57   2.0000      -0.396901       -10.8002
  58   2.0000      -0.334927        -9.1138
  59   0.0000       0.023088         0.6282
  60   0.0000       0.026579         0.7233
  61   0.0000       0.029086         0.7915
  62   0.0000       0.033037         0.8990
  63   0.0000       0.037406         1.0179

MULLIKEN ATOMIC CHARGES
-----------------------
   0 O :   -0.894208
   1 C :    0.005316
   2 C :   -0.738383
   3 C :   -0.744770
   4 C :   -0.410841
   5 C :    1.037839
   6 C :   -0.341228
   7 C :   -0.814602
   8 C :    0.851331
   9 H :    0.298856
  10 H :    0.297945
  11 H :    0.329227
  12 O :   -1.050289
  13 H :    0.398525
  14 C :    1.444581
  15 O :   -0.698286
  16 O :   -0.832146
  17 C :    1.581219
  18 O :   -0.863700
  19 O :   -0.714705
  20 H :    0.310248
  21 H :    0.338926
  22 H :    0.346099
  23 H :    0.281648
  24 H :    0.276533
  25 H :    0.304865
Sum of atomic charges:    0.0000000

LOEWDIN ATOMIC CHARGES
----------------------
   0 O :    0.866199
   1 C :   -0.513450
   2 C :    0.779561
   3 C :   -0.117421
   4 C :    0.369472
   5 C :   -0.263748
   6 C :    0.358356
   7 C :    0.387588
   8 C :   -0.278120
   9 H :   -0.348624
  10 H :   -0.305307
  11 H :   -0.287065
  12 O :    1.307971
  13 H :   -0.884079
  14 C :   -1.064997
  15 O :    1.269192
  16 O :    0.711569
  17 C :   -1.052973
  18 O :    0.711351
  19 O :    1.251503
  20 H :   -0.777009
  21 H :   -0.803824
  22 H :   -0.328492
  23 H :   -0.357540
  24 H :   -0.304089
  25 H :   -0.326024

  Mayer bond orders larger than 0.100000
B(  0-O ,  1-C ) :   0.8350 B(  0-O ,  5-C ) :   0.3216 B(  0-O ,  8-C ) :   0.1333
B(  1-C ,  2-C ) :   1.3665 B(  1-C ,  5-C ) :  -0.1279 B(  1-C , 14-C ) :   1.1937
B(  1-C , 16-O ) :   0.2421 B(  1-C , 22-H ) :  -0.1100 B(  2-C , 22-H ) :   0.9373
B(  2-C , 23-H ) :   1.0712 B(  3-C ,  4-C ) :   1.1955 B(  3-C ,  5-C ) :  -0.4559
B(  3-C ,  6-C ) :   0.8525 B(  3-C ,  7-C ) :  -0.1105 B(  3-C , 17-C ) :   1.4754
B(  3-C , 18-O ) :   0.5491 B(  3-C , 19-O ) :   0.1579 B(  4-C ,  5-C ) :   0.5721
B(  4-C , 17-C ) :  -0.3267 B(  4-C , 18-O ) :  -0.1550 B(  4-C , 25-H ) :   0.9125
B(  5-C ,  8-C ) :   0.8560 B(  5-C , 11-H ) :  -0.1130 B(  5-C , 12-O ) :   0.1939
B(  5-C , 24-H ) :   0.8437 B(  6-C ,  7-C ) :   1.6089 B(  6-C ,  8-C ) :  -0.2004
B(  6-C ,  9-H ) :   0.9522 B(  6-C , 10-H ) :  -0.1019 B(  6-C , 17-C ) :  -0.1863
B(  7-C ,  8-C ) :   0.7037 B(  7-C , 10-H ) :   1.0355 B(  7-C , 12-O ) :   0.2138
B(  8-C , 11-H ) :   0.9118 B( 12-O , 13-H ) :   0.8378 B( 14-C , 15-O ) :   0.8807
B( 14-C , 16-O ) :   1.0876 B( 15-O , 16-O ) :   0.1159 B( 15-O , 20-H ) :   0.9541
B( 17-C , 18-O ) :   0.9685 B( 17-C , 19-O ) :   0.6518 B( 18-O , 19-O ) :   0.1205
B( 19-O , 21-H ) :   0.9173

MP2 TOTAL ENERGY:     -837.231302972 Eh
FINAL SINGLE POINT ENERGY      -837.231302972159

DIPOLE MOMENT
-------------
                                X             Y             Z
Electronic contribution:      0.02133      -1.77915      -0.74845
Nuclear contribution   :      0.20405       2.04400       0.80294
                        -----------------------------------------
Total Dipole Moment    :      0.22538       0.26486       0.05450
                        -----------------------------------------
Magnitude (a.u.)       :      0.35202
Magnitude (Debye)      :      0.89475

Rotational constants in cm-1:     0.030314     0.010449     0.008277
Rotational constants in MHz :   908.777609   313.241605   248.152309

                             ****ORCA TERMINATED NORMALLY****
TOTAL RUN TIME: 0 days 2 hours 26 minutes 43 seconds 41 msec
