                         Program Version 4.2.1 -  RELEASE  -
|  1> %pal
|  2>  nprocs 32
|  3> end
|  4> !RI-MP2 aug-cc-pVQZ aug-cc-pVQZ/C TightSCF
|  5> %maxcore 4500
|  6> *xyzfile 0 1  02_46R.xyz
|  7>
|  8>
|  9>                          ****END OF INPUT****

CARTESIAN COORDINATES (ANGSTROEM)
---------------------------------
  C     -0.734047    4.610883   -0.847598
  O      0.020673    3.430769   -0.629617
  H     -1.628818    4.400474   -1.437397
  C      1.634834    1.059397   -0.159683
  C      0.366684    1.113763    0.259007
  C      2.558216   -0.077133   -0.037782
  C      2.131459   -1.363036    0.305723
  C      3.917855    0.125146   -0.279184
  C      3.037676   -2.402897    0.420221
  C      4.828857   -0.914312   -0.161017
  C     -2.480216    1.489052    1.219099
  C      4.391568   -2.182623    0.191240
  C     -2.969697    0.395987    0.326251
  C     -2.733909   -0.897647    0.534871
  C     -3.211250   -1.975255   -0.317337
  C     -2.954002   -3.263926   -0.098759
  C     -3.419818   -4.391432   -0.960225
  O     -1.799055    2.506306    0.491076
  B     -0.513019    2.374643    0.043597
  H      1.077644   -1.553616    0.466808
  H      4.261401    1.115197   -0.557625
  H      2.688086   -3.394433    0.682538
  H      5.880721   -0.733869   -0.347484
  H     -1.839180    1.083589    2.007286
  H     -3.321733    1.990642    1.703187
  H      5.098605   -2.998515    0.280368
  H     -2.572319   -4.961397   -1.352298
  H     -4.008052   -4.031032   -1.805667
  H     -4.035246   -5.093368   -0.389797
  H     -0.098046    5.308707   -1.390973
  H     -1.041989    5.060370    0.098856
  H     -2.358303   -3.532818    0.771782
  H     -3.805687   -1.687981   -1.181924
  H     -3.551367    0.712242   -0.536174
  H     -2.139135   -1.193388    1.397707
  H      2.050655    1.943018   -0.637616
  H     -0.050357    0.240562    0.749808

 Total Charge           Charge          ....    0
 Multiplicity           Mult            ....    1
 Number of Electrons    NEL             ....  130
 Basis Dimension        Dim             .... 2314

ORBITAL ENERGIES
----------------

  NO   OCC          E(Eh)            E(eV)
   0   2.0000     -20.550874      -559.2177
   1   2.0000     -20.540654      -558.9396
   2   2.0000     -11.285729      -307.1003
   3   2.0000     -11.262936      -306.4801
   4   2.0000     -11.239720      -305.8483
   5   2.0000     -11.238064      -305.8033
   6   2.0000     -11.237938      -305.7998
   7   2.0000     -11.237438      -305.7862
   8   2.0000     -11.234575      -305.7083
   9   2.0000     -11.233697      -305.6844
  10   2.0000     -11.233201      -305.6709
  11   2.0000     -11.232287      -305.6461
  12   2.0000     -11.232059      -305.6399
  13   2.0000     -11.230534      -305.5984
  14   2.0000     -11.230124      -305.5872
  15   2.0000     -11.225679      -305.4663
  16   2.0000     -11.193998      -304.6042
  17   2.0000      -7.617756      -207.2897
  18   2.0000      -1.380079       -37.5539
  19   2.0000      -1.340780       -36.4845
  20   2.0000      -1.160755       -31.5857
  21   2.0000      -1.109049       -30.1788
  22   2.0000      -1.068829       -29.0843
  23   2.0000      -1.053867       -28.6772
  24   2.0000      -1.017802       -27.6958
  25   2.0000      -0.989000       -26.9121
  26   2.0000      -0.968785       -26.3620
  27   2.0000      -0.924661       -25.1613
  28   2.0000      -0.900978       -24.5169
  29   2.0000      -0.849016       -23.1029
  30   2.0000      -0.826520       -22.4908
  31   2.0000      -0.782471       -21.2921
  32   2.0000      -0.768384       -20.9088
  33   2.0000      -0.759560       -20.6687
  34   2.0000      -0.713395       -19.4125
  35   2.0000      -0.702320       -19.1111
  36   2.0000      -0.677588       -18.4381
  37   2.0000      -0.662333       -18.0230
  38   2.0000      -0.645993       -17.5784
  39   2.0000      -0.638926       -17.3861
  40   2.0000      -0.631710       -17.1897
  41   2.0000      -0.621557       -16.9134
  42   2.0000      -0.620029       -16.8718
  43   2.0000      -0.601067       -16.3559
  44   2.0000      -0.588353       -16.0099
  45   2.0000      -0.584036       -15.8924
  46   2.0000      -0.578015       -15.7286
  47   2.0000      -0.572978       -15.5915
  48   2.0000      -0.556444       -15.1416
  49   2.0000      -0.540587       -14.7101
  50   2.0000      -0.527510       -14.3543
  51   2.0000      -0.517983       -14.0950
  52   2.0000      -0.513662       -13.9775
  53   2.0000      -0.505222       -13.7478
  54   2.0000      -0.497567       -13.5395
  55   2.0000      -0.489515       -13.3204
  56   2.0000      -0.479374       -13.0444
  57   2.0000      -0.477658       -12.9977
  58   2.0000      -0.452562       -12.3148
  59   2.0000      -0.444109       -12.0848
  60   2.0000      -0.437240       -11.8979
  61   2.0000      -0.402514       -10.9530
  62   2.0000      -0.339458        -9.2371
  63   2.0000      -0.316592        -8.6149
  64   2.0000      -0.304251        -8.2791
  65   0.0000       0.020699         0.5632
  66   0.0000       0.025773         0.7013
  67   0.0000       0.026339         0.7167
  68   0.0000       0.028529         0.7763
  69   0.0000       0.033629         0.9151

MULLIKEN ATOMIC CHARGES
-----------------------
   0 C :   -0.756016
   1 O :   -1.467260
   2 H :    0.312561
   3 C :    0.012451
   4 C :   -0.674362
   5 C :    0.476649
   6 C :   -0.595760
   7 C :   -0.484199
   8 C :   -0.344231
   9 C :   -0.309714
  10 C :   -0.083712
  11 C :   -0.386046
  12 C :   -0.287999
  13 C :   -0.501123
  14 C :   -0.431289
  15 C :   -0.424653
  16 C :   -0.749267
  17 O :   -1.433796
  18 B :    2.169730
  19 H :    0.454703
  20 H :    0.210911
  21 H :    0.237966
  22 H :    0.251453
  23 H :    0.219841
  24 H :    0.479976
  25 H :    0.347713
  26 H :    0.229542
  27 H :    0.243331
  28 H :    0.244875
  29 H :    0.447371
  30 H :    0.340699
  31 H :    0.401469
  32 H :    0.371555
  33 H :    0.282737
  34 H :    0.431143
  35 H :    0.230972
  36 H :    0.531779
Sum of atomic charges:    0.0000000

LOEWDIN ATOMIC CHARGES
----------------------
   0 C :    0.583994
   1 O :    0.948502
   2 H :   -0.304376
   3 C :    0.368235
   4 C :    0.520616
   5 C :   -0.076986
   6 C :    0.337707
   7 C :    0.336409
   8 C :    0.349791
   9 C :    0.345291
  10 C :    0.159508
  11 C :    0.337223
  12 C :    0.375977
  13 C :    0.339987
  14 C :    0.349971
  15 C :    0.374192
  16 C :    0.890414
  17 O :    0.983785
  18 B :   -1.382549
  19 H :   -0.335350
  20 H :   -0.318514
  21 H :   -0.320256
  22 H :   -0.320603
  23 H :   -0.328580
  24 H :   -0.300413
  25 H :   -0.321763
  26 H :   -0.294406
  27 H :   -0.314229
  28 H :   -0.294238
  29 H :   -0.315185
  30 H :   -0.305272
  31 H :   -0.324912
  32 H :   -0.340062
  33 H :   -0.310145
  34 H :   -0.337839
  35 H :   -0.349973
  36 H :   -0.405953

  Mayer bond orders larger than 0.100000
B(  0-C ,  1-O ) :   0.9836 B(  0-C ,  2-H ) :   0.8895 B(  0-C , 17-O ) :  -0.1277
B(  0-C , 29-H ) :   0.8176 B(  0-C , 30-H ) :   0.8766 B(  1-O ,  3-C ) :   0.1187
B(  1-O ,  4-C ) :  -0.3184 B(  1-O , 17-O ) :  -0.1691 B(  1-O , 18-B ) :  -0.2595
B(  3-C ,  4-C ) :   1.3560 B(  3-C ,  5-C ) :   0.6817 B(  3-C ,  6-C ) :  -0.3546
B(  3-C ,  7-C ) :  -0.5162 B(  3-C , 35-H ) :   0.9599 B(  4-C ,  5-C ) :  -0.4618
B(  4-C ,  6-C ) :  -0.2290 B(  4-C , 17-O ) :  -0.2572 B(  4-C , 18-B ) :   1.0238
B(  4-C , 36-H ) :   0.6315 B(  5-C ,  6-C ) :   1.2756 B(  5-C ,  7-C ) :   1.1108
B(  5-C ,  8-C ) :  -0.3956 B(  5-C ,  9-C ) :  -0.3650 B(  5-C , 35-H ) :  -0.1250
B(  6-C ,  7-C ) :   0.1318 B(  6-C ,  8-C ) :   1.1844 B(  6-C , 19-H ) :   0.6699
B(  6-C , 21-H ) :  -0.1302 B(  7-C ,  8-C ) :   0.1380 B(  7-C ,  9-C ) :   1.1910
B(  7-C , 20-H ) :   1.0622 B(  7-C , 22-H ) :  -0.1720 B(  8-C , 11-C ) :   1.2037
B(  8-C , 21-H ) :   1.1150 B(  9-C , 11-C ) :   1.1874 B(  9-C , 22-H ) :   1.1499
B( 10-C , 12-C ) :   1.1030 B( 10-C , 13-C ) :  -0.2554 B( 10-C , 17-O ) :   0.8251
B( 10-C , 23-H ) :   0.9713 B( 10-C , 24-H ) :   0.7652 B( 11-C , 21-H ) :  -0.1019
B( 11-C , 22-H ) :  -0.1097 B( 11-C , 25-H ) :   0.9734 B( 12-C , 13-C ) :   1.4050
B( 12-C , 14-C ) :  -0.4218 B( 12-C , 17-O ) :   0.1521 B( 12-C , 33-H ) :   0.9574
B( 13-C , 14-C ) :   1.0036 B( 13-C , 15-C ) :  -0.4240 B( 13-C , 34-H ) :   0.7272
B( 14-C , 15-C ) :   1.6210 B( 14-C , 16-C ) :  -0.2192 B( 14-C , 32-H ) :   0.8268
B( 15-C , 16-C ) :   0.8908 B( 15-C , 28-H ) :  -0.1083 B( 15-C , 31-H ) :   0.7738
B( 16-C , 26-H ) :   0.9863 B( 16-C , 27-H ) :   0.9716 B( 16-C , 28-H ) :   1.0157

MP2 TOTAL ENERGY:     -757.059877709 Eh
FINAL SINGLE POINT ENERGY      -757.059877709299

DIPOLE MOMENT
-------------
                                X             Y             Z
Electronic contribution:      8.79086       8.61265       1.66432
Nuclear contribution   :     -9.08308      -9.22199      -1.52861
                        -----------------------------------------
Total Dipole Moment    :     -0.29221      -0.60933       0.13571
                        -----------------------------------------
Magnitude (a.u.)       :      0.68927
Magnitude (Debye)      :      1.75199

Rotational constants in cm-1:     0.011157     0.008671     0.005124
Rotational constants in MHz :   334.490178   259.937358   153.615160

                             ****ORCA TERMINATED NORMALLY****
TOTAL RUN TIME: 0 days 4 hours 31 minutes 40 seconds 825 msec
