                         Program Version 4.2.1 -  RELEASE  -
|  1> %pal
|  2>  nprocs 32
|  3> end
|  4> !RI-MP2 aug-cc-pVQZ aug-cc-pVQZ/C TightSCF
|  5> %maxcore 4500
|  6> *xyzfile -1 1  10_47TS.xyz
|  7>
|  8>
|  9>                          ****END OF INPUT****

CARTESIAN COORDINATES (ANGSTROEM)
---------------------------------
  C      0.399531    0.678456   -0.515370
  C     -0.911280    1.225941   -0.927031
  H     -0.925146    1.842565   -1.830617
  C      0.277734   -0.591280   -0.132005
  C     -1.790886    1.733614    0.191662
  H     -2.758220    2.028717   -0.237299
  C     -1.128518   -1.061292   -0.450606
  C     -2.027161    0.627162    1.236430
  H     -1.152363    0.564857    1.892610
  C     -2.224236   -0.723441    0.555312
  H     -2.259000   -1.527482    1.307396
  H     -3.167716   -0.760953    0.003554
  H     -1.426131    2.630421    0.743262
  H     -2.881355    0.867975    1.881714
  O     -1.318484   -1.958745   -1.282006
  C      1.723783    1.401844   -0.460217
  H      1.688734    2.171343    0.324205
  H      1.878739    1.943338   -1.400921
  C      1.332905   -1.429076    0.527897
  H      0.935431   -1.933429    1.418516
  H      1.645796   -2.233212   -0.152201
  C      2.533403   -0.557697    0.912406
  H      2.286590    0.010933    1.817256
  H      3.400935   -1.182261    1.155037
  C      2.881389    0.430268   -0.203104
  H      3.800314    0.975412    0.042194
  H      3.081285   -0.135263   -1.120912

 Total Charge           Charge          ....   -1
 Multiplicity           Mult            ....    1
 Number of Electrons    NEL             ....   90
 Basis Dimension        Dim             .... 1650

ORBITAL ENERGIES
----------------

  NO   OCC          E(Eh)            E(eV)
   0   2.0000     -20.332259      -553.2689
   1   2.0000     -11.150182      -303.4119
   2   2.0000     -11.099420      -302.0306
   3   2.0000     -11.096345      -301.9469
   4   2.0000     -11.089508      -301.7609
   5   2.0000     -11.082443      -301.5686
   6   2.0000     -11.065840      -301.1168
   7   2.0000     -11.064832      -301.0894
   8   2.0000     -11.056990      -300.8760
   9   2.0000     -11.053255      -300.7744
  10   2.0000     -11.043537      -300.5099
  11   2.0000     -10.976349      -298.6816
  12   2.0000      -1.171529       -31.8789
  13   2.0000      -0.989389       -26.9226
  14   2.0000      -0.928997       -25.2793
  15   2.0000      -0.872030       -23.7291
  16   2.0000      -0.868565       -23.6349
  17   2.0000      -0.803795       -21.8724
  18   2.0000      -0.735859       -20.0237
  19   2.0000      -0.696686       -18.9578
  20   2.0000      -0.677458       -18.4346
  21   2.0000      -0.612211       -16.6591
  22   2.0000      -0.583495       -15.8777
  23   2.0000      -0.513971       -13.9859
  24   2.0000      -0.488830       -13.3017
  25   2.0000      -0.480593       -13.0776
  26   2.0000      -0.469793       -12.7837
  27   2.0000      -0.460220       -12.5232
  28   2.0000      -0.455186       -12.3862
  29   2.0000      -0.416149       -11.3240
  30   2.0000      -0.412211       -11.2168
  31   2.0000      -0.397260       -10.8100
  32   2.0000      -0.393313       -10.7026
  33   2.0000      -0.390804       -10.6343
  34   2.0000      -0.367058        -9.9881
  35   2.0000      -0.345420        -9.3994
  36   2.0000      -0.341222        -9.2851
  37   2.0000      -0.332648        -9.0518
  38   2.0000      -0.312089        -8.4924
  39   2.0000      -0.299225        -8.1423
  40   2.0000      -0.294449        -8.0124
  41   2.0000      -0.277347        -7.5470
  42   2.0000      -0.210573        -5.7300
  43   2.0000      -0.174824        -4.7572
  44   2.0000      -0.055526        -1.5109
  45   0.0000       0.093404         2.5416
  46   0.0000       0.101585         2.7643
  47   0.0000       0.104713         2.8494
  48   0.0000       0.113626         3.0919
  49   0.0000       0.113969         3.1013

MULLIKEN ATOMIC CHARGES
-----------------------
   0 C :    0.318591
   1 C :   -0.880290
   2 H :    0.156573
   3 C :   -0.047482
   4 C :   -0.548417
   5 H :    0.136100
   6 C :    1.757539
   7 C :   -0.466469
   8 H :    0.117493
   9 C :   -0.754999
  10 H :    0.262712
  11 H :    0.241138
  12 H :    0.229054
  13 H :    0.248622
  14 O :   -1.245536
  15 C :   -0.383863
  16 H :    0.103025
  17 H :    0.220993
  18 C :   -0.443069
  19 H :    0.163923
  20 H :    0.176817
  21 C :   -0.551055
  22 H :    0.143265
  23 H :    0.222657
  24 C :   -0.575428
  25 H :    0.234688
  26 H :    0.163420
Sum of atomic charges:   -1.0000000

LOEWDIN ATOMIC CHARGES
----------------------
   0 C :   -0.127822
   1 C :    0.289626
   2 H :   -0.359460
   3 C :   -0.115571
   4 C :    0.406713
   5 H :   -0.309163
   6 C :   -0.769729
   7 C :    0.461652
   8 H :   -0.292673
   9 C :    0.446034
  10 H :   -0.279855
  11 H :   -0.304243
  12 H :   -0.282680
  13 H :   -0.272350
  14 O :    0.661433
  15 C :    0.514628
  16 H :   -0.270503
  17 H :   -0.279815
  18 C :    0.504345
  19 H :   -0.272974
  20 H :   -0.271644
  21 C :    0.499427
  22 H :   -0.270486
  23 H :   -0.267477
  24 C :    0.501454
  25 H :   -0.268681
  26 H :   -0.270186

  Mayer bond orders larger than 0.100000
B(  0-C ,  1-C ) :   0.5299 B(  0-C ,  2-H ) :  -0.1176 B(  0-C ,  3-C ) :   1.8006
B(  0-C ,  4-C ) :  -0.1424 B(  0-C ,  6-C ) :  -0.2304 B(  0-C , 15-C ) :   0.2432
B(  0-C , 17-H ) :  -0.1556 B(  0-C , 24-C ) :  -0.1272 B(  1-C ,  2-H ) :   1.2351
B(  1-C ,  3-C ) :  -0.1408 B(  1-C ,  4-C ) :   0.7250 B(  1-C ,  5-H ) :  -0.1101
B(  1-C ,  6-C ) :   0.3449 B(  3-C ,  6-C ) :   0.8875 B(  3-C ,  9-C ) :  -0.2186
B(  3-C , 14-O ) :   0.5330 B(  3-C , 18-C ) :   0.1618 B(  3-C , 20-H ) :  -0.1713
B(  3-C , 21-C ) :  -0.1182 B(  4-C ,  5-H ) :   1.1185 B(  4-C ,  7-C ) :   0.8404
B(  4-C , 12-H ) :   0.9133 B(  6-C ,  9-C ) :   1.0379 B(  7-C ,  8-H ) :   0.9463
B(  7-C ,  9-C ) :   0.9562 B(  7-C , 13-H ) :   0.9659 B(  9-C , 10-H ) :   0.8641
B(  9-C , 11-H ) :   0.9913 B(  9-C , 14-O ) :   0.2859 B( 15-C , 16-H ) :   1.0716
B( 15-C , 17-H ) :   1.0568 B( 15-C , 24-C ) :   0.9370 B( 18-C , 19-H ) :   1.0744
B( 18-C , 20-H ) :   1.1056 B( 18-C , 21-C ) :   0.9183 B( 21-C , 22-H ) :   1.0614
B( 21-C , 23-H ) :   0.9977 B( 21-C , 24-C ) :   0.8854 B( 24-C , 25-H ) :   0.9952
B( 24-C , 26-H ) :   1.0426

MP2 TOTAL ENERGY:     -502.492297412 Eh
FINAL SINGLE POINT ENERGY      -502.492297411639

DIPOLE MOMENT
-------------
                                X             Y             Z
Electronic contribution:     -2.49711      -5.00648      -4.27375
Nuclear contribution   :      4.22592       5.35736       5.96302
                        -----------------------------------------
Total Dipole Moment    :      1.72881       0.35088       1.68927
                        -----------------------------------------
Magnitude (a.u.)       :      2.44245
Magnitude (Debye)      :      6.20820

Rotational constants in cm-1:     0.048736     0.026860     0.022007
Rotational constants in MHz :  1461.058658   805.247810   659.758493

                             ****ORCA TERMINATED NORMALLY****
TOTAL RUN TIME: 0 days 2 hours 41 minutes 37 seconds 149 msec
