                         Program Version 4.2.1 -  RELEASE  -
|  1> %pal
|  2>  nprocs 32
|  3> end
|  4> !RI-MP2 aug-cc-pVQZ aug-cc-pVQZ/C TightSCF
|  5> %maxcore 4500
|  6> *xyzfile 1 1  08_13TS.xyz
|  7>
|  8>
|  9>                          ****END OF INPUT****

CARTESIAN COORDINATES (ANGSTROEM)
---------------------------------
  C     -0.864787   -1.593375   -0.791594
  C     -1.700986   -0.618360   -0.241376
  C     -2.984266   -0.980127    0.155651
  C     -3.424948   -2.289444    0.012996
  C     -2.558263   -3.240349   -0.541251
  C     -1.279910   -2.906120   -0.952449
  H     -3.648982   -0.235785    0.577976
  H     -2.901251   -4.261492   -0.660106
  H     -0.632855   -3.652448   -1.396668
  C     -1.056218    0.692352   -0.168020
  C     -1.579946    1.890731    0.313195
  C      0.243945    0.648671   -0.657811
  C     -0.767357    3.018428    0.296055
  H     -2.592902    1.932504    0.683395
  C      1.070127    1.773366   -0.650406
  C      0.554878    2.962108   -0.177207
  H      1.134721    3.872848   -0.152409
  S      0.715584   -0.939873   -1.242796
  O      2.331575    1.582773   -1.099474
  O     -1.151692    4.232611    0.725582
  C     -4.813587   -2.688752    0.425662
  H     -5.324394   -1.878090    0.944569
  H     -5.413046   -2.958985   -0.446771
  H     -4.792438   -3.556168    1.088022
  C      3.168691    2.724700   -1.260829
  H      3.374154    3.196951   -0.297507
  H      2.708593    3.446113   -1.938754
  H      4.094711    2.357167   -1.694447
  C     -2.475227    4.404787    1.210686
  H     -2.653391    3.784060    2.092638
  H     -2.556403    5.453106    1.483883
  H     -3.209356    4.172611    0.435087
  C      2.199466   -1.552155    0.523830
  H      2.378616   -2.479414    0.007056
  H      2.782117   -0.697069    0.219320
  C      1.245407   -1.467176    1.670321
  H      1.780881   -1.510838    2.618775
  H      0.708066   -0.518211    1.656881
  H      0.524208   -2.282649    1.652091
  N      4.037934   -2.120720    1.614405
  H      4.258255   -1.380741    2.274408
  H      3.852063   -2.958966    2.157208
  C      5.142348   -2.333726    0.671287
  H      6.078814   -2.600419    1.165592
  H      5.302347   -1.423541    0.092622
  H      4.877324   -3.133956   -0.020264

 Total Charge           Charge          ....    1
 Multiplicity           Mult            ....    1
 Number of Electrons    NEL             ....  170
 Basis Dimension        Dim             .... 2868

ORBITAL ENERGIES
----------------

  NO   OCC          E(Eh)            E(eV)
   0   2.0000     -92.114021     -2506.5500
   1   2.0000     -20.701326      -563.3117
   2   2.0000     -20.680149      -562.7355
   3   2.0000     -15.702431      -427.2849
   4   2.0000     -11.468576      -312.0758
   5   2.0000     -11.423130      -310.8392
   6   2.0000     -11.413887      -310.5876
   7   2.0000     -11.385542      -309.8163
   8   2.0000     -11.378569      -309.6266
   9   2.0000     -11.374917      -309.5272
  10   2.0000     -11.369120      -309.3695
  11   2.0000     -11.368843      -309.3619
  12   2.0000     -11.364878      -309.2541
  13   2.0000     -11.362207      -309.1814
  14   2.0000     -11.359416      -309.1054
  15   2.0000     -11.352414      -308.9149
  16   2.0000     -11.348484      -308.8079
  17   2.0000     -11.340259      -308.5841
  18   2.0000     -11.338626      -308.5397
  19   2.0000     -11.330027      -308.3057
  20   2.0000     -11.330004      -308.3051
  21   2.0000     -11.311683      -307.8065
  22   2.0000      -9.115182      -248.0367
  23   2.0000      -6.796440      -184.9405
  24   2.0000      -6.795992      -184.9284
  25   2.0000      -6.795188      -184.9065
  26   2.0000      -1.530848       -41.6565
  27   2.0000      -1.513915       -41.1957
  28   2.0000      -1.330441       -36.2031
  29   2.0000      -1.317039       -35.8385
  30   2.0000      -1.258597       -34.2482
  31   2.0000      -1.211562       -32.9683
  32   2.0000      -1.184269       -32.2256
  33   2.0000      -1.162124       -31.6230
  34   2.0000      -1.143138       -31.1064
  35   2.0000      -1.106648       -30.1134
  36   2.0000      -1.093979       -29.7687
  37   2.0000      -1.053432       -28.6653
  38   2.0000      -1.037929       -28.2435
  39   2.0000      -1.035291       -28.1717
  40   2.0000      -1.022035       -27.8110
  41   2.0000      -0.994774       -27.0692
  42   2.0000      -0.964194       -26.2371
  43   2.0000      -0.915473       -24.9113
  44   2.0000      -0.904008       -24.5993
  45   2.0000      -0.890704       -24.2373
  46   2.0000      -0.828531       -22.5455
  47   2.0000      -0.827115       -22.5069
  48   2.0000      -0.810535       -22.0558
  49   2.0000      -0.793194       -21.5839
  50   2.0000      -0.778381       -21.1808
  51   2.0000      -0.775958       -21.1149
  52   2.0000      -0.769439       -20.9375
  53   2.0000      -0.758592       -20.6423
  54   2.0000      -0.751759       -20.4564
  55   2.0000      -0.749626       -20.3983
  56   2.0000      -0.741864       -20.1871
  57   2.0000      -0.737374       -20.0650
  58   2.0000      -0.728721       -19.8295
  59   2.0000      -0.716195       -19.4887
  60   2.0000      -0.711307       -19.3556
  61   2.0000      -0.699260       -19.0278
  62   2.0000      -0.694325       -18.8935
  63   2.0000      -0.675723       -18.3873
  64   2.0000      -0.673013       -18.3136
  65   2.0000      -0.667035       -18.1510
  66   2.0000      -0.659217       -17.9382
  67   2.0000      -0.655921       -17.8485
  68   2.0000      -0.653915       -17.7939
  69   2.0000      -0.641027       -17.4432
  70   2.0000      -0.634230       -17.2583
  71   2.0000      -0.625642       -17.0246
  72   2.0000      -0.621458       -16.9107
  73   2.0000      -0.607543       -16.5321
  74   2.0000      -0.607325       -16.5261
  75   2.0000      -0.603740       -16.4286
  76   2.0000      -0.590396       -16.0655
  77   2.0000      -0.586536       -15.9605
  78   2.0000      -0.566536       -15.4162
  79   2.0000      -0.559407       -15.2222
  80   2.0000      -0.524558       -14.2740
  81   2.0000      -0.478359       -13.0168
  82   2.0000      -0.439013       -11.9462
  83   2.0000      -0.408369       -11.1123
  84   2.0000      -0.400467       -10.8973
  85   0.0000      -0.065523        -1.7830
  86   0.0000      -0.053892        -1.4665
  87   0.0000      -0.051275        -1.3953
  88   0.0000      -0.045118        -1.2277
  89   0.0000      -0.042507        -1.1567

MULLIKEN ATOMIC CHARGES
-----------------------
   0 C :   -0.443517
   1 C :    1.484075
   2 C :   -0.898564
   3 C :    0.330484
   4 C :   -0.359891
   5 C :   -0.430314
   6 H :    0.087083
   7 H :    0.243017
   8 H :    0.291515
   9 C :    0.341383
  10 C :   -1.386374
  11 C :    0.142891
  12 C :    1.939494
  13 H :    0.202804
  14 C :    1.679945
  15 C :   -1.221758
  16 H :    0.180546
  17 S :   -0.282221
  18 O :   -0.963565
  19 O :   -1.015922
  20 C :   -0.990223
  21 H :    0.247189
  22 H :    0.279931
  23 H :    0.229022
  24 C :   -0.920678
  25 H :    0.347190
  26 H :    0.351716
  27 H :    0.432469
  28 C :   -0.759614
  29 H :    0.288058
  30 H :    0.480981
  31 H :    0.306013
  32 C :   -0.092302
  33 H :    0.399103
  34 H :    0.633754
  35 C :   -1.063697
  36 H :    0.277714
  37 H :    0.165079
  38 H :    0.380005
  39 N :   -0.459028
  40 H :    0.238607
  41 H :    0.238736
  42 C :   -0.984522
  43 H :    0.460486
  44 H :    0.307050
  45 H :    0.285846
Sum of atomic charges:    1.0000000

LOEWDIN ATOMIC CHARGES
----------------------
   0 C :   -0.422558
   1 C :   -0.162505
   2 C :    0.389078
   3 C :   -0.044182
   4 C :    0.366344
   5 C :    0.312645
   6 H :   -0.310028
   7 H :   -0.303502
   8 H :   -0.314344
   9 C :   -0.175845
  10 C :    0.369115
  11 C :   -0.467078
  12 C :   -0.434718
  13 H :   -0.356805
  14 C :   -0.521023
  15 C :    0.331285
  16 H :   -0.349519
  17 S :    1.482723
  18 O :    0.870259
  19 O :    0.897044
  20 C :    0.925947
  21 H :   -0.299256
  22 H :   -0.271863
  23 H :   -0.278975
  24 C :    0.612801
  25 H :   -0.299794
  26 H :   -0.294757
  27 H :   -0.308660
  28 C :    0.606688
  29 H :   -0.299350
  30 H :   -0.307996
  31 H :   -0.298294
  32 C :    0.621723
  33 H :   -0.320426
  34 H :   -0.341694
  35 C :    0.937041
  36 H :   -0.282988
  37 H :   -0.309353
  38 H :   -0.269746
  39 N :    1.202814
  40 H :   -0.442025
  41 H :   -0.439285
  42 C :    0.833319
  43 H :   -0.266265
  44 H :   -0.283310
  45 H :   -0.282681

  Mayer bond orders larger than 0.100000
B(  0-C ,  1-C ) :   0.1395 B(  0-C ,  2-C ) :  -0.1510 B(  0-C ,  5-C ) :   1.1014
B(  0-C ,  8-H ) :  -0.1103 B(  0-C , 11-C ) :  -1.4360 B(  0-C , 14-C ) :   0.3069
B(  0-C , 15-C ) :   0.1121 B(  0-C , 17-S ) :   0.7489 B(  1-C ,  2-C ) :   0.9871
B(  1-C ,  3-C ) :  -0.7745 B(  1-C ,  4-C ) :  -0.1250 B(  1-C ,  5-C ) :  -0.2909
B(  1-C ,  6-H ) :  -0.1669 B(  1-C ,  9-C ) :   1.1215 B(  1-C , 10-C ) :  -0.5794
B(  1-C , 11-C ) :  -0.3297 B(  1-C , 13-H ) :   0.2107 B(  1-C , 15-C ) :  -0.1486
B(  1-C , 17-S ) :  -0.5434 B(  1-C , 37-H ) :   0.1232 B(  2-C ,  3-C ) :   0.9508
B(  2-C ,  4-C ) :   0.1480 B(  2-C ,  5-C ) :   0.1897 B(  2-C ,  6-H ) :   1.2850
B(  2-C ,  9-C ) :  -0.3805 B(  2-C , 10-C ) :  -0.2756 B(  2-C , 11-C ) :   0.1048
B(  2-C , 20-C ) :  -0.1562 B(  3-C ,  4-C ) :   0.9703 B(  3-C , 20-C ) :   0.7394
B(  3-C , 21-H ) :  -0.1029 B(  3-C , 22-H ) :  -0.1791 B(  3-C , 23-H ) :  -0.1012
B(  4-C ,  5-C ) :   1.1644 B(  4-C ,  7-H ) :   1.0923 B(  4-C ,  8-H ) :  -0.2098
B(  4-C ,  9-C ) :  -0.1647 B(  5-C ,  7-H ) :  -0.1600 B(  5-C ,  8-H ) :   0.9897
B(  5-C ,  9-C ) :  -0.2596 B(  5-C , 11-C ) :   0.4488 B(  5-C , 17-S ) :  -0.1269
B(  6-H , 10-C ) :  -0.1220 B(  9-C , 10-C ) :   0.7136 B(  9-C , 11-C ) :   0.1667
B(  9-C , 12-C ) :  -0.6431 B(  9-C , 13-H ) :  -0.2339 B(  9-C , 14-C ) :  -0.2399
B(  9-C , 17-S ) :   0.3739 B( 10-C , 11-C ) :  -0.2215 B( 10-C , 12-C ) :   1.6067
B( 10-C , 13-H ) :   0.9796 B( 10-C , 15-C ) :   0.1417 B( 10-C , 19-O ) :   0.6808
B( 10-C , 28-C ) :   0.2871 B( 11-C , 14-C ) :   0.6594 B( 11-C , 15-C ) :  -0.1951
B( 11-C , 17-S ) :   0.4790 B( 11-C , 18-O ) :   0.7466 B( 11-C , 24-C ) :   0.1619
B( 12-C , 13-H ) :  -0.1647 B( 12-C , 14-C ) :  -0.6007 B( 12-C , 15-C ) :   1.3063
B( 12-C , 16-H ) :  -0.1236 B( 12-C , 19-O ) :  -0.8077 B( 12-C , 28-C ) :  -0.3471
B( 14-C , 15-C ) :   1.5527 B( 14-C , 17-S ) :  -0.3192 B( 14-C , 18-O ) :  -0.5564
B( 14-C , 24-C ) :  -0.3168 B( 15-C , 16-H ) :   1.0120 B( 15-C , 18-O ) :   0.1811
B( 15-C , 19-O ) :   0.3894 B( 16-H , 19-O ) :   0.1131 B( 17-S , 32-C ) :   0.4814
B( 18-O , 24-C ) :   1.0292 B( 19-O , 28-C ) :   0.9359 B( 20-C , 21-H ) :   1.0385
B( 20-C , 22-H ) :   1.0389 B( 20-C , 23-H ) :   1.0515 B( 24-C , 25-H ) :   0.8662
B( 24-C , 26-H ) :   0.8673 B( 24-C , 27-H ) :   0.8625 B( 28-C , 29-H ) :   0.8918
B( 28-C , 30-H ) :   0.7745 B( 28-C , 31-H ) :   0.8871 B( 32-C , 33-H ) :   0.8423
B( 32-C , 34-H ) :   0.6216 B( 32-C , 35-C ) :   0.7339 B( 32-C , 39-N ) :   0.1305
B( 33-H , 35-C ) :   0.1123 B( 35-C , 36-H ) :   1.0026 B( 35-C , 37-H ) :   0.9049
B( 35-C , 38-H ) :   0.8443 B( 39-N , 40-H ) :   0.9802 B( 39-N , 41-H ) :   0.9802
B( 39-N , 42-C ) :   0.9866 B( 42-C , 43-H ) :   0.7930 B( 42-C , 44-H ) :   0.9128
B( 42-C , 45-H ) :   0.9256

MP2 TOTAL ENERGY:    -1301.503925440 Eh
FINAL SINGLE POINT ENERGY     -1301.503925439552

DIPOLE MOMENT
-------------
                                X             Y             Z
Electronic contribution:     -7.88258       5.66596     -11.15365
Nuclear contribution   :     10.23598      -7.26617      12.69105
                        -----------------------------------------
Total Dipole Moment    :      2.35340      -1.60021       1.53739
                        -----------------------------------------
Magnitude (a.u.)       :      3.23462
Magnitude (Debye)      :      8.22174

Rotational constants in cm-1:     0.008136     0.007443     0.004448
Rotational constants in MHz :   243.905454   223.145241   133.341413

                             ****ORCA TERMINATED NORMALLY****
TOTAL RUN TIME: 0 days 11 hours 15 minutes 32 seconds 943 msec
