                         Program Version 4.2.1 -  RELEASE  -
|  1> %pal
|  2>  nprocs 32
|  3> end
|  4> !RI-MP2 aug-cc-pVQZ aug-cc-pVQZ/C TightSCF
|  5> %maxcore 4500
|  6> *xyzfile 0 1  04_50R1.xyz
|  7>
|  8>
|  9>                          ****END OF INPUT****

CARTESIAN COORDINATES (ANGSTROEM)
---------------------------------
  C     -2.884500   -1.324864    0.041939
  C     -1.526500   -1.584368    0.093570
  C     -0.594518   -0.550381    0.029166
  C     -1.037959    0.764916   -0.083123
  C     -2.407942    1.018268   -0.130933
  C     -3.329183   -0.012621   -0.071825
  H     -3.595250   -2.140809    0.091044
  H     -1.176693   -2.607769    0.183666
  H     -2.750730    2.044306   -0.213205
  H     -4.389989    0.203461   -0.109917
  C      1.284803    1.488166    0.464530
  H      2.042633    2.250210    0.278706
  H      1.175937    1.392231    1.556332
  N      1.741227    0.239001   -0.120159
  C     -0.041394    1.892615   -0.154380
  H      0.125769    2.169475   -1.200145
  H     -0.438522    2.774228    0.355129
  C      0.873134   -0.896897    0.095823
  H      1.091169   -1.370349    1.068460
  H      1.096006   -1.644670   -0.669777
  C      3.099823    0.001252   -0.150240
  C      3.721633   -1.181733   -0.134484
  H      3.687944    0.911125   -0.221354
  H      3.201027   -2.125446   -0.052489
  H      4.797725   -1.215122   -0.225596

 Total Charge           Charge          ....    0
 Multiplicity           Mult            ....    1
 Number of Electrons    NEL             ....   86
 Basis Dimension        Dim             .... 1558

ORBITAL ENERGIES
----------------

  NO   OCC          E(Eh)            E(eV)
   0   2.0000     -15.565646      -423.5628
   1   2.0000     -11.263717      -306.5013
   2   2.0000     -11.262137      -306.4583
   3   2.0000     -11.261260      -306.4345
   4   2.0000     -11.238917      -305.8265
   5   2.0000     -11.237249      -305.7811
   6   2.0000     -11.231407      -305.6221
   7   2.0000     -11.230645      -305.6014
   8   2.0000     -11.230285      -305.5916
   9   2.0000     -11.229881      -305.5806
  10   2.0000     -11.229140      -305.5604
  11   2.0000     -11.198334      -304.7222
  12   2.0000      -1.265985       -34.4492
  13   2.0000      -1.160656       -31.5831
  14   2.0000      -1.072060       -29.1722
  15   2.0000      -1.046426       -28.4747
  16   2.0000      -1.010691       -27.5023
  17   2.0000      -0.986192       -26.8356
  18   2.0000      -0.910170       -24.7670
  19   2.0000      -0.863235       -23.4898
  20   2.0000      -0.823091       -22.3974
  21   2.0000      -0.791846       -21.5472
  22   2.0000      -0.742380       -20.2012
  23   2.0000      -0.701463       -19.0878
  24   2.0000      -0.667681       -18.1685
  25   2.0000      -0.662870       -18.0376
  26   2.0000      -0.640829       -17.4378
  27   2.0000      -0.619944       -16.8695
  28   2.0000      -0.610853       -16.6221
  29   2.0000      -0.593759       -16.1570
  30   2.0000      -0.576999       -15.7009
  31   2.0000      -0.570984       -15.5373
  32   2.0000      -0.549696       -14.9580
  33   2.0000      -0.536127       -14.5888
  34   2.0000      -0.524689       -14.2775
  35   2.0000      -0.510779       -13.8990
  36   2.0000      -0.485573       -13.2131
  37   2.0000      -0.481084       -13.0910
  38   2.0000      -0.471208       -12.8222
  39   2.0000      -0.436896       -11.8885
  40   2.0000      -0.333471        -9.0742
  41   2.0000      -0.325147        -8.8477
  42   2.0000      -0.305618        -8.3163
  43   0.0000       0.023071         0.6278
  44   0.0000       0.025869         0.7039
  45   0.0000       0.027680         0.7532
  46   0.0000       0.035561         0.9677
  47   0.0000       0.037192         1.0121

MULLIKEN ATOMIC CHARGES
-----------------------
   0 C :   -0.372461
   1 C :   -0.765083
   2 C :    0.427520
   3 C :    0.678018
   4 C :   -0.694010
   5 C :   -0.346213
   6 H :    0.235836
   7 H :    0.194239
   8 H :    0.237354
   9 H :    0.268986
  10 C :   -0.431465
  11 H :    0.297762
  12 H :    0.262199
  13 N :   -0.451011
  14 C :   -0.568267
  15 H :    0.260204
  16 H :    0.233358
  17 C :    0.303867
  18 H :    0.176586
  19 H :    0.277500
  20 C :   -0.302380
  21 C :   -0.890748
  22 H :    0.393629
  23 H :    0.278446
  24 H :    0.296134
Sum of atomic charges:   -0.0000000

LOEWDIN ATOMIC CHARGES
----------------------
   0 C :    0.348229
   1 C :    0.354767
   2 C :   -0.036371
   3 C :   -0.046178
   4 C :    0.355319
   5 C :    0.346881
   6 H :   -0.320874
   7 H :   -0.306611
   8 H :   -0.312903
   9 H :   -0.321123
  10 C :    0.364120
  11 H :   -0.292238
  12 H :   -0.240032
  13 N :    0.470867
  14 C :    0.522892
  15 H :   -0.256443
  16 H :   -0.275162
  17 C :    0.316516
  18 H :   -0.258049
  19 H :   -0.304177
  20 C :    0.189590
  21 C :    0.793880
  22 H :   -0.342588
  23 H :   -0.379317
  24 H :   -0.370996

  Mayer bond orders larger than 0.100000
B(  0-C ,  1-C ) :   1.3171 B(  0-C ,  2-C ) :  -0.3363 B(  0-C ,  5-C ) :   1.1708
B(  0-C ,  6-H ) :   1.1610 B(  1-C ,  2-C ) :   0.9938 B(  1-C ,  3-C ) :  -0.1835
B(  1-C ,  4-C ) :   0.1822 B(  1-C ,  5-C ) :   0.1071 B(  1-C ,  6-H ) :  -0.1769
B(  1-C ,  7-H ) :   1.1106 B(  1-C , 17-C ) :  -0.4627 B(  2-C ,  3-C ) :   1.1620
B(  2-C ,  4-C ) :  -0.3256 B(  2-C ,  7-H ) :  -0.1330 B(  2-C , 13-N ) :  -0.1130
B(  2-C , 14-C ) :  -0.1168 B(  2-C , 17-C ) :   0.5958 B(  3-C ,  4-C ) :   0.8346
B(  3-C ,  5-C ) :  -0.2596 B(  3-C ,  8-H ) :  -0.1178 B(  3-C , 10-C ) :  -0.1359
B(  3-C , 14-C ) :   0.4412 B(  3-C , 16-H ) :  -0.1300 B(  3-C , 17-C ) :  -0.3358
B(  4-C ,  5-C ) :   1.2507 B(  4-C ,  8-H ) :   1.0520 B(  4-C ,  9-H ) :  -0.1881
B(  4-C , 14-C ) :  -0.1256 B(  5-C ,  9-H ) :   1.1188 B( 10-C , 11-H ) :   0.9397
B( 10-C , 12-H ) :   0.9042 B( 10-C , 13-N ) :   0.7513 B( 10-C , 14-C ) :   1.2189
B( 13-N , 17-C ) :   0.8549 B( 13-N , 20-C ) :   1.2013 B( 13-N , 21-C ) :   0.1126
B( 14-C , 15-H ) :   0.9383 B( 14-C , 16-H ) :   1.0585 B( 17-C , 18-H ) :   1.0191
B( 17-C , 19-H ) :   0.9707 B( 17-C , 20-C ) :  -0.2155 B( 17-C , 21-C ) :  -0.2414
B( 20-C , 21-C ) :   1.5541 B( 20-C , 22-H ) :   0.8616 B( 20-C , 24-H ) :  -0.1454
B( 21-C , 23-H ) :   0.9974 B( 21-C , 24-H ) :   1.0091

MP2 TOTAL ENERGY:     -480.854009186 Eh
FINAL SINGLE POINT ENERGY      -480.854009186307

DIPOLE MOMENT
-------------
                                X             Y             Z
Electronic contribution:     -5.22723      -0.25558      -0.68468
Nuclear contribution   :      4.94715       0.65148       0.85219
                        -----------------------------------------
Total Dipole Moment    :     -0.28008       0.39590       0.16752
                        -----------------------------------------
Magnitude (a.u.)       :      0.51307
Magnitude (Debye)      :      1.30413

Rotational constants in cm-1:     0.073921     0.020864     0.016594
Rotational constants in MHz :  2216.104961   625.475781   497.465667

                             ****ORCA TERMINATED NORMALLY****
TOTAL RUN TIME: 0 days 1 hours 50 minutes 44 seconds 477 msec
