                         Program Version 4.2.1 -  RELEASE  -
|  1> %pal
|  2>  nprocs 32
|  3> end
|  4> !RI-MP2 aug-cc-pVQZ aug-cc-pVQZ/C TightSCF
|  5> %maxcore 4500
|  6> *xyzfile 0 2  04_24R2.xyz
|  7>
|  8>
|  9>                          ****END OF INPUT****

CARTESIAN COORDINATES (ANGSTROEM)
---------------------------------
  O      1.178458   -0.275527    0.000000
  O      0.157909    0.537465    0.000000
  C     -1.089588   -0.180700    0.000000
  H     -1.865065    0.582367   -0.000008
  H     -1.144164   -0.796843   -0.896595
  H     -1.144172   -0.796830    0.896603

 Total Charge           Charge          ....    0
 Multiplicity           Mult            ....    2
 Number of Electrons    NEL             ....   25
 Basis Dimension        Dim             ....  378

ORBITAL ENERGIES
----------------
                 SPIN UP ORBITALS
  NO   OCC          E(Eh)            E(eV)
   0   1.0000     -20.670429      -562.4710
   1   1.0000     -20.660218      -562.1931
   2   1.0000     -11.294596      -307.3416
   3   1.0000      -1.578980       -42.9662
   4   1.0000      -1.211358       -32.9627
   5   1.0000      -0.940217       -25.5846
   6   1.0000      -0.766488       -20.8572
   7   1.0000      -0.707631       -19.2556
   8   1.0000      -0.698814       -19.0157
   9   1.0000      -0.611703       -16.6453
  10   1.0000      -0.569388       -15.4938
  11   1.0000      -0.493471       -13.4280
  12   1.0000      -0.481619       -13.1055
  13   0.0000       0.024806         0.6750
  14   0.0000       0.040666         1.1066
  15   0.0000       0.041057         1.1172
  16   0.0000       0.064880         1.7655
  17   0.0000       0.100805         2.7430

                 SPIN DOWN ORBITALS
  NO   OCC          E(Eh)            E(eV)
   0   1.0000     -20.650600      -561.9314
   1   1.0000     -20.630927      -561.3961
   2   1.0000     -11.295323      -307.3614
   3   1.0000      -1.517323       -41.2885
   4   1.0000      -1.123416       -30.5697
   5   1.0000      -0.920857       -25.0578
   6   1.0000      -0.693124       -18.8609
   7   1.0000      -0.676531       -18.4093
   8   1.0000      -0.654992       -17.8232
   9   1.0000      -0.561999       -15.2928
  10   1.0000      -0.501554       -13.6480
  11   1.0000      -0.460767       -12.5381
  12   0.0000       0.024876         0.6769
  13   0.0000       0.040048         1.0898
  14   0.0000       0.040690         1.1072
  15   0.0000       0.065142         1.7726
  16   0.0000       0.099036         2.6949

MULLIKEN ATOMIC CHARGES AND SPIN POPULATIONS
--------------------------------------------
   0 O :   -0.162304    0.920183
   1 O :   -0.276119    0.097510
   2 C :   -0.419329   -0.034081
   3 H :    0.337379   -0.000555
   4 H :    0.260187    0.008471
   5 H :    0.260186    0.008471
Sum of atomic charges         :   -0.0000000

LOEWDIN ATOMIC CHARGES AND SPIN POPULATIONS
-------------------------------------------
   0 O :    0.277083    0.769367
   1 O :    0.236914    0.237270
   2 C :    0.514661   -0.001395
   3 H :   -0.345181   -0.002755
   4 H :   -0.341739   -0.001243
   5 H :   -0.341739   -0.001243

  Mayer bond orders larger than 0.100000
B(  0-O ,  1-O ) :   1.0227 B(  1-O ,  2-C ) :   0.7593 B(  2-C ,  3-H ) :   0.8828
B(  2-C ,  4-H ) :   0.9226 B(  2-C ,  5-H ) :   0.9226

MP2 TOTAL ENERGY:     -189.959366304 Eh
FINAL SINGLE POINT ENERGY      -189.959366304056

DIPOLE MOMENT
-------------
                                X             Y             Z
Electronic contribution:      3.20905       0.73732      -0.00000
Nuclear contribution   :     -4.12520      -1.00544      -0.00000
                        -----------------------------------------
Total Dipole Moment    :     -0.91616      -0.26812      -0.00000
                        -----------------------------------------
Magnitude (a.u.)       :      0.95458
Magnitude (Debye)      :      2.42635

Rotational constants in cm-1:     1.787566     0.380500     0.333860
Rotational constants in MHz : 53589.880166 11407.114359 10008.881338

                             ****ORCA TERMINATED NORMALLY****
TOTAL RUN TIME: 0 days 0 hours 1 minutes 39 seconds 703 msec
