                         Program Version 4.2.1 -  RELEASE  -
|  1> %pal
|  2>  nprocs 320
|  3> end
|  4> !RI-MP2 aug-cc-pVQZ aug-cc-pVQZ/C TightSCF MORead
|  5> %maxcore 4500
|  6> %moinp "05_40TS.gbw"
|  7> *xyzfile 1 1  05_40TS.xyz
|  8>
|  9>
| 10>                          ****END OF INPUT****

CARTESIAN COORDINATES (ANGSTROEM)
---------------------------------
  N      0.253149   -1.280743   -0.740420
  C      1.640474   -1.032052   -0.815791
  C      2.208459    0.209076   -1.104637
  C      3.581355    0.364116   -1.121770
  C      4.426070   -0.704945   -0.829493
  C      3.866216   -1.942814   -0.520725
  C      2.488592   -2.095396   -0.520374
  O      5.748809   -0.444977   -0.864139
  C      6.658967   -1.507866   -0.626275
  C     -0.815986   -0.605333   -1.261371
  C     -2.093548   -1.398838   -1.262606
  C     -2.087670   -2.790762   -1.294301
  C     -3.284538   -3.495588   -1.309916
  C     -4.493015   -2.817173   -1.291573
  C     -4.503947   -1.427183   -1.266947
  C     -3.313636   -0.721029   -1.255861
  C     -0.601788    0.298834   -2.460367
  O     -2.564389    2.743102   -0.720121
  C     -1.550936    3.158439   -0.209872
  O     -1.148250    4.423723   -0.288555
  C     -2.007744    5.315717   -1.023812
  C     -0.650616    2.269193    0.557487
  C     -1.195929    0.953043    0.820396
  C     -0.450935    0.079052    1.695453
  C      0.829970    0.396983    2.036032
  N      1.322599    1.602808    1.623814
  C      0.625570    2.562346    0.941092
  C      1.783969   -0.441614    2.817210
  C     -1.064125   -1.215018    2.090874
  O     -2.381913   -1.108648    2.203998
  C     -3.105598   -2.322760    2.472842
  C      1.372755    3.837344    0.706311
  O     -0.453716   -2.247755    2.242307
  H      6.531411   -2.306216   -1.361953
  H     -2.760144   -2.766101    3.404884
  H     -5.444738   -0.891165   -1.258001
  H      0.022560   -2.063039   -0.142325
  H      6.540334   -1.911079    0.383250
  H      7.651695   -1.078210   -0.728288
  H     -3.267624   -4.577606   -1.349850
  H     -5.425339   -3.367736   -1.306151
  H     -2.962363   -3.023745    1.652068
  H     -4.147037   -2.026031    2.546189
  H     -0.170031    1.262431   -2.193241
  H     -1.557138    0.488996   -2.941659
  H      0.064948   -0.188428   -3.174799
  H      2.277240    1.816819    1.875370
  H     -1.134304    0.306060   -0.345552
  H     -2.277768    0.893241    0.878538
  H      2.418247    0.183973    3.447826
  H      2.422142   -0.993823    2.121289
  H      1.267088   -1.171917    3.430795
  H      2.422304    3.725719    0.980999
  H      0.941153    4.644995    1.297904
  H      1.311866    4.143332   -0.335684
  H     -1.521565    6.285568   -0.980732
  H     -2.990138    5.354239   -0.556558
  H     -2.107412    4.976115   -2.053421
  H     -1.154289   -3.337669   -1.344848
  H     -3.330906    0.363504   -1.232905
  H      1.589851    1.066565   -1.315189
  H      2.065821   -3.066162   -0.287192
  H      4.488059   -2.795922   -0.290846
  H      4.027188    1.320640   -1.363626

 Total Charge           Charge          ....    1
 Multiplicity           Mult            ....    1
 Number of Electrons    NEL             ....  240
 Basis Dimension        Dim             .... 4066

ORBITAL ENERGIES
----------------

  NO   OCC          E(Eh)            E(eV)
   0   2.0000     -20.708054      -563.4948
   1   2.0000     -20.704485      -563.3977
   2   2.0000     -20.672146      -562.5177
   3   2.0000     -20.647529      -561.8478
   4   2.0000     -20.647376      -561.8437
   5   2.0000     -15.757226      -428.7759
   6   2.0000     -15.709855      -427.4869
   7   2.0000     -11.492270      -312.7206
   8   2.0000     -11.492250      -312.7200
   9   2.0000     -11.452010      -311.6250
  10   2.0000     -11.447188      -311.4938
  11   2.0000     -11.447185      -311.4938
  12   2.0000     -11.411580      -310.5249
  13   2.0000     -11.396617      -310.1177
  14   2.0000     -11.385294      -309.8096
  15   2.0000     -11.379402      -309.6493
  16   2.0000     -11.373690      -309.4938
  17   2.0000     -11.367508      -309.3256
  18   2.0000     -11.365191      -309.2626
  19   2.0000     -11.364994      -309.2572
  20   2.0000     -11.358734      -309.0869
  21   2.0000     -11.354017      -308.9585
  22   2.0000     -11.348065      -308.7965
  23   2.0000     -11.345634      -308.7304
  24   2.0000     -11.343513      -308.6727
  25   2.0000     -11.342789      -308.6530
  26   2.0000     -11.341182      -308.6093
  27   2.0000     -11.335197      -308.4464
  28   2.0000     -11.334420      -308.4253
  29   2.0000     -11.333392      -308.3973
  30   2.0000     -11.332579      -308.3751
  31   2.0000     -11.331358      -308.3419
  32   2.0000     -11.330504      -308.3187
  33   2.0000      -1.573816       -42.8257
  34   2.0000      -1.572476       -42.7892
  35   2.0000      -1.504833       -40.9486
  36   2.0000      -1.469614       -39.9902
  37   2.0000      -1.468346       -39.9557
  38   2.0000      -1.449976       -39.4559
  39   2.0000      -1.397889       -38.0385
  40   2.0000      -1.271789       -34.6071
  41   2.0000      -1.252391       -34.0793
  42   2.0000      -1.247694       -33.9515
  43   2.0000      -1.241308       -33.7777
  44   2.0000      -1.176739       -32.0207
  45   2.0000      -1.132346       -30.8127
  46   2.0000      -1.126047       -30.6413
  47   2.0000      -1.123684       -30.5770
  48   2.0000      -1.122218       -30.5371
  49   2.0000      -1.110529       -30.2190
  50   2.0000      -1.103920       -30.0392
  51   2.0000      -1.082455       -29.4551
  52   2.0000      -1.058468       -28.8024
  53   2.0000      -1.038711       -28.2648
  54   2.0000      -1.028005       -27.9734
  55   2.0000      -0.983560       -26.7640
  56   2.0000      -0.977163       -26.5900
  57   2.0000      -0.954773       -25.9807
  58   2.0000      -0.945397       -25.7256
  59   2.0000      -0.935619       -25.4595
  60   2.0000      -0.916885       -24.9497
  61   2.0000      -0.890904       -24.2427
  62   2.0000      -0.884866       -24.0784
  63   2.0000      -0.863325       -23.4923
  64   2.0000      -0.846048       -23.0221
  65   2.0000      -0.840736       -22.8776
  66   2.0000      -0.824690       -22.4410
  67   2.0000      -0.809959       -22.0401
  68   2.0000      -0.805538       -21.9198
  69   2.0000      -0.799365       -21.7518
  70   2.0000      -0.793845       -21.6016
  71   2.0000      -0.786493       -21.4016
  72   2.0000      -0.780708       -21.2441
  73   2.0000      -0.778234       -21.1768
  74   2.0000      -0.776023       -21.1167
  75   2.0000      -0.768515       -20.9124
  76   2.0000      -0.760919       -20.7057
  77   2.0000      -0.753459       -20.5027
  78   2.0000      -0.745365       -20.2824
  79   2.0000      -0.742750       -20.2113
  80   2.0000      -0.731007       -19.8917
  81   2.0000      -0.724326       -19.7099
  82   2.0000      -0.715514       -19.4701
  83   2.0000      -0.707828       -19.2610
  84   2.0000      -0.705128       -19.1875
  85   2.0000      -0.699235       -19.0272
  86   2.0000      -0.697416       -18.9776
  87   2.0000      -0.690938       -18.8014
  88   2.0000      -0.689948       -18.7744
  89   2.0000      -0.679980       -18.5032
  90   2.0000      -0.677033       -18.4230
  91   2.0000      -0.675116       -18.3708
  92   2.0000      -0.668520       -18.1914
  93   2.0000      -0.666696       -18.1417
  94   2.0000      -0.662408       -18.0250
  95   2.0000      -0.660506       -17.9733
  96   2.0000      -0.656210       -17.8564
  97   2.0000      -0.649624       -17.6772
  98   2.0000      -0.647541       -17.6205
  99   2.0000      -0.646844       -17.6015
 100   2.0000      -0.631360       -17.1802
 101   2.0000      -0.628255       -17.0957
 102   2.0000      -0.623690       -16.9715
 103   2.0000      -0.617481       -16.8025
 104   2.0000      -0.605408       -16.4740
 105   2.0000      -0.596569       -16.2335
 106   2.0000      -0.596495       -16.2314
 107   2.0000      -0.594498       -16.1771
 108   2.0000      -0.579789       -15.7769
 109   2.0000      -0.571054       -15.5392
 110   2.0000      -0.569712       -15.5027
 111   2.0000      -0.567071       -15.4308
 112   2.0000      -0.560591       -15.2544
 113   2.0000      -0.539346       -14.6763
 114   2.0000      -0.492105       -13.3909
 115   2.0000      -0.468277       -12.7425
 116   2.0000      -0.453208       -12.3324
 117   2.0000      -0.440391       -11.9837
 118   2.0000      -0.424773       -11.5587
 119   2.0000      -0.388652       -10.5758
 120   0.0000      -0.070411        -1.9160
 121   0.0000      -0.056258        -1.5309
 122   0.0000      -0.046261        -1.2588
 123   0.0000      -0.043899        -1.1945
 124   0.0000      -0.042267        -1.1501

MULLIKEN ATOMIC CHARGES
-----------------------
   0 N :   -1.145311
   1 C :    0.759397
   2 C :   -0.542220
   3 C :   -0.542891
   4 C :    1.668496
   5 C :   -0.816089
   6 C :   -0.484524
   7 O :   -1.022680
   8 C :   -0.826869
   9 C :    2.882963
  10 C :    1.187534
  11 C :   -0.708219
  12 C :   -0.403510
  13 C :   -0.420265
  14 C :   -0.625686
  15 C :   -1.001578
  16 C :   -1.184271
  17 O :   -1.252686
  18 C :    2.360177
  19 O :   -0.899222
  20 C :   -1.074444
  21 C :   -1.691722
  22 C :    1.805126
  23 C :   -1.413604
  24 C :    1.633778
  25 N :   -0.777268
  26 C :    1.041397
  27 C :   -1.216171
  28 C :    2.627154
  29 O :   -1.077225
  30 C :   -1.112254
  31 C :   -1.268674
  32 O :   -1.237493
  33 H :    0.314523
  34 H :    0.427479
  35 H :    0.142568
  36 H :    0.505410
  37 H :    0.275865
  38 H :    0.479984
  39 H :    0.138819
  40 H :    0.283287
  41 H :    0.459492
  42 H :    0.381822
  43 H :    0.312053
  44 H :    0.180331
  45 H :    0.166970
  46 H :   -0.035950
  47 H :   -0.628289
  48 H :    0.303967
  49 H :    0.327028
  50 H :    0.310770
  51 H :    0.279626
  52 H :    0.246986
  53 H :    0.334662
  54 H :    0.128598
  55 H :    0.460434
  56 H :    0.412106
  57 H :    0.407744
  58 H :    0.170665
  59 H :    0.312063
  60 H :    0.463704
  61 H :    0.017026
  62 H :    0.140810
  63 H :    0.058302
Sum of atomic charges:    1.0000000

LOEWDIN ATOMIC CHARGES
----------------------
   0 N :    0.904704
   1 C :   -0.170575
   2 C :    0.336274
   3 C :    0.351798
   4 C :   -0.451976
   5 C :    0.354991
   6 C :    0.363612
   7 O :    0.882876
   8 C :    0.595558
   9 C :   -0.089246
  10 C :   -0.038882
  11 C :    0.369369
  12 C :    0.368840
  13 C :    0.363110
  14 C :    0.385541
  15 C :    0.357261
  16 C :    1.002191
  17 O :    0.782962
  18 C :   -1.067381
  19 O :    0.853860
  20 C :    0.624083
  21 C :   -0.043496
  22 C :    0.332397
  23 C :   -0.059103
  24 C :   -0.130782
  25 N :    0.904782
  26 C :   -0.125479
  27 C :    0.970455
  28 C :   -1.079575
  29 O :    0.883500
  30 C :    0.625007
  31 C :    0.962247
  32 O :    0.791835
  33 H :   -0.299637
  34 H :   -0.298442
  35 H :   -0.303119
  36 H :   -0.598256
  37 H :   -0.301984
  38 H :   -0.310596
  39 H :   -0.304349
  40 H :   -0.305619
  41 H :   -0.325342
  42 H :   -0.302454
  43 H :   -0.295008
  44 H :   -0.265411
  45 H :   -0.232193
  46 H :   -0.478378
  47 H :   -0.608151
  48 H :   -0.300560
  49 H :   -0.259508
  50 H :   -0.274858
  51 H :   -0.326617
  52 H :   -0.282139
  53 H :   -0.262047
  54 H :   -0.289164
  55 H :   -0.310126
  56 H :   -0.304344
  57 H :   -0.306070
  58 H :   -0.309132
  59 H :   -0.341442
  60 H :   -0.373907
  61 H :   -0.290774
  62 H :   -0.341214
  63 H :   -0.309919

  Mayer bond orders larger than 0.100000
B(  0-N ,  1-C ) :   1.1621 B(  0-N ,  2-C ) :  -0.1732 B(  0-N ,  6-C ) :   0.1913
B(  0-N ,  9-C ) :   1.0052 B(  0-N , 11-C ) :   0.1453 B(  0-N , 16-C ) :  -0.1041
B(  0-N , 23-C ) :   0.1507 B(  0-N , 24-C ) :  -0.1432 B(  0-N , 32-O ) :   0.3539
B(  0-N , 36-H ) :   1.2922 B(  0-N , 47-H ) :   0.5386 B(  1-C ,  2-C ) :   1.0963
B(  1-C ,  3-C ) :  -0.4421 B(  1-C ,  5-C ) :  -0.3158 B(  1-C ,  6-C ) :   1.0992
B(  1-C , 21-C ) :   0.1308 B(  1-C , 23-C ) :   0.2174 B(  1-C , 24-C ) :  -0.1072
B(  1-C , 26-C ) :  -0.1035 B(  1-C , 47-H ) :  -0.1895 B(  2-C ,  3-C ) :   1.6330
B(  2-C ,  4-C ) :  -0.2775 B(  2-C ,  6-C ) :  -0.3878 B(  2-C ,  9-C ) :  -0.2699
B(  2-C , 25-N ) :   0.1258 B(  2-C , 43-H ) :  -0.1160 B(  2-C , 60-H ) :   0.5926
B(  3-C ,  4-C ) :   1.1784 B(  3-C ,  6-C ) :   0.1694 B(  3-C ,  7-O ) :   0.4259
B(  3-C , 60-H ) :  -0.1743 B(  3-C , 63-H ) :   1.1407 B(  4-C ,  5-C ) :   1.2573
B(  4-C ,  7-O ) :  -0.7762 B(  4-C ,  8-C ) :  -0.3328 B(  4-C , 62-H ) :  -0.1171
B(  4-C , 63-H ) :  -0.1309 B(  5-C ,  6-C ) :   1.0611 B(  5-C ,  7-O ) :   0.4097
B(  5-C ,  8-C ) :   0.2134 B(  5-C , 61-H ) :  -0.1607 B(  5-C , 62-H ) :   1.2294
B(  6-C ,  9-C ) :  -0.1053 B(  6-C , 61-H ) :   1.1783 B(  6-C , 62-H ) :  -0.2027
B(  7-O ,  8-C ) :   0.9956 B(  7-O , 63-H ) :   0.1673 B(  8-C , 33-H ) :   0.8820
B(  8-C , 37-H ) :   0.8934 B(  8-C , 38-H ) :   0.7929 B(  9-C , 11-C ) :  -0.7421
B(  9-C , 15-C ) :  -0.7394 B(  9-C , 16-C ) :  -0.2289 B(  9-C , 17-O ) :  -0.1478
B(  9-C , 22-C ) :   0.1798 B(  9-C , 24-C ) :   0.1171 B(  9-C , 32-O ) :   0.2968
B(  9-C , 36-H ) :  -0.3886 B(  9-C , 43-H ) :  -0.1513 B(  9-C , 44-H ) :  -0.1366
B(  9-C , 45-H ) :  -0.1989 B(  9-C , 47-H ) :   0.3070 B(  9-C , 60-H ) :  -0.1464
B( 10-C , 11-C ) :   0.8366 B( 10-C , 12-C ) :  -0.4663 B( 10-C , 14-C ) :  -0.4544
B( 10-C , 15-C ) :   0.8432 B( 10-C , 16-C ) :  -0.2028 B( 10-C , 22-C ) :  -0.1217
B( 10-C , 36-H ) :  -0.1045 B( 10-C , 47-H ) :   0.3384 B( 11-C , 12-C ) :   1.3252
B( 11-C , 23-C ) :   0.1096 B( 11-C , 39-H ) :  -0.1457 B( 11-C , 58-H ) :   1.1632
B( 12-C , 13-C ) :   1.1551 B( 12-C , 14-C ) :   0.1612 B( 12-C , 15-C ) :   0.1550
B( 12-C , 39-H ) :   1.2760 B( 12-C , 40-H ) :  -0.1519 B( 13-C , 14-C ) :   1.2731
B( 13-C , 40-H ) :   1.1578 B( 14-C , 15-C ) :   1.4001 B( 14-C , 22-C ) :  -0.1303
B( 14-C , 35-H ) :   1.2602 B( 14-C , 40-H ) :  -0.1346 B( 14-C , 59-H ) :  -0.1069
B( 15-C , 22-C ) :  -0.1737 B( 15-C , 35-H ) :  -0.1093 B( 15-C , 48-H ) :   0.1023
B( 15-C , 59-H ) :   1.0461 B( 16-C , 22-C ) :   0.1529 B( 16-C , 43-H ) :   1.0785
B( 16-C , 44-H ) :   1.2563 B( 16-C , 45-H ) :   1.2477 B( 17-O , 19-O ) :   0.1755
B( 17-O , 21-C ) :   1.4386 B( 17-O , 22-C ) :  -0.6387 B( 17-O , 47-H ) :   0.3037
B( 18-C , 19-O ) :   0.3122 B( 18-C , 20-C ) :  -0.4948 B( 18-C , 21-C ) :   1.7078
B( 18-C , 22-C ) :  -0.5206 B( 19-O , 20-C ) :   1.0280 B( 19-O , 26-C ) :   0.3493
B( 20-C , 21-C ) :   0.1792 B( 20-C , 55-H ) :   0.8243 B( 20-C , 56-H ) :   0.8604
B( 20-C , 57-H ) :   0.8676 B( 21-C , 22-C ) :  -1.1218 B( 21-C , 23-C ) :   0.3463
B( 21-C , 25-N ) :   0.4107 B( 21-C , 26-C ) :   0.2547 B( 21-C , 46-H ) :   0.1084
B( 21-C , 47-H ) :   0.4008 B( 21-C , 48-H ) :  -0.2394 B( 22-C , 23-C ) :  -0.5150
B( 22-C , 24-C ) :  -0.3518 B( 22-C , 26-C ) :  -0.1449 B( 22-C , 29-O ) :   0.1716
B( 22-C , 32-O ) :   0.1602 B( 22-C , 47-H ) :  -0.1653 B( 22-C , 48-H ) :   1.3072
B( 23-C , 24-C ) :   0.8426 B( 23-C , 25-N ) :  -0.1062 B( 23-C , 26-C ) :  -0.2504
B( 23-C , 27-C ) :  -0.1136 B( 23-C , 28-C ) :   1.6017 B( 23-C , 29-O ) :   0.1829
B( 23-C , 32-O ) :   0.5853 B( 23-C , 46-H ) :   0.1604 B( 23-C , 47-H ) :   0.3044
B( 23-C , 48-H ) :  -0.4302 B( 23-C , 50-H ) :   0.2107 B( 24-C , 25-N ) :   0.3602
B( 24-C , 26-C ) :   0.5774 B( 24-C , 27-C ) :   0.4506 B( 24-C , 32-O ) :  -0.2110
B( 24-C , 36-H ) :   0.1013 B( 24-C , 46-H ) :  -0.4589 B( 24-C , 47-H ) :  -0.2105
B( 24-C , 50-H ) :  -0.2942 B( 24-C , 51-H ) :  -0.2322 B( 25-N , 26-C ) :   0.6581
B( 25-N , 46-H ) :   1.5542 B( 25-N , 47-H ) :   0.1723 B( 26-C , 46-H ) :  -0.2763
B( 26-C , 47-H ) :  -0.1155 B( 26-C , 52-H ) :  -0.1210 B( 26-C , 53-H ) :  -0.3117
B( 26-C , 54-H ) :  -0.2754 B( 27-C , 49-H ) :   1.0084 B( 27-C , 50-H ) :   0.9917
B( 27-C , 51-H ) :   1.1442 B( 28-C , 29-O ) :   0.2214 B( 28-C , 30-C ) :  -0.4493
B( 28-C , 32-O ) :   0.2899 B( 28-C , 36-H ) :  -0.1004 B( 29-O , 30-C ) :   1.0534
B( 29-O , 32-O ) :   0.2610 B( 29-O , 47-H ) :   0.1335 B( 29-O , 48-H ) :  -0.1572
B( 30-C , 34-H ) :   0.8844 B( 30-C , 41-H ) :   0.8076 B( 30-C , 42-H ) :   0.9302
B( 31-C , 52-H ) :   1.0800 B( 31-C , 53-H ) :   1.0118 B( 31-C , 54-H ) :   1.2296
B( 32-O , 36-H ) :  -0.5643 B( 32-O , 47-H ) :  -0.1001 B( 36-H , 47-H ) :   0.1297
B( 44-H , 47-H ) :  -0.1109 B( 47-H , 48-H ) :  -0.1504 B( 53-H , 54-H ) :   0.1146

MP2 TOTAL ENERGY:    -1492.444530788 Eh
FINAL SINGLE POINT ENERGY     -1492.444530787504

DIPOLE MOMENT
-------------
                                X             Y             Z
Electronic contribution:     -4.94548      -0.39119       3.12172
Nuclear contribution   :      5.80151       1.32543      -2.50389
                        -----------------------------------------
Total Dipole Moment    :      0.85602       0.93424       0.61783
                        -----------------------------------------
Magnitude (a.u.)       :      1.40971
Magnitude (Debye)      :      3.58321

Rotational constants in cm-1:     0.005256     0.003740     0.002888
Rotational constants in MHz :   157.568914   112.108439    86.580492

                             ****ORCA TERMINATED NORMALLY****
TOTAL RUN TIME: 0 days 4 hours 1 minutes 59 seconds 698 msec
