                         Program Version 4.2.1 -  RELEASE  -
|  1> %pal
|  2>  nprocs 32
|  3> end
|  4> !RI-MP2 aug-cc-pVQZ aug-cc-pVQZ/C TightSCF
|  5> %maxcore 4500
|  6> *xyzfile 1 1  05_8TS.xyz
|  7>
|  8>
|  9>                          ****END OF INPUT****

CARTESIAN COORDINATES (ANGSTROEM)
---------------------------------
  C      3.468145   -0.467706    0.035585
  C      2.383519   -1.254598   -0.684227
  C      1.000953   -1.067317   -0.043696
  H      2.336886   -0.938358   -1.732173
  H      2.623969   -2.318901   -0.691316
  C      0.953050   -1.767140    1.326289
  H      1.112628   -2.837191    1.184258
  H     -0.002894   -1.640977    1.830910
  H      1.732395   -1.403284    1.998048
  C      0.686974    0.427678    0.094676
  C      1.709378    1.394521    0.115773
  C      3.157798    1.022566    0.003356
  H      4.438622   -0.638343   -0.430964
  H      3.567436   -0.806622    1.068728
  C      1.409081    2.864075    0.094127
  C     -0.083710   -1.645099   -0.971939
  C     -1.504788   -1.544408   -0.412047
  H      0.168262   -2.688385   -1.173049
  H     -0.022104   -1.131639   -1.936696
  C     -0.755720    0.852626   -0.045523
  H      1.167702    0.829453    1.223843
  C     -1.769323   -0.224695    0.350622
  H     -0.871911    1.108956   -1.105819
  H     -0.959114    1.770758    0.504597
  H     -1.712554   -2.378942    0.258640
  H     -2.208772   -1.647150   -1.238378
  C     -3.191140    0.266492    0.172081
  H     -1.639700   -0.407321    1.419411
  C     -4.050456    0.203204    1.181868
  H     -3.759299   -0.176094    2.154894
  H     -5.080264    0.520240    1.070552
  C     -3.582432    0.802299   -1.177804
  H     -3.310078    0.118312   -1.986182
  H     -3.094359    1.758991   -1.388055
  H     -4.657180    0.968610   -1.232249
  H      3.450248    1.454681   -0.963601
  H      3.731050    1.581785    0.746534
  H      0.555272    3.141513    0.708476
  H      1.169948    3.144398   -0.936443
  H      2.275840    3.440519    0.411186

 Total Charge           Charge          ....    1
 Multiplicity           Mult            ....    1
 Number of Electrons    NEL             ....  114
 Basis Dimension        Dim             .... 2350

ORBITAL ENERGIES
----------------

  NO   OCC          E(Eh)            E(eV)
   0   2.0000     -11.489171      -312.6362
   1   2.0000     -11.469794      -312.1090
   2   2.0000     -11.396397      -310.1117
   3   2.0000     -11.395229      -310.0799
   4   2.0000     -11.393228      -310.0255
   5   2.0000     -11.385642      -309.8191
   6   2.0000     -11.364460      -309.2427
   7   2.0000     -11.360299      -309.1295
   8   2.0000     -11.360104      -309.1242
   9   2.0000     -11.354002      -308.9581
  10   2.0000     -11.353865      -308.9544
  11   2.0000     -11.341224      -308.6104
  12   2.0000     -11.341191      -308.6095
  13   2.0000     -11.321225      -308.0662
  14   2.0000     -11.315297      -307.9049
  15   2.0000      -1.363945       -37.1148
  16   2.0000      -1.264414       -34.4065
  17   2.0000      -1.238497       -33.7012
  18   2.0000      -1.203287       -32.7431
  19   2.0000      -1.151479       -31.3333
  20   2.0000      -1.142252       -31.0823
  21   2.0000      -1.102978       -30.0136
  22   2.0000      -1.082272       -29.4501
  23   2.0000      -1.044035       -28.4096
  24   2.0000      -1.029688       -28.0192
  25   2.0000      -0.995214       -27.0811
  26   2.0000      -0.949303       -25.8318
  27   2.0000      -0.913725       -24.8637
  28   2.0000      -0.839471       -22.8432
  29   2.0000      -0.830818       -22.6077
  30   2.0000      -0.824978       -22.4488
  31   2.0000      -0.805637       -21.9225
  32   2.0000      -0.797704       -21.7066
  33   2.0000      -0.772501       -21.0208
  34   2.0000      -0.752877       -20.4868
  35   2.0000      -0.742429       -20.2025
  36   2.0000      -0.737559       -20.0700
  37   2.0000      -0.733566       -19.9614
  38   2.0000      -0.717036       -19.5115
  39   2.0000      -0.707489       -19.2518
  40   2.0000      -0.698582       -19.0094
  41   2.0000      -0.690433       -18.7876
  42   2.0000      -0.682768       -18.5790
  43   2.0000      -0.677445       -18.4342
  44   2.0000      -0.663937       -18.0666
  45   2.0000      -0.657583       -17.8937
  46   2.0000      -0.651582       -17.7305
  47   2.0000      -0.641798       -17.4642
  48   2.0000      -0.627492       -17.0749
  49   2.0000      -0.625226       -17.0133
  50   2.0000      -0.615404       -16.7460
  51   2.0000      -0.604383       -16.4461
  52   2.0000      -0.600501       -16.3405
  53   2.0000      -0.582096       -15.8396
  54   2.0000      -0.574842       -15.6423
  55   2.0000      -0.559321       -15.2199
  56   2.0000      -0.457062       -12.4373
  57   0.0000      -0.076383        -2.0785
  58   0.0000      -0.064845        -1.7645
  59   0.0000      -0.056787        -1.5453
  60   0.0000      -0.054142        -1.4733
  61   0.0000      -0.049688        -1.3521

MULLIKEN ATOMIC CHARGES
-----------------------
   0 C :   -0.627799
   1 C :   -0.883831
   2 C :    2.087478
   3 H :    0.218358
   4 H :    0.131434
   5 C :   -1.359843
   6 H :    0.124751
   7 H :    0.270188
   8 H :    0.169529
   9 C :    1.074862
  10 C :    0.126595
  11 C :   -0.633890
  12 H :    0.211840
  13 H :    0.212150
  14 C :   -1.024354
  15 C :   -0.715127
  16 C :   -0.794443
  17 H :    0.165970
  18 H :    0.083974
  19 C :   -0.029160
  20 H :    0.102970
  21 C :    0.976960
  22 H :    0.289368
  23 H :    0.173399
  24 H :    0.109898
  25 H :    0.176334
  26 C :   -0.161519
  27 H :    0.251978
  28 C :   -1.034636
  29 H :    0.134495
  30 H :    0.215685
  31 C :   -0.806841
  32 H :    0.125584
  33 H :    0.213425
  34 H :    0.340769
  35 H :    0.102852
  36 H :    0.264308
  37 H :    0.215501
  38 H :    0.189552
  39 H :    0.311237
Sum of atomic charges:    1.0000000

LOEWDIN ATOMIC CHARGES
----------------------
   0 C :    0.598815
   1 C :    0.557435
   2 C :   -0.175275
   3 H :   -0.242843
   4 H :   -0.238655
   5 C :    0.983645
   6 H :   -0.233781
   7 H :   -0.284753
   8 H :   -0.263922
   9 C :    0.200736
  10 C :    0.195595
  11 C :    0.615764
  12 H :   -0.235413
  13 H :   -0.267096
  14 C :    1.029565
  15 C :    0.563720
  16 C :    0.597002
  17 H :   -0.238387
  18 H :   -0.246319
  19 C :    0.588620
  20 H :   -0.316673
  21 C :    0.145656
  22 H :   -0.248829
  23 H :   -0.265815
  24 H :   -0.241537
  25 H :   -0.273303
  26 C :   -0.013520
  27 H :   -0.327043
  28 C :    0.844940
  29 H :   -0.327401
  30 H :   -0.328224
  31 C :    0.917462
  32 H :   -0.280389
  33 H :   -0.275944
  34 H :   -0.290274
  35 H :   -0.237612
  36 H :   -0.236108
  37 H :   -0.267427
  38 H :   -0.227034
  39 H :   -0.255378

  Mayer bond orders larger than 0.100000
B(  0-C ,  1-C ) :   0.8238 B(  0-C ,  2-C ) :  -0.1780 B(  0-C , 10-C ) :  -0.1329
B(  0-C , 11-C ) :   0.9257 B(  0-C , 12-H ) :   1.0370 B(  0-C , 13-H ) :   1.0681
B(  1-C ,  2-C ) :  -0.2793 B(  1-C ,  3-H ) :   1.3158 B(  1-C ,  4-H ) :   1.2908
B(  1-C ,  9-C ) :  -0.2538 B(  1-C , 15-C ) :   0.1263 B(  2-C ,  3-H ) :  -0.2387
B(  2-C ,  4-H ) :  -0.2500 B(  2-C ,  5-C ) :  -0.1147 B(  2-C ,  6-H ) :  -0.3334
B(  2-C ,  7-H ) :  -0.1602 B(  2-C ,  8-H ) :  -0.1449 B(  2-C ,  9-C ) :   0.5021
B(  2-C , 11-C ) :   0.1026 B(  2-C , 15-C ) :   0.2577 B(  2-C , 16-C ) :  -0.2482
B(  2-C , 17-H ) :  -0.1747 B(  2-C , 18-H ) :  -0.1504 B(  2-C , 21-C ) :   0.1346
B(  5-C ,  6-H ) :   1.3320 B(  5-C ,  7-H ) :   1.0704 B(  5-C ,  8-H ) :   1.2173
B(  5-C , 21-C ) :  -0.1029 B(  9-C , 10-C ) :   0.5264 B(  9-C , 11-C ) :  -0.1572
B(  9-C , 18-H ) :  -0.1044 B(  9-C , 19-C ) :   0.9209 B(  9-C , 20-H ) :   0.3039
B(  9-C , 38-H ) :   0.1331 B( 10-C , 11-C ) :   0.3682 B( 10-C , 14-C ) :   0.2855
B( 10-C , 19-C ) :  -0.3800 B( 10-C , 20-H ) :   0.7477 B( 10-C , 21-C ) :  -0.1061
B( 10-C , 35-H ) :  -0.2300 B( 10-C , 36-H ) :  -0.1934 B( 10-C , 37-H ) :  -0.1665
B( 10-C , 38-H ) :  -0.2287 B( 10-C , 39-H ) :  -0.1454 B( 11-C , 35-H ) :   1.2006
B( 11-C , 36-H ) :   1.0155 B( 14-C , 37-H ) :   1.1471 B( 14-C , 38-H ) :   1.0948
B( 14-C , 39-H ) :   1.0160 B( 15-C , 16-C ) :   0.8710 B( 15-C , 17-H ) :   1.1765
B( 15-C , 18-H ) :   1.3204 B( 15-C , 25-H ) :  -0.1555 B( 16-C , 17-H ) :  -0.1190
B( 16-C , 21-C ) :   0.5563 B( 16-C , 24-H ) :   1.2431 B( 16-C , 25-H ) :   1.0985
B( 19-C , 20-H ) :   0.2030 B( 19-C , 21-C ) :   0.8322 B( 19-C , 22-H ) :   0.8891
B( 19-C , 23-H ) :   1.0413 B( 19-C , 26-C ) :  -0.1540 B( 19-C , 28-C ) :  -0.1366
B( 21-C , 24-H ) :  -0.2109 B( 21-C , 27-H ) :   1.0040 B( 21-C , 28-C ) :  -0.4552
B( 26-C , 28-C ) :   1.6761 B( 26-C , 29-H ) :  -0.2276 B( 26-C , 30-H ) :  -0.1575
B( 26-C , 31-C ) :   0.6135 B( 26-C , 32-H ) :  -0.1199 B( 26-C , 34-H ) :  -0.1015
B( 28-C , 29-H ) :   1.2775 B( 28-C , 30-H ) :   1.1409 B( 28-C , 31-C ) :   0.1088
B( 31-C , 32-H ) :   1.1531 B( 31-C , 33-H ) :   0.9982 B( 31-C , 34-H ) :   0.9410

MP2 TOTAL ENERGY:     -585.235911409 Eh
FINAL SINGLE POINT ENERGY      -585.235911409483

DIPOLE MOMENT
-------------
                                X             Y             Z
Electronic contribution:      0.86567       0.26258       0.35581
Nuclear contribution   :      1.06433       0.86765      -0.24698
                        -----------------------------------------
Total Dipole Moment    :      1.93000       1.13023       0.10883
                        -----------------------------------------
Magnitude (a.u.)       :      2.23923
Magnitude (Debye)      :      5.69168

Rotational constants in cm-1:     0.034410     0.013360     0.011116
Rotational constants in MHz :  1031.571263   400.534237   333.260305

                             ****ORCA TERMINATED NORMALLY****
TOTAL RUN TIME: 0 days 5 hours 55 minutes 44 seconds 384 msec
