                         Program Version 4.2.1 -  RELEASE  -
|  1> %pal
|  2>  nprocs 32
|  3> end
|  4> !RI-MP2 aug-cc-pVQZ aug-cc-pVQZ/C TightSCF
|  5> %maxcore 4500
|  6> *xyzfile 0 2  06_32P.xyz
|  7>
|  8>
|  9>                          ****END OF INPUT****

CARTESIAN COORDINATES (ANGSTROEM)
---------------------------------
  C      0.997667   -0.203641   -1.566773
  C      2.370922   -0.276744   -1.014786
  F      2.639817   -1.477058   -0.401432
  Si    -0.303791    0.011911   -0.147047
  Si     0.028332    2.120006    0.839169
  Si    -0.118639   -1.653094    1.503288
  Si    -2.462150   -0.039737   -1.082438
  C     -0.567230    3.487145   -0.317913
  H     -0.364709    4.471730    0.113388
  H     -0.062783    3.441231   -1.286471
  H     -1.641919    3.420890   -0.501193
  C     -0.938243    2.236092    2.453624
  H     -0.837650    3.235558    2.886321
  H     -2.002653    2.042881    2.306146
  H     -0.569063    1.519350    3.190594
  C      1.849336    2.426327    1.212912
  H      1.973556    3.375979    1.741890
  H      2.270636    1.634669    1.835510
  H      2.440505    2.475050    0.296399
  C     -1.702654   -1.637888    2.530710
  H     -2.575269   -1.910350    1.932796
  H     -1.627643   -2.358483    3.350256
  H     -1.892900   -0.656222    2.969937
  C      0.084713   -3.365084    0.747323
  H      1.029839   -3.438279    0.206704
  H      0.084457   -4.128726    1.530632
  H     -0.725839   -3.599727    0.053577
  C      1.333721   -1.308682    2.651075
  H      2.271270   -1.283731    2.093364
  H      1.219312   -0.353658    3.169121
  H      1.413314   -2.090306    3.412247
  C     -3.023186   -1.806677   -1.429786
  H     -3.073037   -2.395225   -0.510870
  H     -4.020073   -1.810943   -1.880079
  H     -2.346220   -2.321707   -2.114481
  C     -3.699922    0.744687    0.104341
  H     -4.711699    0.680505   -0.306221
  H     -3.702855    0.243189    1.074362
  H     -3.480225    1.800720    0.275677
  C     -2.492819    0.935307   -2.697577
  H     -3.497647    0.929699   -3.129787
  H     -2.205759    1.976976   -2.537750
  H     -1.812292    0.515206   -3.441654
  C      0.687207   -1.387384   -2.504916
  H      1.439578   -1.471517   -3.294180
  H      0.671658   -2.330020   -1.957817
  H     -0.283976   -1.262081   -2.984986
  C      3.581469    0.343330   -1.612529
  C      4.769832    0.419351   -0.655763
  H      3.305744    1.342895   -1.959347
  H      3.876459   -0.220409   -2.513255
  H      5.633688    0.868478   -1.148912
  H      4.525531    1.019792    0.222261
  H      5.054539   -0.575879   -0.313123
  H      0.948378    0.721944   -2.149416

 Total Charge           Charge          ....    0
 Multiplicity           Mult            ....    2
 Number of Electrons    NEL             ....  185
 Basis Dimension        Dim             .... 3192

ORBITAL ENERGIES
----------------
                 SPIN UP ORBITALS
  NO   OCC          E(Eh)            E(eV)
   0   1.0000     -68.742978     -1870.5915
   1   1.0000     -68.742136     -1870.5686
   2   1.0000     -68.738575     -1870.4717
   3   1.0000     -68.724576     -1870.0908
   4   1.0000     -26.285045      -715.2524
   5   1.0000     -11.303321      -307.5790
   6   1.0000     -11.231656      -305.6289
   7   1.0000     -11.222141      -305.3700
   8   1.0000     -11.220372      -305.3219
   9   1.0000     -11.215015      -305.1761
  10   1.0000     -11.196556      -304.6738
  11   1.0000     -11.195800      -304.6532
  12   1.0000     -11.195242      -304.6380
  13   1.0000     -11.195001      -304.6315
  14   1.0000     -11.194509      -304.6181
  15   1.0000     -11.193638      -304.5944
  16   1.0000     -11.191508      -304.5364
  17   1.0000     -11.187409      -304.4249
  18   1.0000     -11.187098      -304.4164
  19   1.0000      -6.092468      -165.7845
  20   1.0000      -6.091642      -165.7620
  21   1.0000      -6.087917      -165.6606
  22   1.0000      -6.077773      -165.3846
  23   1.0000      -4.198945      -114.2591
  24   1.0000      -4.198619      -114.2502
  25   1.0000      -4.198565      -114.2488
  26   1.0000      -4.198022      -114.2340
  27   1.0000      -4.197820      -114.2285
  28   1.0000      -4.197793      -114.2277
  29   1.0000      -4.194374      -114.1347
  30   1.0000      -4.194107      -114.1274
  31   1.0000      -4.193992      -114.1243
  32   1.0000      -4.183649      -113.8429
  33   1.0000      -4.183421      -113.8367
  34   1.0000      -4.183346      -113.8346
  35   1.0000      -1.603810       -43.6419
  36   1.0000      -1.093437       -29.7539
  37   1.0000      -1.031031       -28.0558
  38   1.0000      -0.967852       -26.3366
  39   1.0000      -0.962055       -26.1788
  40   1.0000      -0.957512       -26.0552
  41   1.0000      -0.932855       -25.3843
  42   1.0000      -0.923580       -25.1319
  43   1.0000      -0.922309       -25.0973
  44   1.0000      -0.920491       -25.0478
  45   1.0000      -0.919227       -25.0134
  46   1.0000      -0.915574       -24.9140
  47   1.0000      -0.913529       -24.8584
  48   1.0000      -0.851648       -23.1745
  49   1.0000      -0.792677       -21.5698
  50   1.0000      -0.715749       -19.4765
  51   1.0000      -0.698918       -19.0185
  52   1.0000      -0.695568       -18.9274
  53   1.0000      -0.645528       -17.5657
  54   1.0000      -0.624165       -16.9844
  55   1.0000      -0.619651       -16.8615
  56   1.0000      -0.609412       -16.5829
  57   1.0000      -0.596962       -16.2442
  58   1.0000      -0.582569       -15.8525
  59   1.0000      -0.579622       -15.7723
  60   1.0000      -0.573030       -15.5929
  61   1.0000      -0.572855       -15.5882
  62   1.0000      -0.565791       -15.3960
  63   1.0000      -0.563285       -15.3278
  64   1.0000      -0.559436       -15.2230
  65   1.0000      -0.554600       -15.0914
  66   1.0000      -0.552085       -15.0230
  67   1.0000      -0.550130       -14.9698
  68   1.0000      -0.546498       -14.8710
  69   1.0000      -0.540235       -14.7005
  70   1.0000      -0.538755       -14.6603
  71   1.0000      -0.536961       -14.6115
  72   1.0000      -0.534883       -14.5549
  73   1.0000      -0.532332       -14.4855
  74   1.0000      -0.531291       -14.4572
  75   1.0000      -0.529375       -14.4050
  76   1.0000      -0.527738       -14.3605
  77   1.0000      -0.526214       -14.3190
  78   1.0000      -0.522722       -14.2240
  79   1.0000      -0.517305       -14.0766
  80   1.0000      -0.506037       -13.7700
  81   1.0000      -0.497192       -13.5293
  82   1.0000      -0.492258       -13.3950
  83   1.0000      -0.435893       -11.8612
  84   1.0000      -0.431763       -11.7489
  85   1.0000      -0.428746       -11.6668
  86   1.0000      -0.425892       -11.5891
  87   1.0000      -0.421882       -11.4800
  88   1.0000      -0.420544       -11.4436
  89   1.0000      -0.402683       -10.9576
  90   1.0000      -0.338873        -9.2212
  91   1.0000      -0.334882        -9.1126
  92   1.0000      -0.320428        -8.7193
  93   0.0000       0.018972         0.5162
  94   0.0000       0.024001         0.6531
  95   0.0000       0.024658         0.6710
  96   0.0000       0.025846         0.7033
  97   0.0000       0.033275         0.9055

MULLIKEN ATOMIC CHARGES AND SPIN POPULATIONS
--------------------------------------------
   0 C :   -0.488898   -0.182383
   1 C :    1.490984    1.055096
   2 F :   -1.091081    0.000873
   3 Si:    0.040644    0.006960
   4 Si:    1.256068    0.000761
   5 Si:    1.201386    0.003142
   6 Si:    1.777897    0.009977
   7 C :   -1.152278   -0.000356
   8 H :    0.169790   -0.000092
   9 H :    0.368370    0.000307
  10 H :    0.345632   -0.000059
  11 C :   -1.194594   -0.002222
  12 H :    0.167444   -0.000202
  13 H :    0.326235   -0.000081
  14 H :    0.300748   -0.000406
  15 C :   -1.305309   -0.006943
  16 H :    0.172475    0.003385
  17 H :    0.403139   -0.002434
  18 H :    0.351723    0.004629
  19 C :   -1.139725    0.000058
  20 H :    0.315480   -0.000161
  21 H :    0.160831   -0.000051
  22 H :    0.323359    0.000794
  23 C :   -1.149540   -0.000294
  24 H :    0.344773   -0.000287
  25 H :    0.132053   -0.000176
  26 H :    0.345845   -0.000043
  27 C :   -1.222088   -0.006009
  28 H :    0.423355    0.009261
  29 H :    0.277851    0.002534
  30 H :    0.181658   -0.000247
  31 C :   -1.183860   -0.000425
  32 H :    0.300616    0.000090
  33 H :    0.199336    0.000247
  34 H :    0.296271    0.000067
  35 C :   -1.172180    0.004593
  36 H :    0.158178    0.000335
  37 H :    0.325437    0.000611
  38 H :    0.318196   -0.000072
  39 C :   -1.211371   -0.001815
  40 H :    0.259906   -0.000045
  41 H :    0.327133   -0.000483
  42 H :    0.254905   -0.000060
  43 C :   -1.557598    0.078645
  44 H :    0.157947   -0.006193
  45 H :    0.310887   -0.008615
  46 H :    0.219181    0.006678
  47 C :   -0.559848   -0.114141
  48 C :   -0.981569    0.025325
  49 H :    0.234274   -0.001340
  50 H :    0.293585    0.112314
  51 H :    0.287353   -0.005234
  52 H :    0.263774    0.011315
  53 H :    0.212883    0.001856
  54 H :    0.112338    0.001015
Sum of atomic charges         :   -0.0000000

LOEWDIN ATOMIC CHARGES AND SPIN POPULATIONS
-------------------------------------------
   0 C :    0.051752    0.114910
   1 C :   -0.616214    0.482602
   2 F :    0.804451    0.118857
   3 Si:    0.339442    0.027299
   4 Si:    0.160844    0.005544
   5 Si:    0.149911    0.002078
   6 Si:    0.148763    0.004776
   7 C :    0.963034    0.000003
   8 H :   -0.329212    0.000007
   9 H :   -0.335040    0.000048
  10 H :   -0.355775   -0.000006
  11 C :    0.962726   -0.000433
  12 H :   -0.325637   -0.000094
  13 H :   -0.354361   -0.000046
  14 H :   -0.349969   -0.000033
  15 C :    0.965581    0.006538
  16 H :   -0.323339    0.000781
  17 H :   -0.346640    0.002472
  18 H :   -0.358704    0.005361
  19 C :    0.959328    0.000130
  20 H :   -0.352448    0.000067
  21 H :   -0.325467    0.000036
  22 H :   -0.353141    0.000062
  23 C :    0.965833   -0.000168
  24 H :   -0.363651   -0.000117
  25 H :   -0.328884   -0.000027
  26 H :   -0.345794   -0.000045
  27 C :    0.963609    0.000235
  28 H :   -0.363709    0.000114
  29 H :   -0.352348    0.000037
  30 H :   -0.327520   -0.000024
  31 C :    0.966219    0.000941
  32 H :   -0.351177    0.000115
  33 H :   -0.327898    0.000129
  34 H :   -0.346390    0.000242
  35 C :    0.961837    0.001755
  36 H :   -0.325150    0.000404
  37 H :   -0.350827    0.000296
  38 H :   -0.352339    0.000188
  39 C :    0.969187   -0.000037
  40 H :   -0.328905   -0.000033
  41 H :   -0.351472   -0.000041
  42 H :   -0.346040   -0.000035
  43 C :    0.873282    0.023459
  44 H :   -0.258463    0.006135
  45 H :   -0.305726    0.003379
  46 H :   -0.316709    0.006216
  47 C :    0.450184    0.120446
  48 C :    0.914813    0.013269
  49 H :   -0.299818    0.010053
  50 H :   -0.270532    0.028196
  51 H :   -0.277972    0.001692
  52 H :   -0.298881    0.005155
  53 H :   -0.292317    0.001199
  54 H :   -0.362332    0.005912

  Mayer bond orders larger than 0.100000
B(  0-C ,  1-C ) :   1.0948 B(  0-C ,  2-F ) :   0.3938 B(  0-C ,  3-Si) :  -0.8689
B(  0-C ,  4-Si) :   0.2559 B(  0-C ,  5-Si) :   0.1408 B(  0-C ,  6-Si) :   0.2328
B(  0-C , 44-H ) :  -0.1356 B(  0-C , 45-H ) :  -0.2732 B(  0-C , 46-H ) :  -0.1971
B(  0-C , 49-H ) :   0.1052 B(  0-C , 54-H ) :   1.3724 B(  1-C ,  2-F ) :  -0.6070
B(  1-C ,  3-Si) :   0.1870 B(  1-C ,  6-Si) :  -0.1921 B(  1-C , 43-C ) :   0.2243
B(  1-C , 47-C ) :   0.5075 B(  1-C , 48-C ) :  -0.2043 B(  1-C , 49-H ) :  -0.1545
B(  1-C , 50-H ) :  -0.1069 B(  2-F ,  3-Si) :   0.2466 B(  2-F ,  5-Si) :  -0.1030
B(  2-F , 43-C ) :   0.1022 B(  3-Si,  4-Si) :   0.6466 B(  3-Si,  5-Si) :   0.7171
B(  3-Si,  6-Si) :   0.5991 B(  3-Si,  7-C ) :  -0.1931 B(  3-Si, 31-C ) :  -0.2761
B(  3-Si, 35-C ) :  -0.1613 B(  3-Si, 47-C ) :  -0.1274 B(  3-Si, 54-H ) :  -0.2956
B(  4-Si,  6-Si) :   0.1396 B(  4-Si,  7-C ) :   1.2388 B(  4-Si, 10-H ) :  -0.1110
B(  4-Si, 11-C ) :   0.6575 B(  4-Si, 15-C ) :   0.9334 B(  5-Si, 19-C ) :   0.8393
B(  5-Si, 23-C ) :   0.9818 B(  5-Si, 26-H ) :  -0.1014 B(  5-Si, 27-C ) :   1.0467
B(  5-Si, 29-H ) :  -0.1021 B(  6-Si, 31-C ) :   1.1294 B(  6-Si, 35-C ) :   0.8999
B(  6-Si, 39-C ) :   0.6669 B(  6-Si, 43-C ) :  -0.1316 B(  7-C ,  8-H ) :   1.0982
B(  7-C ,  9-H ) :   0.8718 B(  7-C , 10-H ) :   0.8651 B( 11-C , 12-H ) :   1.1320
B( 11-C , 13-H ) :   0.8642 B( 11-C , 14-H ) :   0.8811 B( 15-C , 16-H ) :   1.1231
B( 15-C , 17-H ) :   0.7712 B( 15-C , 18-H ) :   0.8655 B( 19-C , 20-H ) :   0.8936
B( 19-C , 21-H ) :   1.1374 B( 19-C , 22-H ) :   0.8439 B( 23-C , 24-H ) :   0.8914
B( 23-C , 25-H ) :   1.1160 B( 23-C , 26-H ) :   0.8531 B( 27-C , 28-H ) :   0.7816
B( 27-C , 29-H ) :   0.8795 B( 27-C , 30-H ) :   1.1014 B( 31-C , 32-H ) :   0.8910
B( 31-C , 33-H ) :   1.0851 B( 31-C , 34-H ) :   0.9066 B( 35-C , 36-H ) :   1.1486
B( 35-C , 37-H ) :   0.8542 B( 35-C , 38-H ) :   0.8710 B( 39-C , 40-H ) :   1.0082
B( 39-C , 41-H ) :   0.8962 B( 39-C , 42-H ) :   0.9761 B( 43-C , 44-H ) :   1.2829
B( 43-C , 45-H ) :   1.0614 B( 43-C , 46-H ) :   1.1756 B( 43-C , 54-H ) :  -0.1208
B( 47-C , 48-C ) :   0.9793 B( 47-C , 49-H ) :   0.9815 B( 47-C , 50-H ) :   0.9157
B( 47-C , 51-H ) :  -0.1017 B( 48-C , 51-H ) :   1.0191 B( 48-C , 52-H ) :   0.9170
B( 48-C , 53-H ) :   1.0385

MP2 TOTAL ENERGY:    -1810.146387834 Eh
FINAL SINGLE POINT ENERGY     -1810.146387833951

DIPOLE MOMENT
-------------
                                X             Y             Z
Electronic contribution:      5.88907      -4.67612      -1.42148
Nuclear contribution   :     -5.90766       5.11314       0.99387
                        -----------------------------------------
Total Dipole Moment    :     -0.01859       0.43701      -0.42760
                        -----------------------------------------
Magnitude (a.u.)       :      0.61169
Magnitude (Debye)      :      1.55480

Rotational constants in cm-1:     0.009478     0.007198     0.006731
Rotational constants in MHz :   284.136649   215.797601   201.790548

                             ****ORCA TERMINATED NORMALLY****
TOTAL RUN TIME: 1 days 0 hours 40 minutes 46 seconds 5 msec
