                         Program Version 4.2.1 -  RELEASE  -
|  1> %pal
|  2>  nprocs 32
|  3> end
|  4> !RI-MP2 aug-cc-pVQZ aug-cc-pVQZ/C TightSCF
|  5> %maxcore 4500
|  6> *xyzfile 0 1  10_76TS.xyz
|  7>
|  8>
|  9>                          ****END OF INPUT****

CARTESIAN COORDINATES (ANGSTROEM)
---------------------------------
  C     -0.481370   -1.341382    0.137182
  C     -1.696843   -1.296350   -0.443535
  C      0.720345   -0.868066   -0.465978
  C      1.988226   -1.021535    0.109240
  C      2.890891    0.734569    0.623677
  C      3.203574   -1.471110   -0.672027
  H      1.957083   -1.470346    1.103953
  C     -2.223206    1.257435    0.424254
  C     -1.201862    1.785883   -0.276574
  H     -2.000705    0.807483    1.387753
  C     -3.673510    1.356557    0.071002
  C      0.156298    1.611863    0.107236
  C      1.245348    2.100018   -0.592636
  C      2.545172    1.694510   -0.340077
  C      4.332768    0.263702    0.670096
  H      2.359616    0.767366    1.568809
  C      4.422160   -1.203527    0.202039
  H      3.261613   -0.916670   -1.613968
  H      3.127294   -2.533297   -0.925259
  H      5.362176   -1.404244   -0.315921
  H      4.386412   -1.875736    1.065018
  H      4.757277    0.379684    1.669701
  H      4.924724    0.892476    0.000828
  C     -2.948558   -1.906160    0.110364
  H     -1.764598   -0.915005   -1.459577
  C     -4.510625    0.146808    0.496319
  H     -3.785377    1.531931   -1.004007
  H     -4.091817    2.241229    0.568339
  C     -4.244125   -1.166363   -0.242504
  H     -5.564460    0.404469    0.356383
  H     -4.381422   -0.015276    1.573275
  H     -2.863243   -2.013900    1.197259
  H     -3.036220   -2.926245   -0.285679
  H     -4.269478   -0.985266   -1.323834
  H     -5.079595   -1.840446   -0.032395
  H     -0.400860   -1.742521    1.147080
  H      0.662140   -0.574143   -1.509446
  H     -1.402011    2.267840   -1.231690
  H      0.323970    1.150379    1.071824
  H      1.057803    2.716798   -1.467268
  H      3.311579    1.992331   -1.049630

 Total Charge           Charge          ....    0
 Multiplicity           Mult            ....    1
 Number of Electrons    NEL             ....  126
 Basis Dimension        Dim             .... 2464

ORBITAL ENERGIES
----------------

  NO   OCC          E(Eh)            E(eV)
   0   2.0000     -11.233330      -305.6745
   1   2.0000     -11.228126      -305.5328
   2   2.0000     -11.227786      -305.5236
   3   2.0000     -11.225812      -305.4699
   4   2.0000     -11.224803      -305.4424
   5   2.0000     -11.223058      -305.3949
   6   2.0000     -11.221772      -305.3600
   7   2.0000     -11.220411      -305.3229
   8   2.0000     -11.220012      -305.3120
   9   2.0000     -11.218919      -305.2823
  10   2.0000     -11.216797      -305.2246
  11   2.0000     -11.216635      -305.2202
  12   2.0000     -11.214257      -305.1555
  13   2.0000     -11.213458      -305.1337
  14   2.0000     -11.212495      -305.1075
  15   2.0000     -11.212406      -305.1051
  16   2.0000     -11.207096      -304.9606
  17   2.0000      -1.127593       -30.6834
  18   2.0000      -1.106272       -30.1032
  19   2.0000      -1.088596       -29.6222
  20   2.0000      -1.066617       -29.0241
  21   2.0000      -1.048767       -28.5384
  22   2.0000      -1.006467       -27.3874
  23   2.0000      -0.990649       -26.9569
  24   2.0000      -0.938080       -25.5264
  25   2.0000      -0.927429       -25.2366
  26   2.0000      -0.858930       -23.3727
  27   2.0000      -0.848059       -23.0769
  28   2.0000      -0.782921       -21.3044
  29   2.0000      -0.781504       -21.2658
  30   2.0000      -0.764262       -20.7966
  31   2.0000      -0.754150       -20.5215
  32   2.0000      -0.747439       -20.3389
  33   2.0000      -0.708896       -19.2901
  34   2.0000      -0.652178       -17.7467
  35   2.0000      -0.643539       -17.5116
  36   2.0000      -0.637440       -17.3456
  37   2.0000      -0.623380       -16.9630
  38   2.0000      -0.618778       -16.8378
  39   2.0000      -0.616241       -16.7688
  40   2.0000      -0.595644       -16.2083
  41   2.0000      -0.589286       -16.0353
  42   2.0000      -0.568213       -15.4619
  43   2.0000      -0.557233       -15.1631
  44   2.0000      -0.545780       -14.8514
  45   2.0000      -0.539106       -14.6698
  46   2.0000      -0.520140       -14.1537
  47   2.0000      -0.512037       -13.9332
  48   2.0000      -0.503919       -13.7123
  49   2.0000      -0.502343       -13.6695
  50   2.0000      -0.490600       -13.3499
  51   2.0000      -0.483538       -13.1578
  52   2.0000      -0.475440       -12.9374
  53   2.0000      -0.470885       -12.8134
  54   2.0000      -0.467938       -12.7332
  55   2.0000      -0.466638       -12.6979
  56   2.0000      -0.462729       -12.5915
  57   2.0000      -0.460508       -12.5311
  58   2.0000      -0.453335       -12.3359
  59   2.0000      -0.392131       -10.6704
  60   2.0000      -0.373968       -10.1762
  61   2.0000      -0.278935        -7.5902
  62   2.0000      -0.231703        -6.3050
  63   0.0000       0.023508         0.6397
  64   0.0000       0.025337         0.6895
  65   0.0000       0.026378         0.7178
  66   0.0000       0.029566         0.8045
  67   0.0000       0.034461         0.9377

MULLIKEN ATOMIC CHARGES
-----------------------
   0 C :   -0.287408
   1 C :    0.106963
   2 C :    0.096000
   3 C :    0.446208
   4 C :    0.218885
   5 C :   -0.685060
   6 H :    0.165138
   7 C :    0.184105
   8 C :   -0.356891
   9 H :    0.112542
  10 C :   -0.597648
  11 C :    0.028203
  12 C :   -0.043166
  13 C :   -0.685618
  14 C :   -0.614184
  15 H :    0.189231
  16 C :   -0.592309
  17 H :    0.125718
  18 H :    0.298571
  19 H :    0.292697
  20 H :    0.137818
  21 H :    0.313129
  22 H :    0.092800
  23 C :   -0.606101
  24 H :    0.150957
  25 C :   -0.493535
  26 H :    0.096748
  27 H :    0.270933
  28 C :   -0.426761
  29 H :    0.192775
  30 H :    0.232531
  31 H :    0.121240
  32 H :    0.288254
  33 H :    0.250005
  34 H :    0.188688
  35 H :    0.071988
  36 H :    0.063292
  37 H :    0.080924
  38 H :    0.309625
  39 H :    0.094461
  40 H :    0.168253
Sum of atomic charges:   -0.0000000

LOEWDIN ATOMIC CHARGES
----------------------
   0 C :    0.353082
   1 C :    0.353397
   2 C :    0.332080
   3 C :    0.252130
   4 C :    0.249324
   5 C :    0.510617
   6 H :   -0.302187
   7 C :    0.353896
   8 C :    0.364913
   9 H :   -0.308884
  10 C :    0.517042
  11 C :    0.283537
  12 C :    0.356736
  13 C :    0.360837
  14 C :    0.534631
  15 H :   -0.303733
  16 C :    0.539642
  17 H :   -0.267685
  18 H :   -0.250895
  19 H :   -0.254011
  20 H :   -0.268218
  21 H :   -0.256622
  22 H :   -0.299767
  23 C :    0.512165
  24 H :   -0.302345
  25 C :    0.532170
  26 H :   -0.283006
  27 H :   -0.269331
  28 C :    0.533980
  29 H :   -0.270743
  30 H :   -0.270008
  31 H :   -0.285429
  32 H :   -0.271692
  33 H :   -0.269636
  34 H :   -0.272361
  35 H :   -0.310315
  36 H :   -0.301648
  37 H :   -0.313156
  38 H :   -0.363421
  39 H :   -0.321860
  40 H :   -0.323225

  Mayer bond orders larger than 0.100000
B(  0-C ,  1-C ) :   0.9217 B(  0-C ,  2-C ) :   0.8973 B(  0-C ,  3-C ) :  -0.3922
B(  0-C , 23-C ) :  -0.3198 B(  0-C , 35-H ) :   1.2591 B(  1-C ,  2-C ) :  -0.4862
B(  1-C , 23-C ) :   0.7024 B(  1-C , 24-H ) :   1.1751 B(  1-C , 28-C ) :  -0.2085
B(  1-C , 32-H ) :  -0.1392 B(  2-C ,  3-C ) :   0.7798 B(  2-C ,  5-C ) :  -0.2114
B(  2-C ,  7-C ) :   0.1246 B(  2-C , 11-C ) :   0.1656 B(  2-C , 13-C ) :   0.1717
B(  2-C , 36-H ) :   1.0465 B(  3-C ,  4-C ) :   0.2130 B(  3-C ,  5-C ) :   0.5292
B(  3-C ,  6-H ) :   1.0893 B(  3-C , 16-C ) :  -0.2844 B(  3-C , 17-H ) :  -0.1519
B(  4-C , 12-C ) :  -0.3263 B(  4-C , 13-C ) :   1.1071 B(  4-C , 14-C ) :   0.5354
B(  4-C , 15-H ) :   1.0957 B(  4-C , 21-H ) :  -0.1413 B(  4-C , 22-H ) :  -0.2167
B(  5-C , 16-C ) :   1.0670 B(  5-C , 17-H ) :   1.1646 B(  5-C , 18-H ) :   0.9375
B(  7-C ,  8-C ) :   1.1596 B(  7-C ,  9-H ) :   1.1534 B(  7-C , 10-C ) :   0.5911
B(  7-C , 11-C ) :  -0.5879 B(  7-C , 25-C ) :  -0.1805 B(  7-C , 27-H ) :  -0.1477
B(  8-C , 10-C ) :  -0.2776 B(  8-C , 11-C ) :   0.4365 B(  8-C , 12-C ) :  -0.5323
B(  8-C , 37-H ) :   1.2957 B(  8-C , 38-H ) :  -0.1637 B( 10-C , 25-C ) :   1.0495
B( 10-C , 26-H ) :   1.1247 B( 10-C , 27-H ) :   0.9767 B( 11-C , 12-C ) :   1.3916
B( 11-C , 13-C ) :  -0.3770 B( 11-C , 37-H ) :  -0.1506 B( 11-C , 38-H ) :   1.0828
B( 12-C , 13-C ) :   1.0825 B( 12-C , 39-H ) :   1.1835 B( 12-C , 40-H ) :  -0.2087
B( 13-C , 39-H ) :  -0.2105 B( 13-C , 40-H ) :   1.1685 B( 14-C , 16-C ) :   0.9751
B( 14-C , 21-H ) :   0.9574 B( 14-C , 22-H ) :   1.1824 B( 16-C , 19-H ) :   0.9296
B( 16-C , 20-H ) :   1.0876 B( 23-C , 28-C ) :   1.0189 B( 23-C , 31-H ) :   1.0967
B( 23-C , 32-H ) :   0.9598 B( 25-C , 28-C ) :   0.8481 B( 25-C , 29-H ) :   1.0694
B( 25-C , 30-H ) :   0.9324 B( 28-C , 33-H ) :   0.9145 B( 28-C , 34-H ) :   1.0775

MP2 TOTAL ENERGY:     -660.902005835 Eh
FINAL SINGLE POINT ENERGY      -660.902005835376

DIPOLE MOMENT
-------------
                                X             Y             Z
Electronic contribution:      2.93819       3.80739      -0.47334
Nuclear contribution   :     -3.26193      -4.20796       0.50932
                        -----------------------------------------
Total Dipole Moment    :     -0.32374      -0.40057       0.03598
                        -----------------------------------------
Magnitude (a.u.)       :      0.51629
Magnitude (Debye)      :      1.31231

Rotational constants in cm-1:     0.033537     0.008290     0.007013
Rotational constants in MHz :  1005.421649   248.533494   210.243881

                             ****ORCA TERMINATED NORMALLY****
TOTAL RUN TIME: 0 days 8 hours 16 minutes 6 seconds 977 msec
