                         Program Version 4.2.1 -  RELEASE  -
|  1> %pal
|  2>  nprocs 32
|  3> end
|  4> !RI-MP2 aug-cc-pVQZ aug-cc-pVQZ/C TightSCF
|  5> %maxcore 4500
|  6> *xyzfile 0 1  07_1P.xyz
|  7>
|  8>
|  9>                          ****END OF INPUT****

CARTESIAN COORDINATES (ANGSTROEM)
---------------------------------
  N     -0.335858   -1.162182   -0.000014
  C     -0.898158    0.030423   -0.000002
  C     -0.184483    1.229412    0.000012
  C      1.191395    1.148180    0.000019
  C      1.807057   -0.102447    0.000009
  C      0.998592   -1.221873   -0.000009
  O     -2.244924    0.082369   -0.000013
  H     -0.713753    2.172104    0.000019
  H      1.787125    2.053117    0.000032
  H      2.883930   -0.202259    0.000015
  H      1.427005   -2.218434   -0.000015
  H     -2.560330   -0.830377   -0.000025

 Total Charge           Charge          ....    0
 Multiplicity           Mult            ....    1
 Number of Electrons    NEL             ....   50
 Basis Dimension        Dim             ....  790

ORBITAL ENERGIES
----------------

  NO   OCC          E(Eh)            E(eV)
   0   2.0000     -20.592829      -560.3594
   1   2.0000     -15.560953      -423.4351
   2   2.0000     -11.339825      -308.5723
   3   2.0000     -11.280588      -306.9604
   4   2.0000     -11.262711      -306.4740
   5   2.0000     -11.236076      -305.7492
   6   2.0000     -11.232173      -305.6430
   7   2.0000      -1.426824       -38.8258
   8   2.0000      -1.258193       -34.2372
   9   2.0000      -1.095622       -29.8134
  10   2.0000      -1.028841       -27.9962
  11   2.0000      -0.879878       -23.9427
  12   2.0000      -0.855628       -23.2828
  13   2.0000      -0.750273       -20.4160
  14   2.0000      -0.709340       -19.3021
  15   2.0000      -0.667425       -18.1616
  16   2.0000      -0.622294       -16.9335
  17   2.0000      -0.615013       -16.7354
  18   2.0000      -0.597100       -16.2479
  19   2.0000      -0.572433       -15.5767
  20   2.0000      -0.534992       -14.5579
  21   2.0000      -0.512927       -13.9575
  22   2.0000      -0.433341       -11.7918
  23   2.0000      -0.392218       -10.6728
  24   2.0000      -0.332054        -9.0356
  25   0.0000       0.023960         0.6520
  26   0.0000       0.030123         0.8197
  27   0.0000       0.031732         0.8635
  28   0.0000       0.044199         1.2027
  29   0.0000       0.046392         1.2624

MULLIKEN ATOMIC CHARGES
-----------------------
   0 N :   -0.565920
   1 C :    0.992415
   2 C :   -0.583622
   3 C :   -0.226987
   4 C :   -0.407238
   5 C :   -0.231491
   6 O :   -0.804501
   7 H :    0.390335
   8 H :    0.265979
   9 H :    0.315915
  10 H :    0.481271
  11 H :    0.373844
Sum of atomic charges:   -0.0000000

LOEWDIN ATOMIC CHARGES
----------------------
   0 N :    0.587624
   1 C :   -0.725668
   2 C :    0.318303
   3 C :    0.315527
   4 C :    0.322842
   5 C :    0.069727
   6 O :    1.259258
   7 H :   -0.329219
   8 H :   -0.310307
   9 H :   -0.334334
  10 H :   -0.347311
  11 H :   -0.826442

  Mayer bond orders larger than 0.100000
B(  0-N ,  1-C ) :   1.3794 B(  0-N ,  5-C ) :   1.1829 B(  0-N ,  6-O ) :   0.1083
B(  1-C ,  2-C ) :   1.2593 B(  1-C ,  3-C ) :  -0.2332 B(  1-C ,  6-O ) :   0.5518
B(  2-C ,  3-C ) :   1.3183 B(  2-C ,  5-C ) :   0.1308 B(  2-C ,  6-O ) :   0.2261
B(  2-C ,  7-H ) :   0.8540 B(  3-C ,  4-C ) :   1.1661 B(  3-C ,  8-H ) :   1.0912
B(  4-C ,  5-C ) :   1.3229 B(  4-C ,  9-H ) :   0.9949 B(  5-C , 10-H ) :   0.8484
B(  6-O , 11-H ) :   0.8425

MP2 TOTAL ENERGY:     -323.013223229 Eh
FINAL SINGLE POINT ENERGY      -323.013223229376

DIPOLE MOMENT
-------------
                                X             Y             Z
Electronic contribution:     -2.20014      -0.77483      -0.00002
Nuclear contribution   :      2.75153       0.95643       0.00003
                        -----------------------------------------
Total Dipole Moment    :      0.55140       0.18160       0.00001
                        -----------------------------------------
Magnitude (a.u.)       :      0.58053
Magnitude (Debye)      :      1.47559

Rotational constants in cm-1:     0.196535     0.093006     0.063131
Rotational constants in MHz :  5891.967371  2788.237629  1892.605662

                             ****ORCA TERMINATED NORMALLY****
TOTAL RUN TIME: 0 days 0 hours 13 minutes 7 seconds 415 msec
