                         Program Version 4.2.1 -  RELEASE  -
|  1> %pal
|  2>  nprocs 32
|  3> end
|  4> !RI-MP2 aug-cc-pVQZ aug-cc-pVQZ/C TightSCF
|  5> %maxcore 4500
|  6> *xyzfile 0 2  01_10R.xyz
|  7>
|  8>
|  9>                          ****END OF INPUT****

CARTESIAN COORDINATES (ANGSTROEM)
---------------------------------
  N      1.184431    0.457207   -0.780103
  C      1.027463   -0.623435    0.076337
  C     -0.116150   -1.549487   -0.261206
  C     -1.410827   -0.825332   -0.645549
  H     -0.263369   -2.202880    0.600149
  H      0.215986   -2.176669   -1.094088
  C     -1.932692    0.040290    0.462001
  H     -2.159750   -1.582612   -0.897812
  H     -1.248991   -0.223969   -1.542688
  C     -2.169163    1.340389    0.360764
  O      1.832580   -0.852497    0.957230
  C      1.613529    1.688285   -0.192247
  H      2.163172    2.283716   -0.920309
  H      2.211061    1.511546    0.707701
  H      0.721223    2.254861    0.109809
  H     -2.547357    1.915818    1.197010
  H     -2.002659    1.873470   -0.570058
  H     -2.113938   -0.458017    1.412566

 Total Charge           Charge          ....    0
 Multiplicity           Mult            ....    2
 Number of Electrons    NEL             ....   61
 Basis Dimension        Dim             .... 1100

ORBITAL ENERGIES
----------------
                 SPIN UP ORBITALS
  NO   OCC          E(Eh)            E(eV)
   0   1.0000     -20.559224      -559.4449
   1   1.0000     -15.604255      -424.6134
   2   1.0000     -11.344665      -308.7040
   3   1.0000     -11.255424      -306.2756
   4   1.0000     -11.243993      -305.9646
   5   1.0000     -11.242435      -305.9222
   6   1.0000     -11.240982      -305.8827
   7   1.0000     -11.230235      -305.5902
   8   1.0000      -1.419368       -38.6230
   9   1.0000      -1.245325       -33.8870
  10   1.0000      -1.104208       -30.0470
  11   1.0000      -1.028456       -27.9857
  12   1.0000      -0.944920       -25.7126
  13   1.0000      -0.889199       -24.1963
  14   1.0000      -0.774918       -21.0866
  15   1.0000      -0.737909       -20.0795
  16   1.0000      -0.693906       -18.8821
  17   1.0000      -0.672415       -18.2973
  18   1.0000      -0.655624       -17.8404
  19   1.0000      -0.633502       -17.2385
  20   1.0000      -0.619784       -16.8652
  21   1.0000      -0.595055       -16.1923
  22   1.0000      -0.572582       -15.5808
  23   1.0000      -0.560159       -15.2427
  24   1.0000      -0.539795       -14.6886
  25   1.0000      -0.510365       -13.8877
  26   1.0000      -0.494427       -13.4541
  27   1.0000      -0.475624       -12.9424
  28   1.0000      -0.457311       -12.4441
  29   1.0000      -0.434321       -11.8185
  30   1.0000      -0.375690       -10.2231
  31   0.0000       0.024006         0.6532
  32   0.0000       0.028412         0.7731
  33   0.0000       0.031207         0.8492
  34   0.0000       0.036814         1.0018
  35   0.0000       0.044321         1.2060

                 SPIN DOWN ORBITALS
  NO   OCC          E(Eh)            E(eV)
   0   1.0000     -20.546520      -559.0992
   1   1.0000     -15.573845      -423.7859
   2   1.0000     -11.351632      -308.8936
   3   1.0000     -11.258127      -306.3492
   4   1.0000     -11.243307      -305.9459
   5   1.0000     -11.242464      -305.9230
   6   1.0000     -11.241024      -305.8838
   7   1.0000     -11.230209      -305.5895
   8   1.0000      -1.390541       -37.8386
   9   1.0000      -1.162587       -31.6356
  10   1.0000      -1.101614       -29.9764
  11   1.0000      -1.027359       -27.9559
  12   1.0000      -0.936529       -25.4842
  13   1.0000      -0.882546       -24.0153
  14   1.0000      -0.774119       -21.0648
  15   1.0000      -0.719419       -19.5764
  16   1.0000      -0.669152       -18.2086
  17   1.0000      -0.658310       -17.9135
  18   1.0000      -0.636385       -17.3169
  19   1.0000      -0.629024       -17.1166
  20   1.0000      -0.598232       -16.2787
  21   1.0000      -0.577514       -15.7150
  22   1.0000      -0.564932       -15.3726
  23   1.0000      -0.554818       -15.0974
  24   1.0000      -0.514953       -14.0126
  25   1.0000      -0.499929       -13.6038
  26   1.0000      -0.486731       -13.2446
  27   1.0000      -0.437297       -11.8995
  28   1.0000      -0.412826       -11.2336
  29   1.0000      -0.375439       -10.2162
  30   0.0000       0.024000         0.6531
  31   0.0000       0.028322         0.7707
  32   0.0000       0.031113         0.8466
  33   0.0000       0.036806         1.0015
  34   0.0000       0.044202         1.2028

MULLIKEN ATOMIC CHARGES AND SPIN POPULATIONS
--------------------------------------------
   0 N :   -0.401254    1.040290
   1 C :    1.122335   -0.358138
   2 C :   -0.598853    0.045127
   3 C :   -0.241446   -0.002908
   4 H :    0.261446   -0.003685
   5 H :    0.293812   -0.013626
   6 C :   -0.428774   -0.004661
   7 H :    0.327847    0.003479
   8 H :    0.242928   -0.004118
   9 C :   -0.834506    0.003904
  10 O :   -0.869968    0.306611
  11 C :   -0.879927   -0.126805
  12 H :    0.379844    0.015529
  13 H :    0.324924    0.028591
  14 H :    0.319226    0.069856
  15 H :    0.359926    0.000042
  16 H :    0.291788    0.001221
  17 H :    0.330651   -0.000707
Sum of atomic charges         :   -0.0000000

LOEWDIN ATOMIC CHARGES AND SPIN POPULATIONS
-------------------------------------------
   0 N :    0.622349    0.552769
   1 C :   -0.922670    0.093850
   2 C :    0.446495   -0.013666
   3 C :    0.459641    0.004949
   4 H :   -0.306902   -0.002007
   5 H :   -0.275840   -0.004826
   6 C :    0.352189   -0.000173
   7 H :   -0.271356    0.000138
   8 H :   -0.314709    0.005286
   9 C :    0.792817    0.001134
  10 O :    0.740094    0.183202
  11 C :    0.666498    0.133374
  12 H :   -0.316088    0.006894
  13 H :   -0.347105    0.010707
  14 H :   -0.319594    0.028160
  15 H :   -0.346075    0.000227
  16 H :   -0.345963    0.000272
  17 H :   -0.313782   -0.000289

  Mayer bond orders larger than 0.100000
B(  0-N ,  1-C ) :   1.0119 B(  0-N , 10-O ) :   0.1079 B(  0-N , 11-C ) :   0.9430
B(  1-C ,  2-C ) :   0.9794 B(  1-C ,  3-C ) :  -0.1010 B(  1-C , 10-O ) :   0.8772
B(  2-C ,  3-C ) :   1.0375 B(  2-C ,  4-H ) :   0.9450 B(  2-C ,  5-H ) :   0.8739
B(  2-C , 10-O ) :   0.1873 B(  3-C ,  6-C ) :   0.7269 B(  3-C ,  7-H ) :   0.8820
B(  3-C ,  8-H ) :   0.9202 B(  3-C ,  9-C ) :  -0.1315 B(  6-C ,  9-C ) :   1.7797
B(  6-C , 17-H ) :   0.9363 B(  9-C , 15-H ) :   0.9575 B(  9-C , 16-H ) :   0.9333
B( 11-C , 12-H ) :   0.8918 B( 11-C , 13-H ) :   0.8997 B( 11-C , 14-H ) :   0.8524

MP2 TOTAL ENERGY:     -363.931529886 Eh
FINAL SINGLE POINT ENERGY      -363.931529885555

DIPOLE MOMENT
-------------
                                X             Y             Z
Electronic contribution:      4.28227      -2.91376       0.66103
Nuclear contribution   :     -5.09600       3.25295      -1.00843
                        -----------------------------------------
Total Dipole Moment    :     -0.81373       0.33919      -0.34739
                        -----------------------------------------
Magnitude (a.u.)       :      0.94757
Magnitude (Debye)      :      2.40854

Rotational constants in cm-1:     0.089830     0.053014     0.040267
Rotational constants in MHz :  2693.022057  1589.311145  1207.170746

                             ****ORCA TERMINATED NORMALLY****
TOTAL RUN TIME: 0 days 1 hours 21 minutes 18 seconds 652 msec
