                         Program Version 4.2.1 -  RELEASE  -
|  1> %pal
|  2>  nprocs 32
|  3> end
|  4> !RI-MP2 aug-cc-pVQZ aug-cc-pVQZ/C TightSCF
|  5> %maxcore 4500
|  6> *xyzfile 0 1  10_87P.xyz
|  7>
|  8>
|  9>                          ****END OF INPUT****

CARTESIAN COORDINATES (ANGSTROEM)
---------------------------------
  O     -1.207144   -1.210278   -0.793631
  C     -1.302639   -0.105265   -0.317766
  C     -0.173881    0.858233   -0.151752
  C     -2.698260    0.361744    0.147188
  O     -3.625991   -0.575390    0.000819
  O     -2.902566    1.456403    0.579209
  C      3.205705    1.502339    0.280092
  C      2.223314    1.367079   -0.595334
  C      1.168692    0.284897   -0.594700
  C      1.558056   -0.875019    0.296056
  O      1.186991   -1.029959    1.428313
  O      2.398909   -1.719526   -0.316334
  H     -3.191951   -1.360886   -0.376608
  H      2.615562   -2.423329    0.311613
  H      1.079550   -0.110689   -1.609491
  H     -0.138835    1.162472    0.897545
  H     -0.421682    1.767047   -0.708513
  H      3.903488    2.326947    0.208742
  H      3.354444    0.806323    1.098396
  H      2.111913    2.098074   -1.391406

 Total Charge           Charge          ....    0
 Multiplicity           Mult            ....    1
 Number of Electrons    NEL             ....   90
 Basis Dimension        Dim             .... 1328

ORBITAL ENERGIES
----------------

  NO   OCC          E(Eh)            E(eV)
   0   2.0000     -20.625319      -561.2435
   1   2.0000     -20.621566      -561.1413
   2   2.0000     -20.605465      -560.7032
   3   2.0000     -20.573025      -559.8205
   4   2.0000     -20.559547      -559.4537
   5   2.0000     -11.405414      -310.3571
   6   2.0000     -11.397418      -310.1395
   7   2.0000     -11.378682      -309.6297
   8   2.0000     -11.277287      -306.8706
   9   2.0000     -11.268457      -306.6303
  10   2.0000     -11.260501      -306.4138
  11   2.0000     -11.244002      -305.9649
  12   2.0000      -1.493979       -40.6532
  13   2.0000      -1.482339       -40.3365
  14   2.0000      -1.443060       -39.2677
  15   2.0000      -1.393593       -37.9216
  16   2.0000      -1.377562       -37.4854
  17   2.0000      -1.141366       -31.0581
  18   2.0000      -1.055678       -28.7265
  19   2.0000      -0.984982       -26.8027
  20   2.0000      -0.908373       -24.7181
  21   2.0000      -0.853587       -23.2273
  22   2.0000      -0.826803       -22.4985
  23   2.0000      -0.776362       -21.1259
  24   2.0000      -0.753145       -20.4941
  25   2.0000      -0.722795       -19.6683
  26   2.0000      -0.710371       -19.3302
  27   2.0000      -0.703473       -19.1425
  28   2.0000      -0.683294       -18.5934
  29   2.0000      -0.665320       -18.1043
  30   2.0000      -0.657383       -17.8883
  31   2.0000      -0.633931       -17.2501
  32   2.0000      -0.618464       -16.8293
  33   2.0000      -0.615944       -16.7607
  34   2.0000      -0.595141       -16.1946
  35   2.0000      -0.566698       -15.4206
  36   2.0000      -0.561120       -15.2689
  37   2.0000      -0.540909       -14.7189
  38   2.0000      -0.537606       -14.6290
  39   2.0000      -0.522629       -14.2214
  40   2.0000      -0.500773       -13.6267
  41   2.0000      -0.497003       -13.5241
  42   2.0000      -0.464399       -12.6370
  43   2.0000      -0.446818       -12.1585
  44   2.0000      -0.390265       -10.6196
  45   0.0000       0.020124         0.5476
  46   0.0000       0.026583         0.7234
  47   0.0000       0.028260         0.7690
  48   0.0000       0.036478         0.9926
  49   0.0000       0.041554         1.1308

MULLIKEN ATOMIC CHARGES
-----------------------
   0 O :   -0.800146
   1 C :    0.169560
   2 C :   -0.117437
   3 C :    1.315505
   4 O :   -0.830575
   5 O :   -0.732388
   6 C :   -0.852853
   7 C :   -0.618549
   8 C :    0.207988
   9 C :    1.440249
  10 O :   -0.934444
  11 O :   -0.819974
  12 H :    0.414399
  13 H :    0.323243
  14 H :    0.295746
  15 H :    0.305947
  16 H :    0.296460
  17 H :    0.319461
  18 H :    0.308579
  19 H :    0.309231
Sum of atomic charges:    0.0000000

LOEWDIN ATOMIC CHARGES
----------------------
   0 O :    0.825321
   1 C :   -0.632217
   2 C :    0.423103
   3 C :   -1.041895
   4 O :    1.240967
   5 O :    0.683713
   6 C :    0.814761
   7 C :    0.367488
   8 C :   -0.009382
   9 C :   -1.101988
  10 O :    0.758210
  11 O :    1.287134
  12 H :   -0.937939
  13 H :   -0.792450
  14 H :   -0.316297
  15 H :   -0.292566
  16 H :   -0.272806
  17 H :   -0.338863
  18 H :   -0.352947
  19 H :   -0.311347

  Mayer bond orders larger than 0.100000
B(  0-O ,  1-C ) :   1.0434 B(  0-O ,  2-C ) :   0.1783 B(  0-O ,  3-C ) :   0.1130
B(  1-C ,  2-C ) :   0.6164 B(  1-C ,  3-C ) :   1.4740 B(  1-C ,  4-O ) :   0.2566
B(  1-C ,  5-O ) :   0.2475 B(  2-C ,  3-C ) :  -0.3030 B(  2-C ,  8-C ) :   0.9086
B(  2-C , 15-H ) :   0.8566 B(  2-C , 16-H ) :   0.9095 B(  3-C ,  4-O ) :   0.5613
B(  3-C ,  5-O ) :   1.3583 B(  4-O ,  5-O ) :   0.1503 B(  4-O , 12-H ) :   0.7767
B(  6-C ,  7-C ) :   1.8169 B(  6-C ,  8-C ) :  -0.1997 B(  6-C , 17-H ) :   0.9921
B(  6-C , 18-H ) :   0.9413 B(  7-C ,  8-C ) :   0.7540 B(  7-C , 17-H ) :  -0.1071
B(  7-C , 19-H ) :   0.9557 B(  8-C ,  9-C ) :   1.0522 B(  8-C , 14-H ) :   0.8393
B(  9-C , 10-O ) :   1.1964 B(  9-C , 11-O ) :   0.6014 B( 10-O , 11-O ) :   0.1659
B( 11-O , 13-H ) :   0.9455

MP2 TOTAL ENERGY:     -646.807919177 Eh
FINAL SINGLE POINT ENERGY      -646.807919177290

DIPOLE MOMENT
-------------
                                X             Y             Z
Electronic contribution:     -7.82507      -4.29028       0.67691
Nuclear contribution   :      9.08003       4.14124      -1.52746
                        -----------------------------------------
Total Dipole Moment    :      1.25497      -0.14904      -0.85055
                        -----------------------------------------
Magnitude (a.u.)       :      1.52335
Magnitude (Debye)      :      3.87205

Rotational constants in cm-1:     0.058329     0.017964     0.015482
Rotational constants in MHz :  1748.672049   538.542018   464.128673

                             ****ORCA TERMINATED NORMALLY****
TOTAL RUN TIME: 0 days 0 hours 59 minutes 5 seconds 127 msec
