                         Program Version 4.2.1 -  RELEASE  -
|  1> %pal
|  2>  nprocs 32
|  3> end
|  4> !RI-MP2 aug-cc-pVQZ aug-cc-pVQZ/C TightSCF
|  5> %maxcore 4500
|  6> *xyzfile 0 1  03_14R1.xyz
|  7>
|  8>
|  9>                          ****END OF INPUT****

CARTESIAN COORDINATES (ANGSTROEM)
---------------------------------
  C      1.934642    0.000105    0.839308
  C      0.480419    0.000060    0.500790
  C     -0.206643    1.199461    0.337518
  C     -0.206594   -1.199384    0.337619
  H      0.319811    2.139281    0.457012
  C     -1.555310    1.209774    0.018225
  C     -1.555259   -1.209779    0.018326
  C     -2.201945   -0.000022   -0.135294
  H      0.319901   -2.139172    0.457191
  H     -2.104913    2.132789   -0.110408
  H     -2.104824   -2.132827   -0.110230
  F     -3.513787   -0.000063   -0.442844
  H      2.219813   -0.886547    1.399075
  H      2.219804    0.886891    1.398867
  Cl     2.977567   -0.000067   -0.647345

 Total Charge           Charge          ....    0
 Multiplicity           Mult            ....    1
 Number of Electrons    NEL             ....   74
 Basis Dimension        Dim             .... 1000

ORBITAL ENERGIES
----------------

  NO   OCC          E(Eh)            E(eV)
   0   2.0000    -104.823683     -2852.3974
   1   2.0000     -26.311766      -715.9796
   2   2.0000     -11.335232      -308.4474
   3   2.0000     -11.305269      -307.6320
   4   2.0000     -11.258489      -306.3591
   5   2.0000     -11.257983      -306.3453
   6   2.0000     -11.256499      -306.3049
   7   2.0000     -11.250538      -306.1427
   8   2.0000     -11.250516      -306.1421
   9   2.0000     -10.549193      -287.0581
  10   2.0000      -8.016186      -218.1315
  11   2.0000      -8.014535      -218.0866
  12   2.0000      -8.014504      -218.0857
  13   2.0000      -1.631326       -44.3906
  14   2.0000      -1.188218       -32.3331
  15   2.0000      -1.130809       -30.7709
  16   2.0000      -1.044987       -28.4355
  17   2.0000      -1.042306       -28.3626
  18   2.0000      -0.923689       -25.1349
  19   2.0000      -0.870822       -23.6963
  20   2.0000      -0.826407       -22.4877
  21   2.0000      -0.753959       -20.5163
  22   2.0000      -0.719052       -19.5664
  23   2.0000      -0.699691       -19.0396
  24   2.0000      -0.679954       -18.5025
  25   2.0000      -0.638466       -17.3735
  26   2.0000      -0.630676       -17.1616
  27   2.0000      -0.615053       -16.7365
  28   2.0000      -0.583781       -15.8855
  29   2.0000      -0.578371       -15.7383
  30   2.0000      -0.544159       -14.8073
  31   2.0000      -0.515757       -14.0345
  32   2.0000      -0.508319       -13.8321
  33   2.0000      -0.440115       -11.9761
  34   2.0000      -0.437892       -11.9157
  35   2.0000      -0.362608        -9.8671
  36   2.0000      -0.344828        -9.3832
  37   0.0000       0.023866         0.6494
  38   0.0000       0.026913         0.7323
  39   0.0000       0.030242         0.8229
  40   0.0000       0.041370         1.1257
  41   0.0000       0.044301         1.2055

MULLIKEN ATOMIC CHARGES
-----------------------
   0 C :   -0.197233
   1 C :    0.307049
   2 C :   -0.375857
   3 C :   -0.375773
   4 H :    0.266666
   5 C :   -0.459318
   6 C :   -0.459418
   7 C :    0.945232
   8 H :    0.266686
   9 H :    0.347847
  10 H :    0.347864
  11 F :   -0.762727
  12 H :    0.249142
  13 H :    0.249128
  14 Cl:   -0.349289
Sum of atomic charges:   -0.0000000

LOEWDIN ATOMIC CHARGES
----------------------
   0 C :   -0.147639
   1 C :   -0.216678
   2 C :    0.314686
   3 C :    0.314681
   4 H :   -0.312034
   5 C :    0.313052
   6 C :    0.313052
   7 C :   -0.686451
   8 H :   -0.312032
   9 H :   -0.325600
  10 H :   -0.325601
  11 F :    0.776912
  12 H :   -0.409517
  13 H :   -0.409522
  14 Cl:    1.112689

  Mayer bond orders larger than 0.100000
B(  0-C ,  1-C ) :   0.8223 B(  0-C ,  2-C ) :  -0.1233 B(  0-C ,  3-C ) :  -0.1232
B(  0-C , 12-H ) :   0.9653 B(  0-C , 13-H ) :   0.9653 B(  0-C , 14-Cl) :   0.7845
B(  1-C ,  2-C ) :   1.0349 B(  1-C ,  3-C ) :   1.0348 B(  1-C ,  4-H ) :  -0.1035
B(  1-C ,  5-C ) :  -0.2314 B(  1-C ,  6-C ) :  -0.2313 B(  1-C ,  8-H ) :  -0.1035
B(  2-C ,  4-H ) :   0.9936 B(  2-C ,  5-C ) :   1.3521 B(  2-C ,  6-C ) :   0.1237
B(  2-C ,  9-H ) :  -0.1048 B(  3-C ,  5-C ) :   0.1238 B(  3-C ,  6-C ) :   1.3520
B(  3-C ,  8-H ) :   0.9936 B(  3-C , 10-H ) :  -0.1048 B(  5-C ,  7-C ) :   1.3156
B(  5-C ,  9-H ) :   0.9319 B(  5-C , 11-F ) :   0.1080 B(  6-C ,  7-C ) :   1.3156
B(  6-C , 10-H ) :   0.9319 B(  6-C , 11-F ) :   0.1080

MP2 TOTAL ENERGY:     -829.355259106 Eh
FINAL SINGLE POINT ENERGY      -829.355259106026

DIPOLE MOMENT
-------------
                                X             Y             Z
Electronic contribution:     -0.04282      -0.00046      -3.89305
Nuclear contribution   :      0.07681       0.00055       4.66698
                        -----------------------------------------
Total Dipole Moment    :      0.03399       0.00009       0.77393
                        -----------------------------------------
Magnitude (a.u.)       :      0.77468
Magnitude (Debye)      :      1.96907

Rotational constants in cm-1:     0.132891     0.021884     0.020487
Rotational constants in MHz :  3983.961761   656.077240   614.184570

                             ****ORCA TERMINATED NORMALLY****
TOTAL RUN TIME: 0 days 0 hours 26 minutes 47 seconds 631 msec
