                         Program Version 4.2.1 -  RELEASE  -
|  1> %pal
|  2>  nprocs 32
|  3> end
|  4> !RI-MP2 aug-cc-pVQZ aug-cc-pVQZ/C TightSCF
|  5> %maxcore 4500
|  6> *xyzfile 0 1  10_82R.xyz
|  7>
|  8>
|  9>                          ****END OF INPUT****

CARTESIAN COORDINATES (ANGSTROEM)
---------------------------------
  C     -0.875436    2.441920   -1.060996
  C     -0.790732    0.947441   -1.009344
  C     -1.504503    0.195021   -0.181678
  C     -2.519572    0.768390    0.775293
  C     -2.901692    2.197274    0.396172
  C     -1.652434    3.025437    0.115837
  H     -1.342541    2.732784   -2.009911
  H      0.143577    2.834908   -1.088665
  H     -3.412436    0.135856    0.798547
  H     -2.107630    0.761683    1.791568
  H     -3.534607    2.176793   -0.496958
  H     -3.494870    2.643653    1.197314
  H     -1.013957    3.022673    1.005544
  H     -1.913869    4.066908   -0.083604
  C     -1.305856   -1.322100   -0.103258
  C     -0.277914   -1.783788   -1.048771
  C     -0.866709   -1.760843    1.338285
  C     -2.570230   -2.011950   -0.416308
  N      0.553985   -2.138011   -1.752146
  N     -3.569744   -2.535665   -0.616541
  C      0.388190   -1.121876    1.692184
  C      1.429243   -0.552689    1.838794
  C      2.727955    0.105457    1.877252
  H      2.609645    1.185169    1.973831
  H      3.338925   -0.269891    2.696147
  O      3.469612   -0.196780    0.686023
  C      3.083303    0.454567   -0.433056
  C      3.752170   -0.106128   -1.646768
  O      2.276176    1.345222   -0.421645
  H      3.171435   -0.973287   -1.972943
  H      3.751760    0.637285   -2.440411
  H      4.764328   -0.437239   -1.421257
  H     -1.661312   -1.486136    2.032765
  H     -0.773019   -2.848092    1.363556
  H     -0.076120    0.488334   -1.681561

 Total Charge           Charge          ....    0
 Multiplicity           Mult            ....    1
 Number of Electrons    NEL             ....  136
 Basis Dimension        Dim             .... 2256

ORBITAL ENERGIES
----------------

  NO   OCC          E(Eh)            E(eV)
   0   2.0000     -20.613801      -560.9301
   1   2.0000     -20.550686      -559.2126
   2   2.0000     -15.587597      -424.1601
   3   2.0000     -15.587544      -424.1586
   4   2.0000     -11.388397      -309.8940
   5   2.0000     -11.352315      -308.9122
   6   2.0000     -11.327677      -308.2418
   7   2.0000     -11.298787      -307.4556
   8   2.0000     -11.293028      -307.2989
   9   2.0000     -11.290482      -307.2296
  10   2.0000     -11.255575      -306.2798
  11   2.0000     -11.249163      -306.1053
  12   2.0000     -11.244766      -305.9857
  13   2.0000     -11.241051      -305.8845
  14   2.0000     -11.239822      -305.8511
  15   2.0000     -11.239726      -305.8485
  16   2.0000     -11.227631      -305.5194
  17   2.0000     -11.226106      -305.4779
  18   2.0000     -11.223286      -305.4011
  19   2.0000      -1.475042       -40.1379
  20   2.0000      -1.372893       -37.3583
  21   2.0000      -1.258494       -34.2454
  22   2.0000      -1.238429       -33.6994
  23   2.0000      -1.175434       -31.9852
  24   2.0000      -1.124165       -30.5901
  25   2.0000      -1.084888       -29.5213
  26   2.0000      -1.043875       -28.4053
  27   2.0000      -1.022709       -27.8293
  28   2.0000      -1.013063       -27.5668
  29   2.0000      -0.983248       -26.7555
  30   2.0000      -0.938621       -25.5412
  31   2.0000      -0.868437       -23.6314
  32   2.0000      -0.834838       -22.7171
  33   2.0000      -0.804181       -21.8829
  34   2.0000      -0.784670       -21.3520
  35   2.0000      -0.734345       -19.9825
  36   2.0000      -0.719079       -19.5671
  37   2.0000      -0.710709       -19.3394
  38   2.0000      -0.702722       -19.1220
  39   2.0000      -0.695562       -18.9272
  40   2.0000      -0.667676       -18.1684
  41   2.0000      -0.654081       -17.7985
  42   2.0000      -0.633023       -17.2254
  43   2.0000      -0.620691       -16.8899
  44   2.0000      -0.617011       -16.7897
  45   2.0000      -0.613462       -16.6932
  46   2.0000      -0.597541       -16.2599
  47   2.0000      -0.588045       -16.0015
  48   2.0000      -0.584200       -15.8969
  49   2.0000      -0.574786       -15.6407
  50   2.0000      -0.569725       -15.5030
  51   2.0000      -0.557577       -15.1725
  52   2.0000      -0.556887       -15.1537
  53   2.0000      -0.547811       -14.9067
  54   2.0000      -0.541359       -14.7311
  55   2.0000      -0.535101       -14.5608
  56   2.0000      -0.496830       -13.5194
  57   2.0000      -0.494766       -13.4633
  58   2.0000      -0.484591       -13.1864
  59   2.0000      -0.484246       -13.1770
  60   2.0000      -0.480808       -13.0835
  61   2.0000      -0.474412       -12.9094
  62   2.0000      -0.462898       -12.5961
  63   2.0000      -0.461135       -12.5481
  64   2.0000      -0.454300       -12.3621
  65   2.0000      -0.407842       -11.0979
  66   2.0000      -0.400010       -10.8848
  67   2.0000      -0.364054        -9.9064
  68   0.0000       0.019330         0.5260
  69   0.0000       0.024303         0.6613
  70   0.0000       0.025981         0.7070
  71   0.0000       0.030123         0.8197
  72   0.0000       0.035210         0.9581

MULLIKEN ATOMIC CHARGES
-----------------------
   0 C :   -0.408242
   1 C :   -0.717022
   2 C :    0.820923
   3 C :   -0.240262
   4 C :   -0.675685
   5 C :   -0.551068
   6 H :    0.212259
   7 H :    0.347067
   8 H :    0.341439
   9 H :    0.199235
  10 H :    0.186419
  11 H :    0.223828
  12 H :    0.116996
  13 H :    0.273703
  14 C :    0.225522
  15 C :    0.931269
  16 C :   -0.402064
  17 C :    0.739934
  18 N :   -1.104633
  19 N :   -1.030159
  20 C :   -0.149857
  21 C :   -0.198619
  22 C :   -0.098660
  23 H :    0.230378
  24 H :    0.434414
  25 O :   -0.944526
  26 C :    1.348336
  27 C :   -0.791069
  28 O :   -0.984471
  29 H :    0.333208
  30 H :    0.285007
  31 H :    0.330026
  32 H :    0.250669
  33 H :    0.303885
  34 H :    0.161817
Sum of atomic charges:   -0.0000000

LOEWDIN ATOMIC CHARGES
----------------------
   0 C :    0.535174
   1 C :    0.398966
   2 C :   -0.046342
   3 C :    0.504548
   4 C :    0.542254
   5 C :    0.533667
   6 H :   -0.258745
   7 H :   -0.293901
   8 H :   -0.281646
   9 H :   -0.266463
  10 H :   -0.254588
  11 H :   -0.252195
  12 H :   -0.259658
  13 H :   -0.254809
  14 C :   -0.454666
  15 C :   -0.340764
  16 C :    0.419201
  17 C :   -0.305488
  18 N :    0.524952
  19 N :    0.484601
  20 C :    0.174519
  21 C :    0.177581
  22 C :    0.102852
  23 H :   -0.351070
  24 H :   -0.330247
  25 O :    0.859687
  26 C :   -1.062612
  27 C :    0.877343
  28 O :    0.751842
  29 H :   -0.316940
  30 H :   -0.309084
  31 H :   -0.304773
  32 H :   -0.303854
  33 H :   -0.278476
  34 H :   -0.360865

  Mayer bond orders larger than 0.100000
B(  0-C ,  1-C ) :   0.5394 B(  0-C ,  2-C ) :  -0.2989 B(  0-C ,  5-C ) :   0.8890
B(  0-C ,  6-H ) :   1.0300 B(  0-C ,  7-H ) :   0.9369 B(  1-C ,  2-C ) :   1.4438
B(  1-C ,  6-H ) :  -0.1004 B(  1-C ,  7-H ) :  -0.1440 B(  1-C , 14-C ) :  -0.3697
B(  1-C , 15-C ) :   0.1261 B(  1-C , 17-C ) :  -0.1107 B(  1-C , 34-H ) :   0.9795
B(  2-C ,  3-C ) :   0.3970 B(  2-C ,  4-C ) :  -0.1240 B(  2-C , 14-C ) :   0.3988
B(  2-C , 16-C ) :  -0.1434 B(  2-C , 17-C ) :  -0.2982 B(  2-C , 34-H ) :  -0.1049
B(  3-C ,  4-C ) :   0.7717 B(  3-C ,  8-H ) :   0.9263 B(  3-C ,  9-H ) :   0.9561
B(  3-C , 11-H ) :  -0.1025 B(  4-C ,  5-C ) :   0.9151 B(  4-C , 10-H ) :   1.0442
B(  4-C , 11-H ) :   1.0543 B(  5-C , 12-H ) :   1.0754 B(  5-C , 13-H ) :   0.9628
B( 14-C , 15-C ) :   1.0365 B( 14-C , 16-C ) :   0.7793 B( 14-C , 17-C ) :   1.4240
B( 14-C , 18-N ) :   0.2167 B( 14-C , 19-N ) :   0.3131 B( 14-C , 33-H ) :  -0.1005
B( 15-C , 17-C ) :  -0.1087 B( 15-C , 18-N ) :   1.7881 B( 16-C , 17-C ) :   0.1383
B( 16-C , 20-C ) :   0.6204 B( 16-C , 32-H ) :   1.0180 B( 16-C , 33-H ) :   1.0052
B( 17-C , 19-N ) :   1.6785 B( 20-C , 21-C ) :   3.0673 B( 21-C , 22-C ) :   0.4727
B( 21-C , 24-H ) :  -0.2306 B( 22-C , 23-H ) :   1.0788 B( 22-C , 24-H ) :   0.9448
B( 22-C , 25-O ) :   0.6488 B( 25-O , 26-C ) :   0.6486 B( 26-C , 27-C ) :   0.7145
B( 26-C , 28-O ) :   1.2457 B( 27-C , 29-H ) :   0.8186 B( 27-C , 30-H ) :   1.0003
B( 27-C , 31-H ) :   0.9602

MP2 TOTAL ENERGY:     -839.718155858 Eh
FINAL SINGLE POINT ENERGY      -839.718155857608

DIPOLE MOMENT
-------------
                                X             Y             Z
Electronic contribution:      2.37532     -13.49386      -0.46810
Nuclear contribution   :     -1.47270      14.61133       1.64850
                        -----------------------------------------
Total Dipole Moment    :      0.90262       1.11746       1.18040
                        -----------------------------------------
Magnitude (a.u.)       :      1.85925
Magnitude (Debye)      :      4.72583

Rotational constants in cm-1:     0.016850     0.010120     0.008374
Rotational constants in MHz :   505.140266   303.378726   251.060660

                             ****ORCA TERMINATED NORMALLY****
TOTAL RUN TIME: 0 days 5 hours 18 minutes 17 seconds 488 msec
