                         Program Version 4.2.1 -  RELEASE  -
|  1> %pal
|  2>  nprocs 32
|  3> end
|  4> !RI-MP2 aug-cc-pVQZ aug-cc-pVQZ/C TightSCF
|  5> %maxcore 4500
|  6> *xyzfile 0 1  10_64TS.xyz
|  7>
|  8>
|  9>                          ****END OF INPUT****

CARTESIAN COORDINATES (ANGSTROEM)
---------------------------------
  C     -0.518848    0.299420    0.728784
  C      0.391067    1.420981    0.443208
  C     -0.023178   -0.958099    1.152695
  C      1.491397    1.770325    1.301841
  C      1.172491   -1.255540    1.815655
  C      2.287907    0.964292    2.052942
  C      2.193713   -0.432108    2.220236
  H      1.745255    2.825871    1.292574
  H      3.104325    1.450876    2.577550
  H      2.990247   -0.898340    2.790724
  H      1.282786   -2.302490    2.081521
  C      0.833612   -1.308435   -1.391575
  H     -0.741173   -1.762795    1.109563
  C      1.076373    1.001965   -1.332169
  H     -0.147285    2.309199    0.140191
  C      1.813997   -0.277845   -1.128158
  C     -0.095081    0.649664   -2.060626
  H      1.592522    1.929499   -1.537667
  C     -0.250503   -0.734600   -2.039900
  H      0.979576   -2.367179   -1.248879
  H     -0.799795    1.356703   -2.473792
  H     -1.108378   -1.273039   -2.416217
  C      3.119867   -0.440449   -0.837689
  C      3.754498   -1.792519   -0.716444
  C      4.073758    0.709148   -0.729625
  H      3.575440    1.673228   -0.674339
  H      4.738067    0.716521   -1.600878
  H      4.709071    0.600357    0.152078
  H      3.031972   -2.604658   -0.709306
  H      4.344201   -1.849558    0.201561
  H      4.446418   -1.958718   -1.548735
  C     -1.851194    0.469480    0.342782
  C     -2.295121    1.753211   -0.083559
  N     -2.611121    2.806171   -0.429485
  C     -2.868590   -0.586000    0.350653
  O     -2.709841   -1.757051    0.623195
  O     -4.070385   -0.104597   -0.017379
  C     -5.138215   -1.048992   -0.052604
  H     -4.921995   -1.847392   -0.762880
  H     -5.295973   -1.485934    0.933551
  H     -6.013330   -0.485559   -0.365436

 Total Charge           Charge          ....    0
 Multiplicity           Mult            ....    1
 Number of Electrons    NEL             ....  156
 Basis Dimension        Dim             .... 2634

ORBITAL ENERGIES
----------------

  NO   OCC          E(Eh)            E(eV)
   0   2.0000     -20.583632      -560.1091
   1   2.0000     -20.520938      -558.4031
   2   2.0000     -15.531545      -422.6348
   3   2.0000     -11.368621      -309.3559
   4   2.0000     -11.284682      -307.0718
   5   2.0000     -11.282563      -307.0141
   6   2.0000     -11.282091      -307.0013
   7   2.0000     -11.274199      -306.7866
   8   2.0000     -11.271505      -306.7133
   9   2.0000     -11.265906      -306.5609
  10   2.0000     -11.264554      -306.5241
  11   2.0000     -11.248693      -306.0925
  12   2.0000     -11.248024      -306.0743
  13   2.0000     -11.248019      -306.0742
  14   2.0000     -11.247176      -306.0512
  15   2.0000     -11.245851      -306.0152
  16   2.0000     -11.245197      -305.9974
  17   2.0000     -11.244184      -305.9698
  18   2.0000     -11.242992      -305.9374
  19   2.0000     -11.240134      -305.8596
  20   2.0000     -11.239558      -305.8439
  21   2.0000     -11.237943      -305.8000
  22   2.0000      -1.448531       -39.4165
  23   2.0000      -1.342534       -36.5322
  24   2.0000      -1.207606       -32.8606
  25   2.0000      -1.193938       -32.4887
  26   2.0000      -1.152457       -31.3599
  27   2.0000      -1.113444       -30.2983
  28   2.0000      -1.094082       -29.7715
  29   2.0000      -1.065563       -28.9954
  30   2.0000      -1.017982       -27.7007
  31   2.0000      -0.991899       -26.9909
  32   2.0000      -0.977827       -26.6080
  33   2.0000      -0.965494       -26.2724
  34   2.0000      -0.948840       -25.8193
  35   2.0000      -0.909774       -24.7562
  36   2.0000      -0.876488       -23.8505
  37   2.0000      -0.845507       -23.0074
  38   2.0000      -0.787259       -21.4224
  39   2.0000      -0.762243       -20.7417
  40   2.0000      -0.755906       -20.5692
  41   2.0000      -0.748993       -20.3811
  42   2.0000      -0.729979       -19.8637
  43   2.0000      -0.712707       -19.3937
  44   2.0000      -0.695806       -18.9338
  45   2.0000      -0.691823       -18.8255
  46   2.0000      -0.662866       -18.0375
  47   2.0000      -0.660457       -17.9720
  48   2.0000      -0.637407       -17.3447
  49   2.0000      -0.629913       -17.1408
  50   2.0000      -0.622419       -16.9369
  51   2.0000      -0.613691       -16.6994
  52   2.0000      -0.606128       -16.4936
  53   2.0000      -0.594591       -16.1796
  54   2.0000      -0.584706       -15.9106
  55   2.0000      -0.579866       -15.7790
  56   2.0000      -0.568426       -15.4677
  57   2.0000      -0.563244       -15.3267
  58   2.0000      -0.562245       -15.2995
  59   2.0000      -0.549696       -14.9580
  60   2.0000      -0.543304       -14.7841
  61   2.0000      -0.538770       -14.6607
  62   2.0000      -0.535887       -14.5822
  63   2.0000      -0.529999       -14.4220
  64   2.0000      -0.516977       -14.0677
  65   2.0000      -0.512094       -13.9348
  66   2.0000      -0.508940       -13.8490
  67   2.0000      -0.493270       -13.4226
  68   2.0000      -0.481344       -13.0980
  69   2.0000      -0.464278       -12.6337
  70   2.0000      -0.456597       -12.4246
  71   2.0000      -0.452986       -12.3264
  72   2.0000      -0.426909       -11.6168
  73   2.0000      -0.417313       -11.3557
  74   2.0000      -0.392452       -10.6792
  75   2.0000      -0.346803        -9.4370
  76   2.0000      -0.304721        -8.2919
  77   2.0000      -0.250646        -6.8204
  78   0.0000       0.013114         0.3568
  79   0.0000       0.013589         0.3698
  80   0.0000       0.021645         0.5890
  81   0.0000       0.023903         0.6504
  82   0.0000       0.027405         0.7457

MULLIKEN ATOMIC CHARGES
-----------------------
   0 C :    1.328067
   1 C :    0.371171
   2 C :   -0.028451
   3 C :   -0.569601
   4 C :   -0.446732
   5 C :   -0.307293
   6 C :   -0.402176
   7 H :    0.054200
   8 H :    0.130765
   9 H :    0.161697
  10 H :    0.076859
  11 C :   -0.561658
  12 H :    0.398242
  13 C :    0.413570
  14 H :    0.432875
  15 C :    0.243092
  16 C :   -0.712061
  17 H :    0.277280
  18 C :   -0.350993
  19 H :    0.147231
  20 H :    0.244081
  21 H :    0.167171
  22 C :    1.210887
  23 C :   -1.198826
  24 C :   -1.082237
  25 H :    0.291752
  26 H :    0.290285
  27 H :    0.153224
  28 H :    0.290631
  29 H :    0.140429
  30 H :    0.315462
  31 C :   -1.005755
  32 C :    0.309470
  33 N :   -1.097278
  34 C :    2.112215
  35 O :   -1.101743
  36 O :   -0.933840
  37 C :   -0.920349
  38 H :    0.342043
  39 H :    0.375290
  40 H :    0.441009
Sum of atomic charges:    0.0000000

LOEWDIN ATOMIC CHARGES
----------------------
   0 C :   -0.116400
   1 C :    0.223282
   2 C :    0.344644
   3 C :    0.397437
   4 C :    0.368126
   5 C :    0.349949
   6 C :    0.351006
   7 H :   -0.303998
   8 H :   -0.321396
   9 H :   -0.328332
  10 H :   -0.317363
  11 C :    0.356063
  12 H :   -0.484412
  13 C :    0.231341
  14 H :   -0.417397
  15 C :   -0.107439
  16 C :    0.373107
  17 H :   -0.277625
  18 C :    0.387953
  19 H :   -0.274753
  20 H :   -0.267101
  21 H :   -0.275420
  22 C :   -0.002632
  23 C :    0.926857
  24 C :    0.923758
  25 H :   -0.321442
  26 H :   -0.254913
  27 H :   -0.276049
  28 H :   -0.316037
  29 H :   -0.276815
  30 H :   -0.259254
  31 C :   -0.216566
  32 C :   -0.425054
  33 N :    0.473724
  34 C :   -1.099452
  35 O :    0.773812
  36 O :    0.836873
  37 C :    0.576214
  38 H :   -0.317301
  39 H :   -0.315195
  40 H :   -0.321800

  Mayer bond orders larger than 0.100000
B(  0-C ,  1-C ) :   0.8520 B(  0-C ,  2-C ) :   1.1678 B(  0-C ,  4-C ) :  -0.3331
B(  0-C , 12-H ) :  -0.1290 B(  0-C , 16-C ) :   0.1041 B(  0-C , 31-C ) :   0.5093
B(  0-C , 32-C ) :  -0.6228 B(  0-C , 33-N ) :  -0.1021 B(  0-C , 34-C ) :  -0.1900
B(  0-C , 35-O ) :  -0.2441 B(  1-C ,  3-C ) :   0.7613 B(  1-C ,  7-H ) :  -0.1677
B(  1-C , 13-C ) :   0.2616 B(  1-C , 14-H ) :   0.9227 B(  1-C , 16-C ) :  -0.1106
B(  1-C , 22-C ) :   0.1145 B(  1-C , 31-C ) :  -0.1915 B(  1-C , 32-C ) :  -0.1197
B(  1-C , 33-N ) :   0.1089 B(  2-C ,  4-C ) :   0.9656 B(  2-C ,  6-C ) :  -0.1071
B(  2-C , 10-H ) :  -0.1567 B(  2-C , 12-H ) :   0.9056 B(  2-C , 16-C ) :   0.1461
B(  2-C , 31-C ) :  -0.2255 B(  2-C , 32-C ) :  -0.1032 B(  2-C , 34-C ) :   0.1104
B(  3-C ,  4-C ) :   0.2223 B(  3-C ,  5-C ) :   1.2932 B(  3-C ,  7-H ) :   1.3613
B(  3-C ,  8-H ) :  -0.1992 B(  3-C , 14-H ) :  -0.1680 B(  4-C ,  5-C ) :   0.1110
B(  4-C ,  6-C ) :   1.3894 B(  4-C ,  9-H ) :  -0.1961 B(  4-C , 10-H ) :   1.2899
B(  4-C , 12-H ) :  -0.1581 B(  5-C ,  6-C ) :   1.0333 B(  5-C ,  7-H ) :  -0.1429
B(  5-C ,  8-H ) :   1.2192 B(  5-C ,  9-H ) :  -0.1336 B(  6-C ,  9-H ) :   1.1941
B( 11-C , 15-C ) :   0.9799 B( 11-C , 18-C ) :   1.1954 B( 11-C , 19-H ) :   1.1744
B( 11-C , 21-H ) :  -0.1354 B( 11-C , 22-C ) :  -0.3333 B( 13-C , 15-C ) :   0.8559
B( 13-C , 16-C ) :   0.6592 B( 13-C , 17-H ) :   1.0024 B( 13-C , 18-C ) :  -0.4273
B( 13-C , 20-H ) :  -0.1142 B( 13-C , 22-C ) :  -0.3097 B( 13-C , 32-C ) :   0.1382
B( 15-C , 16-C ) :   0.1747 B( 15-C , 18-C ) :  -0.2620 B( 15-C , 22-C ) :   0.6591
B( 15-C , 28-H ) :   0.1116 B( 16-C , 17-H ) :  -0.2425 B( 16-C , 18-C ) :   1.2754
B( 16-C , 20-H ) :   1.2682 B( 16-C , 21-H ) :  -0.1126 B( 16-C , 22-C ) :  -0.1309
B( 18-C , 19-H ) :  -0.1304 B( 18-C , 21-H ) :   1.2604 B( 22-C , 23-C ) :   0.3419
B( 22-C , 24-C ) :   0.1026 B( 22-C , 25-H ) :  -0.1566 B( 22-C , 26-H ) :  -0.1689
B( 22-C , 27-H ) :  -0.2382 B( 22-C , 28-H ) :  -0.1334 B( 22-C , 29-H ) :  -0.1874
B( 22-C , 30-H ) :  -0.1876 B( 23-C , 28-H ) :   1.0343 B( 23-C , 29-H ) :   1.1905
B( 23-C , 30-H ) :   1.0477 B( 24-C , 25-H ) :   1.0690 B( 24-C , 26-H ) :   1.0578
B( 24-C , 27-H ) :   1.2034 B( 31-C , 32-C ) :   1.4386 B( 31-C , 33-N ) :   0.1828
B( 31-C , 34-C ) :   1.3804 B( 31-C , 35-O ) :   0.8521 B( 32-C , 33-N ) :   1.8097
B( 32-C , 36-O ) :   0.1667 B( 34-C , 35-O ) :   0.3824 B( 34-C , 36-O ) :   0.4335
B( 34-C , 37-C ) :  -0.2947 B( 35-O , 36-O ) :   0.1864 B( 36-O , 37-C ) :   0.9793
B( 37-C , 38-H ) :   0.9006 B( 37-C , 39-H ) :   0.8873 B( 37-C , 40-H ) :   0.8386

MP2 TOTAL ENERGY:     -938.970484108 Eh
FINAL SINGLE POINT ENERGY      -938.970484107527

DIPOLE MOMENT
-------------
                                X             Y             Z
Electronic contribution:    -14.61926       4.79625       1.53263
Nuclear contribution   :     17.36682      -5.97839      -2.04908
                        -----------------------------------------
Total Dipole Moment    :      2.74756      -1.18215      -0.51645
                        -----------------------------------------
Magnitude (a.u.)       :      3.03534
Magnitude (Debye)      :      7.71522

Rotational constants in cm-1:     0.018525     0.007104     0.006978
Rotational constants in MHz :   555.351394   212.975260   209.195649

                             ****ORCA TERMINATED NORMALLY****
TOTAL RUN TIME: 0 days 13 hours 25 minutes 44 seconds 867 msec
