                         Program Version 4.2.1 -  RELEASE  -
|  1> %pal
|  2>  nprocs 32
|  3> end
|  4> !RI-MP2 aug-cc-pVQZ aug-cc-pVQZ/C TightSCF
|  5> %maxcore 4500
|  6> *xyzfile 0 1  10_76R.xyz
|  7>
|  8>
|  9>                          ****END OF INPUT****

CARTESIAN COORDINATES (ANGSTROEM)
---------------------------------
  C      0.473483   -1.811928   -0.056208
  C      1.567633   -1.497379    0.637601
  C     -0.883397   -1.514411    0.384031
  C     -1.990058   -1.834275   -0.287732
  C     -2.990511    1.303814   -0.315869
  C     -3.397865   -1.656662    0.201221
  C      2.249191    1.362320   -0.694765
  C      1.381196    1.958223    0.123741
  H      1.849043    0.730361   -1.485223
  C      3.736073    1.431075   -0.613275
  C     -0.042470    1.722361    0.022593
  C     -0.986592    2.196066    0.844660
  C     -2.390035    1.798999    0.766375
  C     -4.347943    0.684587   -0.334313
  C     -4.305530   -0.807019   -0.708049
  H     -3.384364   -1.233432    1.210057
  H     -3.842204   -2.654163    0.292698
  H     -5.327609   -1.193469   -0.669425
  H     -3.978888   -0.912378   -1.747992
  H     -4.992991    1.201014   -1.054036
  H     -4.814710    0.795977    0.649343
  C      2.966351   -1.926221    0.309998
  H      1.446386   -0.947855    1.569521
  C      4.402615    0.050131   -0.652491
  H      4.036446    1.964068    0.294349
  H      4.120581    2.013867   -1.459270
  C      4.088223   -0.892186    0.522434
  H      5.483694    0.209615   -0.691152
  H      4.140989   -0.445688   -1.594076
  H      3.007493   -2.315999   -0.712283
  H      3.190545   -2.780147    0.961506
  H      3.873103   -0.303249    1.421007
  H      4.999075   -1.452492    0.747487
  H      0.575299   -2.353060   -0.995656
  H      1.739760    2.590658    0.933172
  H     -0.977858   -1.015168    1.345390
  H     -1.886385   -2.317041   -1.259426
  H     -0.697371    2.847521    1.665331
  H     -0.338028    1.026840   -0.756235
  H     -2.959694    1.860799    1.691344
  H     -2.444505    1.278449   -1.256145

 Total Charge           Charge          ....    0
 Multiplicity           Mult            ....    1
 Number of Electrons    NEL             ....  126
 Basis Dimension        Dim             .... 2464

ORBITAL ENERGIES
----------------

  NO   OCC          E(Eh)            E(eV)
   0   2.0000     -11.222737      -305.3862
   1   2.0000     -11.222254      -305.3731
   2   2.0000     -11.221779      -305.3601
   3   2.0000     -11.221112      -305.3420
   4   2.0000     -11.220856      -305.3350
   5   2.0000     -11.220545      -305.3266
   6   2.0000     -11.219976      -305.3111
   7   2.0000     -11.219916      -305.3094
   8   2.0000     -11.219265      -305.2917
   9   2.0000     -11.219027      -305.2852
  10   2.0000     -11.218978      -305.2839
  11   2.0000     -11.218943      -305.2830
  12   2.0000     -11.218292      -305.2652
  13   2.0000     -11.218277      -305.2648
  14   2.0000     -11.216865      -305.2264
  15   2.0000     -11.216603      -305.2193
  16   2.0000     -11.215532      -305.1901
  17   2.0000      -1.115236       -30.3471
  18   2.0000      -1.099102       -29.9081
  19   2.0000      -1.097043       -29.8521
  20   2.0000      -1.063191       -28.9309
  21   2.0000      -1.058944       -28.8153
  22   2.0000      -1.008452       -27.4414
  23   2.0000      -1.001172       -27.2433
  24   2.0000      -0.941178       -25.6108
  25   2.0000      -0.927470       -25.2378
  26   2.0000      -0.866051       -23.5665
  27   2.0000      -0.840333       -22.8666
  28   2.0000      -0.789127       -21.4732
  29   2.0000      -0.784420       -21.3452
  30   2.0000      -0.755283       -20.5523
  31   2.0000      -0.751945       -20.4615
  32   2.0000      -0.746483       -20.3128
  33   2.0000      -0.718269       -19.5451
  34   2.0000      -0.651578       -17.7303
  35   2.0000      -0.641136       -17.4462
  36   2.0000      -0.635006       -17.2794
  37   2.0000      -0.628090       -17.0912
  38   2.0000      -0.618456       -16.8290
  39   2.0000      -0.609390       -16.5823
  40   2.0000      -0.599321       -16.3084
  41   2.0000      -0.584933       -15.9168
  42   2.0000      -0.570721       -15.5301
  43   2.0000      -0.561556       -15.2807
  44   2.0000      -0.546419       -14.8688
  45   2.0000      -0.539824       -14.6894
  46   2.0000      -0.525910       -14.3107
  47   2.0000      -0.513230       -13.9657
  48   2.0000      -0.505275       -13.7492
  49   2.0000      -0.501395       -13.6436
  50   2.0000      -0.494245       -13.4491
  51   2.0000      -0.487107       -13.2548
  52   2.0000      -0.483218       -13.1490
  53   2.0000      -0.471937       -12.8421
  54   2.0000      -0.467976       -12.7343
  55   2.0000      -0.467269       -12.7150
  56   2.0000      -0.459471       -12.5028
  57   2.0000      -0.453018       -12.3272
  58   2.0000      -0.444986       -12.1087
  59   2.0000      -0.409419       -11.1409
  60   2.0000      -0.373876       -10.1737
  61   2.0000      -0.292569        -7.9612
  62   2.0000      -0.276866        -7.5339
  63   0.0000       0.023139         0.6297
  64   0.0000       0.024811         0.6751
  65   0.0000       0.026454         0.7198
  66   0.0000       0.029797         0.8108
  67   0.0000       0.034102         0.9280

MULLIKEN ATOMIC CHARGES
-----------------------
   0 C :   -0.340709
   1 C :   -0.150479
   2 C :   -0.053858
   3 C :   -0.243450
   4 C :   -0.116124
   5 C :   -0.427275
   6 C :   -0.013315
   7 C :   -0.367851
   8 H :    0.072748
   9 C :   -0.574423
  10 C :   -0.264429
  11 C :    0.076408
  12 C :   -0.462988
  13 C :   -0.495512
  14 C :   -0.456399
  15 H :    0.136541
  16 H :    0.301707
  17 H :    0.281454
  18 H :    0.247942
  19 H :    0.309266
  20 H :    0.175958
  21 C :   -0.465216
  22 H :    0.157076
  23 C :   -0.510399
  24 H :    0.114434
  25 H :    0.338836
  26 C :   -0.437912
  27 H :    0.266910
  28 H :    0.290766
  29 H :    0.160635
  30 H :    0.338292
  31 H :    0.306480
  32 H :    0.198184
  33 H :    0.171213
  34 H :    0.037593
  35 H :    0.263428
  36 H :    0.094891
  37 H :    0.225963
  38 H :    0.492033
  39 H :    0.114681
  40 H :    0.206900
Sum of atomic charges:    0.0000000

LOEWDIN ATOMIC CHARGES
----------------------
   0 C :    0.357088
   1 C :    0.372417
   2 C :    0.336635
   3 C :    0.388591
   4 C :    0.355384
   5 C :    0.501846
   6 C :    0.368123
   7 C :    0.372390
   8 H :   -0.314683
   9 C :    0.507018
  10 C :    0.308056
  11 C :    0.363349
  12 C :    0.354993
  13 C :    0.501996
  14 C :    0.530433
  15 H :   -0.302350
  16 H :   -0.276442
  17 H :   -0.269884
  18 H :   -0.277140
  19 H :   -0.270338
  20 H :   -0.297684
  21 C :    0.515196
  22 H :   -0.310423
  23 C :    0.538119
  24 H :   -0.291633
  25 H :   -0.270814
  26 C :    0.548035
  27 H :   -0.272208
  28 H :   -0.279352
  29 H :   -0.297611
  30 H :   -0.278744
  31 H :   -0.276729
  32 H :   -0.278302
  33 H :   -0.328025
  34 H :   -0.321184
  35 H :   -0.336809
  36 H :   -0.310270
  37 H :   -0.332415
  38 H :   -0.384326
  39 H :   -0.328417
  40 H :   -0.313889

  Mayer bond orders larger than 0.100000
B(  0-C ,  1-C ) :   1.3198 B(  0-C ,  2-C ) :   0.8750 B(  0-C ,  3-C ) :  -0.4811
B(  0-C , 21-C ) :  -0.2386 B(  0-C , 33-H ) :   1.0447 B(  1-C ,  2-C ) :  -0.4999
B(  1-C , 21-C ) :   0.7073 B(  1-C , 22-H ) :   1.0694 B(  1-C , 26-C ) :  -0.1414
B(  2-C ,  3-C ) :   1.2491 B(  2-C ,  5-C ) :  -0.4075 B(  2-C , 35-H ) :   0.9652
B(  3-C ,  5-C ) :   0.9832 B(  3-C , 14-C ) :  -0.1374 B(  3-C , 16-H ) :  -0.1092
B(  3-C , 36-H ) :   1.1624 B(  4-C , 11-C ) :  -0.3088 B(  4-C , 12-C ) :   1.5097
B(  4-C , 13-C ) :   0.6474 B(  4-C , 19-H ) :  -0.1837 B(  4-C , 40-H ) :   1.0417
B(  5-C , 14-C ) :   0.8416 B(  5-C , 15-H ) :   1.0175 B(  5-C , 16-H ) :   0.9548
B(  6-C ,  7-C ) :   1.3536 B(  6-C ,  8-H ) :   1.1748 B(  6-C ,  9-C ) :   0.5587
B(  6-C , 10-C ) :  -0.5914 B(  6-C , 23-C ) :  -0.1205 B(  6-C , 25-H ) :  -0.1630
B(  7-C ,  9-C ) :  -0.2857 B(  7-C , 10-C ) :   0.5096 B(  7-C , 11-C ) :  -0.4353
B(  7-C , 34-H ) :   1.2710 B(  7-C , 38-H ) :  -0.1469 B(  9-C , 23-C ) :   1.0736
B(  9-C , 24-H ) :   1.1155 B(  9-C , 25-H ) :   0.9165 B( 10-C , 11-C ) :   1.5732
B( 10-C , 12-C ) :  -0.3914 B( 10-C , 34-H ) :  -0.1431 B( 10-C , 38-H ) :   0.7304
B( 11-C , 12-C ) :   0.7815 B( 11-C , 37-H ) :   1.0349 B( 11-C , 39-H ) :  -0.1998
B( 12-C , 13-C ) :  -0.2190 B( 12-C , 37-H ) :  -0.1383 B( 12-C , 39-H ) :   1.1812
B( 13-C , 14-C ) :   0.9843 B( 13-C , 19-H ) :   0.9561 B( 13-C , 20-H ) :   1.0660
B( 14-C , 17-H ) :   0.9554 B( 14-C , 18-H ) :   0.9418 B( 21-C , 26-C ) :   0.9794
B( 21-C , 29-H ) :   1.0218 B( 21-C , 30-H ) :   0.8948 B( 23-C , 26-C ) :   0.8049
B( 23-C , 27-H ) :   0.9935 B( 23-C , 28-H ) :   0.9097 B( 26-C , 31-H ) :   0.8701
B( 26-C , 32-H ) :   1.0826

MP2 TOTAL ENERGY:     -660.911245926 Eh
FINAL SINGLE POINT ENERGY      -660.911245925944

DIPOLE MOMENT
-------------
                                X             Y             Z
Electronic contribution:     -2.67910       3.26735       0.91798
Nuclear contribution   :      2.91970      -3.52810      -0.93225
                        -----------------------------------------
Total Dipole Moment    :      0.24060      -0.26075      -0.01427
                        -----------------------------------------
Magnitude (a.u.)       :      0.35508
Magnitude (Debye)      :      0.90254

Rotational constants in cm-1:     0.026418     0.008299     0.006751
Rotational constants in MHz :   792.005879   248.799983   202.393514

                             ****ORCA TERMINATED NORMALLY****
TOTAL RUN TIME: 0 days 6 hours 35 minutes 30 seconds 820 msec
