                         Program Version 4.2.1 -  RELEASE  -
|  1> %pal
|  2>  nprocs 32
|  3> end
|  4> !RI-MP2 aug-cc-pVQZ aug-cc-pVQZ/C TightSCF
|  5> %maxcore 4500
|  6> *xyzfile 0 1  10_90R.xyz
|  7>
|  8>
|  9>                          ****END OF INPUT****

CARTESIAN COORDINATES (ANGSTROEM)
---------------------------------
  C      0.214505   -2.142936   -0.144175
  C     -1.156470   -2.083306   -0.130873
  C     -1.833493   -0.856593   -0.054683
  C     -1.053235    0.296788    0.001811
  C      0.335458    0.263054   -0.013644
  C      0.974919   -0.964059   -0.083309
  C     -3.274098   -0.709947   -0.032825
  C     -2.981591    1.726383    0.096623
  C     -3.798578    0.528323    0.039495
  O     -1.613706    1.532676    0.073665
  O     -3.385427    2.853576    0.161767
  O      2.312244   -1.157162   -0.119518
  C      3.289647   -0.116136    0.136710
  C      3.192099    0.952962   -0.925262
  C      3.373446    2.251829   -0.748882
  C      3.162275    0.385734    1.569529
  C      4.612958   -0.856479   -0.044858
  C     -4.148899   -1.923937   -0.090735
  H      0.738722   -3.087438   -0.200409
  H     -1.724740   -3.003269   -0.177407
  H     -4.866007    0.699974    0.059032
  H      3.193588   -0.466211    2.249746
  H      3.998569    1.042336    1.811568
  H      2.237322    0.932529    1.744134
  H      4.690841   -1.249078   -1.059284
  H      5.448034   -0.178847    0.134161
  H      4.668496   -1.691605    0.655070
  H     -3.964715   -2.491829   -1.005869
  H     -3.946344   -2.588968    0.752239
  H     -5.201291   -1.645889   -0.064478
  H      3.006892    0.563083   -1.923021
  H      3.557208    2.685612    0.227055
  H      3.337637    2.937156   -1.586405
  H      0.867249    1.199639    0.007022

 Total Charge           Charge          ....    0
 Multiplicity           Mult            ....    1
 Number of Electrons    NEL             ....  130
 Basis Dimension        Dim             .... 2176

ORBITAL ENERGIES
----------------

  NO   OCC          E(Eh)            E(eV)
   0   2.0000     -20.616916      -561.0148
   1   2.0000     -20.589389      -560.2658
   2   2.0000     -20.526466      -558.5535
   3   2.0000     -11.376074      -309.5587
   4   2.0000     -11.324381      -308.1521
   5   2.0000     -11.320528      -308.0472
   6   2.0000     -11.314226      -307.8757
   7   2.0000     -11.284197      -307.0586
   8   2.0000     -11.258593      -306.3619
   9   2.0000     -11.245339      -306.0012
  10   2.0000     -11.245309      -306.0004
  11   2.0000     -11.244122      -305.9681
  12   2.0000     -11.235897      -305.7443
  13   2.0000     -11.234306      -305.7010
  14   2.0000     -11.233321      -305.6742
  15   2.0000     -11.233088      -305.6679
  16   2.0000     -11.227766      -305.5230
  17   2.0000     -11.226231      -305.4813
  18   2.0000      -1.470640       -40.0182
  19   2.0000      -1.421623       -38.6843
  20   2.0000      -1.366645       -37.1883
  21   2.0000      -1.178557       -32.0702
  22   2.0000      -1.132151       -30.8074
  23   2.0000      -1.108998       -30.1774
  24   2.0000      -1.037203       -28.2237
  25   2.0000      -1.032301       -28.0903
  26   2.0000      -1.005168       -27.3520
  27   2.0000      -0.990935       -26.9647
  28   2.0000      -0.956329       -26.0230
  29   2.0000      -0.885500       -24.0957
  30   2.0000      -0.882289       -24.0083
  31   2.0000      -0.842862       -22.9354
  32   2.0000      -0.827899       -22.5283
  33   2.0000      -0.783531       -21.3210
  34   2.0000      -0.734412       -19.9844
  35   2.0000      -0.730085       -19.8666
  36   2.0000      -0.706013       -19.2116
  37   2.0000      -0.694737       -18.9048
  38   2.0000      -0.662579       -18.0297
  39   2.0000      -0.656455       -17.8630
  40   2.0000      -0.647337       -17.6149
  41   2.0000      -0.637725       -17.3534
  42   2.0000      -0.628836       -17.1115
  43   2.0000      -0.610922       -16.6240
  44   2.0000      -0.605242       -16.4695
  45   2.0000      -0.597937       -16.2707
  46   2.0000      -0.594606       -16.1800
  47   2.0000      -0.592958       -16.1352
  48   2.0000      -0.572449       -15.5771
  49   2.0000      -0.563470       -15.3328
  50   2.0000      -0.559436       -15.2230
  51   2.0000      -0.553849       -15.0710
  52   2.0000      -0.544686       -14.8216
  53   2.0000      -0.535542       -14.5728
  54   2.0000      -0.523790       -14.2530
  55   2.0000      -0.522261       -14.2114
  56   2.0000      -0.501823       -13.6553
  57   2.0000      -0.493268       -13.4225
  58   2.0000      -0.482723       -13.1356
  59   2.0000      -0.470376       -12.7996
  60   2.0000      -0.442623       -12.0444
  61   2.0000      -0.404634       -11.0107
  62   2.0000      -0.382314       -10.4033
  63   2.0000      -0.345418        -9.3993
  64   2.0000      -0.304725        -8.2920
  65   0.0000       0.018132         0.4934
  66   0.0000       0.022025         0.5993
  67   0.0000       0.027730         0.7546
  68   0.0000       0.028264         0.7691
  69   0.0000       0.033568         0.9134

MULLIKEN ATOMIC CHARGES
-----------------------
   0 C :   -0.449232
   1 C :   -0.318769
   2 C :   -0.141373
   3 C :    1.734826
   4 C :   -1.138972
   5 C :    1.023718
   6 C :    0.638583
   7 C :    1.306170
   8 C :   -1.124197
   9 O :   -0.898108
  10 O :   -0.920767
  11 O :   -0.876464
  12 C :    1.992574
  13 C :   -0.508469
  14 C :   -0.847606
  15 C :   -1.322680
  16 C :   -1.064453
  17 C :   -0.917128
  18 H :    0.133081
  19 H :    0.126699
  20 H :    0.247759
  21 H :    0.301364
  22 H :    0.288694
  23 H :    0.260627
  24 H :    0.279183
  25 H :    0.269680
  26 H :    0.280924
  27 H :    0.182830
  28 H :    0.182800
  29 H :    0.312219
  30 H :    0.242581
  31 H :    0.245748
  32 H :    0.313184
  33 H :    0.164976
Sum of atomic charges:    0.0000000

LOEWDIN ATOMIC CHARGES
----------------------
   0 C :    0.352625
   1 C :    0.348886
   2 C :   -0.103154
   3 C :   -0.450897
   4 C :    0.334376
   5 C :   -0.439282
   6 C :   -0.060959
   7 C :   -1.051383
   8 C :    0.321693
   9 O :    0.862163
  10 O :    0.654767
  11 O :    0.908994
  12 C :   -0.644038
  13 C :    0.313692
  14 C :    0.822442
  15 C :    0.894866
  16 C :    0.888783
  17 C :    0.915140
  18 H :   -0.323959
  19 H :   -0.328042
  20 H :   -0.348586
  21 H :   -0.263705
  22 H :   -0.277945
  23 H :   -0.298220
  24 H :   -0.274745
  25 H :   -0.272079
  26 H :   -0.274637
  27 H :   -0.273402
  28 H :   -0.273434
  29 H :   -0.296584
  30 H :   -0.305313
  31 H :   -0.345338
  32 H :   -0.331065
  33 H :   -0.381660

  Mayer bond orders larger than 0.100000
B(  0-C ,  1-C ) :   1.1254 B(  0-C ,  5-C ) :   1.1603 B(  0-C , 18-H ) :   1.1314
B(  0-C , 19-H ) :  -0.2917 B(  1-C ,  2-C ) :   0.8422 B(  1-C ,  3-C ) :  -0.2257
B(  1-C ,  4-C ) :   0.2076 B(  1-C ,  5-C ) :  -0.3867 B(  1-C , 18-H ) :  -0.1345
B(  1-C , 19-H ) :   1.2433 B(  2-C ,  3-C ) :   1.0939 B(  2-C ,  4-C ) :  -0.4281
B(  2-C ,  6-C ) :   0.2364 B(  2-C ,  7-C ) :   0.3839 B(  2-C ,  8-C ) :  -0.1827
B(  2-C ,  9-O ) :   0.5630 B(  2-C , 19-H ) :  -0.1347 B(  2-C , 27-H ) :   0.1386
B(  2-C , 28-H ) :   0.1227 B(  3-C ,  4-C ) :   0.6731 B(  3-C ,  5-C ) :  -0.6933
B(  3-C ,  6-C ) :  -0.4612 B(  3-C ,  8-C ) :  -0.1041 B(  3-C ,  9-O ) :  -0.7790
B(  3-C , 33-H ) :  -0.2368 B(  4-C ,  5-C ) :   1.6724 B(  4-C ,  9-O ) :   0.4845
B(  4-C , 11-O ) :   0.3421 B(  4-C , 13-C ) :   0.1554 B(  4-C , 33-H ) :   0.9453
B(  5-C , 11-O ) :   0.5798 B(  5-C , 12-C ) :  -0.1032 B(  5-C , 16-C ) :   0.1051
B(  6-C ,  7-C ) :  -0.7425 B(  6-C ,  8-C ) :   1.2711 B(  6-C ,  9-O ) :  -0.1859
B(  6-C , 17-C ) :   0.6192 B(  6-C , 27-H ) :  -0.1582 B(  6-C , 28-H ) :  -0.1463
B(  7-C ,  8-C ) :   1.7483 B(  7-C ,  9-O ) :   0.9866 B(  7-C , 10-O ) :   0.7401
B(  8-C ,  9-O ) :   0.2008 B(  8-C , 10-O ) :   0.2682 B(  8-C , 20-H ) :   0.9725
B(  9-O , 10-O ) :   0.1775 B(  9-O , 33-H ) :   0.1044 B( 11-O , 12-C ) :  -0.1663
B( 11-O , 15-C ) :   0.1009 B( 11-O , 33-H ) :   0.1028 B( 12-C , 13-C ) :   0.5810
B( 12-C , 14-C ) :  -0.2106 B( 12-C , 15-C ) :   0.5266 B( 12-C , 23-H ) :  -0.1301
B( 12-C , 24-H ) :  -0.1694 B( 12-C , 25-H ) :  -0.1475 B( 12-C , 26-H ) :  -0.1476
B( 13-C , 14-C ) :   1.6999 B( 13-C , 15-C ) :   0.1136 B( 13-C , 30-H ) :   1.0164
B( 13-C , 32-H ) :  -0.1318 B( 14-C , 31-H ) :   1.0195 B( 14-C , 32-H ) :   1.0506
B( 15-C , 16-C ) :   0.1094 B( 15-C , 21-H ) :   0.9928 B( 15-C , 22-H ) :   1.0089
B( 15-C , 23-H ) :   1.0102 B( 16-C , 24-H ) :   1.0474 B( 16-C , 25-H ) :   1.0597
B( 16-C , 26-H ) :   1.0267 B( 17-C , 27-H ) :   1.0910 B( 17-C , 28-H ) :   1.0909
B( 17-C , 29-H ) :   0.9728

MP2 TOTAL ENERGY:     -805.580456207 Eh
FINAL SINGLE POINT ENERGY      -805.580456207137

DIPOLE MOMENT
-------------
                                X             Y             Z
Electronic contribution:    -14.99994       4.45848      -1.59988
Nuclear contribution   :     15.98990      -6.28828       1.62405
                        -----------------------------------------
Total Dipole Moment    :      0.98996      -1.82981       0.02416
                        -----------------------------------------
Magnitude (a.u.)       :      2.08057
Magnitude (Debye)      :      5.28840

Rotational constants in cm-1:     0.027269     0.008147     0.006615
Rotational constants in MHz :   817.493263   244.255066   198.308238

                             ****ORCA TERMINATED NORMALLY****
TOTAL RUN TIME: 0 days 5 hours 3 minutes 49 seconds 324 msec
