                         Program Version 4.2.1 -  RELEASE  -
|  1> %pal
|  2>  nprocs 32
|  3> end
|  4> !RI-MP2 aug-cc-pVQZ aug-cc-pVQZ/C TightSCF
|  5> %maxcore 4500
|  6> *xyzfile 0 2  04_79P1.xyz
|  7>
|  8>
|  9>                          ****END OF INPUT****

CARTESIAN COORDINATES (ANGSTROEM)
---------------------------------
  O     -1.812277    0.505273   -1.356979
  C     -2.955345   -0.241704   -0.905393
  C     -2.802203   -0.336627    0.626401
  C     -2.101273    0.996023    0.957509
  C     -1.319033    1.345288   -0.346337
  C     -3.018208   -1.523623   -1.629001
  H     -3.860526    0.350094   -1.106564
  H     -3.952280   -2.063805   -1.691535
  H     -2.101355   -1.991607   -1.957963
  O     -2.060509   -1.426446    1.096547
  H     -3.780048   -0.399250    1.103370
  H     -1.192620   -1.480872    0.626742
  O     -1.312293    0.930515    2.104817
  H     -2.852333    1.776953    1.101887
  H     -1.191141   -0.011073    2.301347
  N      0.118643    1.202034   -0.265673
  H     -1.485272    2.392030   -0.616720
  C      1.029484    2.224107   -0.426464
  N      2.268866    1.839773   -0.371093
  C      2.187305    0.478627   -0.166746
  C      0.866451    0.063130   -0.096626
  N      0.465713   -1.198711    0.097247
  C      1.480784   -2.048246    0.214397
  N      2.782363   -1.781108    0.156458
  C      3.169110   -0.514065   -0.031932
  N      4.481971   -0.232553   -0.086738
  H      5.147751   -0.978127    0.023308
  H      4.789951    0.715466   -0.220052
  H      1.216727   -3.087367    0.379441
  H      0.696457    3.239316   -0.584588

 Total Charge           Charge          ....    0
 Multiplicity           Mult            ....    2
 Number of Electrons    NEL             ....  131
 Basis Dimension        Dim             .... 1992

ORBITAL ENERGIES
----------------
                 SPIN UP ORBITALS
  NO   OCC          E(Eh)            E(eV)
   0   1.0000     -20.575323      -559.8830
   1   1.0000     -20.561539      -559.5079
   2   1.0000     -20.546067      -559.0869
   3   1.0000     -15.628929      -425.2848
   4   1.0000     -15.589625      -424.2153
   5   1.0000     -15.568153      -423.6310
   6   1.0000     -15.565761      -423.5659
   7   1.0000     -15.555574      -423.2887
   8   1.0000     -11.344671      -308.7042
   9   1.0000     -11.343918      -308.6837
  10   1.0000     -11.321180      -308.0650
  11   1.0000     -11.321026      -308.0608
  12   1.0000     -11.320843      -308.0558
  13   1.0000     -11.296155      -307.3840
  14   1.0000     -11.295992      -307.3796
  15   1.0000     -11.290751      -307.2370
  16   1.0000     -11.253955      -306.2357
  17   1.0000     -11.237528      -305.7887
  18   1.0000      -1.425886       -38.8003
  19   1.0000      -1.383678       -37.6518
  20   1.0000      -1.371975       -37.3333
  21   1.0000      -1.351423       -36.7741
  22   1.0000      -1.313324       -35.7374
  23   1.0000      -1.259761       -34.2798
  24   1.0000      -1.203490       -32.7486
  25   1.0000      -1.168023       -31.7835
  26   1.0000      -1.064959       -28.9790
  27   1.0000      -1.047470       -28.5031
  28   1.0000      -1.032616       -28.0989
  29   1.0000      -0.948352       -25.8060
  30   1.0000      -0.902561       -24.5599
  31   1.0000      -0.887341       -24.1458
  32   1.0000      -0.850711       -23.1490
  33   1.0000      -0.821572       -22.3561
  34   1.0000      -0.809148       -22.0180
  35   1.0000      -0.772526       -21.0215
  36   1.0000      -0.747375       -20.3371
  37   1.0000      -0.733648       -19.9636
  38   1.0000      -0.713799       -19.4234
  39   1.0000      -0.696679       -18.9576
  40   1.0000      -0.691019       -18.8036
  41   1.0000      -0.684536       -18.6272
  42   1.0000      -0.652667       -17.7600
  43   1.0000      -0.648418       -17.6443
  44   1.0000      -0.635227       -17.2854
  45   1.0000      -0.632143       -17.2015
  46   1.0000      -0.614950       -16.7337
  47   1.0000      -0.600973       -16.3533
  48   1.0000      -0.594460       -16.1761
  49   1.0000      -0.581956       -15.8358
  50   1.0000      -0.573881       -15.6161
  51   1.0000      -0.555290       -15.1102
  52   1.0000      -0.545357       -14.8399
  53   1.0000      -0.531903       -14.4738
  54   1.0000      -0.513039       -13.9605
  55   1.0000      -0.510419       -13.8892
  56   1.0000      -0.484245       -13.1770
  57   1.0000      -0.470213       -12.7952
  58   1.0000      -0.461450       -12.5567
  59   1.0000      -0.453982       -12.3535
  60   1.0000      -0.441733       -12.0202
  61   1.0000      -0.419747       -11.4219
  62   1.0000      -0.413905       -11.2629
  63   1.0000      -0.380348       -10.3498
  64   1.0000      -0.362057        -9.8521
  65   1.0000      -0.317440        -8.6380
  66   0.0000       0.019706         0.5362
  67   0.0000       0.024352         0.6627
  68   0.0000       0.027081         0.7369
  69   0.0000       0.034275         0.9327
  70   0.0000       0.035963         0.9786

                 SPIN DOWN ORBITALS
  NO   OCC          E(Eh)            E(eV)
   0   1.0000     -20.574909      -559.8717
   1   1.0000     -20.561403      -559.5042
   2   1.0000     -20.546164      -559.0896
   3   1.0000     -15.628920      -425.2845
   4   1.0000     -15.589626      -424.2153
   5   1.0000     -15.568124      -423.6302
   6   1.0000     -15.565755      -423.5657
   7   1.0000     -15.555570      -423.2886
   8   1.0000     -11.344691      -308.7047
   9   1.0000     -11.343920      -308.6838
  10   1.0000     -11.321183      -308.0651
  11   1.0000     -11.321029      -308.0609
  12   1.0000     -11.320846      -308.0559
  13   1.0000     -11.299370      -307.4715
  14   1.0000     -11.296119      -307.3830
  15   1.0000     -11.288336      -307.1712
  16   1.0000     -11.253953      -306.2356
  17   1.0000     -11.213713      -305.1406
  18   1.0000      -1.424954       -38.7750
  19   1.0000      -1.383151       -37.6374
  20   1.0000      -1.371695       -37.3257
  21   1.0000      -1.351041       -36.7637
  22   1.0000      -1.313293       -35.7365
  23   1.0000      -1.259738       -34.2792
  24   1.0000      -1.203275       -32.7428
  25   1.0000      -1.167964       -31.7819
  26   1.0000      -1.049497       -28.5583
  27   1.0000      -1.045888       -28.4601
  28   1.0000      -1.024286       -27.8722
  29   1.0000      -0.921570       -25.0772
  30   1.0000      -0.898534       -24.4504
  31   1.0000      -0.881133       -23.9768
  32   1.0000      -0.846333       -23.0299
  33   1.0000      -0.816921       -22.2295
  34   1.0000      -0.790635       -21.5143
  35   1.0000      -0.772256       -21.0142
  36   1.0000      -0.744787       -20.2667
  37   1.0000      -0.732660       -19.9367
  38   1.0000      -0.712530       -19.3889
  39   1.0000      -0.695191       -18.9171
  40   1.0000      -0.690616       -18.7926
  41   1.0000      -0.677459       -18.4346
  42   1.0000      -0.651583       -17.7305
  43   1.0000      -0.644762       -17.5449
  44   1.0000      -0.634464       -17.2647
  45   1.0000      -0.631197       -17.1758
  46   1.0000      -0.614856       -16.7311
  47   1.0000      -0.599502       -16.3133
  48   1.0000      -0.591287       -16.0897
  49   1.0000      -0.578956       -15.7542
  50   1.0000      -0.568186       -15.4611
  51   1.0000      -0.553819       -15.0702
  52   1.0000      -0.537873       -14.6363
  53   1.0000      -0.527259       -14.3475
  54   1.0000      -0.512742       -13.9524
  55   1.0000      -0.509278       -13.8582
  56   1.0000      -0.480821       -13.0838
  57   1.0000      -0.468031       -12.7358
  58   1.0000      -0.459378       -12.5003
  59   1.0000      -0.452199       -12.3050
  60   1.0000      -0.434147       -11.8137
  61   1.0000      -0.419112       -11.4046
  62   1.0000      -0.410911       -11.1814
  63   1.0000      -0.380132       -10.3439
  64   1.0000      -0.317451        -8.6383
  65   0.0000       0.019787         0.5384
  66   0.0000       0.024363         0.6629
  67   0.0000       0.027260         0.7418
  68   0.0000       0.034100         0.9279
  69   0.0000       0.035689         0.9711

MULLIKEN ATOMIC CHARGES AND SPIN POPULATIONS
--------------------------------------------
   0 O :   -1.024752    0.014542
   1 C :    0.170166   -0.200061
   2 C :    0.310958    0.060123
   3 C :    0.428724   -0.004817
   4 C :    0.369297    0.007434
   5 C :   -0.989344    1.267781
   6 H :    0.316158    0.044100
   7 H :    0.339947   -0.093448
   8 H :    0.386932   -0.076543
   9 O :   -1.180507   -0.008339
  10 H :    0.513878   -0.022487
  11 H :    0.394847   -0.000419
  12 O :   -1.157859    0.004883
  13 H :    0.402416    0.000752
  14 H :    0.396174    0.000813
  15 N :   -0.251454   -0.002743
  16 H :    0.397426    0.001006
  17 C :    0.309750   -0.000312
  18 N :   -0.980272    0.000163
  19 C :   -0.232063    0.000013
  20 C :    0.822587    0.000485
  21 N :   -0.563542    0.006280
  22 C :    0.017545    0.001224
  23 N :   -0.959238   -0.000031
  24 C :    1.042885   -0.000160
  25 N :   -0.848631   -0.000009
  26 H :    0.270540    0.000003
  27 H :    0.305985   -0.000002
  28 H :    0.544329   -0.000040
  29 H :    0.447119   -0.000192
Sum of atomic charges         :    0.0000000

LOEWDIN ATOMIC CHARGES AND SPIN POPULATIONS
-------------------------------------------
   0 O :    0.917840    0.008787
   1 C :   -0.259990    0.140505
   2 C :   -0.216995    0.034500
   3 C :   -0.204470    0.005522
   4 C :   -0.338561    0.001155
   5 C :    0.852134    0.463952
   6 H :   -0.302539    0.018423
   7 H :   -0.323669    0.151658
   8 H :   -0.332550    0.152253
   9 O :    1.317707    0.008431
  10 H :   -0.293483    0.005618
  11 H :   -1.021077    0.004742
  12 O :    1.319925    0.002540
  13 H :   -0.294864    0.000231
  14 H :   -0.884170    0.000638
  15 N :    0.432576    0.000175
  16 H :   -0.322542    0.000042
  17 C :   -0.023278   -0.000002
  18 N :    0.626806    0.000086
  19 C :   -0.419244    0.000024
  20 C :   -0.542455    0.000042
  21 N :    0.669252    0.000622
  22 C :   -0.114846    0.000079
  23 N :    0.606164    0.000049
  24 C :   -0.489801   -0.000015
  25 N :    1.268355   -0.000025
  26 H :   -0.482462   -0.000003
  27 H :   -0.480936   -0.000004
  28 H :   -0.361849   -0.000007
  29 H :   -0.300977   -0.000020

  Mayer bond orders larger than 0.100000
B(  0-O ,  1-C ) :   0.7635 B(  0-O ,  3-C ) :   0.1975 B(  0-O ,  4-C ) :   0.2719
B(  1-C ,  2-C ) :   0.9337 B(  1-C ,  5-C ) :   0.6072 B(  1-C ,  6-H ) :   0.9201
B(  1-C ,  7-H ) :  -0.1171 B(  2-C ,  3-C ) :   0.9356 B(  2-C ,  4-C ) :  -0.1291
B(  2-C ,  9-O ) :   0.5245 B(  2-C , 10-H ) :   0.7108 B(  2-C , 11-H ) :   0.1172
B(  2-C , 12-O ) :   0.2214 B(  3-C ,  4-C ) :   1.2673 B(  3-C , 13-H ) :   0.8560
B(  3-C , 15-N ) :  -0.1295 B(  4-C , 12-O ) :   0.2068 B(  4-C , 15-N ) :   0.8360
B(  4-C , 16-H ) :   0.7996 B(  5-C ,  7-H ) :   1.0342 B(  5-C ,  8-H ) :   0.8809
B(  9-O , 11-H ) :   0.6727 B(  9-O , 21-N ) :  -0.1112 B( 11-H , 21-N ) :   0.1717
B( 12-O , 14-H ) :   0.7648 B( 15-N , 17-C ) :   1.3722 B( 15-N , 19-C ) :  -0.3198
B( 15-N , 20-C ) :   0.8760 B( 17-C , 18-N ) :   1.3438 B( 17-C , 19-C ) :   0.1918
B( 17-C , 20-C ) :   0.1699 B( 17-C , 29-H ) :   0.6892 B( 18-N , 19-C ) :   0.2220
B( 18-N , 20-C ) :   0.3522 B( 19-C , 20-C ) :   1.2810 B( 19-C , 22-C ) :   0.2073
B( 19-C , 23-N ) :   0.1551 B( 19-C , 24-C ) :   1.4451 B( 20-C , 21-N ) :   1.2219
B( 20-C , 24-C ) :  -0.4095 B( 21-N , 22-C ) :   1.7358 B( 22-C , 23-N ) :   1.2211
B( 22-C , 28-H ) :   0.7245 B( 23-N , 24-C ) :   0.7724 B( 23-N , 25-N ) :   0.1207
B( 24-C , 25-N ) :   0.8559 B( 25-N , 26-H ) :   0.9872 B( 25-N , 27-H ) :   0.9171

MP2 TOTAL ENERGY:     -886.371828753 Eh
FINAL SINGLE POINT ENERGY      -886.371828752937

DIPOLE MOMENT
-------------
                                X             Y             Z
Electronic contribution:      8.21119       2.08176       0.20530
Nuclear contribution   :     -8.44256      -1.51320      -0.60466
                        -----------------------------------------
Total Dipole Moment    :     -0.23136       0.56856      -0.39936
                        -----------------------------------------
Magnitude (a.u.)       :      0.73231
Magnitude (Debye)      :      1.86138

Rotational constants in cm-1:     0.027797     0.010957     0.009685
Rotational constants in MHz :   833.340817   328.474041   290.341134

                             ****ORCA TERMINATED NORMALLY****
TOTAL RUN TIME: 0 days 5 hours 42 minutes 58 seconds 686 msec
