                         Program Version 4.2.1 -  RELEASE  -
|  1> %pal
|  2>  nprocs 32
|  3> end
|  4> !RI-MP2 aug-cc-pVQZ aug-cc-pVQZ/C TightSCF
|  5> %maxcore 4500
|  6> *xyzfile 0 2  06_35P.xyz
|  7>
|  8>
|  9>                          ****END OF INPUT****

CARTESIAN COORDINATES (ANGSTROEM)
---------------------------------
  C     -2.267841    0.574779   -0.228636
  C     -1.095685    0.420139   -1.134783
  H     -2.167725    1.290195    0.585681
  Si     0.495082    0.029012   -0.113388
  Si     1.330895    1.971463    0.917684
  Si     2.158571   -0.861795   -1.520572
  Si     0.013316   -1.565376    1.546232
  C     -1.041309   -2.958856    0.840686
  H     -1.237853   -3.716658    1.604676
  H     -2.003441   -2.586560    0.486383
  H     -0.544995   -3.451229    0.001728
  C     -0.899831   -0.787821    3.000754
  H     -1.132201   -1.543402    3.756934
  H     -0.299020   -0.012512    3.481874
  H     -1.838774   -0.333241    2.680336
  C      1.615537   -2.319930    2.198605
  H      2.294382   -1.559296    2.589717
  H      1.399115   -3.020555    3.010285
  H      2.147139   -2.872614    1.420819
  C     -0.051506    2.988461    1.700253
  H     -0.611489    2.403233    2.433080
  H      0.363179    3.859823    2.215504
  H     -0.760446    3.351755    0.953284
  C      2.544191    1.486584    2.278051
  H      2.986926    2.380170    2.727402
  H      2.051325    0.926264    3.075560
  H      3.359054    0.870116    1.892845
  C      2.247305    3.061145   -0.320168
  H      2.635951    3.957417    0.172049
  H      3.095102    2.533855   -0.763596
  H      1.595618    3.384044   -1.134700
  C      3.830276   -0.830544   -0.647663
  H      4.592137   -1.310284   -1.268852
  H      4.160435    0.192550   -0.453558
  H      3.800467   -1.357272    0.308146
  C      2.324830    0.104423   -3.132080
  H      2.530865    1.162071   -2.953905
  H      3.148977   -0.300116   -3.727102
  H      1.418269    0.037152   -3.737695
  C      1.745037   -2.648924   -1.962509
  H      2.484081   -3.054319   -2.659603
  H      1.736156   -3.290722   -1.078933
  H      0.763993   -2.726468   -2.437904
  C     -0.900813    1.655083   -2.042860
  H     -1.755030    1.787077   -2.711945
  H     -0.810985    2.565974   -1.447232
  H     -0.003712    1.568939   -2.658462
  C     -3.756191   -0.954794   -1.584633
  C     -3.682559    0.138600   -0.515863
  H     -3.378278   -0.602533   -2.546937
  H     -3.180013   -1.837437   -1.299024
  H     -4.793238   -1.266127   -1.731461
  C     -4.322675   -0.374689    0.783614
  C     -4.490521    1.361496   -0.999835
  H     -4.272077    0.385082    1.567795
  H     -5.375617   -0.623679    0.624887
  H     -3.813703   -1.268266    1.149937
  H     -5.535825    1.087537   -1.172662
  H     -4.469230    2.161234   -0.255839
  H     -4.085334    1.758031   -1.932833
  H     -1.253763   -0.446410   -1.783673

 Total Charge           Charge          ....    0
 Multiplicity           Mult            ....    2
 Number of Electrons    NEL             ....  193
 Basis Dimension        Dim             .... 3502

ORBITAL ENERGIES
----------------
                 SPIN UP ORBITALS
  NO   OCC          E(Eh)            E(eV)
   0   1.0000     -68.741308     -1870.5461
   1   1.0000     -68.741294     -1870.5457
   2   1.0000     -68.739503     -1870.4970
   3   1.0000     -68.721097     -1869.9961
   4   1.0000     -11.231594      -305.6272
   5   1.0000     -11.218447      -305.2695
   6   1.0000     -11.215768      -305.1966
   7   1.0000     -11.211013      -305.0672
   8   1.0000     -11.209464      -305.0250
   9   1.0000     -11.208953      -305.0111
  10   1.0000     -11.208600      -305.0015
  11   1.0000     -11.194511      -304.6181
  12   1.0000     -11.194177      -304.6090
  13   1.0000     -11.194099      -304.6069
  14   1.0000     -11.193950      -304.6029
  15   1.0000     -11.193889      -304.6012
  16   1.0000     -11.193668      -304.5952
  17   1.0000     -11.192388      -304.5604
  18   1.0000     -11.191601      -304.5390
  19   1.0000     -11.191552      -304.5376
  20   1.0000      -6.090748      -165.7377
  21   1.0000      -6.090746      -165.7376
  22   1.0000      -6.088955      -165.6889
  23   1.0000      -6.074367      -165.2919
  24   1.0000      -4.197195      -114.2115
  25   1.0000      -4.197132      -114.2098
  26   1.0000      -4.196940      -114.2046
  27   1.0000      -4.196892      -114.2033
  28   1.0000      -4.196886      -114.2031
  29   1.0000      -4.196866      -114.2025
  30   1.0000      -4.195334      -114.1608
  31   1.0000      -4.195155      -114.1560
  32   1.0000      -4.195072      -114.1537
  33   1.0000      -4.180185      -113.7486
  34   1.0000      -4.180037      -113.7446
  35   1.0000      -4.179959      -113.7425
  36   1.0000      -1.118148       -30.4263
  37   1.0000      -1.038396       -28.2562
  38   1.0000      -0.967208       -26.3191
  39   1.0000      -0.961112       -26.1532
  40   1.0000      -0.959926       -26.1209
  41   1.0000      -0.933048       -25.3895
  42   1.0000      -0.930641       -25.3240
  43   1.0000      -0.925579       -25.1863
  44   1.0000      -0.922810       -25.1109
  45   1.0000      -0.920426       -25.0461
  46   1.0000      -0.919727       -25.0270
  47   1.0000      -0.918387       -24.9906
  48   1.0000      -0.916931       -24.9509
  49   1.0000      -0.916769       -24.9465
  50   1.0000      -0.811023       -22.0691
  51   1.0000      -0.722029       -19.6474
  52   1.0000      -0.699696       -19.0397
  53   1.0000      -0.636787       -17.3279
  54   1.0000      -0.621634       -16.9155
  55   1.0000      -0.621428       -16.9099
  56   1.0000      -0.613921       -16.7056
  57   1.0000      -0.605859       -16.4863
  58   1.0000      -0.589270       -16.0348
  59   1.0000      -0.578044       -15.7294
  60   1.0000      -0.575291       -15.6545
  61   1.0000      -0.572637       -15.5822
  62   1.0000      -0.571175       -15.5425
  63   1.0000      -0.563108       -15.3230
  64   1.0000      -0.562597       -15.3090
  65   1.0000      -0.558585       -15.1999
  66   1.0000      -0.555865       -15.1259
  67   1.0000      -0.553134       -15.0516
  68   1.0000      -0.549844       -14.9620
  69   1.0000      -0.548079       -14.9140
  70   1.0000      -0.542442       -14.7606
  71   1.0000      -0.540031       -14.6950
  72   1.0000      -0.537222       -14.6186
  73   1.0000      -0.534418       -14.5422
  74   1.0000      -0.533094       -14.5062
  75   1.0000      -0.532720       -14.4960
  76   1.0000      -0.530478       -14.4350
  77   1.0000      -0.527548       -14.3553
  78   1.0000      -0.526748       -14.3336
  79   1.0000      -0.525329       -14.2949
  80   1.0000      -0.523994       -14.2586
  81   1.0000      -0.513717       -13.9790
  82   1.0000      -0.511202       -13.9105
  83   1.0000      -0.491720       -13.3804
  84   1.0000      -0.477291       -12.9878
  85   1.0000      -0.467634       -12.7250
  86   1.0000      -0.452540       -12.3142
  87   1.0000      -0.433574       -11.7982
  88   1.0000      -0.430194       -11.7062
  89   1.0000      -0.429319       -11.6824
  90   1.0000      -0.424812       -11.5597
  91   1.0000      -0.422864       -11.5067
  92   1.0000      -0.421572       -11.4716
  93   1.0000      -0.387135       -10.5345
  94   1.0000      -0.337848        -9.1933
  95   1.0000      -0.334315        -9.0972
  96   1.0000      -0.306877        -8.3505
  97   0.0000       0.000000         0.0000
  98   0.0000       0.019599         0.5333
  99   0.0000       0.024318         0.6617
 100   0.0000       0.024502         0.6667
 101   0.0000       0.024832         0.6757

MULLIKEN ATOMIC CHARGES AND SPIN POPULATIONS
--------------------------------------------
   0 C :    1.041714    1.457983
   1 C :    0.108998   -0.336593
   2 H :   -0.182180   -0.201589
   3 Si:   -0.509601   -0.041673
   4 Si:    0.920747    0.006108
   5 Si:    1.443515    0.021771
   6 Si:    1.772732    0.011896
   7 C :   -1.428591    0.002187
   8 H :    0.180769    0.000211
   9 H :    0.400857    0.002282
  10 H :    0.319124   -0.000027
  11 C :   -1.268128    0.002680
  12 H :    0.127934    0.000872
  13 H :    0.349956    0.001070
  14 H :    0.443981    0.000077
  15 C :   -1.146427   -0.002739
  16 H :    0.309558   -0.000510
  17 H :    0.166042   -0.000380
  18 H :    0.326532   -0.000462
  19 C :   -1.105195   -0.003255
  20 H :    0.352414    0.001687
  21 H :    0.107541    0.000182
  22 H :    0.316731    0.002091
  23 C :   -1.102042    0.000734
  24 H :    0.162520    0.000058
  25 H :    0.321358    0.000315
  26 H :    0.345538    0.000512
  27 C :   -1.151960    0.000725
  28 H :    0.187782    0.000071
  29 H :    0.311140    0.000085
  30 H :    0.314237    0.000102
  31 C :   -1.174963    0.004304
  32 H :    0.138531    0.000647
  33 H :    0.304083   -0.000060
  34 H :    0.336950    0.000121
  35 C :   -1.116095    0.000953
  36 H :    0.404031    0.000092
  37 H :    0.112236   -0.000131
  38 H :    0.327917   -0.000461
  39 C :   -1.174607   -0.002444
  40 H :    0.180159    0.000049
  41 H :    0.327507   -0.000267
  42 H :    0.375744   -0.000469
  43 C :   -1.776692    0.108939
  44 H :    0.011621   -0.005053
  45 H :    0.327705   -0.011559
  46 H :    0.405228    0.019575
  47 C :   -1.418658    0.002041
  48 C :    1.929771   -0.161792
  49 H :    0.164185   -0.003164
  50 H :    0.296033   -0.003665
  51 H :    0.103120   -0.004636
  52 C :   -1.261292    0.034116
  53 C :   -1.290332    0.059075
  54 H :    0.114291    0.001966
  55 H :    0.125082    0.003877
  56 H :    0.364446    0.005716
  57 H :    0.247265    0.015257
  58 H :    0.172639   -0.003197
  59 H :    0.195204   -0.008612
  60 H :   -0.188703    0.022311
Sum of atomic charges         :    0.0000000

LOEWDIN ATOMIC CHARGES AND SPIN POPULATIONS
-------------------------------------------
   0 C :    0.338843    0.438094
   1 C :    0.106139    0.117218
   2 H :   -0.319365    0.130378
   3 Si:    0.349479    0.025229
   4 Si:    0.154973    0.001327
   5 Si:    0.164934    0.005366
   6 Si:    0.158386    0.010189
   7 C :    0.977079    0.002234
   8 H :   -0.321565    0.000206
   9 H :   -0.375814    0.002180
  10 H :   -0.345943    0.000206
  11 C :    0.968795    0.003488
  12 H :   -0.324574    0.000371
  13 H :   -0.348463    0.000283
  14 H :   -0.359140    0.005012
  15 C :    0.962349   -0.000261
  16 H :   -0.353051   -0.000047
  17 H :   -0.325191   -0.000073
  18 H :   -0.352241   -0.000044
  19 C :    0.970014   -0.000604
  20 H :   -0.345845   -0.000431
  21 H :   -0.327421   -0.000069
  22 H :   -0.345832   -0.000061
  23 C :    0.961655    0.000305
  24 H :   -0.325151    0.000066
  25 H :   -0.351396    0.000035
  26 H :   -0.352082    0.000106
  27 C :    0.965687    0.000117
  28 H :   -0.328027   -0.000007
  29 H :   -0.351797    0.000058
  30 H :   -0.345885    0.000007
  31 C :    0.961497    0.002186
  32 H :   -0.325684    0.000505
  33 H :   -0.349696    0.000343
  34 H :   -0.356202    0.000295
  35 C :    0.965156    0.000836
  36 H :   -0.346566    0.000222
  37 H :   -0.329633    0.000052
  38 H :   -0.342706    0.000161
  39 C :    0.962407    0.000035
  40 H :   -0.329212   -0.000036
  41 H :   -0.356806   -0.000033
  42 H :   -0.334123   -0.000044
  43 C :    0.886021    0.028888
  44 H :   -0.265587    0.007221
  45 H :   -0.296904    0.008577
  46 H :   -0.314471    0.007662
  47 C :    0.903003    0.004381
  48 C :   -0.294851    0.108266
  49 H :   -0.271388    0.000095
  50 H :   -0.281569    0.001808
  51 H :   -0.262259   -0.000425
  52 C :    0.902773    0.018495
  53 C :    0.913044    0.027315
  54 H :   -0.269371    0.002423
  55 H :   -0.265083    0.002759
  56 H :   -0.286443    0.007405
  57 H :   -0.268426    0.008287
  58 H :   -0.266651    0.007492
  59 H :   -0.278137    0.007341
  60 H :   -0.381684    0.006604

  Mayer bond orders larger than 0.100000
B(  0-C ,  1-C ) :   1.5968 B(  0-C ,  2-H ) :   0.7119 B(  0-C ,  3-Si) :  -0.8443
B(  0-C ,  4-Si) :  -0.1093 B(  0-C ,  5-Si) :  -0.1292 B(  0-C ,  6-Si) :  -0.3544
B(  0-C , 48-C ) :   0.8999 B(  0-C , 52-C ) :  -0.4410 B(  0-C , 53-C ) :  -0.4547
B(  0-C , 54-H ) :  -0.1649 B(  0-C , 58-H ) :  -0.1000 B(  0-C , 59-H ) :  -0.1337
B(  0-C , 60-H ) :   0.3439 B(  1-C ,  2-H ) :   0.2543 B(  1-C ,  3-Si) :  -1.9804
B(  1-C ,  4-Si) :   0.3216 B(  1-C ,  5-Si) :   0.6136 B(  1-C ,  6-Si) :   0.5697
B(  1-C ,  7-C ) :  -0.1515 B(  1-C , 35-C ) :  -0.1093 B(  1-C , 43-C ) :  -0.1228
B(  1-C , 44-H ) :  -0.2918 B(  1-C , 45-H ) :  -0.1824 B(  1-C , 46-H ) :  -0.1494
B(  1-C , 48-C ) :  -0.1830 B(  1-C , 60-H ) :   1.2385 B(  2-H ,  3-Si) :  -0.1247
B(  2-H , 48-C ) :   0.2203 B(  3-Si,  4-Si) :   0.1525 B(  3-Si,  5-Si) :  -0.1759
B(  3-Si,  6-Si) :  -0.5217 B(  3-Si,  7-C ) :   0.1345 B(  3-Si, 11-C ) :  -0.1704
B(  3-Si, 19-C ) :  -0.2684 B(  3-Si, 23-C ) :  -0.1392 B(  3-Si, 27-C ) :  -0.1910
B(  3-Si, 35-C ) :  -0.1828 B(  3-Si, 38-H ) :  -0.1021 B(  3-Si, 39-C ) :  -0.2021
B(  3-Si, 44-H ) :  -0.1538 B(  3-Si, 48-C ) :   0.1418 B(  3-Si, 60-H ) :  -0.6158
B(  4-Si,  5-Si) :   0.1967 B(  4-Si, 19-C ) :   1.1641 B(  4-Si, 20-H ) :  -0.1730
B(  4-Si, 23-C ) :   0.9034 B(  4-Si, 26-H ) :  -0.1297 B(  4-Si, 27-C ) :   1.1615
B(  4-Si, 29-H ) :  -0.1234 B(  5-Si,  6-Si) :   0.2253 B(  5-Si, 31-C ) :   0.8396
B(  5-Si, 35-C ) :   1.1751 B(  5-Si, 39-C ) :   1.2411 B(  5-Si, 48-C ) :  -0.1132
B(  6-Si,  7-C ) :   0.7092 B(  6-Si,  9-H ) :  -0.1281 B(  6-Si, 10-H ) :  -0.1290
B(  6-Si, 11-C ) :   1.0817 B(  6-Si, 12-H ) :  -0.1191 B(  6-Si, 13-H ) :  -0.1243
B(  6-Si, 14-H ) :  -0.1351 B(  6-Si, 15-C ) :   0.8360 B(  6-Si, 16-H ) :  -0.1852
B(  6-Si, 18-H ) :  -0.1593 B(  6-Si, 48-C ) :  -0.2100 B(  6-Si, 60-H ) :   0.3029
B(  7-C ,  8-H ) :   1.0722 B(  7-C ,  9-H ) :   0.8565 B(  7-C , 10-H ) :   0.9029
B( 11-C , 12-H ) :   1.1419 B( 11-C , 13-H ) :   0.8635 B( 11-C , 14-H ) :   0.7177
B( 15-C , 16-H ) :   0.9175 B( 15-C , 17-H ) :   1.1292 B( 15-C , 18-H ) :   0.8801
B( 19-C , 20-H ) :   0.8538 B( 19-C , 21-H ) :   1.1468 B( 19-C , 22-H ) :   0.8743
B( 23-C , 24-H ) :   1.1380 B( 23-C , 25-H ) :   0.8953 B( 23-C , 26-H ) :   0.8380
B( 27-C , 28-H ) :   1.0874 B( 27-C , 29-H ) :   0.8775 B( 27-C , 30-H ) :   0.8810
B( 31-C , 32-H ) :   1.1757 B( 31-C , 33-H ) :   0.8861 B( 31-C , 34-H ) :   0.8182
B( 35-C , 36-H ) :   0.8033 B( 35-C , 37-H ) :   1.1506 B( 35-C , 38-H ) :   0.9400
B( 39-C , 40-H ) :   1.1084 B( 39-C , 41-H ) :   0.8634 B( 39-C , 42-H ) :   0.8679
B( 43-C , 44-H ) :   1.5588 B( 43-C , 45-H ) :   1.0957 B( 43-C , 46-H ) :   1.0172
B( 43-C , 60-H ) :  -0.2070 B( 47-C , 48-C ) :  -0.2118 B( 47-C , 49-H ) :   1.2332
B( 47-C , 50-H ) :   1.0171 B( 47-C , 51-H ) :   1.3404 B( 47-C , 52-C ) :   0.1529
B( 47-C , 53-C ) :   0.1820 B( 48-C , 49-H ) :  -0.2282 B( 48-C , 50-H ) :  -0.1035
B( 48-C , 51-H ) :  -0.2393 B( 48-C , 52-C ) :   0.2516 B( 48-C , 53-C ) :   0.1121
B( 48-C , 54-H ) :  -0.2022 B( 48-C , 55-H ) :  -0.1403 B( 48-C , 56-H ) :  -0.1330
B( 48-C , 57-H ) :  -0.1642 B( 48-C , 58-H ) :  -0.1754 B( 48-C , 59-H ) :  -0.1923
B( 52-C , 53-C ) :   0.1088 B( 52-C , 54-H ) :   1.2651 B( 52-C , 55-H ) :   1.2644
B( 52-C , 56-H ) :   0.9306 B( 53-C , 57-H ) :   1.1384 B( 53-C , 58-H ) :   1.1969
B( 53-C , 59-H ) :   1.1599

MP2 TOTAL ENERGY:    -1789.453409428 Eh
FINAL SINGLE POINT ENERGY     -1789.453409427618

DIPOLE MOMENT
-------------
                                X             Y             Z
Electronic contribution:      7.25163      -0.49567       1.00114
Nuclear contribution   :     -7.33878       0.53317      -1.11867
                        -----------------------------------------
Total Dipole Moment    :     -0.08715       0.03751      -0.11753
                        -----------------------------------------
Magnitude (a.u.)       :      0.15105
Magnitude (Debye)      :      0.38393

Rotational constants in cm-1:     0.008960     0.006071     0.005898
Rotational constants in MHz :   268.617602   182.016330   176.822316

                             ****ORCA TERMINATED NORMALLY****
TOTAL RUN TIME: 1 days 10 hours 41 minutes 26 seconds 333 msec
