                         Program Version 4.2.1 -  RELEASE  -
|  1> %pal
|  2>  nprocs 32
|  3> end
|  4> !RI-MP2 aug-cc-pVQZ aug-cc-pVQZ/C TightSCF
|  5> %maxcore 4500
|  6> *xyzfile 0 2  04_24TS.xyz
|  7>
|  8>
|  9>                          ****END OF INPUT****

CARTESIAN COORDINATES (ANGSTROEM)
---------------------------------
  N      0.438813   -0.848048    1.337963
  H      1.113459   -0.641860    2.069599
  C      0.372635    0.127123    0.322777
  H     -0.794334    0.769090    0.361163
  C      0.375199   -0.371524   -1.107207
  C      1.337848    1.245191    0.664944
  H     -0.404013   -1.113195   -1.250498
  H      0.184200    0.450517   -1.793311
  S      1.992099   -1.062680   -1.613448
  O      2.109460    1.135884    1.598689
  H      1.937956   -2.155418   -0.833491
  N      1.261343    2.336915   -0.129804
  H      0.410009    2.519720   -0.639838
  H      1.826893    3.128216    0.136093
  C     -0.379210   -1.923630    1.458832
  H     -0.149976   -2.527757    2.350321
  O     -1.268957   -2.210725    0.686827
  O     -1.736774    1.507478    0.187174
  O     -2.427137    1.006331   -0.895791
  C     -3.423305    0.093136   -0.439701
  H     -3.975442   -0.187295   -1.336390
  H     -4.082329    0.590411    0.273311
  H     -2.952838   -0.785122    0.008029

 Total Charge           Charge          ....    0
 Multiplicity           Mult            ....    2
 Number of Electrons    NEL             ....  103
 Basis Dimension        Dim             .... 1470

ORBITAL ENERGIES
----------------
                 SPIN UP ORBITALS
  NO   OCC          E(Eh)            E(eV)
   0   1.0000     -91.960916     -2502.3838
   1   1.0000     -20.660077      -562.1893
   2   1.0000     -20.636563      -561.5494
   3   1.0000     -20.549338      -559.1759
   4   1.0000     -20.546956      -559.1111
   5   1.0000     -15.614575      -424.8942
   6   1.0000     -15.598937      -424.4686
   7   1.0000     -11.376621      -309.5736
   8   1.0000     -11.372350      -309.4574
   9   1.0000     -11.326422      -308.2076
  10   1.0000     -11.279274      -306.9246
  11   1.0000     -11.276222      -306.8416
  12   1.0000      -8.963288      -243.9035
  13   1.0000      -6.645461      -180.8322
  14   1.0000      -6.644026      -180.7931
  15   1.0000      -6.642838      -180.7608
  16   1.0000      -1.526300       -41.5327
  17   1.0000      -1.420297       -38.6482
  18   1.0000      -1.410490       -38.3814
  19   1.0000      -1.278057       -34.7777
  20   1.0000      -1.238596       -33.7039
  21   1.0000      -1.223482       -33.2926
  22   1.0000      -1.094589       -29.7853
  23   1.0000      -0.997130       -27.1333
  24   1.0000      -0.925831       -25.1931
  25   1.0000      -0.889595       -24.2071
  26   1.0000      -0.857499       -23.3337
  27   1.0000      -0.798627       -21.7317
  28   1.0000      -0.784392       -21.3444
  29   1.0000      -0.762833       -20.7578
  30   1.0000      -0.732414       -19.9300
  31   1.0000      -0.684311       -18.6210
  32   1.0000      -0.679614       -18.4932
  33   1.0000      -0.676010       -18.3952
  34   1.0000      -0.662152       -18.0181
  35   1.0000      -0.653728       -17.7888
  36   1.0000      -0.646362       -17.5884
  37   1.0000      -0.617112       -16.7925
  38   1.0000      -0.606444       -16.5022
  39   1.0000      -0.585834       -15.9413
  40   1.0000      -0.581337       -15.8190
  41   1.0000      -0.552861       -15.0441
  42   1.0000      -0.545608       -14.8467
  43   1.0000      -0.511656       -13.9229
  44   1.0000      -0.501407       -13.6440
  45   1.0000      -0.474048       -12.8995
  46   1.0000      -0.468434       -12.7467
  47   1.0000      -0.460368       -12.5272
  48   1.0000      -0.454001       -12.3540
  49   1.0000      -0.440587       -11.9890
  50   1.0000      -0.386895       -10.5279
  51   1.0000      -0.362814        -9.8727
  52   0.0000       0.022217         0.6046
  53   0.0000       0.026158         0.7118
  54   0.0000       0.031976         0.8701
  55   0.0000       0.035250         0.9592
  56   0.0000       0.045350         1.2340

                 SPIN DOWN ORBITALS
  NO   OCC          E(Eh)            E(eV)
   0   1.0000     -91.960305     -2502.3671
   1   1.0000     -20.634918      -561.5047
   2   1.0000     -20.631523      -561.4123
   3   1.0000     -20.547147      -559.1163
   4   1.0000     -20.544910      -559.0554
   5   1.0000     -15.614132      -424.8821
   6   1.0000     -15.598846      -424.4662
   7   1.0000     -11.378134      -309.6148
   8   1.0000     -11.372761      -309.4686
   9   1.0000     -11.310368      -307.7707
  10   1.0000     -11.280722      -306.9641
  11   1.0000     -11.276360      -306.8454
  12   1.0000      -8.962599      -243.8847
  13   1.0000      -6.644065      -180.7942
  14   1.0000      -6.642847      -180.7611
  15   1.0000      -6.642065      -180.7398
  16   1.0000      -1.487383       -40.4737
  17   1.0000      -1.415672       -38.5224
  18   1.0000      -1.406501       -38.2728
  19   1.0000      -1.267707       -34.4961
  20   1.0000      -1.236204       -33.6388
  21   1.0000      -1.170700       -31.8564
  22   1.0000      -1.081748       -29.4359
  23   1.0000      -0.978526       -26.6270
  24   1.0000      -0.919372       -25.0174
  25   1.0000      -0.886115       -24.1124
  26   1.0000      -0.856046       -23.2942
  27   1.0000      -0.785521       -21.3751
  28   1.0000      -0.773580       -21.0502
  29   1.0000      -0.731622       -19.9084
  30   1.0000      -0.701592       -19.0913
  31   1.0000      -0.674503       -18.3541
  32   1.0000      -0.672050       -18.2874
  33   1.0000      -0.664861       -18.0918
  34   1.0000      -0.653246       -17.7757
  35   1.0000      -0.643909       -17.5217
  36   1.0000      -0.625276       -17.0146
  37   1.0000      -0.609834       -16.5944
  38   1.0000      -0.586050       -15.9472
  39   1.0000      -0.578360       -15.7380
  40   1.0000      -0.558950       -15.2098
  41   1.0000      -0.539079       -14.6691
  42   1.0000      -0.527732       -14.3603
  43   1.0000      -0.484864       -13.1938
  44   1.0000      -0.481374       -13.0989
  45   1.0000      -0.466236       -12.6869
  46   1.0000      -0.454070       -12.3559
  47   1.0000      -0.447207       -12.1691
  48   1.0000      -0.430613       -11.7176
  49   1.0000      -0.408274       -11.1097
  50   1.0000      -0.367174        -9.9913
  51   0.0000       0.020412         0.5554
  52   0.0000       0.024046         0.6543
  53   0.0000       0.026233         0.7138
  54   0.0000       0.031995         0.8706
  55   0.0000       0.036119         0.9828

MULLIKEN ATOMIC CHARGES AND SPIN POPULATIONS
--------------------------------------------
   0 N :   -0.628355    0.008910
   1 H :    0.152574    0.013814
   2 C :    0.767061    0.690015
   3 H :    0.755402   -0.382773
   4 C :   -0.512108   -0.066855
   5 C :    1.248242   -0.064732
   6 H :    0.272402    0.007700
   7 H :    0.231332    0.007381
   8 S :   -0.255328    0.065874
   9 O :   -0.998722    0.049362
  10 H :    0.006755   -0.004604
  11 N :   -0.814198    0.007732
  12 H :    0.324420    0.001827
  13 H :    0.169850   -0.001628
  14 C :    0.276577   -0.026681
  15 H :    0.445233   -0.000019
  16 O :   -0.879759    0.047647
  17 O :   -0.536036    0.664540
  18 O :   -0.481576   -0.013842
  19 C :   -0.628977   -0.004925
  20 H :    0.365964   -0.002136
  21 H :    0.291837    0.000657
  22 H :    0.427409    0.002735
Sum of atomic charges         :   -0.0000000

LOEWDIN ATOMIC CHARGES AND SPIN POPULATIONS
-------------------------------------------
   0 N :    0.797265    0.059843
   1 H :   -0.602129    0.007677
   2 C :   -0.301977    0.212842
   3 H :   -1.017086    0.071189
   4 C :    0.093768    0.031558
   5 C :   -0.838311    0.032057
   6 H :   -0.407497   -0.000893
   7 H :   -0.390786   -0.002385
   8 S :    1.641668    0.031405
   9 O :    0.766892    0.029773
  10 H :   -0.761305    0.008816
  11 N :    1.263234   -0.002140
  12 H :   -0.521487   -0.003057
  13 H :   -0.476404   -0.000213
  14 C :   -0.381944    0.007801
  15 H :   -0.341583    0.000062
  16 O :    0.736091    0.032461
  17 O :    0.788550    0.435940
  18 O :    0.490092    0.055700
  19 C :    0.535010   -0.005124
  20 H :   -0.335203   -0.001758
  21 H :   -0.324190   -0.000524
  22 H :   -0.412669   -0.001028

  Mayer bond orders larger than 0.100000
B(  0-N ,  1-H ) :   1.1807 B(  0-N ,  2-C ) :   0.1365 B(  0-N , 14-C ) :   1.0751
B(  0-N , 15-H ) :  -0.1430 B(  1-H ,  2-C ) :  -0.1655 B(  2-C ,  3-H ) :   0.3978
B(  2-C ,  4-C ) :   0.7470 B(  2-C ,  5-C ) :   1.1985 B(  2-C ,  8-S ) :  -0.2419
B(  2-C ,  9-O ) :   0.3513 B(  2-C , 11-N ) :  -0.1649 B(  3-H ,  4-C ) :   0.1070
B(  3-H , 17-O ) :  -0.1277 B(  3-H , 18-O ) :  -0.1018 B(  4-C ,  6-H ) :   0.9388
B(  4-C ,  7-H ) :   0.9856 B(  4-C ,  8-S ) :   0.7687 B(  5-C ,  9-O ) :   0.6175
B(  5-C , 11-N ) :   1.1865 B(  8-S , 10-H ) :   1.0934 B(  9-O , 11-N ) :   0.1725
B( 11-N , 12-H ) :   0.8814 B( 11-N , 13-H ) :   1.0641 B( 14-C , 15-H ) :   0.8878
B( 14-C , 16-O ) :   1.5214 B( 17-O , 18-O ) :   0.8313 B( 18-O , 19-C ) :   0.7835
B( 19-C , 20-H ) :   0.8967 B( 19-C , 21-H ) :   0.9319 B( 19-C , 22-H ) :   0.7742

MP2 TOTAL ENERGY:    -1004.310665041 Eh
FINAL SINGLE POINT ENERGY     -1004.310665041490

DIPOLE MOMENT
-------------
                                X             Y             Z
Electronic contribution:      6.54007       0.11490       0.79145
Nuclear contribution   :     -6.92686       0.11051      -0.56807
                        -----------------------------------------
Total Dipole Moment    :     -0.38679       0.22541       0.22337
                        -----------------------------------------
Magnitude (a.u.)       :      0.50031
Magnitude (Debye)      :      1.27169

Rotational constants in cm-1:     0.027746     0.019899     0.017201
Rotational constants in MHz :   831.793966   596.566184   515.672173

                             ****ORCA TERMINATED NORMALLY****
TOTAL RUN TIME: 0 days 2 hours 44 minutes 16 seconds 961 msec
