                         Program Version 4.2.1 -  RELEASE  -
|  1> %pal
|  2>  nprocs 32
|  3> end
|  4> !RI-MP2 aug-cc-pVQZ aug-cc-pVQZ/C TightSCF
|  5> %maxcore 4500
|  6> *xyzfile 1 1  10_13TS.xyz
|  7>
|  8>
|  9>                          ****END OF INPUT****

CARTESIAN COORDINATES (ANGSTROEM)
---------------------------------
  C     -1.919441   -0.975719    0.103019
  N     -0.599430   -0.821983   -0.097432
  N      0.111560    0.139789    0.087338
  C      1.509476    0.041539   -0.006750
  C      2.207466    1.234182    0.169856
  C      2.175146   -1.163406   -0.250069
  C      3.590100    1.224684    0.101451
  H      1.662149    2.149606    0.359103
  C      3.552449   -1.158713   -0.316431
  H      1.611305   -2.077035   -0.386804
  C      4.257790    0.032051   -0.141025
  H      4.145884    2.143099    0.236512
  H      4.086924   -2.080619   -0.505373
  H      5.339344    0.024295   -0.194950
  C     -2.701983   -1.462349   -1.076258
  H     -2.395426   -0.977198   -2.000887
  H     -2.533248   -2.538525   -1.178745
  H     -3.767519   -1.313585   -0.909824
  C     -2.283101   -1.517657    1.459796
  H     -1.772002   -0.983655    2.259643
  H     -3.360639   -1.467722    1.606786
  H     -1.990880   -2.569995    1.509543
  C     -2.678133    1.162728    0.260854
  C     -1.582047    1.697564    0.858557
  H     -3.424402    0.706653    0.903212
  H     -1.352170    1.515345    1.901016
  H     -0.978278    2.440638    0.355317
  C     -3.137240    1.632439   -1.091341
  H     -3.774021    0.908262   -1.596570
  H     -3.731125    2.542418   -0.975005
  H     -2.293697    1.869315   -1.742265

 Total Charge           Charge          ....    1
 Multiplicity           Mult            ....    1
 Number of Electrons    NEL             ....  102
 Basis Dimension        Dim             .... 1902

ORBITAL ENERGIES
----------------

  NO   OCC          E(Eh)            E(eV)
   0   2.0000     -15.820032      -430.4850
   1   2.0000     -15.804386      -430.0592
   2   2.0000     -11.518200      -313.4262
   3   2.0000     -11.408549      -310.4424
   4   2.0000     -11.405033      -310.3467
   5   2.0000     -11.392533      -310.0066
   6   2.0000     -11.389177      -309.9153
   7   2.0000     -11.380181      -309.6705
   8   2.0000     -11.375909      -309.5542
   9   2.0000     -11.372870      -309.4715
  10   2.0000     -11.366430      -309.2963
  11   2.0000     -11.358224      -309.0730
  12   2.0000     -11.356917      -309.0374
  13   2.0000     -11.348776      -308.8159
  14   2.0000      -1.575435       -42.8698
  15   2.0000      -1.331866       -36.2419
  16   2.0000      -1.278284       -34.7839
  17   2.0000      -1.219548       -33.1856
  18   2.0000      -1.184319       -32.2270
  19   2.0000      -1.153581       -31.3905
  20   2.0000      -1.126339       -30.6492
  21   2.0000      -1.099345       -29.9147
  22   2.0000      -1.075604       -29.2687
  23   2.0000      -0.995683       -27.0939
  24   2.0000      -0.964944       -26.2575
  25   2.0000      -0.924095       -25.1459
  26   2.0000      -0.891038       -24.2464
  27   2.0000      -0.855826       -23.2882
  28   2.0000      -0.828102       -22.5338
  29   2.0000      -0.810798       -22.0629
  30   2.0000      -0.806520       -21.9465
  31   2.0000      -0.794063       -21.6075
  32   2.0000      -0.763926       -20.7875
  33   2.0000      -0.741394       -20.1743
  34   2.0000      -0.740818       -20.1587
  35   2.0000      -0.734433       -19.9849
  36   2.0000      -0.721741       -19.6396
  37   2.0000      -0.718082       -19.5400
  38   2.0000      -0.714783       -19.4502
  39   2.0000      -0.707403       -19.2494
  40   2.0000      -0.688765       -18.7423
  41   2.0000      -0.682846       -18.5812
  42   2.0000      -0.659994       -17.9594
  43   2.0000      -0.646934       -17.6040
  44   2.0000      -0.640186       -17.4203
  45   2.0000      -0.629646       -17.1335
  46   2.0000      -0.619302       -16.8521
  47   2.0000      -0.556712       -15.1489
  48   2.0000      -0.503593       -13.7035
  49   2.0000      -0.469612       -12.7788
  50   2.0000      -0.466865       -12.7040
  51   0.0000      -0.103219        -2.8087
  52   0.0000      -0.082428        -2.2430
  53   0.0000      -0.065908        -1.7934
  54   0.0000      -0.056214        -1.5297
  55   0.0000      -0.053991        -1.4692

MULLIKEN ATOMIC CHARGES
-----------------------
   0 C :    1.711376
   1 N :   -0.570837
   2 N :   -0.517016
   3 C :    1.253580
   4 C :   -0.451595
   5 C :   -0.479919
   6 C :   -0.370459
   7 H :    0.329623
   8 C :   -0.322546
   9 H :    0.297063
  10 C :   -0.477526
  11 H :    0.270065
  12 H :    0.305409
  13 H :    0.309674
  14 C :   -1.098976
  15 H :    0.303922
  16 H :    0.272433
  17 H :    0.313235
  18 C :   -1.105560
  19 H :    0.275612
  20 H :    0.341232
  21 H :    0.324696
  22 C :   -0.040304
  23 C :   -0.848116
  24 H :    0.417697
  25 H :    0.398253
  26 H :    0.343194
  27 C :   -0.926083
  28 H :    0.207731
  29 H :    0.319933
  30 H :    0.214209
Sum of atomic charges:    1.0000000

LOEWDIN ATOMIC CHARGES
----------------------
   0 C :   -0.293414
   1 N :    0.422999
   2 N :    0.384789
   3 C :   -0.307142
   4 C :    0.328863
   5 C :    0.342532
   6 C :    0.376385
   7 H :   -0.315893
   8 C :    0.377429
   9 H :   -0.317723
  10 C :    0.376105
  11 H :   -0.308053
  12 H :   -0.307549
  13 H :   -0.300034
  14 C :    0.941046
  15 H :   -0.273000
  16 H :   -0.244349
  17 H :   -0.273407
  18 C :    0.948639
  19 H :   -0.269315
  20 H :   -0.269063
  21 H :   -0.246512
  22 C :    0.305846
  23 C :    0.762765
  24 H :   -0.331493
  25 H :   -0.279376
  26 H :   -0.298514
  27 C :    0.922901
  28 H :   -0.316134
  29 H :   -0.264084
  30 H :   -0.275246

  Mayer bond orders larger than 0.100000
B(  0-C ,  1-N ) :   0.5394 B(  0-C ,  2-N ) :  -0.2000 B(  0-C ,  5-C ) :  -0.1014
B(  0-C , 14-C ) :   0.3536 B(  0-C , 15-H ) :  -0.1553 B(  0-C , 18-C ) :   0.5186
B(  0-C , 19-H ) :  -0.1618 B(  0-C , 22-C ) :   0.1759 B(  1-N ,  2-N ) :   1.1421
B(  2-N ,  3-C ) :   1.0392 B(  2-N ,  4-C ) :   0.2997 B(  2-N ,  5-C ) :   0.2156
B(  2-N , 10-C ) :   0.1638 B(  3-C ,  4-C ) :   0.6655 B(  3-C ,  5-C ) :   0.5998
B(  3-C ,  6-C ) :  -0.4788 B(  3-C ,  8-C ) :  -0.3875 B(  3-C , 10-C ) :  -0.2295
B(  4-C ,  5-C ) :   0.1079 B(  4-C ,  6-C ) :   1.2965 B(  4-C ,  7-H ) :   0.8735
B(  4-C ,  8-C ) :   0.1033 B(  4-C , 10-C ) :   0.1293 B(  4-C , 11-H ) :  -0.1155
B(  5-C ,  6-C ) :   0.1085 B(  5-C ,  8-C ) :   1.2030 B(  5-C ,  9-H ) :   0.9453
B(  5-C , 10-C ) :   0.1685 B(  5-C , 12-H ) :  -0.1732 B(  6-C , 10-C ) :   1.1848
B(  6-C , 11-H ) :   1.1171 B(  8-C , 10-C ) :   1.1142 B(  8-C , 12-H ) :   1.1043
B(  8-C , 13-H ) :  -0.1022 B( 10-C , 11-H ) :  -0.1098 B( 10-C , 13-H ) :   1.0494
B( 14-C , 15-H ) :   1.0106 B( 14-C , 16-H ) :   0.9963 B( 14-C , 17-H ) :   0.9586
B( 14-C , 18-C ) :   0.1090 B( 18-C , 19-H ) :   1.0364 B( 18-C , 20-H ) :   0.9456
B( 18-C , 21-H ) :   0.9235 B( 22-C , 23-C ) :   1.5673 B( 22-C , 24-H ) :   0.8074
B( 22-C , 27-C ) :   0.6218 B( 22-C , 28-H ) :  -0.1055 B( 23-C , 25-H ) :   0.9031
B( 23-C , 26-H ) :   0.9252 B( 23-C , 27-C ) :   0.1001 B( 27-C , 28-H ) :   1.0668
B( 27-C , 29-H ) :   0.9459 B( 27-C , 30-H ) :   0.9917

MP2 TOTAL ENERGY:     -575.632057441 Eh
FINAL SINGLE POINT ENERGY      -575.632057440594

DIPOLE MOMENT
-------------
                                X             Y             Z
Electronic contribution:     13.36044      -0.70720       0.68292
Nuclear contribution   :    -14.84998       0.29361      -0.36725
                        -----------------------------------------
Total Dipole Moment    :     -1.48954      -0.41360       0.31567
                        -----------------------------------------
Magnitude (a.u.)       :      1.57780
Magnitude (Debye)      :      4.01045

Rotational constants in cm-1:     0.044665     0.012429     0.010915
Rotational constants in MHz :  1339.025565   372.619863   327.213321

                             ****ORCA TERMINATED NORMALLY****
TOTAL RUN TIME: 0 days 3 hours 58 minutes 57 seconds 264 msec
