                         Program Version 4.2.1 -  RELEASE  -
|  1> %pal
|  2>  nprocs 32
|  3> end
|  4> !RI-MP2 aug-cc-pVQZ aug-cc-pVQZ/C TightSCF
|  5> %maxcore 4500
|  6> *xyzfile 0 2  04_4P.xyz
|  7>
|  8>
|  9>                          ****END OF INPUT****

CARTESIAN COORDINATES (ANGSTROEM)
---------------------------------
  C      1.730884    0.433051   -0.257362
  H      1.692948    0.580502   -1.341959
  H      1.899999    1.423756    0.178889
  C      0.386757   -0.105440    0.219766
  H      0.207654   -1.089489   -0.225603
  C     -2.123895    0.224263    0.301253
  H     -2.159086    0.029057    1.390114
  O     -2.482560   -0.933898   -0.324302
  H      0.423080   -0.260264    1.305307
  H     -2.953702    0.938351    0.144261
  C     -0.784668    0.808598   -0.120124
  C      2.895827   -0.485447    0.093005
  H     -0.656431    1.782069    0.366844
  H     -0.811244    0.994767   -1.198554
  H      3.845973   -0.080684   -0.261607
  H      2.765708   -1.473076   -0.357011
  H      2.976158   -0.623947    1.174512

 Total Charge           Charge          ....    0
 Multiplicity           Mult            ....    2
 Number of Electrons    NEL             ....   49
 Basis Dimension        Dim             ....  986

ORBITAL ENERGIES
----------------
                 SPIN UP ORBITALS
  NO   OCC          E(Eh)            E(eV)
   0   1.0000     -20.612788      -560.9025
   1   1.0000     -11.278391      -306.9006
   2   1.0000     -11.221981      -305.3656
   3   1.0000     -11.218047      -305.2586
   4   1.0000     -11.217026      -305.2308
   5   1.0000     -11.210666      -305.0577
   6   1.0000      -1.406968       -38.2856
   7   1.0000      -1.083511       -29.4838
   8   1.0000      -1.012442       -27.5500
   9   1.0000      -0.915509       -24.9123
  10   1.0000      -0.825681       -22.4679
  11   1.0000      -0.791716       -21.5437
  12   1.0000      -0.706994       -19.2383
  13   1.0000      -0.665369       -18.1056
  14   1.0000      -0.630297       -17.1513
  15   1.0000      -0.615687       -16.7537
  16   1.0000      -0.588211       -16.0060
  17   1.0000      -0.566403       -15.4126
  18   1.0000      -0.537477       -14.6255
  19   1.0000      -0.517472       -14.0811
  20   1.0000      -0.497436       -13.5359
  21   1.0000      -0.481884       -13.1127
  22   1.0000      -0.466229       -12.6867
  23   1.0000      -0.464863       -12.6496
  24   1.0000      -0.443318       -12.0633
  25   0.0000       0.025704         0.6994
  26   0.0000       0.028637         0.7792
  27   0.0000       0.032789         0.8922
  28   0.0000       0.037240         1.0134
  29   0.0000       0.046867         1.2753

                 SPIN DOWN ORBITALS
  NO   OCC          E(Eh)            E(eV)
   0   1.0000     -20.573258      -559.8268
   1   1.0000     -11.281301      -306.9798
   2   1.0000     -11.222023      -305.3668
   3   1.0000     -11.218060      -305.2589
   4   1.0000     -11.217031      -305.2309
   5   1.0000     -11.210665      -305.0577
   6   1.0000      -1.279333       -34.8124
   7   1.0000      -1.080161       -29.3927
   8   1.0000      -1.004621       -27.3371
   9   1.0000      -0.904431       -24.6108
  10   1.0000      -0.815323       -22.1861
  11   1.0000      -0.787082       -21.4176
  12   1.0000      -0.655913       -17.8483
  13   1.0000      -0.624852       -17.0031
  14   1.0000      -0.611078       -16.6283
  15   1.0000      -0.594703       -16.1827
  16   1.0000      -0.566828       -15.4242
  17   1.0000      -0.552048       -15.0220
  18   1.0000      -0.523027       -14.2323
  19   1.0000      -0.494892       -13.4667
  20   1.0000      -0.477203       -12.9853
  21   1.0000      -0.469676       -12.7805
  22   1.0000      -0.465812       -12.6754
  23   1.0000      -0.426245       -11.5987
  24   0.0000       0.025726         0.7000
  25   0.0000       0.028651         0.7796
  26   0.0000       0.032799         0.8925
  27   0.0000       0.037297         1.0149
  28   0.0000       0.046803         1.2736

MULLIKEN ATOMIC CHARGES AND SPIN POPULATIONS
--------------------------------------------
   0 C :   -0.420561   -0.000560
   1 H :    0.229477    0.000081
   2 H :    0.235256    0.000165
   3 C :   -0.188576    0.000040
   4 H :    0.246690   -0.003423
   5 C :    0.033995   -0.206780
   6 H :    0.201972    0.078730
   7 O :   -0.581485    1.038234
   8 H :    0.239016   -0.001557
   9 H :    0.267705    0.087752
  10 C :   -0.553227    0.012319
  11 C :   -0.896545    0.000239
  12 H :    0.232811   -0.002603
  13 H :    0.246075   -0.002623
  14 H :    0.260698    0.000019
  15 H :    0.222420   -0.000066
  16 H :    0.224279    0.000032
Sum of atomic charges         :   -0.0000000

LOEWDIN ATOMIC CHARGES AND SPIN POPULATIONS
-------------------------------------------
   0 C :    0.501057   -0.000124
   1 H :   -0.271992   -0.000027
   2 H :   -0.271322   -0.000020
   3 C :    0.482959    0.000537
   4 H :   -0.279727    0.000245
   5 C :   -0.015908    0.172503
   6 H :   -0.329837    0.025896
   7 O :    0.790232    0.773243
   8 H :   -0.269463    0.000209
   9 H :   -0.330541    0.028809
  10 C :    0.475593   -0.000247
  11 C :    0.924024   -0.000023
  12 H :   -0.273027    0.000002
  13 H :   -0.281668   -0.001001
  14 H :   -0.282883   -0.000009
  15 H :   -0.283501    0.000013
  16 H :   -0.283996   -0.000006

  Mayer bond orders larger than 0.100000
B(  0-C ,  1-H ) :   0.8823 B(  0-C ,  2-H ) :   0.8795 B(  0-C ,  3-C ) :   0.9056
B(  0-C , 11-C ) :   0.9953 B(  3-C ,  4-H ) :   0.8726 B(  3-C ,  5-C ) :  -0.1067
B(  3-C ,  8-H ) :   0.8743 B(  3-C , 10-C ) :   0.8700 B(  5-C ,  6-H ) :   0.9186
B(  5-C ,  7-O ) :   0.5774 B(  5-C ,  9-H ) :   0.9527 B(  5-C , 10-C ) :   1.0949
B(  7-O , 10-C ) :   0.1073 B( 10-C , 12-H ) :   0.9064 B( 10-C , 13-H ) :   0.8513
B( 11-C , 14-H ) :   1.0215 B( 11-C , 15-H ) :   0.9576 B( 11-C , 16-H ) :   0.9572

MP2 TOTAL ENERGY:     -271.824333834 Eh
FINAL SINGLE POINT ENERGY      -271.824333833614

DIPOLE MOMENT
-------------
                                X             Y             Z
Electronic contribution:     -7.34408      -1.71015      -0.93490
Nuclear contribution   :      7.59497       2.32996       1.23565
                        -----------------------------------------
Total Dipole Moment    :      0.25089       0.61981       0.30075
                        -----------------------------------------
Magnitude (a.u.)       :      0.73319
Magnitude (Debye)      :      1.86362

Rotational constants in cm-1:     0.325034     0.046276     0.043231
Rotational constants in MHz :  9744.270069  1387.311032  1296.030600

                             ****ORCA TERMINATED NORMALLY****
TOTAL RUN TIME: 0 days 0 hours 57 minutes 31 seconds 527 msec
