                         Program Version 4.2.1 -  RELEASE  -
|  1> %pal
|  2>  nprocs 32
|  3> end
|  4> !RI-MP2 aug-cc-pVQZ aug-cc-pVQZ/C TightSCF
|  5> %maxcore 4500
|  6> *xyzfile -1 1  05_3P.xyz
|  7>
|  8>
|  9>                          ****END OF INPUT****

CARTESIAN COORDINATES (ANGSTROEM)
---------------------------------
  O      0.697773    1.754740   -0.411407
  C      0.727171    0.809291    0.536450
  C      1.389147   -0.424573   -0.079649
  O      2.734885   -0.477422    0.133094
  O      0.862719   -1.255788   -0.783186
  C     -0.665431    0.410805    1.134812
  C     -1.665488   -0.213956    0.197478
  H     -1.082690    1.364869    1.476655
  H     -0.558280   -0.254665    1.997674
  O     -2.276582   -1.222633    0.502006
  H      3.050935   -1.201134   -0.424331
  C     -1.931546    0.505664   -1.097340
  H     -2.367326   -0.187180   -1.817760
  H     -2.647252    1.311225   -0.896717
  H     -1.007987    0.979895   -1.443497
  H      1.339116    1.072438    1.433412

 Total Charge           Charge          ....   -1
 Multiplicity           Mult            ....    1
 Number of Electrons    NEL             ....   70
 Basis Dimension        Dim             .... 1042

ORBITAL ENERGIES
----------------

  NO   OCC          E(Eh)            E(eV)
   0   2.0000     -20.459924      -556.7428
   1   2.0000     -20.389499      -554.8265
   2   2.0000     -20.385342      -554.7134
   3   2.0000     -20.261715      -551.3493
   4   2.0000     -11.216421      -305.2143
   5   2.0000     -11.174713      -304.0794
   6   2.0000     -11.112802      -302.3947
   7   2.0000     -11.072109      -301.2874
   8   2.0000     -11.066201      -301.1266
   9   2.0000      -1.310412       -35.6581
  10   2.0000      -1.228423       -33.4271
  11   2.0000      -1.202688       -32.7268
  12   2.0000      -1.081322       -29.4243
  13   2.0000      -0.884907       -24.0795
  14   2.0000      -0.825837       -22.4722
  15   2.0000      -0.750350       -20.4181
  16   2.0000      -0.629794       -17.1376
  17   2.0000      -0.577404       -15.7120
  18   2.0000      -0.552766       -15.0415
  19   2.0000      -0.524266       -14.2660
  20   2.0000      -0.486010       -13.2250
  21   2.0000      -0.475925       -12.9506
  22   2.0000      -0.469791       -12.7837
  23   2.0000      -0.451634       -12.2896
  24   2.0000      -0.421257       -11.4630
  25   2.0000      -0.407351       -11.0846
  26   2.0000      -0.392105       -10.6697
  27   2.0000      -0.376979       -10.2581
  28   2.0000      -0.345385        -9.3984
  29   2.0000      -0.335198        -9.1212
  30   2.0000      -0.323280        -8.7969
  31   2.0000      -0.303066        -8.2468
  32   2.0000      -0.257005        -6.9935
  33   2.0000      -0.177746        -4.8367
  34   2.0000      -0.173560        -4.7228
  35   0.0000       0.109669         2.9842
  36   0.0000       0.114962         3.1283
  37   0.0000       0.117233         3.1901
  38   0.0000       0.126881         3.4526
  39   0.0000       0.129025         3.5110

MULLIKEN ATOMIC CHARGES
-----------------------
   0 O :   -1.189117
   1 C :    0.453369
   2 C :    1.061059
   3 O :   -0.773169
   4 O :   -0.921673
   5 C :   -0.802036
   6 C :    1.130382
   7 H :    0.284864
   8 H :    0.274143
   9 O :   -0.936460
  10 H :    0.315329
  11 C :   -0.971129
  12 H :    0.301288
  13 H :    0.263837
  14 H :    0.280295
  15 H :    0.229018
Sum of atomic charges:   -1.0000000

LOEWDIN ATOMIC CHARGES
----------------------
   0 O :    0.575601
   1 C :   -0.672604
   2 C :   -1.115690
   3 O :    1.225240
   4 O :    0.694236
   5 C :    0.393002
   6 C :   -0.714176
   7 H :   -0.311589
   8 H :   -0.327403
   9 O :    0.700710
  10 H :   -0.866145
  11 C :    0.853167
  12 H :   -0.315544
  13 H :   -0.292568
  14 H :   -0.442123
  15 H :   -0.384113

  Mayer bond orders larger than 0.100000
B(  0-O ,  1-C ) :   0.7457 B(  0-O ,  2-C ) :   0.1882 B(  0-O ,  5-C ) :   0.1062
B(  1-C ,  2-C ) :   0.8074 B(  1-C ,  5-C ) :   0.9853 B(  1-C , 15-H ) :   0.9755
B(  2-C ,  3-O ) :   0.6885 B(  2-C ,  4-O ) :   1.3949 B(  3-O , 10-H ) :   0.9399
B(  5-C ,  6-C ) :   0.9549 B(  5-C ,  7-H ) :   0.9113 B(  5-C ,  8-H ) :   0.9167
B(  5-C ,  9-O ) :   0.2312 B(  6-C ,  9-O ) :   0.8983 B(  6-C , 11-C ) :   0.8365
B(  9-O , 11-C ) :   0.1506 B( 11-C , 12-H ) :   0.9556 B( 11-C , 13-H ) :   0.9154
B( 11-C , 14-H ) :   0.9578

MP2 TOTAL ENERGY:     -495.011973299 Eh
FINAL SINGLE POINT ENERGY      -495.011973299433

DIPOLE MOMENT
-------------
                                X             Y             Z
Electronic contribution:      3.42864      -3.74883       0.20335
Nuclear contribution   :     -3.20408       3.03096       0.31295
                        -----------------------------------------
Total Dipole Moment    :      0.22456      -0.71786       0.51629
                        -----------------------------------------
Magnitude (a.u.)       :      0.91231
Magnitude (Debye)      :      2.31891

Rotational constants in cm-1:     0.088689     0.039451     0.034636
Rotational constants in MHz :  2658.832070  1182.704600  1038.372690

                             ****ORCA TERMINATED NORMALLY****
TOTAL RUN TIME: 0 days 0 hours 27 minutes 55 seconds 45 msec
