                         Program Version 4.2.1 -  RELEASE  -
|  1> %pal
|  2>  nprocs 32
|  3> end
|  4> !RI-MP2 aug-cc-pVQZ aug-cc-pVQZ/C TightSCF
|  5> %maxcore 4500
|  6> *xyzfile 1 1  05_14TS.xyz
|  7>
|  8>
|  9>                          ****END OF INPUT****

CARTESIAN COORDINATES (ANGSTROEM)
---------------------------------
  C      0.689820   -0.486370   -0.412877
  C      1.613817    1.987513   -0.143074
  C      2.991872    1.420744   -0.503241
  C      3.171476   -0.024056   -0.075534
  C      2.121387   -0.882393   -0.771692
  H      3.130279    1.494176   -1.587221
  H      3.745785    2.057190   -0.035353
  H      3.051712   -0.118398    1.004892
  H      2.260356   -0.799638   -1.853982
  H      2.264660   -1.927574   -0.496481
  N      0.563370    0.996745   -0.521777
  O     -0.627926    1.449589   -0.578935
  C     -0.287362   -1.112770   -1.406573
  H     -0.118642   -2.189974   -1.428790
  H     -1.324907   -0.935605   -1.126645
  H     -0.125946   -0.718634   -2.410572
  C      0.332632   -0.929122    1.015135
  H     -0.635909   -0.532749    1.323476
  H      0.263000   -2.017138    1.032821
  H      1.081117   -0.637892    1.748614
  C      1.364225    3.265213   -0.942774
  H      0.435135    3.751313   -0.649700
  H      2.184658    3.960467   -0.760962
  H      1.323022    3.052479   -2.011656
  C      1.506082    2.289976    1.359312
  H      2.186569    3.106803    1.602490
  H      0.499910    2.622302    1.621320
  H      1.768347    1.437143    1.982333
  C     -3.297925    2.428223    0.547835
  C     -3.450642    1.103743    0.582132
  C     -2.307199    1.682349    1.219269
  H     -3.670281    3.401612    0.279045
  H     -1.218673    1.528320    0.454102
  H     -1.892208    1.681244    2.226240
  C     -4.175720   -0.083593    0.272057
  C     -3.766861   -1.310596    0.807223
  C     -5.293129   -0.021775   -0.570284
  C     -4.469828   -2.461351    0.503504
  H     -2.905643   -1.351483    1.462350
  C     -5.987926   -1.176800   -0.871889
  H     -5.604085    0.930516   -0.981966
  C     -5.576768   -2.393315   -0.335412
  H     -4.161323   -3.411882    0.919090
  H     -6.851546   -1.135411   -1.522836
  H     -6.125741   -3.296246   -0.572746
  N      4.513851   -0.484809   -0.362780
  C      5.019341   -1.568772    0.297830
  C      6.418445   -1.985766   -0.069209
  H      6.871423   -1.359133   -0.837744
  H      7.036233   -1.954363    0.828623
  H      6.396195   -3.019664   -0.414532
  O      4.359289   -2.149574    1.139147
  H      5.050634   -0.047938   -1.094434

 Total Charge           Charge          ....    1
 Multiplicity           Mult            ....    1
 Number of Electrons    NEL             ....  178
 Basis Dimension        Dim             .... 3254

ORBITAL ENERGIES
----------------

  NO   OCC          E(Eh)            E(eV)
   0   2.0000     -20.788535      -565.6848
   1   2.0000     -20.591600      -560.3259
   2   2.0000     -15.773624      -429.2221
   3   2.0000     -15.667262      -426.3279
   4   2.0000     -11.452012      -311.6251
   5   2.0000     -11.448663      -311.5340
   6   2.0000     -11.437235      -311.2230
   7   2.0000     -11.426692      -310.9361
   8   2.0000     -11.397893      -310.1524
   9   2.0000     -11.393307      -310.0276
  10   2.0000     -11.382542      -309.7347
  11   2.0000     -11.373291      -309.4830
  12   2.0000     -11.372305      -309.4562
  13   2.0000     -11.364937      -309.2557
  14   2.0000     -11.364593      -309.2463
  15   2.0000     -11.353681      -308.9494
  16   2.0000     -11.353035      -308.9318
  17   2.0000     -11.336515      -308.4822
  18   2.0000     -11.332225      -308.3655
  19   2.0000     -11.329800      -308.2995
  20   2.0000     -11.323388      -308.1251
  21   2.0000     -11.323119      -308.1177
  22   2.0000     -11.320978      -308.0595
  23   2.0000     -11.306096      -307.6545
  24   2.0000      -1.623610       -44.1807
  25   2.0000      -1.463295       -39.8183
  26   2.0000      -1.386976       -37.7415
  27   2.0000      -1.328029       -36.1375
  28   2.0000      -1.290656       -35.1205
  29   2.0000      -1.287278       -35.0286
  30   2.0000      -1.219942       -33.1963
  31   2.0000      -1.168123       -31.7862
  32   2.0000      -1.152820       -31.3698
  33   2.0000      -1.148744       -31.2589
  34   2.0000      -1.108069       -30.1521
  35   2.0000      -1.071440       -29.1554
  36   2.0000      -1.060162       -28.8485
  37   2.0000      -1.049817       -28.5670
  38   2.0000      -1.042880       -28.3782
  39   2.0000      -1.008178       -27.4339
  40   2.0000      -0.988399       -26.8957
  41   2.0000      -0.956550       -26.0291
  42   2.0000      -0.944342       -25.6969
  43   2.0000      -0.934653       -25.4332
  44   2.0000      -0.914807       -24.8932
  45   2.0000      -0.890310       -24.2266
  46   2.0000      -0.877165       -23.8689
  47   2.0000      -0.863818       -23.5057
  48   2.0000      -0.806450       -21.9446
  49   2.0000      -0.801390       -21.8069
  50   2.0000      -0.799455       -21.7543
  51   2.0000      -0.795049       -21.6344
  52   2.0000      -0.770018       -20.9533
  53   2.0000      -0.766789       -20.8654
  54   2.0000      -0.754446       -20.5295
  55   2.0000      -0.740738       -20.1565
  56   2.0000      -0.729386       -19.8476
  57   2.0000      -0.719458       -19.5774
  58   2.0000      -0.717605       -19.5270
  59   2.0000      -0.712643       -19.3920
  60   2.0000      -0.702736       -19.1224
  61   2.0000      -0.694514       -18.8987
  62   2.0000      -0.690890       -18.8001
  63   2.0000      -0.680383       -18.5142
  64   2.0000      -0.677198       -18.4275
  65   2.0000      -0.676050       -18.3963
  66   2.0000      -0.666800       -18.1446
  67   2.0000      -0.658163       -17.9095
  68   2.0000      -0.654540       -17.8109
  69   2.0000      -0.647476       -17.6187
  70   2.0000      -0.644824       -17.5465
  71   2.0000      -0.635793       -17.3008
  72   2.0000      -0.633741       -17.2450
  73   2.0000      -0.629056       -17.1175
  74   2.0000      -0.627402       -17.0725
  75   2.0000      -0.619637       -16.8612
  76   2.0000      -0.617302       -16.7976
  77   2.0000      -0.610741       -16.6191
  78   2.0000      -0.603021       -16.4090
  79   2.0000      -0.590749       -16.0751
  80   2.0000      -0.589838       -16.0503
  81   2.0000      -0.585672       -15.9369
  82   2.0000      -0.565561       -15.3897
  83   2.0000      -0.563035       -15.3210
  84   2.0000      -0.502720       -13.6797
  85   2.0000      -0.487672       -13.2702
  86   2.0000      -0.477047       -12.9811
  87   2.0000      -0.465489       -12.6666
  88   2.0000      -0.424683       -11.5562
  89   0.0000      -0.131036        -3.5657
  90   0.0000      -0.064117        -1.7447
  91   0.0000      -0.060721        -1.6523
  92   0.0000      -0.050652        -1.3783
  93   0.0000      -0.047557        -1.2941

MULLIKEN ATOMIC CHARGES
-----------------------
   0 C :    1.790098
   1 C :    1.159286
   2 C :   -0.827530
   3 C :    1.791252
   4 C :   -1.219315
   5 H :    0.175814
   6 H :    0.136840
   7 H :    0.189192
   8 H :    0.272500
   9 H :    0.242784
  10 N :    1.459033
  11 O :   -1.504026
  12 C :   -1.470934
  13 H :    0.178575
  14 H :    0.441771
  15 H :    0.236578
  16 C :   -1.518095
  17 H :    0.356033
  18 H :    0.124405
  19 H :    0.294155
  20 C :   -1.160430
  21 H :    0.219462
  22 H :    0.241199
  23 H :    0.234882
  24 C :   -1.217651
  25 H :    0.118131
  26 H :    0.218134
  27 H :    0.254390
  28 C :   -0.781214
  29 C :    0.224058
  30 C :   -0.104617
  31 H :    0.441680
  32 H :    0.351311
  33 H :    0.345028
  34 C :    0.837637
  35 C :   -0.307138
  36 C :   -0.584034
  37 C :   -0.401681
  38 H :    0.504516
  39 C :   -0.354471
  40 H :    0.305404
  41 C :   -0.442338
  42 H :    0.272870
  43 H :    0.282613
  44 H :    0.328636
  45 N :   -1.098907
  46 C :    0.994979
  47 C :   -0.906895
  48 H :    0.213129
  49 H :    0.289009
  50 H :    0.285617
  51 O :   -0.936460
  52 H :    0.024734
Sum of atomic charges:    1.0000000

LOEWDIN ATOMIC CHARGES
----------------------
   0 C :   -0.368388
   1 C :   -0.375641
   2 C :    0.533402
   3 C :   -0.020636
   4 C :    0.532122
   5 H :   -0.254781
   6 H :   -0.243597
   7 H :   -0.340804
   8 H :   -0.250402
   9 H :   -0.268142
  10 N :    0.181273
  11 O :    1.072165
  12 C :    0.923363
  13 H :   -0.258077
  14 H :   -0.291166
  15 H :   -0.254830
  16 C :    0.947724
  17 H :   -0.310194
  18 H :   -0.247021
  19 H :   -0.283207
  20 C :    0.922127
  21 H :   -0.277424
  22 H :   -0.260501
  23 H :   -0.258102
  24 C :    0.946782
  25 H :   -0.252656
  26 H :   -0.285670
  27 H :   -0.286348
  28 C :    0.585727
  29 C :    0.026560
  30 C :    0.488365
  31 H :   -0.243156
  32 H :   -0.929981
  33 H :   -0.206712
  34 C :   -0.075163
  35 C :    0.341538
  36 C :    0.357244
  37 C :    0.385041
  38 H :   -0.314152
  39 C :    0.383319
  40 H :   -0.296529
  41 C :    0.379339
  42 H :   -0.306227
  43 H :   -0.306822
  44 H :   -0.298314
  45 N :    0.878113
  46 C :   -0.807789
  47 C :    0.912928
  48 H :   -0.304736
  49 H :   -0.290704
  50 H :   -0.290478
  51 O :    0.740804
  52 H :   -0.479585

  Mayer bond orders larger than 0.100000
B(  0-C ,  1-C ) :   0.1784 B(  0-C ,  4-C ) :   0.1434 B(  0-C ,  8-H ) :  -0.1242
B(  0-C , 10-N ) :   0.8442 B(  0-C , 12-C ) :  -0.1547 B(  0-C , 13-H ) :  -0.2705
B(  0-C , 14-H ) :  -0.2272 B(  0-C , 15-H ) :  -0.2537 B(  0-C , 16-C ) :   0.3566
B(  0-C , 17-H ) :  -0.1734 B(  0-C , 19-H ) :  -0.1190 B(  1-C ,  2-C ) :   0.5550
B(  1-C ,  7-H ) :   0.1005 B(  1-C , 10-N ) :   0.8060 B(  1-C , 21-H ) :  -0.2176
B(  1-C , 22-H ) :  -0.2121 B(  1-C , 23-H ) :  -0.2425 B(  1-C , 24-C ) :   0.4267
B(  1-C , 26-H ) :  -0.1809 B(  1-C , 27-H ) :  -0.1673 B(  2-C ,  3-C ) :   0.3109
B(  2-C ,  4-C ) :  -0.1145 B(  2-C ,  5-H ) :   1.1783 B(  2-C ,  6-H ) :   1.1373
B(  2-C , 45-N ) :   0.1195 B(  3-C ,  4-C ) :   0.8114 B(  3-C ,  5-H ) :  -0.1483
B(  3-C ,  6-H ) :  -0.1380 B(  3-C ,  7-H ) :   1.0161 B(  3-C , 45-N ) :  -1.0749
B(  3-C , 52-H ) :  -0.4077 B(  4-C ,  8-H ) :   1.0848 B(  4-C ,  9-H ) :   1.0620
B(  4-C , 12-C ) :   0.1088 B(  4-C , 45-N ) :   0.5668 B(  9-H , 51-O ) :  -0.1214
B( 10-N , 11-O ) :  -0.3065 B( 10-N , 24-C ) :  -0.1414 B( 10-N , 30-C ) :   0.1780
B( 11-O , 28-C ) :   0.1815 B( 11-O , 32-H ) :   0.1487 B( 12-C , 13-H ) :   1.1921
B( 12-C , 14-H ) :   0.8562 B( 12-C , 15-H ) :   1.2199 B( 16-C , 17-H ) :   0.8662
B( 16-C , 18-H ) :   1.1495 B( 16-C , 19-H ) :   1.1066 B( 20-C , 21-H ) :   1.1109
B( 20-C , 22-H ) :   1.1142 B( 20-C , 23-H ) :   1.1652 B( 20-C , 24-C ) :   0.1420
B( 24-C , 25-H ) :   1.1196 B( 24-C , 26-H ) :   1.0879 B( 24-C , 27-H ) :   1.0912
B( 28-C , 29-C ) :   1.6009 B( 28-C , 30-C ) :   1.1484 B( 28-C , 31-H ) :   0.8420
B( 28-C , 34-C ) :  -0.4535 B( 29-C , 30-C ) :   0.2840 B( 29-C , 32-H ) :   0.2283
B( 29-C , 34-C ) :   0.4608 B( 29-C , 35-C ) :  -0.5024 B( 29-C , 36-C ) :  -0.4300
B( 30-C , 32-H ) :   0.3986 B( 30-C , 33-H ) :   1.0042 B( 34-C , 35-C ) :   0.7856
B( 34-C , 36-C ) :   1.1127 B( 34-C , 37-C ) :  -0.5257 B( 34-C , 38-H ) :  -0.1230
B( 34-C , 39-C ) :  -0.4323 B( 34-C , 40-H ) :  -0.1029 B( 35-C , 37-C ) :   1.2762
B( 35-C , 38-H ) :   0.7463 B( 35-C , 42-H ) :  -0.1024 B( 36-C , 37-C ) :   0.1513
B( 36-C , 39-C ) :   1.3588 B( 36-C , 40-H ) :   0.9815 B( 36-C , 41-C ) :   0.1217
B( 36-C , 43-H ) :  -0.1339 B( 37-C , 41-C ) :   1.2733 B( 37-C , 42-H ) :   1.1022
B( 39-C , 41-C ) :   1.1925 B( 39-C , 43-H ) :   1.1115 B( 41-C , 44-H ) :   1.0292
B( 45-N , 46-C ) :   1.1241 B( 45-N , 51-O ) :   0.1830 B( 45-N , 52-H ) :   1.4090
B( 46-C , 47-C ) :   0.7408 B( 46-C , 48-H ) :  -0.1585 B( 46-C , 51-O ) :   0.9537
B( 47-C , 48-H ) :   1.0471 B( 47-C , 49-H ) :   0.9731 B( 47-C , 50-H ) :   0.9500

MP2 TOTAL ENERGY:    -1037.398021295 Eh
FINAL SINGLE POINT ENERGY     -1037.398021295405

DIPOLE MOMENT
-------------
                                X             Y             Z
Electronic contribution:    -17.69912      -1.80883       0.94641
Nuclear contribution   :     15.30835       3.63436      -1.32300
                        -----------------------------------------
Total Dipole Moment    :     -2.39077       1.82554      -0.37659
                        -----------------------------------------
Magnitude (a.u.)       :      3.03153
Magnitude (Debye)      :      7.70555

Rotational constants in cm-1:     0.014580     0.003770     0.003246
Rotational constants in MHz :   437.097247   113.011167    97.315466

                             ****ORCA TERMINATED NORMALLY****
TOTAL RUN TIME: 1 days 0 hours 14 minutes 56 seconds 321 msec
