                         Program Version 4.2.1 -  RELEASE  -
|  1> %pal
|  2>  nprocs 32
|  3> end
|  4> !RI-MP2 aug-cc-pVQZ aug-cc-pVQZ/C TightSCF
|  5> %maxcore 4500
|  6> *xyzfile 0 2  06_21TS.xyz
|  7>
|  8>
|  9>                          ****END OF INPUT****

CARTESIAN COORDINATES (ANGSTROEM)
---------------------------------
  Si     0.376275   -0.005322    0.001268
  Si     0.540870    2.200276    0.787319
  Si     2.291278   -0.654261   -1.190106
  Si    -0.302155   -1.579894    1.605056
  C     -0.866180   -3.149605    0.738734
  H     -0.061650   -3.599702    0.154216
  H     -1.205469   -3.888752    1.469932
  H     -1.696047   -2.947215    0.058545
  C      1.181581   -1.963821    2.703540
  H      1.545784   -1.070083    3.215371
  H      0.912164   -2.698699    3.467613
  H      2.011024   -2.377027    2.124744
  C     -1.706570   -0.920517    2.667480
  H     -2.621731   -0.791997    2.085327
  H     -1.927158   -1.627942    3.472212
  H     -1.455744    0.036559    3.130755
  C      2.262780   -2.510575   -1.496352
  H      3.124677   -2.811004   -2.098949
  H      2.300222   -3.073458   -0.561017
  H      1.360221   -2.812079   -2.032705
  C      2.324227    0.248203   -2.838712
  H      2.375605    1.330290   -2.701938
  H      3.193054   -0.056870   -3.428939
  H      1.426596    0.031474   -3.422208
  C      3.830929   -0.217377   -0.194395
  H      3.828167   -0.705364    0.783072
  H      4.733170   -0.537102   -0.723706
  H      3.909523    0.859563   -0.028812
  C     -1.133084    2.944175    1.218225
  H     -0.994602    3.934926    1.660740
  H     -1.762453    3.063670    0.334156
  H     -1.679889    2.331900    1.937979
  C      1.602212    2.164982    2.344692
  H      2.580438    1.717288    2.156056
  H      1.765601    3.179101    2.720692
  H      1.121082    1.590697    3.139975
  C      1.371237    3.284119   -0.507839
  H      1.434565    4.318358   -0.157783
  H      2.386716    2.945060   -0.723673
  H      0.814012    3.283096   -1.447455
  H     -0.791938   -0.115112   -1.231653
  S     -1.927288   -0.378026   -2.403495
  C     -3.025778    0.924859   -1.757745
  C     -3.535016    0.619431   -0.357476
  O     -4.167456   -0.638130   -0.268416
  H     -2.513501    1.887875   -1.778502
  H     -3.860728    0.973698   -2.459885
  H     -2.701932    0.682194    0.351032
  H     -4.275263    1.366810   -0.062839
  H     -3.624023   -1.261133   -0.769539

 Total Charge           Charge          ....    0
 Multiplicity           Mult            ....    2
 Number of Electrons    NEL             ....  179
 Basis Dimension        Dim             .... 2898

ORBITAL ENERGIES
----------------
                 SPIN UP ORBITALS
  NO   OCC          E(Eh)            E(eV)
   0   1.0000     -91.947169     -2502.0097
   1   1.0000     -68.756727     -1870.9657
   2   1.0000     -68.751994     -1870.8369
   3   1.0000     -68.751815     -1870.8320
   4   1.0000     -68.741426     -1870.5493
   5   1.0000     -20.548463      -559.1521
   6   1.0000     -11.276647      -306.8532
   7   1.0000     -11.258712      -306.3651
   8   1.0000     -11.204744      -304.8966
   9   1.0000     -11.204660      -304.8943
  10   1.0000     -11.204147      -304.8804
  11   1.0000     -11.202580      -304.8377
  12   1.0000     -11.201759      -304.8154
  13   1.0000     -11.200335      -304.7766
  14   1.0000     -11.197088      -304.6883
  15   1.0000     -11.196691      -304.6775
  16   1.0000     -11.196527      -304.6730
  17   1.0000      -8.949778      -243.5358
  18   1.0000      -6.641557      -180.7259
  19   1.0000      -6.627890      -180.3540
  20   1.0000      -6.626866      -180.3262
  21   1.0000      -6.105819      -166.1478
  22   1.0000      -6.101170      -166.0213
  23   1.0000      -6.100965      -166.0157
  24   1.0000      -6.095455      -165.8658
  25   1.0000      -4.212401      -114.6253
  26   1.0000      -4.211940      -114.6127
  27   1.0000      -4.211888      -114.6113
  28   1.0000      -4.207694      -114.4972
  29   1.0000      -4.207537      -114.4929
  30   1.0000      -4.207295      -114.4863
  31   1.0000      -4.207254      -114.4852
  32   1.0000      -4.207057      -114.4798
  33   1.0000      -4.207052      -114.4797
  34   1.0000      -4.206095      -114.4537
  35   1.0000      -4.199150      -114.2647
  36   1.0000      -4.199097      -114.2632
  37   1.0000      -1.358529       -36.9674
  38   1.0000      -1.060114       -28.8472
  39   1.0000      -0.975859       -26.5545
  40   1.0000      -0.969442       -26.3799
  41   1.0000      -0.966694       -26.3051
  42   1.0000      -0.934399       -25.4263
  43   1.0000      -0.931360       -25.3436
  44   1.0000      -0.929778       -25.3005
  45   1.0000      -0.927460       -25.2375
  46   1.0000      -0.925984       -25.1973
  47   1.0000      -0.924622       -25.1603
  48   1.0000      -0.921978       -25.0883
  49   1.0000      -0.817633       -22.2489
  50   1.0000      -0.730329       -19.8733
  51   1.0000      -0.689538       -18.7633
  52   1.0000      -0.642922       -17.4948
  53   1.0000      -0.632921       -17.2227
  54   1.0000      -0.629247       -17.1227
  55   1.0000      -0.609161       -16.5761
  56   1.0000      -0.598768       -16.2933
  57   1.0000      -0.588342       -16.0096
  58   1.0000      -0.579475       -15.7683
  59   1.0000      -0.578613       -15.7449
  60   1.0000      -0.571376       -15.5479
  61   1.0000      -0.569784       -15.5046
  62   1.0000      -0.565479       -15.3875
  63   1.0000      -0.563809       -15.3420
  64   1.0000      -0.561401       -15.2765
  65   1.0000      -0.560230       -15.2446
  66   1.0000      -0.552445       -15.0328
  67   1.0000      -0.547392       -14.8953
  68   1.0000      -0.545916       -14.8551
  69   1.0000      -0.545098       -14.8329
  70   1.0000      -0.542187       -14.7537
  71   1.0000      -0.540135       -14.6978
  72   1.0000      -0.537764       -14.6333
  73   1.0000      -0.536183       -14.5903
  74   1.0000      -0.532739       -14.4966
  75   1.0000      -0.530530       -14.4365
  76   1.0000      -0.510921       -13.9029
  77   1.0000      -0.488717       -13.2987
  78   1.0000      -0.456019       -12.4089
  79   1.0000      -0.445036       -12.1100
  80   1.0000      -0.441409       -12.0114
  81   1.0000      -0.438984       -11.9454
  82   1.0000      -0.437629       -11.9085
  83   1.0000      -0.434564       -11.8251
  84   1.0000      -0.433191       -11.7877
  85   1.0000      -0.430047       -11.7022
  86   1.0000      -0.364994        -9.9320
  87   1.0000      -0.352703        -9.5975
  88   1.0000      -0.348622        -9.4865
  89   1.0000      -0.298205        -8.1146
  90   0.0000       0.018017         0.4903
  91   0.0000       0.023093         0.6284
  92   0.0000       0.024825         0.6755
  93   0.0000       0.027009         0.7350
  94   0.0000       0.033880         0.9219

                 SPIN DOWN ORBITALS
  NO   OCC          E(Eh)            E(eV)
   0   1.0000     -91.940109     -2501.8176
   1   1.0000     -68.756761     -1870.9666
   2   1.0000     -68.752089     -1870.8395
   3   1.0000     -68.751893     -1870.8341
   4   1.0000     -68.738054     -1870.4575
   5   1.0000     -20.548453      -559.1518
   6   1.0000     -11.276455      -306.8479
   7   1.0000     -11.259465      -306.3856
   8   1.0000     -11.204811      -304.8984
   9   1.0000     -11.204209      -304.8820
  10   1.0000     -11.204195      -304.8816
  11   1.0000     -11.202216      -304.8278
  12   1.0000     -11.201372      -304.8048
  13   1.0000     -11.200378      -304.7778
  14   1.0000     -11.197133      -304.6895
  15   1.0000     -11.196753      -304.6791
  16   1.0000     -11.196596      -304.6749
  17   1.0000      -8.941816      -243.3192
  18   1.0000      -6.623951      -180.2469
  19   1.0000      -6.622424      -180.2053
  20   1.0000      -6.611253      -179.9013
  21   1.0000      -6.105863      -166.1490
  22   1.0000      -6.101308      -166.0250
  23   1.0000      -6.101077      -166.0188
  24   1.0000      -6.090685      -165.7360
  25   1.0000      -4.212445      -114.6265
  26   1.0000      -4.211981      -114.6138
  27   1.0000      -4.211931      -114.6125
  28   1.0000      -4.207992      -114.5053
  29   1.0000      -4.207763      -114.4990
  30   1.0000      -4.207392      -114.4890
  31   1.0000      -4.207310      -114.4867
  32   1.0000      -4.207161      -114.4827
  33   1.0000      -4.207083      -114.4805
  34   1.0000      -4.196841      -114.2019
  35   1.0000      -4.196776      -114.2001
  36   1.0000      -4.191469      -114.0557
  37   1.0000      -1.358488       -36.9663
  38   1.0000      -1.046780       -28.4843
  39   1.0000      -0.975161       -26.5355
  40   1.0000      -0.969058       -26.3694
  41   1.0000      -0.966393       -26.2969
  42   1.0000      -0.931407       -25.3449
  43   1.0000      -0.930663       -25.3246
  44   1.0000      -0.927526       -25.2393
  45   1.0000      -0.925449       -25.1828
  46   1.0000      -0.924541       -25.1580
  47   1.0000      -0.922427       -25.1005
  48   1.0000      -0.904406       -24.6101
  49   1.0000      -0.796887       -21.6844
  50   1.0000      -0.705534       -19.1986
  51   1.0000      -0.687566       -18.7096
  52   1.0000      -0.640534       -17.4298
  53   1.0000      -0.632399       -17.2084
  54   1.0000      -0.629079       -17.1181
  55   1.0000      -0.606178       -16.4949
  56   1.0000      -0.593666       -16.1545
  57   1.0000      -0.579266       -15.7626
  58   1.0000      -0.578597       -15.7444
  59   1.0000      -0.574296       -15.6274
  60   1.0000      -0.569584       -15.4992
  61   1.0000      -0.568744       -15.4763
  62   1.0000      -0.563689       -15.3388
  63   1.0000      -0.561425       -15.2772
  64   1.0000      -0.560077       -15.2405
  65   1.0000      -0.558646       -15.2015
  66   1.0000      -0.550360       -14.9761
  67   1.0000      -0.546343       -14.8667
  68   1.0000      -0.545443       -14.8422
  69   1.0000      -0.542265       -14.7558
  70   1.0000      -0.541665       -14.7395
  71   1.0000      -0.537627       -14.6296
  72   1.0000      -0.536146       -14.5893
  73   1.0000      -0.533487       -14.5169
  74   1.0000      -0.532585       -14.4924
  75   1.0000      -0.530281       -14.4297
  76   1.0000      -0.509134       -13.8542
  77   1.0000      -0.467962       -12.7339
  78   1.0000      -0.444519       -12.0960
  79   1.0000      -0.441528       -12.0146
  80   1.0000      -0.441352       -12.0098
  81   1.0000      -0.437441       -11.9034
  82   1.0000      -0.434197       -11.8151
  83   1.0000      -0.431925       -11.7533
  84   1.0000      -0.430269       -11.7082
  85   1.0000      -0.422574       -11.4988
  86   1.0000      -0.354737        -9.6529
  87   1.0000      -0.349045        -9.4980
  88   1.0000      -0.342614        -9.3230
  89   0.0000       0.017942         0.4882
  90   0.0000       0.022928         0.6239
  91   0.0000       0.024281         0.6607
  92   0.0000       0.025770         0.7012
  93   0.0000       0.032204         0.8763

MULLIKEN ATOMIC CHARGES AND SPIN POPULATIONS
--------------------------------------------
   0 Si:    0.372395    0.517085
   1 Si:    1.050127   -0.002616
   2 Si:    1.521945    0.014261
   3 Si:    1.118643   -0.070071
   4 C :   -1.387011   -0.003975
   5 H :    0.342794   -0.000506
   6 H :    0.305557   -0.001279
   7 H :    0.395021    0.000147
   8 C :   -1.354854    0.022186
   9 H :    0.327185    0.004981
  10 H :    0.281449    0.005093
  11 H :    0.321007    0.004501
  12 C :   -1.267892   -0.004512
  13 H :    0.342726   -0.000651
  14 H :    0.192859   -0.001025
  15 H :    0.373806    0.001772
  16 C :   -1.183163   -0.006023
  17 H :    0.239184   -0.000480
  18 H :    0.341247    0.000384
  19 H :    0.345637   -0.001578
  20 C :   -1.328826   -0.003385
  21 H :    0.331675    0.000202
  22 H :    0.321964   -0.001072
  23 H :    0.326855    0.000219
  24 C :   -1.234188    0.022029
  25 H :    0.317270    0.003958
  26 H :    0.240739    0.003484
  27 H :    0.320294    0.003653
  28 C :   -1.198208   -0.001532
  29 H :    0.141487   -0.001438
  30 H :    0.312414   -0.000980
  31 H :    0.362315    0.000666
  32 C :   -1.300492    0.021888
  33 H :    0.360773    0.001586
  34 H :    0.257732    0.004395
  35 H :    0.345507    0.003484
  36 C :   -1.157032   -0.004625
  37 H :    0.220833   -0.000477
  38 H :    0.364417   -0.001142
  39 H :    0.336053   -0.003045
  40 H :   -0.746159   -0.274152
  41 S :   -0.301551    0.842312
  42 C :   -0.776509   -0.121499
  43 C :    0.369326    0.008636
  44 O :   -1.166551    0.000243
  45 H :    0.409402    0.004212
  46 H :    0.327126    0.021388
  47 H :   -0.039630   -0.005445
  48 H :    0.474657   -0.001362
  49 H :    0.429644    0.000104
Sum of atomic charges         :   -0.0000000

LOEWDIN ATOMIC CHARGES AND SPIN POPULATIONS
-------------------------------------------
   0 Si:    0.518002    0.167173
   1 Si:    0.131648    0.049165
   2 Si:    0.113559    0.042012
   3 Si:    0.120836    0.042272
   4 C :    0.954753   -0.002538
   5 H :   -0.360043   -0.000283
   6 H :   -0.328523   -0.000633
   7 H :   -0.351162   -0.000855
   8 C :    0.954616    0.010862
   9 H :   -0.346148    0.002437
  10 H :   -0.329724    0.002434
  11 H :   -0.348254    0.002112
  12 C :    0.960628   -0.000840
  13 H :   -0.367873   -0.000259
  14 H :   -0.327280   -0.000370
  15 H :   -0.343594    0.000122
  16 C :    0.954633   -0.000830
  17 H :   -0.329428   -0.000342
  18 H :   -0.352279    0.000156
  19 H :   -0.337353   -0.000350
  20 C :    0.952075   -0.002383
  21 H :   -0.358636   -0.000254
  22 H :   -0.331603   -0.000636
  23 H :   -0.348394   -0.000886
  24 C :    0.955292    0.010151
  25 H :   -0.342795    0.002380
  26 H :   -0.329246    0.002273
  27 H :   -0.351905    0.001798
  28 C :    0.956849   -0.001527
  29 H :   -0.326825   -0.000596
  30 H :   -0.355424    0.000062
  31 H :   -0.349777   -0.000309
  32 C :    0.953823    0.013056
  33 H :   -0.346776    0.003019
  34 H :   -0.328339    0.002926
  35 H :   -0.345474    0.002241
  36 C :    0.955155   -0.000049
  37 H :   -0.328918   -0.000322
  38 H :   -0.354693    0.000167
  39 H :   -0.336041   -0.000184
  40 H :   -0.756971    0.135828
  41 S :    1.434327    0.407413
  42 C :    0.103107    0.082942
  43 C :    0.064263    0.002937
  44 O :    1.278938    0.000373
  45 H :   -0.365884    0.001468
  46 H :   -0.374615    0.021892
  47 H :   -0.397699    0.002832
  48 H :   -0.296720    0.000397
  49 H :   -0.914106    0.001544

  Mayer bond orders larger than 0.100000
B(  0-Si,  1-Si) :   0.6984 B(  0-Si,  2-Si) :   1.2225 B(  0-Si,  3-Si) :   0.5760
B(  0-Si,  4-C ) :  -0.1348 B(  0-Si, 12-C ) :  -0.1559 B(  0-Si, 36-C ) :  -0.1115
B(  0-Si, 40-H ) :  -0.4492 B(  0-Si, 41-S ) :  -0.5176 B(  0-Si, 42-C ) :  -0.1829
B(  0-Si, 47-H ) :  -0.1052 B(  1-Si, 28-C ) :   0.9726 B(  1-Si, 32-C ) :   0.8505
B(  1-Si, 36-C ) :   1.0766 B(  2-Si, 16-C ) :   0.9481 B(  2-Si, 20-C ) :   0.8609
B(  2-Si, 24-C ) :   0.7455 B(  3-Si,  4-C ) :   0.9120 B(  3-Si,  8-C ) :   0.8523
B(  3-Si, 12-C ) :   1.0487 B(  4-C ,  5-H ) :   0.8879 B(  4-C ,  6-H ) :   0.9877
B(  4-C ,  7-H ) :   0.8633 B(  8-C ,  9-H ) :   0.8972 B(  8-C , 10-H ) :   1.0121
B(  8-C , 11-H ) :   0.8872 B( 12-C , 13-H ) :   0.8801 B( 12-C , 14-H ) :   1.1062
B( 12-C , 15-H ) :   0.8090 B( 16-C , 17-H ) :   1.0501 B( 16-C , 18-H ) :   0.8783
B( 16-C , 19-H ) :   0.8806 B( 20-C , 21-H ) :   0.8850 B( 20-C , 22-H ) :   0.9607
B( 20-C , 23-H ) :   0.9165 B( 24-C , 25-H ) :   0.8838 B( 24-C , 26-H ) :   1.0689
B( 24-C , 27-H ) :   0.8683 B( 28-C , 29-H ) :   1.1438 B( 28-C , 30-H ) :   0.8889
B( 28-C , 31-H ) :   0.8061 B( 32-C , 33-H ) :   0.8667 B( 32-C , 34-H ) :   1.0397
B( 32-C , 35-H ) :   0.8660 B( 36-C , 37-H ) :   1.0553 B( 36-C , 38-H ) :   0.8586
B( 36-C , 39-H ) :   0.8901 B( 40-H , 41-S ) :   0.6484 B( 40-H , 47-H ) :   0.1006
B( 41-S , 42-C ) :   0.9614 B( 42-C , 43-C ) :   1.0581 B( 42-C , 44-O ) :   0.1355
B( 42-C , 45-H ) :   0.7833 B( 42-C , 46-H ) :   0.8696 B( 43-C , 44-O ) :   0.2683
B( 43-C , 47-H ) :   0.9672 B( 43-C , 48-H ) :   0.7858 B( 44-O , 49-H ) :   0.7481

MP2 TOTAL ENERGY:    -2067.351147577 Eh
FINAL SINGLE POINT ENERGY     -2067.351147576898

DIPOLE MOMENT
-------------
                                X             Y             Z
Electronic contribution:     -8.81837      -2.63552      -8.45773
Nuclear contribution   :      9.76969       3.26385       8.90482
                        -----------------------------------------
Total Dipole Moment    :      0.95132       0.62833       0.44709
                        -----------------------------------------
Magnitude (a.u.)       :      1.22463
Magnitude (Debye)      :      3.11275

Rotational constants in cm-1:     0.009125     0.007216     0.006980
Rotational constants in MHz :   273.549191   216.334937   209.263112

                             ****ORCA TERMINATED NORMALLY****
TOTAL RUN TIME: 0 days 19 hours 6 minutes 37 seconds 598 msec
