                         Program Version 4.2.1 -  RELEASE  -
|  1> %pal
|  2>  nprocs 32
|  3> end
|  4> !RI-MP2 aug-cc-pVQZ aug-cc-pVQZ/C TightSCF
|  5> %maxcore 4500
|  6> *xyzfile 0 1  10_35TS.xyz
|  7>
|  8>
|  9>                          ****END OF INPUT****

CARTESIAN COORDINATES (ANGSTROEM)
---------------------------------
  C      0.954223    1.514231    0.721243
  H      0.737886    1.875641    1.744383
  C      1.937795    0.368486    0.787091
  C      0.088967   -1.213774    0.167326
  H     -0.179996   -1.475770   -0.858972
  H     -0.101615   -2.097435    0.783456
  C     -0.812663   -0.064513    0.624312
  H     -0.762112    0.006197    1.728636
  N     -0.276791    1.162158    0.042341
  C      2.442346   -1.618408   -0.527681
  C      3.232475    0.622441    1.221353
  H      3.668913   -0.073066    1.914185
  H      3.528811    1.656554    1.387683
  C      3.728483   -1.242635   -0.905686
  C      4.637862   -0.486730   -0.174748
  C      1.557113   -0.863970    0.250685
  H      4.907817   -0.845492    0.801709
  H      3.970915   -1.430666   -1.952063
  C      5.737437    0.267137   -0.872811
  H      6.030721    1.147760   -0.298310
  H      6.631973   -0.355705   -0.982747
  H      5.428235    0.601731   -1.864100
  C     -1.220785    2.262172    0.033053
  H     -1.589671    2.488489    1.050678
  H     -0.703251    3.153555   -0.328530
  C     -2.260362   -0.316864    0.255838
  C     -3.005155    0.610855   -0.470564
  C     -2.384544    1.920573   -0.876918
  H     -2.019809    1.857587   -1.906681
  H     -3.136694    2.712866   -0.844773
  H      1.430323    2.343852    0.187796
  C     -4.330752    0.322895   -0.790748
  H     -4.904936    1.051487   -1.353462
  C     -2.870296   -1.501753    0.667894
  H     -2.305616   -2.217800    1.253653
  C     -4.922734   -0.863611   -0.395371
  H     -5.954813   -1.069554   -0.652293
  C     -4.187268   -1.779984    0.346222
  H     -4.640846   -2.706982    0.675663
  H      1.968457   -2.377640   -1.145238

 Total Charge           Charge          ....    0
 Multiplicity           Mult            ....    1
 Number of Electrons    NEL             ....  136
 Basis Dimension        Dim             .... 2486

ORBITAL ENERGIES
----------------

  NO   OCC          E(Eh)            E(eV)
   0   2.0000     -15.542682      -422.9379
   1   2.0000     -11.257523      -306.3328
   2   2.0000     -11.250328      -306.1370
   3   2.0000     -11.246771      -306.0402
   4   2.0000     -11.244477      -305.9778
   5   2.0000     -11.232639      -305.6557
   6   2.0000     -11.231412      -305.6223
   7   2.0000     -11.227587      -305.5182
   8   2.0000     -11.226781      -305.4962
   9   2.0000     -11.226691      -305.4938
  10   2.0000     -11.226046      -305.4762
  11   2.0000     -11.225502      -305.4614
  12   2.0000     -11.225062      -305.4495
  13   2.0000     -11.224747      -305.4409
  14   2.0000     -11.224355      -305.4302
  15   2.0000     -11.221767      -305.3598
  16   2.0000     -11.218754      -305.2778
  17   2.0000     -11.218558      -305.2725
  18   2.0000     -11.217911      -305.2549
  19   2.0000      -1.252347       -34.0781
  20   2.0000      -1.155214       -31.4350
  21   2.0000      -1.126996       -30.6671
  22   2.0000      -1.072671       -29.1889
  23   2.0000      -1.058360       -28.7994
  24   2.0000      -1.047832       -28.5130
  25   2.0000      -1.013089       -27.5675
  26   2.0000      -0.994857       -27.0714
  27   2.0000      -0.965372       -26.2691
  28   2.0000      -0.925458       -25.1830
  29   2.0000      -0.888590       -24.1798
  30   2.0000      -0.855749       -23.2861
  31   2.0000      -0.836407       -22.7598
  32   2.0000      -0.823748       -22.4153
  33   2.0000      -0.808365       -21.9967
  34   2.0000      -0.766187       -20.8490
  35   2.0000      -0.744573       -20.2609
  36   2.0000      -0.693040       -18.8586
  37   2.0000      -0.673165       -18.3178
  38   2.0000      -0.666832       -18.1454
  39   2.0000      -0.652097       -17.7445
  40   2.0000      -0.639520       -17.4022
  41   2.0000      -0.628876       -17.1126
  42   2.0000      -0.623348       -16.9622
  43   2.0000      -0.608310       -16.5530
  44   2.0000      -0.592122       -16.1125
  45   2.0000      -0.587166       -15.9776
  46   2.0000      -0.586162       -15.9503
  47   2.0000      -0.571441       -15.5497
  48   2.0000      -0.563708       -15.3393
  49   2.0000      -0.561421       -15.2770
  50   2.0000      -0.548447       -14.9240
  51   2.0000      -0.535780       -14.5793
  52   2.0000      -0.526823       -14.3356
  53   2.0000      -0.524257       -14.2658
  54   2.0000      -0.521681       -14.1957
  55   2.0000      -0.512087       -13.9346
  56   2.0000      -0.500281       -13.6133
  57   2.0000      -0.492056       -13.3895
  58   2.0000      -0.480962       -13.0876
  59   2.0000      -0.474895       -12.9225
  60   2.0000      -0.455407       -12.3923
  61   2.0000      -0.448721       -12.2103
  62   2.0000      -0.429983       -11.7004
  63   2.0000      -0.360958        -9.8222
  64   2.0000      -0.327106        -8.9010
  65   2.0000      -0.320106        -8.7105
  66   2.0000      -0.300535        -8.1780
  67   2.0000      -0.283770        -7.7218
  68   0.0000       0.022330         0.6076
  69   0.0000       0.024990         0.6800
  70   0.0000       0.026423         0.7190
  71   0.0000       0.029305         0.7974
  72   0.0000       0.033454         0.9103

MULLIKEN ATOMIC CHARGES
-----------------------
   0 C :   -0.150267
   1 H :    0.238949
   2 C :    0.212095
   3 C :    0.022384
   4 H :    0.278861
   5 H :    0.117776
   6 C :    1.351021
   7 H :    0.135982
   8 N :   -0.201454
   9 C :   -0.473745
  10 C :   -0.923455
  11 H :    0.293235
  12 H :    0.158228
  13 C :   -0.580211
  14 C :    0.009435
  15 C :   -0.136424
  16 H :    0.325055
  17 H :    0.303885
  18 C :   -0.922247
  19 H :    0.239729
  20 H :    0.289986
  21 H :    0.248952
  22 C :   -0.703823
  23 H :    0.260868
  24 H :    0.222714
  25 C :    0.577602
  26 C :    0.339015
  27 C :   -0.694326
  28 H :    0.221684
  29 H :    0.195106
  30 H :    0.144112
  31 C :   -0.676985
  32 H :    0.230524
  33 C :   -0.814884
  34 H :    0.094086
  35 C :   -0.406472
  36 H :    0.269650
  37 C :   -0.436343
  38 H :    0.216893
  39 H :    0.122811
Sum of atomic charges:   -0.0000000

LOEWDIN ATOMIC CHARGES
----------------------
   0 C :    0.332118
   1 H :   -0.256407
   2 C :   -0.038019
   3 C :    0.502110
   4 H :   -0.269464
   5 H :   -0.272663
   6 C :   -0.057764
   7 H :   -0.257747
   8 N :    0.534769
   9 C :    0.381000
  10 C :    0.739781
  11 H :   -0.362563
  12 H :   -0.284538
  13 C :    0.363916
  14 C :    0.316244
  15 C :   -0.018698
  16 H :   -0.370496
  17 H :   -0.323595
  18 C :    0.917768
  19 H :   -0.293343
  20 H :   -0.281134
  21 H :   -0.299225
  22 C :    0.352737
  23 H :   -0.239852
  24 H :   -0.273662
  25 C :   -0.031990
  26 C :   -0.038457
  27 C :    0.524120
  28 H :   -0.255420
  29 H :   -0.274540
  30 H :   -0.278053
  31 C :    0.357899
  32 H :   -0.313068
  33 C :    0.358457
  34 H :   -0.318348
  35 C :    0.348694
  36 H :   -0.320966
  37 C :    0.355940
  38 H :   -0.319871
  39 H :   -0.335669

  Mayer bond orders larger than 0.100000
B(  0-C ,  1-H ) :   1.0292 B(  0-C ,  2-C ) :   0.3330 B(  0-C ,  8-N ) :   1.0762
B(  0-C , 10-C ) :  -0.2938 B(  0-C , 15-C ) :  -0.1417 B(  0-C , 30-H ) :   1.0980
B(  1-H ,  2-C ) :  -0.1246 B(  2-C ,  3-C ) :  -0.1521 B(  2-C ,  9-C ) :  -0.2190
B(  2-C , 10-C ) :   1.2114 B(  2-C , 11-H ) :  -0.1513 B(  2-C , 12-H ) :  -0.1873
B(  2-C , 13-C ) :   0.1143 B(  2-C , 15-C ) :   1.0908 B(  3-C ,  4-H ) :   1.0028
B(  3-C ,  5-H ) :   1.0273 B(  3-C ,  6-C ) :   0.6764 B(  3-C ,  8-N ) :   0.1143
B(  3-C ,  9-C ) :  -0.6277 B(  3-C , 25-C ) :  -0.1294 B(  3-C , 33-C ) :   0.1563
B(  5-H ,  6-C ) :  -0.1057 B(  6-C ,  7-H ) :   1.0683 B(  6-C ,  8-N ) :   0.4660
B(  6-C , 15-C ) :  -0.1170 B(  6-C , 25-C ) :  -0.1049 B(  6-C , 26-C ) :  -0.4916
B(  6-C , 33-C ) :  -0.6709 B(  8-N , 22-C ) :   0.6881 B(  8-N , 23-H ) :  -0.1193
B(  9-C , 10-C ) :   0.1910 B(  9-C , 13-C ) :   1.0941 B(  9-C , 14-C ) :  -0.2452
B(  9-C , 15-C ) :   1.4807 B(  9-C , 17-H ) :  -0.1303 B(  9-C , 39-H ) :   1.1659
B( 10-C , 11-H ) :   1.0191 B( 10-C , 12-H ) :   1.1720 B( 10-C , 14-C ) :   0.3818
B( 13-C , 14-C ) :   1.2327 B( 13-C , 17-H ) :   0.9684 B( 13-C , 39-H ) :  -0.1665
B( 14-C , 15-C ) :   0.2182 B( 14-C , 16-H ) :   0.8977 B( 14-C , 18-C ) :   0.6996
B( 14-C , 19-H ) :  -0.1017 B( 18-C , 19-H ) :   1.0234 B( 18-C , 20-H ) :   0.9894
B( 18-C , 21-H ) :   0.9670 B( 22-C , 23-H ) :   0.9699 B( 22-C , 24-H ) :   1.0113
B( 22-C , 27-C ) :   1.1948 B( 25-C , 26-C ) :   1.1233 B( 25-C , 27-C ) :  -0.1140
B( 25-C , 31-C ) :  -0.5536 B( 25-C , 33-C ) :   1.0550 B( 25-C , 34-H ) :  -0.1234
B( 25-C , 37-C ) :  -0.3359 B( 26-C , 27-C ) :   0.3931 B( 26-C , 29-H ) :  -0.1650
B( 26-C , 31-C ) :   1.0498 B( 26-C , 32-H ) :  -0.1062 B( 26-C , 33-C ) :  -0.1093
B( 26-C , 35-C ) :  -0.2510 B( 27-C , 28-H ) :   1.0225 B( 27-C , 29-H ) :   1.1358
B( 31-C , 32-H ) :   1.0598 B( 31-C , 33-C ) :   0.1895 B( 31-C , 35-C ) :   1.2673
B( 31-C , 36-H ) :  -0.1963 B( 31-C , 37-C ) :   0.1147 B( 33-C , 34-H ) :   1.2647
B( 33-C , 37-C ) :   1.2539 B( 33-C , 38-H ) :  -0.1814 B( 35-C , 36-H ) :   1.1370
B( 35-C , 37-C ) :   1.1933 B( 36-H , 37-C ) :  -0.1150 B( 37-C , 38-H ) :   1.1922

MP2 TOTAL ENERGY:     -751.851395458 Eh
FINAL SINGLE POINT ENERGY      -751.851395457862

DIPOLE MOMENT
-------------
                                X             Y             Z
Electronic contribution:    -11.97545      -3.92757       0.79958
Nuclear contribution   :     12.19621       4.32086      -0.66968
                        -----------------------------------------
Total Dipole Moment    :      0.22076       0.39328       0.12990
                        -----------------------------------------
Magnitude (a.u.)       :      0.46934
Magnitude (Debye)      :      1.19297

Rotational constants in cm-1:     0.032870     0.006473     0.005869
Rotational constants in MHz :   985.414262   194.066268   175.955089

                             ****ORCA TERMINATED NORMALLY****
TOTAL RUN TIME: 0 days 7 hours 48 minutes 23 seconds 585 msec
