                         Program Version 4.2.1 -  RELEASE  -
|  1> %pal
|  2>  nprocs 32
|  3> end
|  4> !RI-MP2 aug-cc-pVQZ aug-cc-pVQZ/C TightSCF
|  5> %maxcore 4500
|  6> *xyzfile 0 1  02_8TS.xyz
|  7>
|  8>
|  9>                          ****END OF INPUT****

CARTESIAN COORDINATES (ANGSTROEM)
---------------------------------
  C      2.122964    0.519120   -1.910335
  C      0.891906    1.174468   -2.110603
  C      0.431781    2.166710   -1.308421
  C      0.774900    0.277508    0.820338
  C      2.071058   -0.255281    0.612826
  C      2.957386    0.739354   -0.821943
  C      2.323412   -1.731881    0.342500
  C      3.814954   -2.032438    0.178495
  C      4.379545    0.214421   -0.817530
  C      4.480674   -1.298518   -0.977886
  C      1.764667   -2.548357    1.512539
  C     -0.903097    2.804393   -1.460879
  C      0.699746    1.449067    1.671230
  C     -1.717381    0.206732    0.698969
  C     -1.722928    1.224296    1.581354
  N     -0.582183    1.836547    2.031172
  O      1.663534    2.095011    2.072773
  C     -0.417511   -0.324345    0.241620
  O     -0.344518   -1.229271   -0.591807
  C     -2.987208   -0.347279    0.184207
  C     -4.044578    0.501168   -0.147656
  C     -3.167958   -1.723316    0.029434
  C     -5.257745   -0.006045   -0.591542
  C     -4.378059   -2.229402   -0.416987
  C     -5.429456   -1.375542   -0.726400
  H      2.771489    0.162315    1.335763
  H      2.842364    1.687899   -0.306795
  H      1.096236    2.619962   -0.582544
  H      1.787003   -2.025626   -0.557882
  H      4.335302   -1.779494    1.111481
  H      3.933931   -3.111126    0.043654
  H      4.941823    0.721679   -1.607393
  H      4.850439    0.504035    0.126390
  H      5.534570   -1.582333   -1.037567
  H      4.027544   -1.612339   -1.924044
  H      2.218442   -2.239279    2.458749
  H      0.685075   -2.432659    1.595236
  H      1.983048   -3.608859    1.366277
  H     -1.403137    2.887768   -0.493514
  H     -0.789309    3.824565   -1.843109
  H     -1.547651    2.244378   -2.138593
  H      0.242121    0.792690   -2.890512
  H      2.369648   -0.281545   -2.599654
  H     -2.646334    1.627076    1.977863
  H     -0.634613    2.612275    2.673871
  H     -3.909935    1.574463   -0.076500
  H     -2.349237   -2.392423    0.251869
  H     -6.064406    0.671958   -0.844232
  H     -4.500976   -3.300429   -0.526434
  H     -6.372719   -1.775689   -1.078283

 Total Charge           Charge          ....    0
 Multiplicity           Mult            ....    1
 Number of Electrons    NEL             ....  180
 Basis Dimension        Dim             .... 3150

ORBITAL ENERGIES
----------------

  NO   OCC          E(Eh)            E(eV)
   0   2.0000     -20.502484      -557.9009
   1   2.0000     -20.493678      -557.6613
   2   2.0000     -15.602839      -424.5748
   3   2.0000     -11.341702      -308.6234
   4   2.0000     -11.306333      -307.6610
   5   2.0000     -11.294760      -307.3460
   6   2.0000     -11.277075      -306.8648
   7   2.0000     -11.275958      -306.8344
   8   2.0000     -11.271726      -306.7193
   9   2.0000     -11.248751      -306.0941
  10   2.0000     -11.237559      -305.7895
  11   2.0000     -11.236819      -305.7694
  12   2.0000     -11.236207      -305.7527
  13   2.0000     -11.232878      -305.6621
  14   2.0000     -11.226213      -305.4808
  15   2.0000     -11.226103      -305.4778
  16   2.0000     -11.225004      -305.4479
  17   2.0000     -11.224365      -305.4305
  18   2.0000     -11.223392      -305.4040
  19   2.0000     -11.223057      -305.3949
  20   2.0000     -11.221992      -305.3659
  21   2.0000     -11.217867      -305.2537
  22   2.0000     -11.217383      -305.2405
  23   2.0000     -11.210894      -305.0639
  24   2.0000     -11.204664      -304.8944
  25   2.0000      -1.374824       -37.4109
  26   2.0000      -1.344826       -36.5946
  27   2.0000      -1.261848       -34.3366
  28   2.0000      -1.152276       -31.3550
  29   2.0000      -1.151654       -31.3381
  30   2.0000      -1.112454       -30.2714
  31   2.0000      -1.079276       -29.3686
  32   2.0000      -1.068846       -29.0848
  33   2.0000      -1.051880       -28.6231
  34   2.0000      -1.016568       -27.6622
  35   2.0000      -1.007718       -27.4214
  36   2.0000      -0.988038       -26.8859
  37   2.0000      -0.968981       -26.3673
  38   2.0000      -0.920503       -25.0482
  39   2.0000      -0.904530       -24.6135
  40   2.0000      -0.864461       -23.5232
  41   2.0000      -0.842265       -22.9192
  42   2.0000      -0.827998       -22.5310
  43   2.0000      -0.818745       -22.2792
  44   2.0000      -0.810979       -22.0679
  45   2.0000      -0.790647       -21.5146
  46   2.0000      -0.774301       -21.0698
  47   2.0000      -0.733711       -19.9653
  48   2.0000      -0.723850       -19.6970
  49   2.0000      -0.703185       -19.1346
  50   2.0000      -0.686955       -18.6930
  51   2.0000      -0.680759       -18.5244
  52   2.0000      -0.658880       -17.9290
  53   2.0000      -0.647037       -17.6068
  54   2.0000      -0.631250       -17.1772
  55   2.0000      -0.629476       -17.1289
  56   2.0000      -0.623167       -16.9572
  57   2.0000      -0.617052       -16.7908
  58   2.0000      -0.609565       -16.5871
  59   2.0000      -0.606431       -16.5018
  60   2.0000      -0.598864       -16.2959
  61   2.0000      -0.586671       -15.9641
  62   2.0000      -0.579233       -15.7617
  63   2.0000      -0.577901       -15.7255
  64   2.0000      -0.574526       -15.6337
  65   2.0000      -0.570088       -15.5129
  66   2.0000      -0.561607       -15.2821
  67   2.0000      -0.549909       -14.9638
  68   2.0000      -0.544976       -14.8295
  69   2.0000      -0.539461       -14.6795
  70   2.0000      -0.529544       -14.4096
  71   2.0000      -0.517256       -14.0753
  72   2.0000      -0.515588       -14.0299
  73   2.0000      -0.504296       -13.7226
  74   2.0000      -0.502047       -13.6614
  75   2.0000      -0.492619       -13.4048
  76   2.0000      -0.490260       -13.3407
  77   2.0000      -0.486377       -13.2350
  78   2.0000      -0.484568       -13.1858
  79   2.0000      -0.471096       -12.8192
  80   2.0000      -0.461899       -12.5689
  81   2.0000      -0.456382       -12.4188
  82   2.0000      -0.434997       -11.8369
  83   2.0000      -0.422389       -11.4938
  84   2.0000      -0.388875       -10.5818
  85   2.0000      -0.364930        -9.9302
  86   2.0000      -0.356397        -9.6981
  87   2.0000      -0.329190        -8.9577
  88   2.0000      -0.296979        -8.0812
  89   2.0000      -0.288313        -7.8454
  90   0.0000       0.018050         0.4912
  91   0.0000       0.021006         0.5716
  92   0.0000       0.025149         0.6843
  93   0.0000       0.026825         0.7300
  94   0.0000       0.029613         0.8058

MULLIKEN ATOMIC CHARGES
-----------------------
   0 C :   -0.108445
   1 C :   -0.447156
   2 C :    0.116359
   3 C :   -1.334954
   4 C :    2.285705
   5 C :    0.531928
   6 C :    0.551054
   7 C :   -0.756044
   8 C :   -0.890207
   9 C :   -0.525970
  10 C :   -1.399387
  11 C :   -1.098757
  12 C :    1.937762
  13 C :   -0.076731
  14 C :    0.284666
  15 N :   -1.152358
  16 O :   -1.331583
  17 C :    1.842646
  18 O :   -1.316594
  19 C :    0.728745
  20 C :   -0.736500
  21 C :   -0.953233
  22 C :   -0.297487
  23 C :   -0.321888
  24 C :   -0.444752
  25 H :    0.220257
  26 H :    0.396354
  27 H :    0.324492
  28 H :    0.161745
  29 H :    0.137741
  30 H :    0.127449
  31 H :    0.122181
  32 H :    0.088350
  33 H :    0.172838
  34 H :    0.123693
  35 H :    0.140757
  36 H :    0.351340
  37 H :    0.170102
  38 H :    0.259457
  39 H :    0.290851
  40 H :    0.246737
  41 H :    0.029055
  42 H :    0.173959
  43 H :    0.262514
  44 H :   -0.143411
  45 H :    0.209263
  46 H :    0.247593
  47 H :    0.237286
  48 H :    0.201037
  49 H :    0.361540
Sum of atomic charges:    0.0000000

LOEWDIN ATOMIC CHARGES
----------------------
   0 C :    0.423709
   1 C :    0.399152
   2 C :    0.393622
   3 C :   -0.151689
   4 C :    0.207073
   5 C :    0.273032
   6 C :    0.127804
   7 C :    0.537537
   8 C :    0.549956
   9 C :    0.553152
  10 C :    0.947569
  11 C :    0.943819
  12 C :   -0.878866
  13 C :   -0.112018
  14 C :    0.210963
  15 N :    0.836081
  16 O :    0.740844
  17 C :   -0.734535
  18 O :    0.791132
  19 C :   -0.124508
  20 C :    0.322926
  21 C :    0.338346
  22 C :    0.344631
  23 C :    0.351694
  24 C :    0.334045
  25 H :   -0.350837
  26 H :   -0.341226
  27 H :   -0.339710
  28 H :   -0.345035
  29 H :   -0.256222
  30 H :   -0.257651
  31 H :   -0.251163
  32 H :   -0.263066
  33 H :   -0.252587
  34 H :   -0.272784
  35 H :   -0.255931
  36 H :   -0.293703
  37 H :   -0.262040
  38 H :   -0.318763
  39 H :   -0.263468
  40 H :   -0.284734
  41 H :   -0.310878
  42 H :   -0.281393
  43 H :   -0.294210
  44 H :   -0.484455
  45 H :   -0.331531
  46 H :   -0.348224
  47 H :   -0.322030
  48 H :   -0.319729
  49 H :   -0.324101

  Mayer bond orders larger than 0.100000
B(  0-C ,  1-C ) :   0.7189 B(  0-C ,  2-C ) :  -0.2115 B(  0-C ,  4-C ) :  -0.1039
B(  0-C ,  5-C ) :   0.9056 B(  0-C ,  8-C ) :  -0.1571 B(  0-C , 41-H ) :  -0.2849
B(  0-C , 42-H ) :   1.2217 B(  1-C ,  2-C ) :   1.2261 B(  1-C ,  5-C ) :  -0.3621
B(  1-C , 17-C ) :   0.1950 B(  1-C , 41-H ) :   1.3242 B(  1-C , 42-H ) :  -0.2633
B(  2-C , 11-C ) :   0.4522 B(  2-C , 17-C ) :   0.1756 B(  2-C , 27-H ) :   0.9651
B(  2-C , 38-H ) :  -0.1518 B(  2-C , 39-H ) :  -0.1407 B(  2-C , 40-H ) :  -0.1789
B(  2-C , 41-H ) :  -0.1161 B(  3-C ,  4-C ) :  -1.3732 B(  3-C ,  5-C ) :   0.1876
B(  3-C ,  6-C ) :   0.3380 B(  3-C , 12-C ) :   1.0778 B(  3-C , 13-C ) :  -0.3157
B(  3-C , 15-N ) :  -0.3570 B(  3-C , 16-O ) :   1.1936 B(  3-C , 17-C ) :   1.1123
B(  3-C , 18-O ) :   0.6581 B(  3-C , 25-H ) :  -0.3171 B(  3-C , 28-H ) :  -0.1462
B(  4-C ,  5-C ) :   0.1195 B(  4-C ,  6-C ) :   0.5266 B(  4-C ,  7-C ) :  -0.2537
B(  4-C ,  8-C ) :  -0.1035 B(  4-C , 10-C ) :  -0.2075 B(  4-C , 12-C ) :  -0.5024
B(  4-C , 14-C ) :   0.1354 B(  4-C , 15-N ) :  -0.2759 B(  4-C , 16-O ) :  -0.3158
B(  4-C , 17-C ) :  -0.2586 B(  4-C , 25-H ) :   1.0785 B(  4-C , 28-H ) :   0.1906
B(  5-C ,  6-C ) :   0.1257 B(  5-C ,  8-C ) :   0.1667 B(  5-C ,  9-C ) :  -0.2192
B(  5-C , 26-H ) :   1.0298 B(  5-C , 31-H ) :  -0.1630 B(  5-C , 32-H ) :  -0.3005
B(  6-C ,  9-C ) :  -0.2190 B(  6-C , 10-C ) :   0.2418 B(  6-C , 18-O ) :  -0.1739
B(  6-C , 25-H ) :  -0.1106 B(  6-C , 28-H ) :   0.9505 B(  6-C , 29-H ) :  -0.2031
B(  6-C , 30-H ) :  -0.2258 B(  6-C , 35-H ) :  -0.2109 B(  6-C , 36-H ) :  -0.1094
B(  6-C , 37-H ) :  -0.2110 B(  7-C ,  9-C ) :   0.8571 B(  7-C , 10-C ) :   0.2909
B(  7-C , 29-H ) :   1.2102 B(  7-C , 30-H ) :   1.2035 B(  8-C ,  9-C ) :   0.8912
B(  8-C , 26-H ) :  -0.1587 B(  8-C , 31-H ) :   1.2338 B(  8-C , 32-H ) :   1.4482
B(  9-C , 33-H ) :   1.0666 B(  9-C , 34-H ) :   1.1124 B( 10-C , 35-H ) :   1.2405
B( 10-C , 36-H ) :   0.9183 B( 10-C , 37-H ) :   1.2047 B( 11-C , 38-H ) :   1.0140
B( 11-C , 39-H ) :   1.0592 B( 11-C , 40-H ) :   1.0620 B( 12-C , 14-C ) :   0.2097
B( 12-C , 15-N ) :   1.2223 B( 12-C , 16-O ) :  -0.7069 B( 12-C , 17-C ) :   0.1127
B( 12-C , 28-H ) :   0.1352 B( 12-C , 44-H ) :  -0.4284 B( 13-C , 14-C ) :   1.6597
B( 13-C , 17-C ) :   1.0632 B( 13-C , 18-O ) :   0.3971 B( 13-C , 20-C ) :  -0.2970
B( 13-C , 21-C ) :  -0.4126 B( 13-C , 43-H ) :  -0.1570 B( 13-C , 46-H ) :   0.1186
B( 14-C , 15-N ) :   0.8515 B( 14-C , 17-C ) :  -0.1593 B( 14-C , 19-C ) :  -0.3634
B( 14-C , 43-H ) :   1.0500 B( 14-C , 44-H ) :  -0.2757 B( 15-N , 16-O ) :   0.5230
B( 15-N , 44-H ) :   1.5638 B( 17-C , 19-C ) :  -0.3372 B( 17-C , 21-C ) :  -0.1937
B( 18-O , 19-C ) :  -0.1131 B( 19-C , 20-C ) :   0.8615 B( 19-C , 21-C ) :   1.1873
B( 19-C , 22-C ) :  -0.4651 B( 19-C , 23-C ) :  -0.4398 B( 19-C , 49-H ) :   0.1201
B( 20-C , 21-C ) :   0.1982 B( 20-C , 22-C ) :   1.3518 B( 20-C , 23-C ) :   0.1377
B( 20-C , 24-C ) :   0.1519 B( 20-C , 45-H ) :   1.0484 B( 20-C , 47-H ) :  -0.1483
B( 20-C , 49-H ) :  -0.1202 B( 21-C , 22-C ) :   0.1749 B( 21-C , 23-C ) :   1.3533
B( 21-C , 46-H ) :   1.0117 B( 21-C , 48-H ) :  -0.1240 B( 21-C , 49-H ) :  -0.1394
B( 22-C , 24-C ) :   1.1354 B( 22-C , 47-H ) :   1.1477 B( 23-C , 24-C ) :   1.1359
B( 23-C , 48-H ) :   1.1975 B( 24-C , 49-H ) :   0.9944

MP2 TOTAL ENERGY:    -1056.749406430 Eh
FINAL SINGLE POINT ENERGY     -1056.749406429603

DIPOLE MOMENT
-------------
                                X             Y             Z
Electronic contribution:    -13.42800       4.94813       4.94951
Nuclear contribution   :     13.52234      -4.21884      -5.57360
                        -----------------------------------------
Total Dipole Moment    :      0.09434       0.72930      -0.62409
                        -----------------------------------------
Magnitude (a.u.)       :      0.96450
Magnitude (Debye)      :      2.45157

Rotational constants in cm-1:     0.013196     0.005199     0.004752
Rotational constants in MHz :   395.603483   155.862749   142.475723

                             ****ORCA TERMINATED NORMALLY****
TOTAL RUN TIME: 0 days 21 hours 47 minutes 12 seconds 891 msec
