                         Program Version 4.2.1 -  RELEASE  -
|  1> %pal
|  2>  nprocs 32
|  3> end
|  4> !RI-MP2 aug-cc-pVQZ aug-cc-pVQZ/C TightSCF
|  5> %maxcore 4500
|  6> *xyzfile 0 1  10_60TS.xyz
|  7>
|  8>
|  9>                          ****END OF INPUT****

CARTESIAN COORDINATES (ANGSTROEM)
---------------------------------
  C      0.662918    0.838661    1.741357
  C     -0.015770    2.081044    0.520303
  C     -0.077619    1.346659   -0.690552
  C     -1.048269    0.235060   -0.624014
  C     -0.432022   -0.882012    0.476665
  C      0.856064   -0.353805    0.989448
  C      1.130020    0.961253   -1.284425
  F     -1.221970   -0.417288   -1.793398
  F     -1.367941   -1.028622    1.442501
  C      1.830781   -0.313296   -0.002447
  C      3.002660   -0.784094   -0.355721
  F     -0.327299   -2.059432   -0.170060
  H      1.938126    1.684847   -1.275170
  F     -2.271157    0.598014   -0.176386
  H      3.495590   -0.474828   -1.268967
  H      3.507461   -1.513779    0.265917
  H      1.089098    0.331734   -2.165947
  H      1.569423    1.323001    2.087856
  H     -0.123977    0.802809    2.486663
  H      0.727470    2.871109    0.551331
  H     -0.960467    2.364237    0.970728

 Total Charge           Charge          ....    0
 Multiplicity           Mult            ....    1
 Number of Electrons    NEL             ....   98
 Basis Dimension        Dim             .... 1408

ORBITAL ENERGIES
----------------

  NO   OCC          E(Eh)            E(eV)
   0   2.0000     -26.317354      -716.1316
   1   2.0000     -26.317282      -716.1296
   2   2.0000     -26.316522      -716.1090
   3   2.0000     -26.314603      -716.0568
   4   2.0000     -11.430084      -311.0284
   5   2.0000     -11.429200      -311.0043
   6   2.0000     -11.284157      -307.0575
   7   2.0000     -11.269443      -306.6571
   8   2.0000     -11.267700      -306.6097
   9   2.0000     -11.267166      -306.5952
  10   2.0000     -11.259797      -306.3946
  11   2.0000     -11.256733      -306.3113
  12   2.0000     -11.251539      -306.1699
  13   2.0000      -1.684488       -45.8373
  14   2.0000      -1.663402       -45.2635
  15   2.0000      -1.617198       -44.0062
  16   2.0000      -1.603439       -43.6318
  17   2.0000      -1.192931       -32.4613
  18   2.0000      -1.099356       -29.9150
  19   2.0000      -1.050375       -28.5822
  20   2.0000      -1.007717       -27.4214
  21   2.0000      -0.956225       -26.0202
  22   2.0000      -0.906793       -24.6751
  23   2.0000      -0.870694       -23.6928
  24   2.0000      -0.825003       -22.4495
  25   2.0000      -0.806773       -21.9534
  26   2.0000      -0.786244       -21.3948
  27   2.0000      -0.774780       -21.0828
  28   2.0000      -0.753147       -20.4942
  29   2.0000      -0.734292       -19.9811
  30   2.0000      -0.698054       -18.9950
  31   2.0000      -0.689787       -18.7701
  32   2.0000      -0.686225       -18.6731
  33   2.0000      -0.664343       -18.0777
  34   2.0000      -0.655861       -17.8469
  35   2.0000      -0.651788       -17.7360
  36   2.0000      -0.640910       -17.4401
  37   2.0000      -0.631333       -17.1794
  38   2.0000      -0.626663       -17.0524
  39   2.0000      -0.609748       -16.5921
  40   2.0000      -0.594900       -16.1881
  41   2.0000      -0.587897       -15.9975
  42   2.0000      -0.560206       -15.2440
  43   2.0000      -0.551203       -14.9990
  44   2.0000      -0.524366       -14.2687
  45   2.0000      -0.468897       -12.7593
  46   2.0000      -0.407535       -11.0896
  47   2.0000      -0.396467       -10.7884
  48   2.0000      -0.321094        -8.7374
  49   0.0000       0.018728         0.5096
  50   0.0000       0.024294         0.6611
  51   0.0000       0.028320         0.7706
  52   0.0000       0.033723         0.9177
  53   0.0000       0.037859         1.0302

MULLIKEN ATOMIC CHARGES
-----------------------
   0 C :   -0.705039
   1 C :   -0.709522
   2 C :   -0.085661
   3 C :    1.675032
   4 C :    1.577666
   5 C :   -0.044435
   6 C :   -0.640658
   7 F :   -0.776815
   8 F :   -0.763192
   9 C :    0.329729
  10 C :   -0.900487
  11 F :   -0.770273
  12 H :    0.288961
  13 F :   -0.777465
  14 H :    0.311558
  15 H :    0.275398
  16 H :    0.331550
  17 H :    0.344325
  18 H :    0.365830
  19 H :    0.310616
  20 H :    0.362882
Sum of atomic charges:    0.0000000

LOEWDIN ATOMIC CHARGES
----------------------
   0 C :    0.588855
   1 C :    0.602969
   2 C :   -0.132218
   3 C :   -1.536407
   4 C :   -1.549976
   5 C :   -0.157297
   6 C :    0.592119
   7 F :    0.809811
   8 F :    0.806401
   9 C :    0.005605
  10 C :    0.802202
  11 F :    0.804903
  12 H :   -0.287177
  13 F :    0.805976
  14 H :   -0.350822
  15 H :   -0.344052
  16 H :   -0.303642
  17 H :   -0.278129
  18 H :   -0.301506
  19 H :   -0.281170
  20 H :   -0.296444

  Mayer bond orders larger than 0.100000
B(  0-C ,  1-C ) :   0.5373 B(  0-C ,  5-C ) :   1.3577 B(  0-C ,  9-C ) :  -0.2986
B(  0-C , 17-H ) :   0.9152 B(  0-C , 18-H ) :   0.9076 B(  1-C ,  2-C ) :   1.2514
B(  1-C ,  6-C ) :  -0.1727 B(  1-C , 19-H ) :   0.9568 B(  1-C , 20-H ) :   0.9148
B(  2-C ,  3-C ) :   0.9016 B(  2-C ,  5-C ) :   0.2875 B(  2-C ,  6-C ) :   1.3049
B(  2-C , 20-H ) :  -0.1068 B(  3-C ,  4-C ) :   0.8743 B(  3-C ,  7-F ) :   0.1343
B(  3-C , 13-F ) :   0.1957 B(  4-C ,  5-C ) :   1.0778 B(  4-C ,  8-F ) :   0.1721
B(  4-C , 11-F ) :   0.2038 B(  5-C ,  9-C ) :   0.9289 B(  5-C , 10-C ) :  -0.1916
B(  6-C ,  9-C ) :   0.3953 B(  6-C , 12-H ) :   0.9751 B(  6-C , 16-H ) :   0.9518
B(  9-C , 10-C ) :   1.2772 B(  9-C , 14-H ) :  -0.1323 B(  9-C , 15-H ) :  -0.2211
B( 10-C , 14-H ) :   1.0212 B( 10-C , 15-H ) :   1.1354

MP2 TOTAL ENERGY:     -746.055845330 Eh
FINAL SINGLE POINT ENERGY      -746.055845330173

DIPOLE MOMENT
-------------
                                X             Y             Z
Electronic contribution:    -14.16859      -8.68013      -1.97476
Nuclear contribution   :     15.67646       9.82766       2.24237
                        -----------------------------------------
Total Dipole Moment    :      1.50787       1.14753       0.26761
                        -----------------------------------------
Magnitude (a.u.)       :      1.91367
Magnitude (Debye)      :      4.86416

Rotational constants in cm-1:     0.037223     0.028274     0.026482
Rotational constants in MHz :  1115.929962   847.644499   793.913543

                             ****ORCA TERMINATED NORMALLY****
TOTAL RUN TIME: 0 days 1 hours 33 minutes 44 seconds 531 msec
