                         Program Version 4.2.1 -  RELEASE  -
|  1> %pal
|  2>  nprocs 32
|  3> end
|  4> !RI-MP2 aug-cc-pVQZ aug-cc-pVQZ/C TightSCF
|  5> %maxcore 4500
|  6> *xyzfile 1 1  10_24TS.xyz
|  7>
|  8>
|  9>                          ****END OF INPUT****

CARTESIAN COORDINATES (ANGSTROEM)
---------------------------------
  C     -1.763040   -2.553878   -0.540402
  C     -1.092416   -1.578543    0.441463
  C     -3.055048   -0.616613    0.078103
  C     -3.136789   -1.872929   -0.805275
  H     -1.166347   -2.687943   -1.441136
  H     -1.878855   -3.528875   -0.066779
  H     -3.292882   -1.621009   -1.855007
  H     -3.971615   -2.501034   -0.494292
  C     -2.273025   -1.110863    1.296829
  H     -2.024428   -0.324909    2.009038
  H     -2.767358   -1.934255    1.808488
  H     -0.197118   -1.937664    0.931528
  H     -3.984930   -0.081512    0.251130
  N     -2.041860    0.306868   -0.495016
  N     -0.827562   -0.346385   -0.338338
  C      0.273625    0.405825   -0.463438
  C      1.624710   -0.131470   -0.208298
  C      2.007785   -0.657811    1.026562
  C      2.558537   -0.066400   -1.241237
  C      3.292931   -1.137275    1.210954
  H      1.315205   -0.666684    1.859367
  C      3.843421   -0.554119   -1.056517
  H      2.276605    0.358560   -2.197682
  C      4.210298   -1.092530    0.167647
  H      3.585413   -1.537022    2.173575
  H      4.558786   -0.507245   -1.867551
  H      5.215417   -1.466791    0.315646
  H      0.217881    1.097343   -1.300143
  H     -2.210305    0.571661   -1.463000
  C     -1.362534    2.291059    0.623269
  H     -2.256601    2.129485    1.207657
  C     -0.031905    1.974028    0.844701
  H      0.416814    1.530097    1.724196
  C      0.450592    3.164056    0.010295
  H      0.828604    3.984134    0.618452
  H      1.167121    2.962586   -0.789053
  C     -1.045087    3.365274   -0.385775
  H     -1.467875    4.345068   -0.159382
  H     -1.289892    3.125771   -1.424862

 Total Charge           Charge          ....    1
 Multiplicity           Mult            ....    1
 Number of Electrons    NEL             ....  130
 Basis Dimension        Dim             .... 2406

ORBITAL ENERGIES
----------------

  NO   OCC          E(Eh)            E(eV)
   0   2.0000     -15.772156      -429.1822
   1   2.0000     -15.755875      -428.7392
   2   2.0000     -11.468002      -312.0602
   3   2.0000     -11.411595      -310.5253
   4   2.0000     -11.411541      -310.5238
   5   2.0000     -11.405638      -310.3632
   6   2.0000     -11.375804      -309.5514
   7   2.0000     -11.363566      -309.2183
   8   2.0000     -11.363390      -309.2136
   9   2.0000     -11.362923      -309.2008
  10   2.0000     -11.362807      -309.1977
  11   2.0000     -11.359663      -309.1121
  12   2.0000     -11.355430      -308.9969
  13   2.0000     -11.352811      -308.9257
  14   2.0000     -11.351721      -308.8960
  15   2.0000     -11.351048      -308.8777
  16   2.0000     -11.350687      -308.8679
  17   2.0000     -11.348944      -308.8205
  18   2.0000      -1.519445       -41.3462
  19   2.0000      -1.315071       -35.7849
  20   2.0000      -1.289005       -35.0756
  21   2.0000      -1.273010       -34.6404
  22   2.0000      -1.250285       -34.0220
  23   2.0000      -1.167271       -31.7631
  24   2.0000      -1.141943       -31.0739
  25   2.0000      -1.114036       -30.3144
  26   2.0000      -1.090466       -29.6731
  27   2.0000      -1.040368       -28.3099
  28   2.0000      -1.022139       -27.8138
  29   2.0000      -1.006103       -27.3775
  30   2.0000      -0.968164       -26.3451
  31   2.0000      -0.954866       -25.9832
  32   2.0000      -0.925264       -25.1777
  33   2.0000      -0.906722       -24.6731
  34   2.0000      -0.874909       -23.8075
  35   2.0000      -0.852877       -23.2080
  36   2.0000      -0.838053       -22.8046
  37   2.0000      -0.822082       -22.3700
  38   2.0000      -0.809700       -22.0331
  39   2.0000      -0.799068       -21.7437
  40   2.0000      -0.784033       -21.3346
  41   2.0000      -0.759656       -20.6713
  42   2.0000      -0.755818       -20.5669
  43   2.0000      -0.740121       -20.1397
  44   2.0000      -0.723886       -19.6979
  45   2.0000      -0.712371       -19.3846
  46   2.0000      -0.701180       -19.0801
  47   2.0000      -0.689061       -18.7503
  48   2.0000      -0.672896       -18.3104
  49   2.0000      -0.664995       -18.0954
  50   2.0000      -0.659311       -17.9408
  51   2.0000      -0.648918       -17.6579
  52   2.0000      -0.636745       -17.3267
  53   2.0000      -0.631659       -17.1883
  54   2.0000      -0.626249       -17.0411
  55   2.0000      -0.624798       -17.0016
  56   2.0000      -0.617783       -16.8107
  57   2.0000      -0.608151       -16.5486
  58   2.0000      -0.602995       -16.4083
  59   2.0000      -0.596719       -16.2375
  60   2.0000      -0.593319       -16.1450
  61   2.0000      -0.524024       -14.2594
  62   2.0000      -0.467620       -12.7246
  63   2.0000      -0.459576       -12.5057
  64   2.0000      -0.454529       -12.3684
  65   0.0000      -0.073824        -2.0089
  66   0.0000      -0.065490        -1.7821
  67   0.0000      -0.058175        -1.5830
  68   0.0000      -0.052746        -1.4353
  69   0.0000      -0.049678        -1.3518

MULLIKEN ATOMIC CHARGES
-----------------------
   0 C :   -0.738018
   1 C :   -0.070974
   2 C :   -0.097109
   3 C :   -0.705949
   4 H :    0.268120
   5 H :    0.219314
   6 H :    0.253016
   7 H :    0.235308
   8 C :   -0.703537
   9 H :    0.294127
  10 H :    0.165210
  11 H :    0.468699
  12 H :    0.407976
  13 N :   -0.403552
  14 N :   -0.159643
  15 C :    1.755129
  16 C :    0.739357
  17 C :   -0.756104
  18 C :   -0.698849
  19 C :   -0.313550
  20 H :    0.271125
  21 C :   -0.443764
  22 H :    0.229293
  23 C :   -0.406648
  24 H :    0.229033
  25 H :    0.227259
  26 H :    0.363629
  27 H :    0.147881
  28 H :    0.120607
  29 C :   -0.273978
  30 H :    0.324082
  31 C :   -0.108867
  32 H :    0.371867
  33 C :   -0.673719
  34 H :    0.336255
  35 H :    0.227258
  36 C :   -0.687343
  37 H :    0.366740
  38 H :    0.220321
Sum of atomic charges:    1.0000000

LOEWDIN ATOMIC CHARGES
----------------------
   0 C :    0.595118
   1 C :    0.054081
   2 C :    0.049222
   3 C :    0.593323
   4 H :   -0.243060
   5 H :   -0.241922
   6 H :   -0.247504
   7 H :   -0.243338
   8 C :    0.565163
   9 H :   -0.240712
  10 H :   -0.229243
  11 H :   -0.279181
  12 H :   -0.222131
  13 N :    0.771778
  14 N :    0.397881
  15 C :    0.117053
  16 C :   -0.059355
  17 C :    0.346332
  18 C :    0.372473
  19 C :    0.389053
  20 H :   -0.317871
  21 C :    0.382338
  22 H :   -0.298173
  23 C :    0.375596
  24 H :   -0.304153
  25 H :   -0.306052
  26 H :   -0.302940
  27 H :   -0.359725
  28 H :   -0.430390
  29 C :    0.398637
  30 H :   -0.241308
  31 C :    0.309860
  32 H :   -0.275077
  33 C :    0.553397
  34 H :   -0.248889
  35 H :   -0.260882
  36 C :    0.576253
  37 H :   -0.244224
  38 H :   -0.251429

  Mayer bond orders larger than 0.100000
B(  0-C ,  1-C ) :   0.4008 B(  0-C ,  2-C ) :  -0.1929 B(  0-C ,  3-C ) :   1.1607
B(  0-C ,  4-H ) :   1.0093 B(  0-C ,  5-H ) :   1.0609 B(  1-C ,  3-C ) :  -0.2153
B(  1-C ,  8-C ) :   0.8293 B(  1-C , 11-H ) :   0.8595 B(  1-C , 14-N ) :   0.5563
B(  2-C ,  3-C ) :   0.7093 B(  2-C ,  8-C ) :   0.9273 B(  2-C , 12-H ) :   0.8890
B(  2-C , 13-N ) :   1.0230 B(  2-C , 14-N ) :  -0.1595 B(  3-C ,  6-H ) :   0.9910
B(  3-C ,  7-H ) :   1.0249 B(  3-C , 14-N ) :   0.1367 B(  8-C ,  9-H ) :   0.9416
B(  8-C , 10-H ) :   1.0884 B( 13-N , 14-N ) :   0.9269 B( 13-N , 28-H ) :   1.0882
B( 13-N , 29-C ) :   0.1565 B( 14-N , 15-C ) :   0.9067 B( 14-N , 17-C ) :   0.1194
B( 14-N , 18-C ) :  -0.1563 B( 15-C , 16-C ) :  -0.2018 B( 15-C , 17-C ) :  -0.4865
B( 15-C , 18-C ) :  -0.2152 B( 15-C , 23-C ) :  -0.1384 B( 15-C , 27-H ) :   1.0515
B( 15-C , 31-C ) :   0.3014 B( 15-C , 36-C ) :  -0.1143 B( 16-C , 17-C ) :   0.8321
B( 16-C , 18-C ) :   0.8419 B( 16-C , 19-C ) :  -0.4464 B( 16-C , 20-H ) :  -0.1346
B( 16-C , 21-C ) :  -0.4229 B( 16-C , 26-H ) :   0.1015 B( 16-C , 27-H ) :  -0.1913
B( 17-C , 19-C ) :   1.6349 B( 17-C , 20-H ) :   1.0457 B( 17-C , 21-C ) :   0.1819
B( 17-C , 23-C ) :   0.1067 B( 17-C , 24-H ) :  -0.1008 B( 18-C , 19-C ) :   0.2151
B( 18-C , 21-C ) :   1.4999 B( 18-C , 22-H ) :   1.0835 B( 18-C , 23-C ) :   0.1345
B( 18-C , 25-H ) :  -0.1362 B( 18-C , 26-H ) :  -0.1232 B( 19-C , 23-C ) :   1.0805
B( 19-C , 24-H ) :   1.1305 B( 19-C , 26-H ) :  -0.1093 B( 21-C , 23-C ) :   1.1142
B( 21-C , 25-H ) :   1.1689 B( 23-C , 24-H ) :  -0.1129 B( 23-C , 26-H ) :   1.0199
B( 29-C , 30-H ) :   0.9833 B( 29-C , 31-C ) :   1.1848 B( 29-C , 32-H ) :  -0.1032
B( 29-C , 36-C ) :   1.0215 B( 31-C , 32-H ) :   0.9577 B( 31-C , 33-C ) :   0.6233
B( 31-C , 36-C ) :  -0.2697 B( 33-C , 34-H ) :   0.9015 B( 33-C , 35-H ) :   1.0139
B( 33-C , 36-C ) :   1.1875 B( 36-C , 37-H ) :   0.8592 B( 36-C , 38-H ) :   1.0187

MP2 TOTAL ENERGY:     -730.191103390 Eh
FINAL SINGLE POINT ENERGY      -730.191103390216

DIPOLE MOMENT
-------------
                                X             Y             Z
Electronic contribution:      5.94603      -1.06545       0.05841
Nuclear contribution   :     -7.07753       1.33486      -0.16789
                        -----------------------------------------
Total Dipole Moment    :     -1.13150       0.26941      -0.10948
                        -----------------------------------------
Magnitude (a.u.)       :      1.16827
Magnitude (Debye)      :      2.96951

Rotational constants in cm-1:     0.019933     0.011740     0.008610
Rotational constants in MHz :   597.582790   351.949271   258.106798

                             ****ORCA TERMINATED NORMALLY****
TOTAL RUN TIME: 0 days 8 hours 47 minutes 0 seconds 548 msec
