                         Program Version 4.2.1 -  RELEASE  -
|  1> %pal
|  2>  nprocs 32
|  3> end
|  4> !RI-MP2 aug-cc-pVQZ aug-cc-pVQZ/C TightSCF
|  5> %maxcore 4500
|  6> *xyzfile -1 1  09_5TS.xyz
|  7>
|  8>
|  9>                          ****END OF INPUT****

CARTESIAN COORDINATES (ANGSTROEM)
---------------------------------
  C     -1.146533    1.475709    0.349864
  C     -1.519950    0.048089    0.025272
  C     -0.880810   -0.930288    0.832311
  O     -2.177689   -0.207834   -1.002518
  C      0.979799   -1.049215   -0.093911
  C      1.808398    0.027490    0.040724
  C      3.001893    0.516610   -0.237881
  H     -1.625925    2.163483   -0.348004
  H     -1.402781    1.741199    1.378879
  H     -0.045208    1.543231    0.266439
  H     -1.227937   -1.954371    0.722913
  H     -0.545175   -0.645167    1.822977
  H      0.513284   -1.244509   -1.059019
  H      1.212293   -1.949508    0.473439
  H      3.324151    1.510774    0.080254
  H      3.762030   -0.032830   -0.816007

 Total Charge           Charge          ....   -1
 Multiplicity           Mult            ....    1
 Number of Electrons    NEL             ....   54
 Basis Dimension        Dim             ....  974

ORBITAL ENERGIES
----------------

  NO   OCC          E(Eh)            E(eV)
   0   2.0000     -20.335221      -553.3495
   1   2.0000     -11.135510      -303.0126
   2   2.0000     -11.107426      -302.2484
   3   2.0000     -11.058840      -300.9263
   4   2.0000     -11.050243      -300.6924
   5   2.0000     -11.034347      -300.2598
   6   2.0000     -11.025374      -300.0157
   7   2.0000      -1.169352       -31.8197
   8   2.0000      -0.889995       -24.2180
   9   2.0000      -0.854242       -23.2451
  10   2.0000      -0.782287       -21.2871
  11   2.0000      -0.741883       -20.1877
  12   2.0000      -0.558591       -15.2000
  13   2.0000      -0.539090       -14.6694
  14   2.0000      -0.465987       -12.6801
  15   2.0000      -0.457304       -12.4439
  16   2.0000      -0.439069       -11.9477
  17   2.0000      -0.431491       -11.7415
  18   2.0000      -0.422417       -11.4946
  19   2.0000      -0.403767       -10.9870
  20   2.0000      -0.378084       -10.2882
  21   2.0000      -0.353806        -9.6276
  22   2.0000      -0.319794        -8.7020
  23   2.0000      -0.236996        -6.4490
  24   2.0000      -0.223090        -6.0706
  25   2.0000      -0.180956        -4.9241
  26   2.0000      -0.071421        -1.9435
  27   0.0000       0.110476         3.0062
  28   0.0000       0.113921         3.1000
  29   0.0000       0.116662         3.1745
  30   0.0000       0.123289         3.3549
  31   0.0000       0.127021         3.4564

MULLIKEN ATOMIC CHARGES
-----------------------
   0 C :   -0.987441
   1 C :    0.863482
   2 C :   -0.670457
   3 O :   -0.974356
   4 C :   -0.376786
   5 C :   -0.520833
   6 C :   -0.744160
   7 H :    0.276474
   8 H :    0.207889
   9 H :    0.333924
  10 H :    0.234520
  11 H :    0.220474
  12 H :    0.237100
  13 H :    0.281885
  14 H :    0.320843
  15 H :    0.297441
Sum of atomic charges:   -1.0000000

LOEWDIN ATOMIC CHARGES
----------------------
   0 C :    0.813491
   1 C :   -0.814917
   2 C :    0.523736
   3 O :    0.617495
   4 C :    0.506310
   5 C :    0.113622
   6 C :    0.575815
   7 H :   -0.326873
   8 H :   -0.306218
   9 H :   -0.381942
  10 H :   -0.366960
  11 H :   -0.368960
  12 H :   -0.351796
  13 H :   -0.349995
  14 H :   -0.454917
  15 H :   -0.427890

  Mayer bond orders larger than 0.100000
B(  0-C ,  1-C ) :   0.9285 B(  0-C ,  3-O ) :   0.1057 B(  0-C ,  5-C ) :  -0.1019
B(  0-C ,  7-H ) :   0.9950 B(  0-C ,  8-H ) :   1.0165 B(  0-C ,  9-H ) :   0.7452
B(  1-C ,  2-C ) :   1.1847 B(  1-C ,  3-O ) :   0.9346 B(  2-C ,  3-O ) :   0.1566
B(  2-C ,  4-C ) :   0.5201 B(  2-C ,  5-C ) :  -0.1477 B(  2-C , 10-H ) :   0.9345
B(  2-C , 11-H ) :   0.9898 B(  4-C ,  5-C ) :   1.4458 B(  4-C ,  6-C ) :  -0.1492
B(  4-C , 12-H ) :   0.8554 B(  4-C , 13-H ) :   0.8993 B(  5-C ,  6-C ) :   1.6459
B(  5-C , 12-H ) :   0.1000 B(  6-C , 14-H ) :   0.9361 B(  6-C , 15-H ) :   0.9294

MP2 TOTAL ENERGY:     -308.649662988 Eh
FINAL SINGLE POINT ENERGY      -308.649662987773

DIPOLE MOMENT
-------------
                                X             Y             Z
Electronic contribution:     -3.98916      -1.27974      -1.92522
Nuclear contribution   :      4.02755       1.15693       2.56801
                        -----------------------------------------
Total Dipole Moment    :      0.03838      -0.12281       0.64279
                        -----------------------------------------
Magnitude (a.u.)       :      0.65554
Magnitude (Debye)      :      1.66625

Rotational constants in cm-1:     0.152771     0.047368     0.042442
Rotational constants in MHz :  4579.944664  1420.060781  1272.384559

                             ****ORCA TERMINATED NORMALLY****
TOTAL RUN TIME: 0 days 0 hours 24 minutes 0 seconds 749 msec
