                         Program Version 4.2.1 -  RELEASE  -
|  1> %pal
|  2>  nprocs 32
|  3> end
|  4> !RI-MP2 aug-cc-pVQZ aug-cc-pVQZ/C TightSCF
|  5> %maxcore 4500
|  6> *xyzfile -1 1  09_10TS.xyz
|  7>
|  8>
|  9>                          ****END OF INPUT****

CARTESIAN COORDINATES (ANGSTROEM)
---------------------------------
  C     -0.981824   -0.189479   -0.598696
  C      0.102902   -1.246718   -0.363142
  C      1.491640   -0.723743   -0.706522
  H     -0.113694   -2.088785   -1.027072
  H      0.072749   -1.627895    0.659592
  C      1.930060    0.398008    0.242987
  C      0.878472    1.508190    0.229189
  C     -0.373932    1.181491    0.837631
  O     -1.100526    0.319193   -1.728058
  C     -2.231547   -0.443029    0.237828
  O     -2.345334   -1.256692    1.130811
  O     -3.274948    0.332718   -0.116235
  O      1.096598    2.499196   -0.463073
  O      2.190016   -0.159806    1.541569
  H      2.877007    0.813411   -0.098355
  O      2.463157   -1.767042   -0.670594
  H      1.479461   -0.330297   -1.723071
  H     -3.987027    0.087413    0.488470
  H      2.669722   -1.891489    0.263551
  H      1.365739   -0.162618    2.035637
  H     -1.112459    1.975850    0.829832
  H     -0.377815    0.575559    1.740414

 Total Charge           Charge          ....   -1
 Multiplicity           Mult            ....    1
 Number of Electrons    NEL             ....  100
 Basis Dimension        Dim             .... 1454

ORBITAL ENERGIES
----------------

  NO   OCC          E(Eh)            E(eV)
   0   2.0000     -20.481748      -557.3367
   1   2.0000     -20.450912      -556.4976
   2   2.0000     -20.433215      -556.0161
   3   2.0000     -20.417639      -555.5922
   4   2.0000     -20.376027      -554.4599
   5   2.0000     -20.333787      -553.3105
   6   2.0000     -11.250810      -306.1501
   7   2.0000     -11.186589      -304.4026
   8   2.0000     -11.170500      -303.9647
   9   2.0000     -11.154878      -303.5397
  10   2.0000     -11.152176      -303.4661
  11   2.0000     -11.091680      -301.8200
  12   2.0000     -11.065034      -301.0949
  13   2.0000      -1.339463       -36.4486
  14   2.0000      -1.265037       -34.4234
  15   2.0000      -1.231361       -33.5070
  16   2.0000      -1.229733       -33.4627
  17   2.0000      -1.214408       -33.0457
  18   2.0000      -1.183862       -32.2145
  19   2.0000      -0.936978       -25.4965
  20   2.0000      -0.852819       -23.2064
  21   2.0000      -0.842940       -22.9376
  22   2.0000      -0.772028       -21.0080
  23   2.0000      -0.702655       -19.1202
  24   2.0000      -0.634054       -17.2535
  25   2.0000      -0.617962       -16.8156
  26   2.0000      -0.580449       -15.7948
  27   2.0000      -0.578247       -15.7349
  28   2.0000      -0.546403       -14.8684
  29   2.0000      -0.539797       -14.6886
  30   2.0000      -0.512193       -13.9375
  31   2.0000      -0.505320       -13.7505
  32   2.0000      -0.492321       -13.3967
  33   2.0000      -0.472387       -12.8543
  34   2.0000      -0.454881       -12.3780
  35   2.0000      -0.445306       -12.1174
  36   2.0000      -0.442268       -12.0347
  37   2.0000      -0.435165       -11.8414
  38   2.0000      -0.416842       -11.3429
  39   2.0000      -0.400557       -10.8997
  40   2.0000      -0.385502       -10.4900
  41   2.0000      -0.377010       -10.2590
  42   2.0000      -0.358422        -9.7532
  43   2.0000      -0.354257        -9.6398
  44   2.0000      -0.348291        -9.4775
  45   2.0000      -0.333470        -9.0742
  46   2.0000      -0.302419        -8.2292
  47   2.0000      -0.256316        -6.9747
  48   2.0000      -0.236094        -6.4244
  49   2.0000      -0.158754        -4.3199
  50   0.0000       0.102973         2.8020
  51   0.0000       0.108781         2.9601
  52   0.0000       0.113743         3.0951
  53   0.0000       0.116521         3.1707
  54   0.0000       0.124878         3.3981

MULLIKEN ATOMIC CHARGES
-----------------------
   0 C :    1.198177
   1 C :   -0.695985
   2 C :    0.604762
   3 H :    0.351361
   4 H :    0.184598
   5 C :    0.281119
   6 C :    0.865569
   7 C :   -0.869760
   8 O :   -1.277461
   9 C :    1.191810
  10 O :   -0.994241
  11 O :   -0.786992
  12 O :   -0.985928
  13 O :   -1.108824
  14 H :    0.312767
  15 O :   -1.164685
  16 H :    0.388968
  17 H :    0.299147
  18 H :    0.358760
  19 H :    0.363946
  20 H :    0.193592
  21 H :    0.289300
Sum of atomic charges:   -1.0000000

LOEWDIN ATOMIC CHARGES
----------------------
   0 C :   -0.914989
   1 C :    0.401512
   2 C :   -0.242868
   3 H :   -0.279159
   4 H :   -0.339863
   5 C :   -0.255078
   6 C :   -0.748271
   7 C :    0.563757
   8 O :    0.661184
   9 C :   -1.135867
  10 O :    0.701551
  11 O :    1.237975
  12 O :    0.698117
  13 O :    1.311360
  14 H :   -0.342311
  15 O :    1.291490
  16 H :   -0.312422
  17 H :   -0.847561
  18 H :   -0.870122
  19 H :   -0.863793
  20 H :   -0.337674
  21 H :   -0.376968

  Mayer bond orders larger than 0.100000
B(  0-C ,  1-C ) :   0.9119 B(  0-C ,  7-C ) :   0.4274 B(  0-C ,  8-O ) :   0.3944
B(  0-C ,  9-C ) :   1.2306 B(  0-C , 10-O ) :   0.1618 B(  1-C ,  2-C ) :   0.9958
B(  1-C ,  3-H ) :   0.7740 B(  1-C ,  4-H ) :   0.9822 B(  1-C ,  8-O ) :   0.1887
B(  1-C , 15-O ) :   0.2295 B(  2-C ,  5-C ) :   0.9515 B(  2-C , 16-H ) :   0.8484
B(  5-C ,  6-C ) :   0.9714 B(  5-C ,  7-C ) :  -0.1033 B(  5-C , 12-O ) :   0.3051
B(  5-C , 13-O ) :   0.2651 B(  5-C , 14-H ) :   0.8994 B(  5-C , 15-O ) :   0.2154
B(  6-C ,  7-C ) :   1.2112 B(  6-C , 12-O ) :   0.5258 B(  7-C ,  8-O ) :   0.1471
B(  7-C ,  9-C ) :   0.1301 B(  7-C , 12-O ) :   0.2729 B(  7-C , 20-H ) :   1.0179
B(  7-C , 21-H ) :   0.9614 B(  8-O ,  9-C ) :   0.2137 B(  9-C , 10-O ) :   1.0661
B(  9-C , 11-O ) :   0.6007 B( 10-O , 11-O ) :   0.1558 B( 11-O , 17-H ) :   0.9362
B( 13-O , 19-H ) :   0.8883 B( 15-O , 18-H ) :   0.8535

MP2 TOTAL ENERGY:     -722.595104401 Eh
FINAL SINGLE POINT ENERGY      -722.595104401332

DIPOLE MOMENT
-------------
                                X             Y             Z
Electronic contribution:     -3.14597       1.41671      -1.46370
Nuclear contribution   :      2.80981      -2.60435       3.11042
                        -----------------------------------------
Total Dipole Moment    :     -0.33616      -1.18763       1.64672
                        -----------------------------------------
Magnitude (a.u.)       :      2.05795
Magnitude (Debye)      :      5.23089

Rotational constants in cm-1:     0.040096     0.020683     0.018098
Rotational constants in MHz :  1202.059322   620.047065   542.552878

                             ****ORCA TERMINATED NORMALLY****
TOTAL RUN TIME: 0 days 1 hours 35 minutes 10 seconds 888 msec
