                         Program Version 4.2.1 -  RELEASE  -
|  1> %pal
|  2>  nprocs 32
|  3> end
|  4> !RI-MP2 aug-cc-pVQZ aug-cc-pVQZ/C TightSCF
|  5> %maxcore 4500
|  6> *xyzfile 0 1  10_18TS.xyz
|  7>
|  8>
|  9>                          ****END OF INPUT****

CARTESIAN COORDINATES (ANGSTROEM)
---------------------------------
  C     -5.681392   -2.854624    0.251423
  C     -5.256793   -1.541335    0.381386
  C     -4.005629   -1.137915   -0.089039
  C     -3.180463   -2.101011   -0.678640
  C     -3.608991   -3.411574   -0.814294
  C     -4.860949   -3.797012   -0.352129
  H     -6.657849   -3.142044    0.622882
  H     -5.905514   -0.811491    0.852988
  H     -2.185547   -1.829538   -1.007769
  H     -2.953502   -4.141631   -1.274327
  H     -5.189700   -4.823849   -0.454799
  C     -3.594101    0.266091    0.081266
  H     -4.313327    0.892309    0.590937
  C     -2.731105    0.871533   -0.828376
  H     -2.282551    0.264281   -1.602272
  C     -2.794784    3.150355    0.107272
  C     -1.429714    2.633692   -1.867312
  C     -1.562450    3.651866    0.857165
  H     -3.511562    2.710853    0.794846
  H     -3.289139    3.985570   -0.401916
  C     -0.169132    3.133481   -1.166385
  H     -1.200505    1.817009   -2.550096
  H     -1.877740    3.445858   -2.451555
  C     -0.512002    4.185783   -0.114421
  H     -1.144901    2.829355    1.444290
  H     -1.868535    4.426520    1.564176
  H      0.332310    2.287334   -0.691276
  H      0.517133    3.537993   -1.914151
  H     -0.898403    5.084723   -0.609403
  H      0.386918    4.487157    0.427207
  N     -2.419937    2.165384   -0.901682
  N     -0.733582   -0.118716    0.428586
  N     -1.357676   -0.024467    1.556074
  N     -2.471519    0.162896    1.840766
  C      0.634652   -0.253265    0.449193
  C      1.257268   -0.366645   -0.799691
  C      1.488531   -0.254497    1.556497
  C      2.620509   -0.483587   -0.936925
  C      2.857663   -0.359671    1.412699
  C      3.465811   -0.482994    0.168734
  F      0.493863   -0.336921   -1.904873
  F      3.115600   -0.550899   -2.173985
  F      3.591740   -0.373763    2.522494
  F      0.988397   -0.149275    2.792987
  C      4.948006   -0.564848    0.057121
  O      5.713668    0.087894    0.711848
  O      5.321832   -1.462176   -0.858036
  C      6.732967   -1.579665   -1.070888
  H      6.847531   -2.331661   -1.846303
  H      7.146832   -0.625150   -1.395065
  H      7.229243   -1.892248   -0.152657

 Total Charge           Charge          ....    0
 Multiplicity           Mult            ....    1
 Number of Electrons    NEL             ....  226
 Basis Dimension        Dim             .... 3400

ORBITAL ENERGIES
----------------

  NO   OCC          E(Eh)            E(eV)
   0   2.0000     -26.332003      -716.5302
   1   2.0000     -26.328154      -716.4255
   2   2.0000     -26.326668      -716.3851
   3   2.0000     -26.322389      -716.2686
   4   2.0000     -20.607414      -560.7562
   5   2.0000     -20.548744      -559.1598
   6   2.0000     -15.715735      -427.6469
   7   2.0000     -15.679246      -426.6540
   8   2.0000     -15.612963      -424.8503
   9   2.0000     -15.602025      -424.5527
  10   2.0000     -11.394514      -310.0605
  11   2.0000     -11.364061      -309.2318
  12   2.0000     -11.362745      -309.1960
  13   2.0000     -11.342100      -308.6342
  14   2.0000     -11.341723      -308.6240
  15   2.0000     -11.324481      -308.1548
  16   2.0000     -11.322773      -308.1083
  17   2.0000     -11.287509      -307.1487
  18   2.0000     -11.282194      -307.0041
  19   2.0000     -11.281906      -306.9963
  20   2.0000     -11.273553      -306.7690
  21   2.0000     -11.244405      -305.9758
  22   2.0000     -11.239304      -305.8370
  23   2.0000     -11.237912      -305.7991
  24   2.0000     -11.237562      -305.7896
  25   2.0000     -11.236945      -305.7728
  26   2.0000     -11.229830      -305.5792
  27   2.0000     -11.229528      -305.5710
  28   2.0000     -11.225392      -305.4584
  29   2.0000     -11.223559      -305.4086
  30   2.0000     -11.223226      -305.3995
  31   2.0000      -1.660177       -45.1757
  32   2.0000      -1.656289       -45.0699
  33   2.0000      -1.642850       -44.7042
  34   2.0000      -1.638756       -44.5928
  35   2.0000      -1.473560       -40.0976
  36   2.0000      -1.471785       -40.0493
  37   2.0000      -1.370130       -37.2831
  38   2.0000      -1.306577       -35.5538
  39   2.0000      -1.264524       -34.4094
  40   2.0000      -1.190805       -32.4034
  41   2.0000      -1.157868       -31.5072
  42   2.0000      -1.112890       -30.2833
  43   2.0000      -1.076618       -29.2963
  44   2.0000      -1.065530       -28.9946
  45   2.0000      -1.051454       -28.6115
  46   2.0000      -1.051267       -28.6064
  47   2.0000      -1.012549       -27.5529
  48   2.0000      -0.994725       -27.0678
  49   2.0000      -0.990396       -26.9500
  50   2.0000      -0.934472       -25.4283
  51   2.0000      -0.923057       -25.1177
  52   2.0000      -0.891814       -24.2675
  53   2.0000      -0.885063       -24.0838
  54   2.0000      -0.843619       -22.9560
  55   2.0000      -0.835226       -22.7277
  56   2.0000      -0.824480       -22.4352
  57   2.0000      -0.820806       -22.3353
  58   2.0000      -0.805111       -21.9082
  59   2.0000      -0.799953       -21.7678
  60   2.0000      -0.775630       -21.1060
  61   2.0000      -0.771850       -21.0031
  62   2.0000      -0.761187       -20.7130
  63   2.0000      -0.740116       -20.1396
  64   2.0000      -0.737856       -20.0781
  65   2.0000      -0.730836       -19.8870
  66   2.0000      -0.726820       -19.7778
  67   2.0000      -0.724013       -19.7014
  68   2.0000      -0.720884       -19.6162
  69   2.0000      -0.706383       -19.2217
  70   2.0000      -0.705711       -19.2034
  71   2.0000      -0.703257       -19.1366
  72   2.0000      -0.697829       -18.9889
  73   2.0000      -0.682569       -18.5736
  74   2.0000      -0.679240       -18.4831
  75   2.0000      -0.672779       -18.3073
  76   2.0000      -0.668210       -18.1829
  77   2.0000      -0.661214       -17.9925
  78   2.0000      -0.648780       -17.6542
  79   2.0000      -0.644638       -17.5415
  80   2.0000      -0.640774       -17.4363
  81   2.0000      -0.633241       -17.2314
  82   2.0000      -0.632080       -17.1998
  83   2.0000      -0.620353       -16.8807
  84   2.0000      -0.619135       -16.8475
  85   2.0000      -0.603329       -16.4174
  86   2.0000      -0.595753       -16.2113
  87   2.0000      -0.592489       -16.1225
  88   2.0000      -0.585512       -15.9326
  89   2.0000      -0.581415       -15.8211
  90   2.0000      -0.578398       -15.7390
  91   2.0000      -0.559712       -15.2305
  92   2.0000      -0.557765       -15.1776
  93   2.0000      -0.546652       -14.8752
  94   2.0000      -0.535048       -14.5594
  95   2.0000      -0.534218       -14.5368
  96   2.0000      -0.520978       -14.1765
  97   2.0000      -0.517766       -14.0891
  98   2.0000      -0.506443       -13.7810
  99   2.0000      -0.496967       -13.5232
 100   2.0000      -0.488207       -13.2848
 101   2.0000      -0.484517       -13.1844
 102   2.0000      -0.476366       -12.9626
 103   2.0000      -0.470331       -12.7984
 104   2.0000      -0.466222       -12.6866
 105   2.0000      -0.458865       -12.4863
 106   2.0000      -0.450955       -12.2711
 107   2.0000      -0.443648       -12.0723
 108   2.0000      -0.366035        -9.9603
 109   2.0000      -0.360046        -9.7974
 110   2.0000      -0.335759        -9.1365
 111   2.0000      -0.321623        -8.7518
 112   2.0000      -0.273590        -7.4448
 113   0.0000       0.015178         0.4130
 114   0.0000       0.023015         0.6263
 115   0.0000       0.024197         0.6584
 116   0.0000       0.026822         0.7299
 117   0.0000       0.029776         0.8103

MULLIKEN ATOMIC CHARGES
-----------------------
   0 C :   -0.301946
   1 C :   -0.691428
   2 C :    0.813448
   3 C :   -0.499810
   4 C :   -0.576882
   5 C :   -0.433976
   6 H :    0.205195
   7 H :    0.220046
   8 H :    0.410631
   9 H :    0.221389
  10 H :    0.356801
  11 C :    0.038407
  12 H :    0.022311
  13 C :    0.924130
  14 H :    0.514363
  15 C :   -0.881214
  16 C :   -0.636024
  17 C :   -0.449630
  18 H :    0.355851
  19 H :    0.269369
  20 C :   -0.790920
  21 H :    0.171183
  22 H :    0.251075
  23 C :   -0.513619
  24 H :    0.372641
  25 H :    0.245718
  26 H :    0.657567
  27 H :    0.227861
  28 H :    0.180391
  29 H :    0.219752
  30 N :   -0.495093
  31 N :   -0.121179
  32 N :   -0.189789
  33 N :   -0.278119
  34 C :   -0.231584
  35 C :    0.868199
  36 C :    0.952412
  37 C :    1.419606
  38 C :    1.440656
  39 C :   -1.231004
  40 F :   -0.927475
  41 F :   -0.826002
  42 F :   -0.806749
  43 F :   -0.789853
  44 C :    1.715598
  45 O :   -0.896391
  46 O :   -0.780002
  47 C :   -0.816771
  48 H :    0.423070
  49 H :    0.342131
  50 H :    0.325656
Sum of atomic charges:    0.0000000

LOEWDIN ATOMIC CHARGES
----------------------
   0 C :    0.340982
   1 C :    0.340118
   2 C :   -0.120637
   3 C :    0.331298
   4 C :    0.350585
   5 C :    0.334731
   6 H :   -0.320377
   7 H :   -0.318509
   8 H :   -0.355583
   9 H :   -0.318254
  10 H :   -0.325732
  11 C :    0.158691
  12 H :   -0.386540
  13 C :    0.171975
  14 H :   -0.346735
  15 C :    0.415789
  16 C :    0.420124
  17 C :    0.554748
  18 H :   -0.320257
  19 H :   -0.246841
  20 C :    0.552540
  21 H :   -0.292609
  22 H :   -0.249407
  23 C :    0.551342
  24 H :   -0.280725
  25 H :   -0.249067
  26 H :   -0.308166
  27 H :   -0.246457
  28 H :   -0.259936
  29 H :   -0.253073
  30 N :    0.537159
  31 N :    0.281275
  32 N :   -0.079038
  33 N :    0.450988
  34 C :   -0.490688
  35 C :   -0.794096
  36 C :   -0.752566
  37 C :   -0.764597
  38 C :   -0.774482
  39 C :   -0.254375
  40 F :    0.813910
  41 F :    0.819055
  42 F :    0.825757
  43 F :    0.798291
  44 C :   -1.139106
  45 O :    0.723553
  46 O :    0.836944
  47 C :    0.585468
  48 H :   -0.320405
  49 H :   -0.313477
  50 H :   -0.313589

  Mayer bond orders larger than 0.100000
B(  0-C ,  1-C ) :   1.3660 B(  0-C ,  2-C ) :  -0.4249 B(  0-C ,  5-C ) :   1.1675
B(  0-C ,  6-H ) :   1.1958 B(  1-C ,  2-C ) :   0.9691 B(  1-C ,  4-C ) :   0.1766
B(  1-C ,  6-H ) :  -0.1679 B(  1-C ,  7-H ) :   1.0696 B(  1-C , 10-H ) :  -0.1223
B(  1-C , 11-C ) :  -0.4159 B(  2-C ,  3-C ) :   1.1661 B(  2-C ,  4-C ) :  -0.4799
B(  2-C ,  7-H ) :  -0.1269 B(  2-C ,  8-H ) :  -0.1407 B(  2-C , 11-C ) :   0.5792
B(  2-C , 12-H ) :  -0.1996 B(  2-C , 13-C ) :  -0.5873 B(  2-C , 33-N ) :  -0.2062
B(  3-C ,  4-C ) :   1.2797 B(  3-C ,  8-H ) :   0.6820 B(  3-C ,  9-H ) :  -0.1115
B(  3-C , 11-C ) :  -0.2689 B(  3-C , 14-H ) :  -0.1405 B(  4-C ,  5-C ) :   1.2857
B(  4-C ,  8-H ) :  -0.1779 B(  4-C ,  9-H ) :   1.1249 B(  5-C ,  6-H ) :  -0.1024
B(  5-C , 10-H ) :   0.9851 B( 11-C , 12-H ) :   1.1733 B( 11-C , 13-C ) :   0.8543
B( 11-C , 15-C ) :  -0.3129 B( 11-C , 30-N ) :  -0.2684 B( 11-C , 31-N ) :   0.2201
B( 11-C , 32-N ) :   0.1040 B( 11-C , 33-N ) :   0.4498 B( 13-C , 14-H ) :   0.7593
B( 13-C , 15-C ) :   0.2066 B( 13-C , 16-C ) :  -0.4664 B( 13-C , 20-C ) :   0.1147
B( 13-C , 30-N ) :   1.1580 B( 13-C , 31-N ) :  -0.1132 B( 13-C , 33-N ) :  -0.1323
B( 15-C , 17-C ) :   0.9292 B( 15-C , 18-H ) :   0.8631 B( 15-C , 19-H ) :   1.0179
B( 15-C , 30-N ) :   0.8335 B( 16-C , 20-C ) :   0.9222 B( 16-C , 21-H ) :   1.0637
B( 16-C , 22-H ) :   1.0094 B( 16-C , 23-C ) :  -0.1341 B( 16-C , 30-N ) :   1.0680
B( 17-C , 23-C ) :   0.8557 B( 17-C , 24-H ) :   0.7470 B( 17-C , 25-H ) :   0.9858
B( 20-C , 23-C ) :   0.9122 B( 20-C , 26-H ) :   0.5228 B( 20-C , 27-H ) :   1.0044
B( 22-H , 30-N ) :  -0.1001 B( 23-C , 28-H ) :   1.0479 B( 23-C , 29-H ) :   0.9741
B( 31-N , 32-N ) :   0.9012 B( 31-N , 34-C ) :   0.8034 B( 31-N , 40-F ) :  -0.2213
B( 32-N , 33-N ) :   1.6396 B( 32-N , 34-C ) :  -0.3828 B( 32-N , 43-F ) :  -0.1102
B( 33-N , 34-C ) :  -0.1496 B( 34-C , 35-C ) :   0.9960 B( 34-C , 36-C ) :   1.0822
B( 34-C , 37-C ) :  -0.2879 B( 34-C , 38-C ) :  -0.3716 B( 34-C , 40-F ) :   0.6941
B( 34-C , 43-F ) :   0.8899 B( 35-C , 37-C ) :   1.5892 B( 35-C , 39-C ) :  -0.1316
B( 35-C , 40-F ) :  -0.4283 B( 35-C , 41-F ) :   0.3866 B( 35-C , 46-O ) :   0.1023
B( 36-C , 37-C ) :   0.1847 B( 36-C , 38-C ) :   1.8044 B( 36-C , 42-F ) :   0.3227
B( 36-C , 43-F ) :  -0.7226 B( 37-C , 39-C ) :   1.1621 B( 37-C , 41-F ) :  -0.6369
B( 37-C , 44-C ) :  -0.3582 B( 38-C , 39-C ) :   0.9353 B( 38-C , 42-F ) :  -0.5509
B( 38-C , 44-C ) :  -0.3304 B( 39-C , 41-F ) :   0.3087 B( 39-C , 42-F ) :   0.4957
B( 39-C , 44-C ) :   1.5389 B( 39-C , 45-O ) :   0.5170 B( 39-C , 46-O ) :   0.1285
B( 44-C , 45-O ) :   0.9726 B( 44-C , 46-O ) :   0.7116 B( 44-C , 47-C ) :  -0.1556
B( 45-O , 46-O ) :   0.1132 B( 46-O , 47-C ) :   0.9322 B( 47-C , 48-H ) :   0.8357
B( 47-C , 49-H ) :   0.8867 B( 47-C , 50-H ) :   0.9088

MP2 TOTAL ENERGY:    -1578.727787522 Eh
FINAL SINGLE POINT ENERGY     -1578.727787522294

DIPOLE MOMENT
-------------
                                X             Y             Z
Electronic contribution:     26.98536     -15.90292       9.67501
Nuclear contribution   :    -27.98494      17.07455     -10.95196
                        -----------------------------------------
Total Dipole Moment    :     -0.99958       1.17163      -1.27695
                        -----------------------------------------
Magnitude (a.u.)       :      2.00062
Magnitude (Debye)      :      5.08518

Rotational constants in cm-1:     0.007271     0.002906     0.002554
Rotational constants in MHz :   217.965462    87.126265    76.554148

                             ****ORCA TERMINATED NORMALLY****
TOTAL RUN TIME: 0 days 22 hours 18 minutes 16 seconds 33 msec
