                         Program Version 4.2.1 -  RELEASE  -
|  1> %pal
|  2>  nprocs 32
|  3> end
|  4> !RI-MP2 aug-cc-pVQZ aug-cc-pVQZ/C TightSCF
|  5> %maxcore 4500
|  6> *xyzfile 1 1  05_36TS.xyz
|  7>
|  8>
|  9>                          ****END OF INPUT****

CARTESIAN COORDINATES (ANGSTROEM)
---------------------------------
  N      0.464024   -0.067513   -1.397176
  C      1.813500   -0.054147   -0.976441
  C      2.651909   -1.007722   -1.545020
  C      3.989691   -1.094988   -1.194940
  C      4.511962   -0.212126   -0.253698
  C      3.672685    0.745001    0.316924
  C      2.341117    0.826045   -0.029477
  O      5.791745   -0.202861    0.164212
  C      6.694508   -1.153239   -0.377954
  C     -0.595537    0.773556   -1.154974
  C     -0.318049    2.177016   -0.693044
  C      0.422417    3.017097   -1.523288
  C      0.669586    4.326156   -1.144073
  C      0.178830    4.804709    0.064569
  C     -0.564936    3.971514    0.887452
  C     -0.817765    2.658824    0.510785
  C     -1.682649    0.669578   -2.202950
  O      1.365058   -1.952012    1.981012
  C      0.446971   -1.214363    1.728413
  O      0.290650   -0.001717    2.243264
  C      1.270025    0.397216    3.217475
  C     -0.663702   -1.563828    0.801910
  C     -2.867153   -1.114525    0.099544
  C     -2.948532   -2.325581   -0.523132
  N     -1.806552   -3.087927   -0.537685
  C     -0.677730   -2.775031    0.153084
  C     -4.154950   -2.936834   -1.154658
  C     -4.048306   -0.213476    0.172495
  O     -3.713165    0.992267    0.620183
  C     -4.783020    1.949497    0.714760
  C      0.400673   -3.803902    0.169327
  O     -5.159662   -0.530497   -0.165877
  H      6.795660   -1.027691   -1.459376
  H     -5.528703    1.604000    1.428852
  H     -0.948903    4.342990    1.829696
  H      0.278177   -0.788253   -2.080365
  H      6.374746   -2.173673   -0.149780
  H      7.651790   -0.960221    0.098349
  H      1.247904    4.973704   -1.791198
  H      0.375535    5.827229    0.361848
  H     -5.250445    2.088583   -0.258964
  H     -4.317090    2.869065    1.055594
  H     -1.354521    1.162322   -3.121527
  H     -2.584737    1.174174   -1.862003
  H     -1.929808   -0.369019   -2.438597
  H     -1.849786   -3.991371   -0.989022
  H     -1.223164    0.256431   -0.079780
  H     -4.913563   -3.147575   -0.400240
  H     -3.893183   -3.866609   -1.662348
  H     -4.615857   -2.253603   -1.865632
  H      1.362366   -3.356496   -0.078460
  H      0.174194   -4.610002   -0.530520
  H      0.512309   -4.219985    1.171077
  H      1.052616    1.438835    3.434844
  H      2.272883    0.279837    2.812875
  H      1.164624   -0.212248    4.113984
  H      0.819017    2.641940   -2.459794
  H     -1.386843    2.003870    1.157314
  H      2.260528   -1.693587   -2.290129
  H      1.722027    1.572300    0.440096
  H      4.094718    1.428464    1.042479
  H      4.609367   -1.845517   -1.663561
  N     -1.688636   -0.654276    0.665346

 Total Charge           Charge          ....    1
 Multiplicity           Mult            ....    1
 Number of Electrons    NEL             ....  240
 Basis Dimension        Dim             .... 4020

ORBITAL ENERGIES
----------------

  NO   OCC          E(Eh)            E(eV)
   0   2.0000     -20.707764      -563.4869
   1   2.0000     -20.702366      -563.3400
   2   2.0000     -20.663821      -562.2912
   3   2.0000     -20.648608      -561.8772
   4   2.0000     -20.643057      -561.7261
   5   2.0000     -15.778718      -429.3608
   6   2.0000     -15.754911      -428.7129
   7   2.0000     -15.729259      -428.0149
   8   2.0000     -11.493780      -312.7617
   9   2.0000     -11.489196      -312.6369
  10   2.0000     -11.465236      -311.9849
  11   2.0000     -11.457750      -311.7812
  12   2.0000     -11.437755      -311.2371
  13   2.0000     -11.406707      -310.3923
  14   2.0000     -11.406071      -310.3750
  15   2.0000     -11.387942      -309.8817
  16   2.0000     -11.381357      -309.7025
  17   2.0000     -11.378645      -309.6287
  18   2.0000     -11.373179      -309.4799
  19   2.0000     -11.360814      -309.1435
  20   2.0000     -11.359423      -309.1056
  21   2.0000     -11.357880      -309.0636
  22   2.0000     -11.353344      -308.9402
  23   2.0000     -11.350489      -308.8625
  24   2.0000     -11.340481      -308.5902
  25   2.0000     -11.336307      -308.4766
  26   2.0000     -11.332565      -308.3748
  27   2.0000     -11.331913      -308.3570
  28   2.0000     -11.330136      -308.3087
  29   2.0000     -11.329064      -308.2795
  30   2.0000     -11.328335      -308.2597
  31   2.0000     -11.327156      -308.2276
  32   2.0000     -11.321657      -308.0780
  33   2.0000      -1.575727       -42.8777
  34   2.0000      -1.571016       -42.7495
  35   2.0000      -1.497267       -40.7427
  36   2.0000      -1.479373       -40.2558
  37   2.0000      -1.471396       -40.0387
  38   2.0000      -1.466564       -39.9072
  39   2.0000      -1.405450       -38.2442
  40   2.0000      -1.381603       -37.5953
  41   2.0000      -1.265583       -34.4383
  42   2.0000      -1.254169       -34.1277
  43   2.0000      -1.247033       -33.9335
  44   2.0000      -1.177062       -32.0295
  45   2.0000      -1.145477       -31.1700
  46   2.0000      -1.139443       -31.0058
  47   2.0000      -1.124371       -30.5957
  48   2.0000      -1.118194       -30.4276
  49   2.0000      -1.117479       -30.4081
  50   2.0000      -1.091034       -29.6885
  51   2.0000      -1.089780       -29.6544
  52   2.0000      -1.071070       -29.1453
  53   2.0000      -1.061661       -28.8893
  54   2.0000      -1.030033       -28.0286
  55   2.0000      -0.994262       -27.0553
  56   2.0000      -0.986972       -26.8569
  57   2.0000      -0.958116       -26.0717
  58   2.0000      -0.944326       -25.6964
  59   2.0000      -0.932931       -25.3863
  60   2.0000      -0.924000       -25.1433
  61   2.0000      -0.890792       -24.2397
  62   2.0000      -0.887711       -24.1558
  63   2.0000      -0.868502       -23.6331
  64   2.0000      -0.866025       -23.5657
  65   2.0000      -0.837875       -22.7997
  66   2.0000      -0.835113       -22.7246
  67   2.0000      -0.816319       -22.2132
  68   2.0000      -0.814420       -22.1615
  69   2.0000      -0.810588       -22.0572
  70   2.0000      -0.800707       -21.7883
  71   2.0000      -0.782593       -21.2954
  72   2.0000      -0.779382       -21.2081
  73   2.0000      -0.778307       -21.1788
  74   2.0000      -0.771852       -21.0032
  75   2.0000      -0.770965       -20.9790
  76   2.0000      -0.763274       -20.7697
  77   2.0000      -0.749010       -20.3816
  78   2.0000      -0.744000       -20.2453
  79   2.0000      -0.737022       -20.0554
  80   2.0000      -0.728511       -19.8238
  81   2.0000      -0.718514       -19.5518
  82   2.0000      -0.714576       -19.4446
  83   2.0000      -0.711754       -19.3678
  84   2.0000      -0.704076       -19.1589
  85   2.0000      -0.703386       -19.1401
  86   2.0000      -0.694224       -18.8908
  87   2.0000      -0.691665       -18.8212
  88   2.0000      -0.688230       -18.7277
  89   2.0000      -0.685239       -18.6463
  90   2.0000      -0.684819       -18.6349
  91   2.0000      -0.680589       -18.5198
  92   2.0000      -0.679577       -18.4922
  93   2.0000      -0.669348       -18.2139
  94   2.0000      -0.664925       -18.0935
  95   2.0000      -0.661947       -18.0125
  96   2.0000      -0.658304       -17.9134
  97   2.0000      -0.651168       -17.7192
  98   2.0000      -0.650090       -17.6898
  99   2.0000      -0.646472       -17.5914
 100   2.0000      -0.632710       -17.2169
 101   2.0000      -0.627718       -17.0811
 102   2.0000      -0.617523       -16.8036
 103   2.0000      -0.611295       -16.6342
 104   2.0000      -0.599585       -16.3155
 105   2.0000      -0.597388       -16.2558
 106   2.0000      -0.593481       -16.1494
 107   2.0000      -0.592372       -16.1193
 108   2.0000      -0.571815       -15.5599
 109   2.0000      -0.569229       -15.4895
 110   2.0000      -0.564547       -15.3621
 111   2.0000      -0.563234       -15.3264
 112   2.0000      -0.556542       -15.1443
 113   2.0000      -0.544209       -14.8087
 114   2.0000      -0.498104       -13.5541
 115   2.0000      -0.450405       -12.2561
 116   2.0000      -0.445797       -12.1307
 117   2.0000      -0.435773       -11.8580
 118   2.0000      -0.429851       -11.6968
 119   2.0000      -0.374020       -10.1776
 120   0.0000      -0.103461        -2.8153
 121   0.0000      -0.067368        -1.8332
 122   0.0000      -0.050463        -1.3732
 123   0.0000      -0.048380        -1.3165
 124   0.0000      -0.045328        -1.2334

MULLIKEN ATOMIC CHARGES
-----------------------
   0 N :   -0.278784
   1 C :    0.717799
   2 C :   -0.628422
   3 C :   -0.574019
   4 C :    1.502762
   5 C :   -0.601581
   6 C :   -0.697892
   7 O :   -0.991536
   8 C :   -0.806781
   9 C :    2.985092
  10 C :    0.800099
  11 C :   -0.795386
  12 C :   -0.504091
  13 C :   -0.373891
  14 C :   -0.879519
  15 C :    0.025011
  16 C :   -1.406494
  17 O :   -1.182026
  18 C :    2.695540
  19 O :   -0.770650
  20 C :   -1.268522
  21 C :   -1.483620
  22 C :   -0.723287
  23 C :    0.601115
  24 N :   -0.718414
  25 C :    1.842279
  26 C :   -1.079982
  27 C :    2.253911
  28 O :   -0.710740
  29 C :   -1.157458
  30 C :   -1.222619
  31 O :   -1.105040
  32 H :    0.302638
  33 H :    0.408166
  34 H :    0.162947
  35 H :   -0.313135
  36 H :    0.282411
  37 H :    0.477785
  38 H :    0.170834
  39 H :    0.342694
  40 H :    0.402550
  41 H :    0.511452
  42 H :    0.061238
  43 H :    0.368573
  44 H :    0.391474
  45 H :   -0.033517
  46 H :    0.128089
  47 H :    0.331459
  48 H :    0.294121
  49 H :    0.228422
  50 H :    0.305815
  51 H :    0.225632
  52 H :    0.400867
  53 H :    0.395824
  54 H :    0.506270
  55 H :    0.343108
  56 H :    0.232335
  57 H :    0.096863
  58 H :   -0.028108
  59 H :    0.481540
  60 H :    0.114277
  61 H :    0.167827
  62 N :   -0.223306
Sum of atomic charges:    1.0000000

LOEWDIN ATOMIC CHARGES
----------------------
   0 N :    0.921879
   1 C :   -0.178061
   2 C :    0.352726
   3 C :    0.356646
   4 C :   -0.443102
   5 C :    0.352466
   6 C :    0.326104
   7 O :    0.887530
   8 C :    0.595176
   9 C :   -0.124136
  10 C :   -0.083537
  11 C :    0.352067
  12 C :    0.381242
  13 C :    0.368331
  14 C :    0.380489
  15 C :    0.357059
  16 C :    0.973703
  17 O :    0.784365
  18 C :   -1.097885
  19 O :    0.868365
  20 C :    0.616825
  21 C :   -0.270630
  22 C :   -0.267698
  23 C :   -0.137698
  24 N :    0.915695
  25 C :   -0.130697
  26 C :    0.954607
  27 C :   -1.090577
  28 O :    0.857102
  29 C :    0.622758
  30 C :    0.956552
  31 O :    0.765950
  32 H :   -0.301035
  33 H :   -0.298151
  34 H :   -0.308074
  35 H :   -0.506813
  36 H :   -0.301516
  37 H :   -0.310745
  38 H :   -0.305171
  39 H :   -0.308299
  40 H :   -0.305206
  41 H :   -0.310978
  42 H :   -0.238477
  43 H :   -0.268488
  44 H :   -0.265993
  45 H :   -0.475019
  46 H :   -0.769007
  47 H :   -0.267330
  48 H :   -0.282506
  49 H :   -0.295901
  50 H :   -0.306481
  51 H :   -0.277148
  52 H :   -0.270115
  53 H :   -0.301450
  54 H :   -0.340909
  55 H :   -0.287613
  56 H :   -0.290322
  57 H :   -0.350637
  58 H :   -0.302375
  59 H :   -0.375212
  60 H :   -0.304050
  61 H :   -0.343889
  62 N :    0.745293

  Mayer bond orders larger than 0.100000
B(  0-N ,  1-C ) :   0.5640 B(  0-N ,  2-C ) :  -0.1643 B(  0-N ,  6-C ) :  -0.4707
B(  0-N ,  9-C ) :   0.6898 B(  0-N , 10-C ) :   0.1450 B(  0-N , 18-C ) :  -0.1190
B(  0-N , 21-C ) :   0.1562 B(  0-N , 22-C ) :   0.1025 B(  0-N , 35-H ) :   1.5768
B(  0-N , 46-H ) :   0.3475 B(  0-N , 59-H ) :   0.1177 B(  1-C ,  2-C ) :   1.4928
B(  1-C ,  3-C ) :  -0.4719 B(  1-C ,  5-C ) :  -0.2518 B(  1-C ,  6-C ) :   0.7831
B(  1-C ,  9-C ) :   0.2652 B(  1-C , 21-C ) :   0.2382 B(  1-C , 23-C ) :   0.1025
B(  1-C , 46-H ) :   0.1678 B(  1-C , 59-H ) :  -0.1281 B(  1-C , 62-N ) :  -0.1777
B(  2-C ,  3-C ) :   0.9243 B(  2-C ,  6-C ) :  -0.2203 B(  2-C , 21-C ) :   0.1668
B(  2-C , 58-H ) :   1.1328 B(  2-C , 61-H ) :  -0.1867 B(  3-C ,  4-C ) :   1.2611
B(  3-C ,  5-C ) :   0.1291 B(  3-C ,  6-C ) :   0.1388 B(  3-C ,  7-O ) :   0.3642
B(  3-C ,  8-C ) :   0.2146 B(  3-C , 58-H ) :  -0.1933 B(  3-C , 61-H ) :   1.2180
B(  4-C ,  5-C ) :   1.0969 B(  4-C ,  7-O ) :  -0.7265 B(  4-C ,  8-C ) :  -0.3217
B(  4-C , 59-H ) :   0.1314 B(  4-C , 60-H ) :  -0.1040 B(  4-C , 61-H ) :  -0.1213
B(  5-C ,  6-C ) :   1.8832 B(  5-C ,  7-O ) :   0.3414 B(  5-C , 60-H ) :   1.0380
B(  6-C ,  7-O ) :   0.1455 B(  6-C , 10-C ) :   0.2828 B(  6-C , 11-C ) :  -0.1250
B(  6-C , 20-C ) :  -0.1113 B(  6-C , 59-H ) :   0.3336 B(  6-C , 62-N ) :   0.1017
B(  7-O ,  8-C ) :   0.9750 B(  7-O , 60-H ) :   0.1556 B(  8-C , 32-H ) :   0.8967
B(  8-C , 36-H ) :   0.8879 B(  8-C , 37-H ) :   0.7886 B(  9-C , 10-C ) :   0.1021
B(  9-C , 15-C ) :  -0.3909 B(  9-C , 16-C ) :  -0.9954 B(  9-C , 22-C ) :   0.2361
B(  9-C , 35-H ) :  -0.6666 B(  9-C , 42-H ) :  -0.2653 B(  9-C , 43-H ) :  -0.2717
B(  9-C , 44-H ) :  -0.2757 B(  9-C , 57-H ) :  -0.1430 B(  9-C , 62-N ) :   0.3242
B( 10-C , 11-C ) :   0.5591 B( 10-C , 12-C ) :  -0.1578 B( 10-C , 13-C ) :   0.2000
B( 10-C , 14-C ) :  -0.4482 B( 10-C , 15-C ) :   1.0037 B( 10-C , 22-C ) :  -0.1386
B( 10-C , 46-H ) :   0.3239 B( 10-C , 59-H ) :   0.1055 B( 11-C , 12-C ) :   1.5102
B( 11-C , 14-C ) :   0.1885 B( 11-C , 15-C ) :  -0.3738 B( 11-C , 46-H ) :  -0.1716
B( 11-C , 56-H ) :   1.1356 B( 12-C , 13-C ) :   1.1547 B( 12-C , 14-C ) :   0.2270
B( 12-C , 15-C ) :  -0.1087 B( 12-C , 38-H ) :   1.2152 B( 12-C , 39-H ) :  -0.1022
B( 13-C , 14-C ) :   1.2908 B( 13-C , 15-C ) :  -0.2246 B( 13-C , 39-H ) :   1.0620
B( 14-C , 15-C ) :   1.2891 B( 14-C , 34-H ) :   1.1375 B( 14-C , 39-H ) :  -0.1640
B( 15-C , 28-O ) :  -0.1243 B( 15-C , 46-H ) :  -0.1486 B( 15-C , 57-H ) :   1.0744
B( 15-C , 59-H ) :  -0.1799 B( 15-C , 62-N ) :   0.1092 B( 16-C , 35-H ) :   0.1626
B( 16-C , 42-H ) :   1.4021 B( 16-C , 43-H ) :   1.0707 B( 16-C , 44-H ) :   1.0425
B( 17-O , 18-C ) :   0.1704 B( 17-O , 19-O ) :   0.2153 B( 17-O , 21-C ) :   0.4674
B( 17-O , 30-C ) :   0.1256 B( 18-C , 19-O ) :   0.3881 B( 18-C , 20-C ) :  -0.2790
B( 18-C , 21-C ) :   1.2581 B( 18-C , 22-C ) :  -0.2121 B( 18-C , 46-H ) :   0.1556
B( 18-C , 62-N ) :  -0.2516 B( 19-O , 20-C ) :   0.7597 B( 19-O , 21-C ) :   0.2357
B( 19-O , 55-H ) :  -0.1057 B( 19-O , 62-N ) :  -0.2719 B( 20-C , 53-H ) :   0.9445
B( 20-C , 54-H ) :   0.7385 B( 20-C , 55-H ) :   1.0273 B( 21-C , 22-C ) :   0.1057
B( 21-C , 24-N ) :   0.8452 B( 21-C , 25-C ) :   0.7742 B( 21-C , 27-C ) :  -0.2064
B( 21-C , 28-O ) :  -0.1331 B( 21-C , 30-C ) :   0.1368 B( 21-C , 35-H ) :   0.1162
B( 21-C , 50-H ) :   0.1231 B( 21-C , 52-H ) :   0.1179 B( 21-C , 62-N ) :   1.4172
B( 22-C , 23-C ) :   0.8663 B( 22-C , 24-N ) :   0.3513 B( 22-C , 25-C ) :  -0.1592
B( 22-C , 27-C ) :   1.4016 B( 22-C , 28-O ) :   0.2518 B( 22-C , 31-O ) :   0.6954
B( 22-C , 46-H ) :  -0.1294 B( 22-C , 47-H ) :   0.1594 B( 22-C , 62-N ) :   1.4238
B( 23-C , 24-N ) :   0.4315 B( 23-C , 25-C ) :   0.1601 B( 23-C , 26-C ) :   0.2257
B( 23-C , 27-C ) :  -0.1570 B( 23-C , 45-H ) :  -0.2069 B( 23-C , 46-H ) :  -0.1716
B( 23-C , 47-H ) :  -0.3185 B( 23-C , 49-H ) :  -0.2592 B( 23-C , 62-N ) :   0.2388
B( 24-N , 25-C ) :  -0.3474 B( 24-N , 26-C ) :  -0.1050 B( 24-N , 45-H ) :   1.4023
B( 24-N , 62-N ) :  -0.1007 B( 25-C , 45-H ) :  -0.2224 B( 25-C , 50-H ) :  -0.1990
B( 25-C , 51-H ) :  -0.1463 B( 25-C , 52-H ) :  -0.2668 B( 26-C , 47-H ) :   1.0279
B( 26-C , 48-H ) :   1.0000 B( 26-C , 49-H ) :   1.1430 B( 27-C , 28-O ) :   0.7970
B( 27-C , 29-C ) :  -0.1746 B( 27-C , 46-H ) :   0.2311 B( 27-C , 62-N ) :  -0.2585
B( 28-O , 29-C ) :   0.8868 B( 28-O , 31-O ) :   0.3152 B( 28-O , 62-N ) :  -0.4561
B( 29-C , 33-H ) :   0.9136 B( 29-C , 40-H ) :   0.8555 B( 29-C , 41-H ) :   0.7495
B( 30-C , 50-H ) :   1.0616 B( 30-C , 51-H ) :   1.1105 B( 30-C , 52-H ) :   0.9798
B( 35-H , 46-H ) :   0.2165 B( 46-H , 57-H ) :  -0.2464 B( 46-H , 62-N ) :  -1.6031
B( 53-H , 54-H ) :   0.1021 B( 57-H , 62-N ) :   0.2511 B( 59-H , 62-N ) :   0.1140

MP2 TOTAL ENERGY:    -1508.459777331 Eh
FINAL SINGLE POINT ENERGY     -1508.459777331462

DIPOLE MOMENT
-------------
                                X             Y             Z
Electronic contribution:     -3.77724      -0.89325       4.67799
Nuclear contribution   :      2.93215      -0.90135      -6.16655
                        -----------------------------------------
Total Dipole Moment    :     -0.84509      -1.79460      -1.48855
                        -----------------------------------------
Magnitude (a.u.)       :      2.48004
Magnitude (Debye)      :      6.30375

Rotational constants in cm-1:     0.006284     0.003628     0.002822
Rotational constants in MHz :   188.386870   108.762164    84.598043

                             ****ORCA TERMINATED NORMALLY****
TOTAL RUN TIME: 2 days 10 hours 3 minutes 47 seconds 490 msec
