                         Program Version 4.2.1 -  RELEASE  -
|  1> %pal
|  2>  nprocs 32
|  3> end
|  4> !RI-MP2 aug-cc-pVQZ aug-cc-pVQZ/C TightSCF
|  5> %maxcore 4500
|  6> *xyzfile 0 1  05_20R1.xyz
|  7>
|  8>
|  9>                          ****END OF INPUT****

CARTESIAN COORDINATES (ANGSTROEM)
---------------------------------
  C      2.920807    0.292774    0.209550
  C      2.009409    1.339181    0.190982
  C      0.661052    1.090160   -0.028596
  C      0.214632   -0.209261   -0.237027
  C      1.134427   -1.254320   -0.232129
  C      2.479623   -1.007209   -0.003161
  H      3.972327    0.488820    0.381185
  H      2.349826    2.356345    0.344891
  H     -0.055681    1.900747   -0.058533
  H      0.795277   -2.269383   -0.411872
  H      3.186624   -1.828239    0.000030
  C     -1.243711   -0.503828   -0.425131
  C     -2.100454   -0.743476    0.838893
  C     -2.976013    0.386012    0.286111
  H     -1.579977   -0.498180    1.762997
  H     -2.564398   -1.724378    0.923845
  H     -3.942564    0.066965   -0.113071
  O     -2.034213    0.649828   -0.772009
  H     -3.116918    1.259325    0.926133
  H     -1.369431   -1.290843   -1.176492

 Total Charge           Charge          ....    0
 Multiplicity           Mult            ....    1
 Number of Electrons    NEL             ....   72
 Basis Dimension        Dim             .... 1260

ORBITAL ENERGIES
----------------

  NO   OCC          E(Eh)            E(eV)
   0   2.0000     -20.547942      -559.1379
   1   2.0000     -11.288257      -307.1691
   2   2.0000     -11.279228      -306.9234
   3   2.0000     -11.235594      -305.7360
   4   2.0000     -11.232997      -305.6654
   5   2.0000     -11.231233      -305.6174
   6   2.0000     -11.231004      -305.6111
   7   2.0000     -11.230883      -305.6079
   8   2.0000     -11.229133      -305.5602
   9   2.0000     -11.225587      -305.4638
  10   2.0000      -1.384574       -37.6762
  11   2.0000      -1.156153       -31.4605
  12   2.0000      -1.045778       -28.4571
  13   2.0000      -1.015031       -27.6204
  14   2.0000      -1.007321       -27.4106
  15   2.0000      -0.928645       -25.2697
  16   2.0000      -0.829205       -22.5638
  17   2.0000      -0.821051       -22.3419
  18   2.0000      -0.763000       -20.7623
  19   2.0000      -0.710705       -19.3393
  20   2.0000      -0.682396       -18.5689
  21   2.0000      -0.659140       -17.9361
  22   2.0000      -0.632987       -17.2244
  23   2.0000      -0.622965       -16.9518
  24   2.0000      -0.590461       -16.0673
  25   2.0000      -0.583963       -15.8904
  26   2.0000      -0.568259       -15.4631
  27   2.0000      -0.544875       -14.8268
  28   2.0000      -0.519144       -14.1266
  29   2.0000      -0.498109       -13.5542
  30   2.0000      -0.492717       -13.4075
  31   2.0000      -0.465291       -12.6612
  32   2.0000      -0.463198       -12.6043
  33   2.0000      -0.418853       -11.3976
  34   2.0000      -0.336981        -9.1697
  35   2.0000      -0.327610        -8.9147
  36   0.0000       0.024039         0.6541
  37   0.0000       0.027184         0.7397
  38   0.0000       0.029378         0.7994
  39   0.0000       0.036468         0.9924
  40   0.0000       0.039196         1.0666

MULLIKEN ATOMIC CHARGES
-----------------------
   0 C :   -0.318843
   1 C :   -0.338469
   2 C :   -0.470569
   3 C :    0.298420
   4 C :   -0.528856
   5 C :   -0.324606
   6 H :    0.342876
   7 H :    0.221649
   8 H :    0.319359
   9 H :    0.278616
  10 H :    0.220483
  11 C :    0.668951
  12 C :   -0.776329
  13 C :   -0.352917
  14 H :    0.257337
  15 H :    0.348089
  16 H :    0.348150
  17 O :   -0.987072
  18 H :    0.362031
  19 H :    0.431700
Sum of atomic charges:   -0.0000000

LOEWDIN ATOMIC CHARGES
----------------------
   0 C :    0.334029
   1 C :    0.347407
   2 C :    0.340629
   3 C :   -0.088269
   4 C :    0.340407
   5 C :    0.341825
   6 H :   -0.323794
   7 H :   -0.320150
   8 H :   -0.333213
   9 H :   -0.309997
  10 H :   -0.320924
  11 C :   -0.248744
  12 C :    0.538144
  13 C :    0.211839
  14 H :   -0.271365
  15 H :   -0.260058
  16 H :   -0.283572
  17 O :    0.876883
  18 H :   -0.281005
  19 H :   -0.290074

  Mayer bond orders larger than 0.100000
B(  0-C ,  1-C ) :   1.1662 B(  0-C ,  5-C ) :   1.1657 B(  0-C ,  6-H ) :   0.9904
B(  0-C , 10-H ) :  -0.1071 B(  1-C ,  2-C ) :   1.3353 B(  1-C ,  3-C ) :  -0.3588
B(  1-C ,  4-C ) :   0.1626 B(  1-C ,  7-H ) :   1.1486 B(  2-C ,  3-C ) :   1.2041
B(  2-C ,  5-C ) :   0.1640 B(  2-C ,  7-H ) :  -0.1264 B(  2-C ,  8-H ) :   0.8708
B(  2-C , 11-C ) :  -0.2264 B(  3-C ,  4-C ) :   1.0178 B(  3-C ,  5-C ) :  -0.3769
B(  3-C , 11-C ) :   0.8276 B(  4-C ,  5-C ) :   1.3824 B(  4-C ,  9-H ) :   0.9749
B(  4-C , 10-H ) :  -0.1287 B(  4-C , 11-C ) :  -0.2494 B(  5-C , 10-H ) :   1.1581
B( 11-C , 12-C ) :   0.7953 B( 11-C , 13-C ) :  -0.1516 B( 11-C , 17-O ) :   0.3949
B( 11-C , 19-H ) :   0.8484 B( 12-C , 13-C ) :   1.2023 B( 12-C , 14-H ) :   0.9103
B( 12-C , 15-H ) :   0.8194 B( 12-C , 17-O ) :   0.1576 B( 13-C , 16-H ) :   0.8592
B( 13-C , 17-O ) :   0.9098 B( 13-C , 18-H ) :   0.8578

MP2 TOTAL ENERGY:     -423.430645599 Eh
FINAL SINGLE POINT ENERGY      -423.430645598790

DIPOLE MOMENT
-------------
                                X             Y             Z
Electronic contribution:      2.22415       1.03466      -2.01583
Nuclear contribution   :     -2.37531      -1.54046       2.58690
                        -----------------------------------------
Total Dipole Moment    :     -0.15116      -0.50580       0.57107
                        -----------------------------------------
Magnitude (a.u.)       :      0.77769
Magnitude (Debye)      :      1.97674

Rotational constants in cm-1:     0.119310     0.028616     0.025148
Rotational constants in MHz :  3576.828451   857.893315   753.909416

                             ****ORCA TERMINATED NORMALLY****
TOTAL RUN TIME: 0 days 0 hours 51 minutes 18 seconds 926 msec
