                         Program Version 4.2.1 -  RELEASE  -
|  1> %pal
|  2>  nprocs 32
|  3> end
|  4> !RI-MP2 aug-cc-pVQZ aug-cc-pVQZ/C TightSCF
|  5> %maxcore 4500
|  6> *xyzfile 1 1  03_30R1.xyz
|  7>
|  8>
|  9>                          ****END OF INPUT****

CARTESIAN COORDINATES (ANGSTROEM)
---------------------------------
  N     -1.244328   -0.000007   -0.000016
  C     -0.792083   -1.389852   -0.322454
  C      0.736225   -1.342192   -0.510587
  C      1.290792    0.000000    0.000019
  C     -0.792118    0.415690    1.364867
  C      0.736177    0.228912    1.417671
  C      2.811507    0.000016    0.000012
  H      3.202317   -0.220144   -0.995301
  C     -0.792124    0.974237   -1.042385
  C      0.736215    1.113232   -0.907105
  H     -1.335817   -1.688681   -1.216254
  H     -1.109523   -2.012112    0.512314
  H      0.989623   -1.470848   -1.563793
  H      1.187477   -2.171000    0.034890
  H     -1.335864   -0.208945    2.070553
  H     -1.109525    1.449759    1.486349
  H      0.989577   -0.618849    2.055712
  H      1.187435    1.115714    1.862698
  H      3.202340   -0.751863    0.688323
  H      3.202333    0.972058    0.306992
  H     -1.335804    1.897706   -0.854126
  H     -1.109643    0.562552   -1.998685
  H      0.989676    2.089688   -0.492016
  H      1.187421    1.055149   -1.897628
  F     -2.633252   -0.000044   -0.000015

 Total Charge           Charge          ....    1
 Multiplicity           Mult            ....    1
 Number of Electrons    NEL             ....   78
 Basis Dimension        Dim             .... 1490

ORBITAL ENERGIES
----------------

  NO   OCC          E(Eh)            E(eV)
   0   2.0000     -26.525194      -721.7872
   1   2.0000     -15.945873      -433.9093
   2   2.0000     -11.458863      -311.8115
   3   2.0000     -11.458862      -311.8115
   4   2.0000     -11.458842      -311.8110
   5   2.0000     -11.405474      -310.3587
   6   2.0000     -11.395847      -310.0968
   7   2.0000     -11.395846      -310.0967
   8   2.0000     -11.395802      -310.0955
   9   2.0000     -11.353497      -308.9444
  10   2.0000      -1.844248       -50.1845
  11   2.0000      -1.478405       -40.2294
  12   2.0000      -1.280471       -34.8434
  13   2.0000      -1.228670       -33.4338
  14   2.0000      -1.228666       -33.4337
  15   2.0000      -1.111172       -30.2365
  16   2.0000      -1.066123       -29.0107
  17   2.0000      -1.066120       -29.0106
  18   2.0000      -1.013413       -27.5764
  19   2.0000      -0.944244       -25.6942
  20   2.0000      -0.908499       -24.7215
  21   2.0000      -0.908493       -24.7214
  22   2.0000      -0.868161       -23.6239
  23   2.0000      -0.846158       -23.0251
  24   2.0000      -0.846151       -23.0249
  25   2.0000      -0.766541       -20.8587
  26   2.0000      -0.763279       -20.7699
  27   2.0000      -0.763276       -20.7698
  28   2.0000      -0.762883       -20.7591
  29   2.0000      -0.742725       -20.2106
  30   2.0000      -0.742722       -20.2105
  31   2.0000      -0.718351       -19.5473
  32   2.0000      -0.718346       -19.5472
  33   2.0000      -0.668137       -18.1809
  34   2.0000      -0.668136       -18.1809
  35   2.0000      -0.658891       -17.9293
  36   2.0000      -0.625298       -17.0152
  37   2.0000      -0.611456       -16.6386
  38   2.0000      -0.611451       -16.6384
  39   0.0000      -0.078048        -2.1238
  40   0.0000      -0.065219        -1.7747
  41   0.0000      -0.065219        -1.7747
  42   0.0000      -0.059741        -1.6256
  43   0.0000      -0.046855        -1.2750

MULLIKEN ATOMIC CHARGES
-----------------------
   0 N :    1.496562
   1 C :   -0.773910
   2 C :   -0.528171
   3 C :    1.576507
   4 C :   -0.773611
   5 C :   -0.528189
   6 C :   -1.124972
   7 H :    0.192860
   8 C :   -0.773854
   9 C :   -0.527895
  10 H :    0.308143
  11 H :    0.252207
  12 H :    0.258375
  13 H :    0.257857
  14 H :    0.308156
  15 H :    0.252177
  16 H :    0.258459
  17 H :    0.257803
  18 H :    0.192839
  19 H :    0.192793
  20 H :    0.308031
  21 H :    0.252188
  22 H :    0.258429
  23 H :    0.257871
  24 F :   -0.850656
Sum of atomic charges:    1.0000000

LOEWDIN ATOMIC CHARGES
----------------------
   0 N :   -0.134382
   1 C :    0.495171
   2 C :    0.586087
   3 C :   -0.264471
   4 C :    0.495178
   5 C :    0.586088
   6 C :    0.964420
   7 H :   -0.251168
   8 C :    0.495191
   9 C :    0.586085
  10 H :   -0.241207
  11 H :   -0.240252
  12 H :   -0.237928
  13 H :   -0.238286
  14 H :   -0.241204
  15 H :   -0.240260
  16 H :   -0.237922
  17 H :   -0.238286
  18 H :   -0.251168
  19 H :   -0.251166
  20 H :   -0.241217
  21 H :   -0.240240
  22 H :   -0.237924
  23 H :   -0.238293
  24 F :    0.817152

  Mayer bond orders larger than 0.100000
B(  0-N ,  1-C ) :   0.8636 B(  0-N ,  3-C ) :   0.2432 B(  0-N ,  4-C ) :   0.8634
B(  0-N ,  8-C ) :   0.8633 B(  0-N , 24-F ) :  -0.7532 B(  1-C ,  2-C ) :   1.0712
B(  1-C ,  3-C ) :  -0.1769 B(  1-C , 10-H ) :   0.9503 B(  1-C , 11-H ) :   0.9926
B(  1-C , 24-F ) :   0.3093 B(  2-C ,  3-C ) :   0.4915 B(  2-C ,  6-C ) :   0.1161
B(  2-C , 12-H ) :   0.9606 B(  2-C , 13-H ) :   0.9590 B(  3-C ,  4-C ) :  -0.1764
B(  3-C ,  5-C ) :   0.4920 B(  3-C ,  7-H ) :  -0.2394 B(  3-C ,  8-C ) :  -0.1767
B(  3-C ,  9-C ) :   0.4920 B(  3-C , 18-H ) :  -0.2396 B(  3-C , 19-H ) :  -0.2396
B(  4-C ,  5-C ) :   1.0709 B(  4-C , 14-H ) :   0.9503 B(  4-C , 15-H ) :   0.9927
B(  4-C , 24-F ) :   0.3092 B(  5-C ,  6-C ) :   0.1163 B(  5-C , 16-H ) :   0.9606
B(  5-C , 17-H ) :   0.9591 B(  6-C ,  7-H ) :   1.1452 B(  6-C ,  9-C ) :   0.1161
B(  6-C , 18-H ) :   1.1453 B(  6-C , 19-H ) :   1.1453 B(  8-C ,  9-C ) :   1.0708
B(  8-C , 20-H ) :   0.9505 B(  8-C , 21-H ) :   0.9927 B(  8-C , 24-F ) :   0.3093
B(  9-C , 22-H ) :   0.9605 B(  9-C , 23-H ) :   0.9590

MP2 TOTAL ENERGY:     -467.423337310 Eh
FINAL SINGLE POINT ENERGY      -467.423337309609

DIPOLE MOMENT
-------------
                                X             Y             Z
Electronic contribution:    -11.72158      -0.00019      -0.00002
Nuclear contribution   :     11.72359       0.00023       0.00004
                        -----------------------------------------
Total Dipole Moment    :      0.00201       0.00005       0.00002
                        -----------------------------------------
Magnitude (a.u.)       :      0.00201
Magnitude (Debye)      :      0.00510

Rotational constants in cm-1:     0.082182     0.036684     0.036684
Rotational constants in MHz :  2463.742736  1099.747685  1099.745496

                             ****ORCA TERMINATED NORMALLY****
TOTAL RUN TIME: 0 days 1 hours 53 minutes 0 seconds 181 msec
