                         Program Version 4.2.1 -  RELEASE  -
|  1> %pal
|  2>  nprocs 32
|  3> end
|  4> !RI-MP2 aug-cc-pVQZ aug-cc-pVQZ/C TightSCF
|  5> %maxcore 4500
|  6> *xyzfile 0 2  04_42P.xyz
|  7>
|  8>
|  9>                          ****END OF INPUT****

CARTESIAN COORDINATES (ANGSTROEM)
---------------------------------
  N      0.482203    0.474211   -1.113904
  S      1.857344   -0.205343   -0.509921
  O      1.584742   -0.502944    1.046038
  C      1.101885   -1.794231    1.492577
  C     -0.412772   -1.882789    1.491167
  H      1.493444   -1.866211    2.505330
  H      1.555973   -2.570532    0.875815
  C     -1.039328   -2.047633    0.149695
  H     -0.824017   -1.007957    2.006021
  H     -0.674654   -2.746036    2.126765
  C     -2.510496   -1.908962   -0.024579
  H     -0.474768   -2.575991   -0.615661
  C      0.141331    1.855422   -0.870330
  H     -0.306114    2.284705   -1.768565
  C     -0.853734    2.045242    0.255139
  F     -1.973345    1.321595    0.032924
  F     -1.219358    3.332125    0.342732
  F     -0.378745    1.670664    1.446972
  O      2.856236    0.826409   -0.516780
  O      2.012086   -1.469403   -1.185878
  C     -2.939631   -1.710747   -1.476358
  H     -2.876871   -1.081104    0.591161
  H     -3.007344   -2.809348    0.373162
  H     -2.556324   -0.768913   -1.877197
  H     -4.026802   -1.684777   -1.566824
  H     -2.569352   -2.519978   -2.110097
  H      1.047268    2.414834   -0.639473
  H     -0.278373   -0.192441   -1.198921

 Total Charge           Charge          ....    0
 Multiplicity           Mult            ....    2
 Number of Electrons    NEL             ....  129
 Basis Dimension        Dim             .... 1802

ORBITAL ENERGIES
----------------
                 SPIN UP ORBITALS
  NO   OCC          E(Eh)            E(eV)
   0   1.0000     -92.238209     -2509.9293
   1   1.0000     -26.349579      -717.0085
   2   1.0000     -26.349214      -716.9986
   3   1.0000     -26.347644      -716.9558
   4   1.0000     -20.617493      -561.0305
   5   1.0000     -20.565171      -559.6067
   6   1.0000     -20.561982      -559.5200
   7   1.0000     -15.621119      -425.0723
   8   1.0000     -11.517759      -313.4142
   9   1.0000     -11.316788      -307.9454
  10   1.0000     -11.308768      -307.7272
  11   1.0000     -11.246212      -306.0250
  12   1.0000     -11.245109      -305.9950
  13   1.0000     -11.235082      -305.7221
  14   1.0000     -11.227646      -305.5198
  15   1.0000      -9.197478      -250.2761
  16   1.0000      -6.884093      -187.3257
  17   1.0000      -6.883574      -187.3116
  18   1.0000      -6.882526      -187.2831
  19   1.0000      -1.742091       -47.4047
  20   1.0000      -1.647576       -44.8328
  21   1.0000      -1.646393       -44.8006
  22   1.0000      -1.514914       -41.2229
  23   1.0000      -1.391968       -37.8774
  24   1.0000      -1.367071       -37.1999
  25   1.0000      -1.269239       -34.5378
  26   1.0000      -1.115213       -30.3465
  27   1.0000      -1.067302       -29.0428
  28   1.0000      -1.044595       -28.4249
  29   1.0000      -0.963513       -26.2185
  30   1.0000      -0.938628       -25.5414
  31   1.0000      -0.883737       -24.0477
  32   1.0000      -0.845967       -23.0199
  33   1.0000      -0.838413       -22.8144
  34   1.0000      -0.829362       -22.5681
  35   1.0000      -0.815489       -22.1906
  36   1.0000      -0.800008       -21.7693
  37   1.0000      -0.773590       -21.0504
  38   1.0000      -0.732396       -19.9295
  39   1.0000      -0.726186       -19.7605
  40   1.0000      -0.715758       -19.4768
  41   1.0000      -0.702394       -19.1131
  42   1.0000      -0.683218       -18.5913
  43   1.0000      -0.677986       -18.4489
  44   1.0000      -0.669281       -18.2121
  45   1.0000      -0.663584       -18.0570
  46   1.0000      -0.651865       -17.7382
  47   1.0000      -0.643887       -17.5211
  48   1.0000      -0.637156       -17.3379
  49   1.0000      -0.619558       -16.8590
  50   1.0000      -0.607801       -16.5391
  51   1.0000      -0.594669       -16.1818
  52   1.0000      -0.586316       -15.9545
  53   1.0000      -0.568358       -15.4658
  54   1.0000      -0.554076       -15.0772
  55   1.0000      -0.539239       -14.6734
  56   1.0000      -0.523258       -14.2386
  57   1.0000      -0.514618       -14.0035
  58   1.0000      -0.510962       -13.9040
  59   1.0000      -0.506370       -13.7790
  60   1.0000      -0.498691       -13.5701
  61   1.0000      -0.491121       -13.3641
  62   1.0000      -0.486685       -13.2434
  63   1.0000      -0.450092       -12.2476
  64   1.0000      -0.353650        -9.6233
  65   0.0000       0.020801         0.5660
  66   0.0000       0.024571         0.6686
  67   0.0000       0.030568         0.8318
  68   0.0000       0.032924         0.8959
  69   0.0000       0.039862         1.0847

                 SPIN DOWN ORBITALS
  NO   OCC          E(Eh)            E(eV)
   0   1.0000     -92.238211     -2509.9293
   1   1.0000     -26.349563      -717.0081
   2   1.0000     -26.349218      -716.9987
   3   1.0000     -26.347643      -716.9558
   4   1.0000     -20.617602      -561.0335
   5   1.0000     -20.565146      -559.6061
   6   1.0000     -20.561956      -559.5193
   7   1.0000     -15.620294      -425.0498
   8   1.0000     -11.517747      -313.4138
   9   1.0000     -11.316813      -307.9461
  10   1.0000     -11.308255      -307.7133
  11   1.0000     -11.248249      -306.0804
  12   1.0000     -11.238063      -305.8032
  13   1.0000     -11.227042      -305.5033
  14   1.0000     -11.222368      -305.3762
  15   1.0000      -9.197483      -250.2762
  16   1.0000      -6.884078      -187.3253
  17   1.0000      -6.883603      -187.3123
  18   1.0000      -6.882527      -187.2831
  19   1.0000      -1.742079       -47.4044
  20   1.0000      -1.647578       -44.8329
  21   1.0000      -1.646364       -44.7999
  22   1.0000      -1.514860       -41.2214
  23   1.0000      -1.392045       -37.8795
  24   1.0000      -1.367007       -37.1982
  25   1.0000      -1.267461       -34.4894
  26   1.0000      -1.089671       -29.6515
  27   1.0000      -1.066418       -29.0187
  28   1.0000      -1.043404       -28.3925
  29   1.0000      -0.952111       -25.9083
  30   1.0000      -0.932102       -25.3638
  31   1.0000      -0.877084       -23.8667
  32   1.0000      -0.845354       -23.0032
  33   1.0000      -0.838370       -22.8132
  34   1.0000      -0.827938       -22.5293
  35   1.0000      -0.812355       -22.1053
  36   1.0000      -0.776230       -21.1223
  37   1.0000      -0.766069       -20.8458
  38   1.0000      -0.731955       -19.9175
  39   1.0000      -0.725712       -19.7476
  40   1.0000      -0.715348       -19.4656
  41   1.0000      -0.700649       -19.0656
  42   1.0000      -0.681644       -18.5485
  43   1.0000      -0.677898       -18.4465
  44   1.0000      -0.667858       -18.1733
  45   1.0000      -0.663445       -18.0533
  46   1.0000      -0.645574       -17.5669
  47   1.0000      -0.635387       -17.2898
  48   1.0000      -0.627762       -17.0823
  49   1.0000      -0.615133       -16.7386
  50   1.0000      -0.605321       -16.4716
  51   1.0000      -0.592923       -16.1342
  52   1.0000      -0.578418       -15.7396
  53   1.0000      -0.562648       -15.3104
  54   1.0000      -0.543999       -14.8030
  55   1.0000      -0.537903       -14.6371
  56   1.0000      -0.520971       -14.1763
  57   1.0000      -0.512566       -13.9476
  58   1.0000      -0.505671       -13.7600
  59   1.0000      -0.501527       -13.6472
  60   1.0000      -0.497464       -13.5367
  61   1.0000      -0.486584       -13.2406
  62   1.0000      -0.483743       -13.1633
  63   1.0000      -0.447619       -12.1803
  64   0.0000       0.020692         0.5631
  65   0.0000       0.024614         0.6698
  66   0.0000       0.030609         0.8329
  67   0.0000       0.032998         0.8979
  68   0.0000       0.039871         1.0849

MULLIKEN ATOMIC CHARGES AND SPIN POPULATIONS
--------------------------------------------
   0 N :   -0.726682    0.024578
   1 S :    3.218545    0.005369
   2 O :   -0.915267   -0.002318
   3 C :   -0.347648    0.016658
   4 C :   -0.464833   -0.174874
   5 H :    0.375800   -0.004573
   6 H :    0.295703   -0.000740
   7 C :   -0.011735    1.185294
   8 H :    0.215648    0.021480
   9 H :    0.338929    0.097117
  10 C :   -0.480146   -0.166050
  11 H :    0.289983   -0.131608
  12 C :   -0.773126   -0.001774
  13 H :    0.414894   -0.000328
  14 C :    2.153863    0.001186
  15 F :   -0.748791    0.000006
  16 F :   -0.698235   -0.000062
  17 F :   -0.707260   -0.000128
  18 O :   -1.366848   -0.000366
  19 O :   -1.313635    0.001567
  20 C :   -0.994024    0.031139
  21 H :    0.219867    0.017013
  22 H :    0.331972    0.091515
  23 H :    0.220405   -0.000451
  24 H :    0.298325   -0.005087
  25 H :    0.245765   -0.000349
  26 H :    0.424116    0.001069
  27 H :    0.504414   -0.005282
Sum of atomic charges         :   -0.0000000

LOEWDIN ATOMIC CHARGES AND SPIN POPULATIONS
-------------------------------------------
   0 N :    0.686909    0.017345
   1 S :   -0.637516    0.005367
   2 O :    0.650124    0.000676
   3 C :    0.147845    0.011536
   4 C :    0.481325    0.124708
   5 H :   -0.308826    0.001374
   6 H :   -0.356350    0.000172
   7 C :    0.406682    0.437590
   8 H :   -0.305165    0.013540
   9 H :   -0.268885    0.030567
  10 C :    0.475532    0.124023
  11 H :   -0.305575    0.134601
  12 C :    0.219139    0.002142
  13 H :   -0.300897    0.000119
  14 C :   -2.116848    0.000824
  15 F :    0.789669    0.000732
  16 F :    0.781039   -0.000035
  17 F :    0.793789    0.000114
  18 O :    0.334851    0.000444
  19 O :    0.359958    0.000739
  20 C :    0.914912    0.012704
  21 H :   -0.314754    0.012486
  22 H :   -0.269821    0.030321
  23 H :   -0.296302    0.004320
  24 H :   -0.277335    0.001399
  25 H :   -0.282077    0.000441
  26 H :   -0.360620    0.000377
  27 H :   -0.640802    0.031375

  Mayer bond orders larger than 0.100000
B(  0-N ,  1-S ) :   0.9827 B(  0-N , 12-C ) :   1.0790 B(  0-N , 27-H ) :   0.7714
B(  1-S ,  2-O ) :   0.5618 B(  1-S , 18-O ) :   0.7898 B(  1-S , 19-O ) :   1.0421
B(  2-O ,  3-C ) :   0.6858 B(  3-C ,  4-C ) :   1.1277 B(  3-C ,  5-H ) :   0.8669
B(  3-C ,  6-H ) :   0.9568 B(  3-C ,  7-C ) :  -0.1550 B(  4-C ,  7-C ) :   0.6795
B(  4-C ,  8-H ) :   0.8041 B(  4-C ,  9-H ) :   0.8370 B(  7-C , 10-C ) :   0.6507
B(  7-C , 11-H ) :   0.9577 B(  7-C , 20-C ) :  -0.1441 B( 10-C , 20-C ) :   1.0845
B( 10-C , 21-H ) :   0.8979 B( 10-C , 22-H ) :   0.8349 B( 12-C , 13-H ) :   0.7745
B( 12-C , 14-C ) :   1.0180 B( 12-C , 15-F ) :   0.1207 B( 12-C , 26-H ) :   0.7755
B( 14-C , 15-F ) :   0.4005 B( 14-C , 16-F ) :   0.2332 B( 14-C , 17-F ) :   0.3969
B( 19-O , 27-H ) :  -0.1236 B( 20-C , 23-H ) :   0.9376 B( 20-C , 24-H ) :   0.9885
B( 20-C , 25-H ) :   0.9555

MP2 TOTAL ENERGY:    -1251.153298081 Eh
FINAL SINGLE POINT ENERGY     -1251.153298080532

DIPOLE MOMENT
-------------
                                X             Y             Z
Electronic contribution:      8.20992      20.30833       3.31830
Nuclear contribution   :     -9.68500     -20.86466      -3.02513
                        -----------------------------------------
Total Dipole Moment    :     -1.47509      -0.55633       0.29317
                        -----------------------------------------
Magnitude (a.u.)       :      1.60354
Magnitude (Debye)      :      4.07586

Rotational constants in cm-1:     0.018429     0.017104     0.011752
Rotational constants in MHz :   552.501925   512.751372   352.320511

                             ****ORCA TERMINATED NORMALLY****
TOTAL RUN TIME: 0 days 3 hours 44 minutes 25 seconds 113 msec
