                         Program Version 4.2.1 -  RELEASE  -
|  1> %pal
|  2>  nprocs 32
|  3> end
|  4> !RI-MP2 aug-cc-pVQZ aug-cc-pVQZ/C TightSCF
|  5> %maxcore 4500
|  6> *xyzfile 1 1  10_12R1.xyz
|  7>
|  8>
|  9>                          ****END OF INPUT****

CARTESIAN COORDINATES (ANGSTROEM)
---------------------------------
  C      2.603809   -0.009870   -0.000014
  N      1.424209   -0.439239   -0.000051
  N      0.395732   -1.057837   -0.000105
  C     -0.848662   -0.418140   -0.000037
  C     -1.946293   -1.279067   -0.000115
  C     -1.002518    0.973507    0.000099
  C     -3.220404   -0.739589   -0.000056
  H     -1.779111   -2.348508   -0.000220
  C     -2.276852    1.494844    0.000157
  H     -0.139132    1.627703    0.000158
  C     -3.381681    0.639313    0.000080
  H     -4.084749   -1.390157   -0.000114
  H     -2.423950    2.566875    0.000262
  H     -4.379124    1.061277    0.000126
  C      3.296703    0.254530    1.301974
  H      2.670214    0.013129    2.157661
  H      4.207534   -0.347666    1.337782
  H      3.593108    1.304353    1.348721
  C      3.296695    0.254774   -1.301957
  H      2.670174    0.013608   -2.157686
  H      3.593175    1.304585   -1.348474
  H      4.207482   -0.347481   -1.337918

 Total Charge           Charge          ....    1
 Multiplicity           Mult            ....    1
 Number of Electrons    NEL             ....   78
 Basis Dimension        Dim             .... 1386

ORBITAL ENERGIES
----------------

  NO   OCC          E(Eh)            E(eV)
   0   2.0000     -15.867069      -431.7649
   1   2.0000     -15.864912      -431.7062
   2   2.0000     -11.523077      -313.5589
   3   2.0000     -11.429152      -311.0030
   4   2.0000     -11.403529      -310.3058
   5   2.0000     -11.403512      -310.3053
   6   2.0000     -11.398313      -310.1639
   7   2.0000     -11.395999      -310.1009
   8   2.0000     -11.388032      -309.8841
   9   2.0000     -11.377715      -309.6034
  10   2.0000     -11.373098      -309.4777
  11   2.0000      -1.619656       -44.0731
  12   2.0000      -1.381251       -37.5858
  13   2.0000      -1.305697       -35.5298
  14   2.0000      -1.205140       -32.7935
  15   2.0000      -1.174185       -31.9512
  16   2.0000      -1.144848       -31.1529
  17   2.0000      -1.138806       -30.9885
  18   2.0000      -1.036625       -28.2080
  19   2.0000      -0.987886       -26.8818
  20   2.0000      -0.912810       -24.8388
  21   2.0000      -0.867408       -23.6034
  22   2.0000      -0.849778       -23.1236
  23   2.0000      -0.846154       -23.0250
  24   2.0000      -0.829524       -22.5725
  25   2.0000      -0.785204       -21.3665
  26   2.0000      -0.758420       -20.6376
  27   2.0000      -0.751560       -20.4510
  28   2.0000      -0.741279       -20.1712
  29   2.0000      -0.730648       -19.8819
  30   2.0000      -0.727356       -19.7924
  31   2.0000      -0.719896       -19.5894
  32   2.0000      -0.699724       -19.0405
  33   2.0000      -0.666526       -18.1371
  34   2.0000      -0.648036       -17.6340
  35   2.0000      -0.640453       -17.4276
  36   2.0000      -0.579618       -15.7722
  37   2.0000      -0.489759       -13.3270
  38   2.0000      -0.488375       -13.2894
  39   0.0000      -0.119134        -3.2418
  40   0.0000      -0.076743        -2.0883
  41   0.0000      -0.059551        -1.6205
  42   0.0000      -0.057131        -1.5546
  43   0.0000      -0.056827        -1.5464

MULLIKEN ATOMIC CHARGES
-----------------------
   0 C :    0.785479
   1 N :    0.414941
   2 N :   -0.793278
   3 C :    0.251857
   4 C :   -0.422037
   5 C :   -0.095783
   6 C :   -0.410007
   7 H :    0.412707
   8 C :   -0.403410
   9 H :    0.388420
  10 C :   -0.231574
  11 H :    0.276056
  12 H :    0.297980
  13 H :    0.338823
  14 C :   -0.827062
  15 H :    0.280983
  16 H :    0.337434
  17 H :    0.303542
  18 C :   -0.827032
  19 H :    0.280981
  20 H :    0.303547
  21 H :    0.337431
Sum of atomic charges:    1.0000000

LOEWDIN ATOMIC CHARGES
----------------------
   0 C :   -0.179724
   1 N :    0.395421
   2 N :    0.482819
   3 C :   -0.324935
   4 C :    0.335576
   5 C :    0.341095
   6 C :    0.385845
   7 H :   -0.304511
   8 C :    0.383547
   9 H :   -0.312883
  10 C :    0.386027
  11 H :   -0.304732
  12 H :   -0.305264
  13 H :   -0.294409
  14 C :    0.965685
  15 H :   -0.277875
  16 H :   -0.264368
  17 H :   -0.265378
  18 C :    0.965685
  19 H :   -0.277876
  20 H :   -0.265380
  21 H :   -0.264366

  Mayer bond orders larger than 0.100000
B(  0-C ,  1-N ) :   1.0378 B(  0-C ,  2-N ) :  -0.3363 B(  0-C , 14-C ) :   0.7682
B(  0-C , 18-C ) :   0.7681 B(  1-N ,  2-N ) :   0.8042 B(  1-N ,  3-C ) :  -0.1243
B(  2-N ,  3-C ) :   0.7784 B(  2-N ,  4-C ) :   0.1035 B(  2-N ,  5-C ) :  -0.1018
B(  3-C ,  4-C ) :   1.1078 B(  3-C ,  5-C ) :   1.1089 B(  3-C ,  6-C ) :  -0.3429
B(  3-C ,  8-C ) :  -0.1561 B(  4-C ,  5-C ) :  -0.1166 B(  4-C ,  6-C ) :   1.3869
B(  4-C ,  7-H ) :   0.8280 B(  4-C ,  8-C ) :   0.1474 B(  4-C , 11-H ) :  -0.1080
B(  5-C ,  8-C ) :   1.1246 B(  5-C ,  9-H ) :   0.9052 B(  5-C , 10-C ) :  -0.1228
B(  6-C , 10-C ) :   1.1497 B(  6-C , 11-H ) :   1.0957 B(  6-C , 13-H ) :  -0.1134
B(  8-C ,  9-H ) :  -0.1002 B(  8-C , 10-C ) :   1.1856 B(  8-C , 12-H ) :   1.0474
B(  8-C , 13-H ) :  -0.1138 B( 10-C , 13-H ) :   1.0155 B( 14-C , 15-H ) :   0.9887
B( 14-C , 16-H ) :   0.9003 B( 14-C , 17-H ) :   0.8903 B( 18-C , 19-H ) :   0.9887
B( 18-C , 20-H ) :   0.8903 B( 18-C , 21-H ) :   0.9003

MP2 TOTAL ENERGY:     -457.962266773 Eh
FINAL SINGLE POINT ENERGY      -457.962266773001

DIPOLE MOMENT
-------------
                                X             Y             Z
Electronic contribution:     -6.42474      -3.04338      -0.00027
Nuclear contribution   :      8.21087       3.47627       0.00030
                        -----------------------------------------
Total Dipole Moment    :      1.78613       0.43289       0.00003
                        -----------------------------------------
Magnitude (a.u.)       :      1.83784
Magnitude (Debye)      :      4.67142

Rotational constants in cm-1:     0.099000     0.017898     0.016902
Rotational constants in MHz :  2967.951297   536.571799   506.704349

                             ****ORCA TERMINATED NORMALLY****
TOTAL RUN TIME: 0 days 1 hours 14 minutes 55 seconds 256 msec
