                         Program Version 4.2.1 -  RELEASE  -
|  1> %pal
|  2>  nprocs 32
|  3> end
|  4> !RI-MP2 aug-cc-pVQZ aug-cc-pVQZ/C TightSCF
|  5> %maxcore 4500
|  6> *xyzfile -1 1  09_19R.xyz
|  7>
|  8>
|  9>                          ****END OF INPUT****

CARTESIAN COORDINATES (ANGSTROEM)
---------------------------------
  C      5.110554   -0.583908    0.000028
  C      5.264985    0.794721    0.000020
  C      4.133800    1.605827   -0.000004
  C      2.867006    1.048702   -0.000019
  C      2.693881   -0.341162   -0.000009
  C      3.839296   -1.141343    0.000013
  H      3.721845   -2.219579    0.000019
  H      5.982017   -1.229269    0.000045
  H      6.255086    1.235988    0.000031
  H      4.241983    2.684666   -0.000013
  H      1.995837    1.691985   -0.000041
  C      1.371820   -0.976260   -0.000022
  C      0.200838   -0.339753    0.000005
  C     -1.083813   -1.102419   -0.000012
  C     -2.343191   -0.356096   -0.000002
  C     -2.452850    1.096940   -0.000006
  C     -3.811879    1.601602    0.000010
  C     -4.910689    0.794243    0.000025
  C     -4.779319   -0.611824    0.000026
  C     -3.514547   -1.141814    0.000012
  H     -3.368322   -2.215886    0.000012
  H     -5.902204    1.240882    0.000036
  H     -5.653949   -1.251764    0.000038
  H     -3.906845    2.682140    0.000008
  O     -1.495098    1.913787   -0.000033
  O     -1.046231   -2.336154   -0.000029
  H      0.095571    0.738189    0.000035
  H      1.354252   -2.063142   -0.000054

 Total Charge           Charge          ....   -1
 Multiplicity           Mult            ....    1
 Number of Electrons    NEL             ....  118
 Basis Dimension        Dim             .... 1866

ORBITAL ENERGIES
----------------

  NO   OCC          E(Eh)            E(eV)
   0   2.0000     -20.374438      -554.4166
   1   2.0000     -20.329638      -553.1976
   2   2.0000     -11.179380      -304.2064
   3   2.0000     -11.149833      -303.4024
   4   2.0000     -11.149327      -303.3886
   5   2.0000     -11.148507      -303.3663
   6   2.0000     -11.147556      -303.3404
   7   2.0000     -11.146111      -303.3011
   8   2.0000     -11.142373      -303.1994
   9   2.0000     -11.137539      -303.0678
  10   2.0000     -11.118934      -302.5616
  11   2.0000     -11.105756      -302.2030
  12   2.0000     -11.095872      -301.9340
  13   2.0000     -11.093833      -301.8785
  14   2.0000     -11.071958      -301.2833
  15   2.0000     -11.069744      -301.2231
  16   2.0000     -11.063651      -301.0573
  17   2.0000      -1.218973       -33.1699
  18   2.0000      -1.170555       -31.8524
  19   2.0000      -1.069554       -29.1040
  20   2.0000      -0.988382       -26.8952
  21   2.0000      -0.971371       -26.4323
  22   2.0000      -0.928283       -25.2599
  23   2.0000      -0.901446       -24.5296
  24   2.0000      -0.878122       -23.8949
  25   2.0000      -0.835726       -22.7413
  26   2.0000      -0.770468       -20.9655
  27   2.0000      -0.739711       -20.1286
  28   2.0000      -0.716726       -19.5031
  29   2.0000      -0.662595       -18.0301
  30   2.0000      -0.656109       -17.8536
  31   2.0000      -0.609781       -16.5930
  32   2.0000      -0.596420       -16.2294
  33   2.0000      -0.558930       -15.2093
  34   2.0000      -0.541038       -14.7224
  35   2.0000      -0.533334       -14.5127
  36   2.0000      -0.515350       -14.0234
  37   2.0000      -0.503108       -13.6903
  38   2.0000      -0.496361       -13.5067
  39   2.0000      -0.476986       -12.9795
  40   2.0000      -0.461318       -12.5531
  41   2.0000      -0.453245       -12.3334
  42   2.0000      -0.432172       -11.7600
  43   2.0000      -0.426516       -11.6061
  44   2.0000      -0.421149       -11.4601
  45   2.0000      -0.412211       -11.2168
  46   2.0000      -0.403634       -10.9834
  47   2.0000      -0.387312       -10.5393
  48   2.0000      -0.377711       -10.2780
  49   2.0000      -0.369669       -10.0592
  50   2.0000      -0.357409        -9.7256
  51   2.0000      -0.306809        -8.3487
  52   2.0000      -0.298311        -8.1175
  53   2.0000      -0.270669        -7.3653
  54   2.0000      -0.251842        -6.8530
  55   2.0000      -0.235742        -6.4149
  56   2.0000      -0.204435        -5.5630
  57   2.0000      -0.197856        -5.3839
  58   2.0000      -0.125538        -3.4161
  59   0.0000       0.077244         2.1019
  60   0.0000       0.086652         2.3579
  61   0.0000       0.095956         2.6111
  62   0.0000       0.097922         2.6646
  63   0.0000       0.104179         2.8349

MULLIKEN ATOMIC CHARGES
-----------------------
   0 C :   -0.306511
   1 C :   -0.427510
   2 C :   -0.304631
   3 C :   -0.442329
   4 C :    0.553925
   5 C :   -0.539950
   6 H :    0.220211
   7 H :    0.237127
   8 H :    0.325549
   9 H :    0.203924
  10 H :    0.265045
  11 C :   -0.025607
  12 C :   -0.772845
  13 C :    1.618851
  14 C :   -0.485771
  15 C :    1.357283
  16 C :   -0.790851
  17 C :   -0.361975
  18 C :   -0.445370
  19 C :   -0.441992
  20 H :    0.162391
  21 H :    0.252022
  22 H :    0.258288
  23 H :    0.210970
  24 O :   -1.099955
  25 O :   -1.064933
  26 H :    0.647036
  27 H :    0.197606
Sum of atomic charges:   -1.0000000

LOEWDIN ATOMIC CHARGES
----------------------
   0 C :    0.324065
   1 C :    0.317214
   2 C :    0.338089
   3 C :    0.342758
   4 C :   -0.086047
   5 C :    0.324709
   6 H :   -0.326719
   7 H :   -0.329510
   8 H :   -0.332766
   9 H :   -0.325049
  10 H :   -0.333923
  11 C :    0.352332
  12 C :    0.325029
  13 C :   -0.719705
  14 C :   -0.155891
  15 C :   -0.756297
  16 C :    0.258444
  17 C :    0.273338
  18 C :    0.300061
  19 C :    0.238696
  20 H :   -0.383389
  21 H :   -0.337009
  22 H :   -0.359189
  23 H :   -0.372320
  24 O :    0.666686
  25 O :    0.694163
  26 H :   -0.557305
  27 H :   -0.380464

  Mayer bond orders larger than 0.100000
B(  0-C ,  1-C ) :   1.1485 B(  0-C ,  3-C ) :   0.1247 B(  0-C ,  4-C ) :  -0.3843
B(  0-C ,  5-C ) :   1.2368 B(  0-C ,  7-H ) :   1.1676 B(  1-C ,  2-C ) :   1.2122
B(  1-C ,  5-C ) :   0.1083 B(  1-C ,  7-H ) :  -0.1165 B(  1-C ,  8-H ) :   0.9940
B(  2-C ,  3-C ) :   1.1735 B(  2-C ,  4-C ) :  -0.4100 B(  2-C ,  5-C ) :   0.1283
B(  2-C ,  9-H ) :   1.1554 B(  3-C ,  4-C ) :   1.2673 B(  3-C ,  5-C ) :   0.1455
B(  3-C ,  9-H ) :  -0.1268 B(  3-C , 10-H ) :   0.9586 B(  3-C , 11-C ) :  -0.3409
B(  3-C , 12-C ) :  -0.2538 B(  3-C , 26-H ) :  -0.1643 B(  4-C ,  5-C ) :   0.9658
B(  4-C ,  6-H ) :  -0.1331 B(  4-C , 11-C ) :   0.8540 B(  4-C , 12-C ) :  -0.7507
B(  4-C , 13-C ) :   0.1011 B(  4-C , 27-H ) :  -0.1616 B(  5-C ,  6-H ) :   1.0536
B(  5-C ,  7-H ) :  -0.1749 B(  5-C , 11-C ) :  -0.4093 B( 11-C , 12-C ) :   1.0287
B( 11-C , 13-C ) :  -0.6319 B( 11-C , 25-O ) :  -0.1605 B( 11-C , 27-H ) :   0.9648
B( 12-C , 13-C ) :   0.9481 B( 12-C , 14-C ) :  -0.4536 B( 12-C , 25-O ) :   0.5337
B( 12-C , 26-H ) :   0.5938 B( 13-C , 14-C ) :   0.9638 B( 13-C , 15-C ) :  -0.1639
B( 13-C , 19-C ) :  -0.3563 B( 13-C , 24-O ) :  -0.1046 B( 13-C , 26-H ) :  -0.1513
B( 14-C , 15-C ) :   1.0592 B( 14-C , 16-C ) :  -0.1445 B( 14-C , 18-C ) :  -0.2704
B( 14-C , 19-C ) :   0.8525 B( 14-C , 24-O ) :   0.4265 B( 14-C , 25-O ) :   0.5856
B( 15-C , 16-C ) :   1.0628 B( 15-C , 17-C ) :  -0.2885 B( 15-C , 24-O ) :   0.2342
B( 16-C , 17-C ) :   1.3683 B( 16-C , 19-C ) :   0.1937 B( 16-C , 21-H ) :  -0.1857
B( 16-C , 23-H ) :   1.0397 B( 16-C , 24-O ) :   0.3373 B( 17-C , 18-C ) :   1.1104
B( 17-C , 21-H ) :   1.1242 B( 18-C , 19-C ) :   1.3668 B( 18-C , 22-H ) :   1.0896
B( 19-C , 20-H ) :   1.0397 B( 19-C , 22-H ) :  -0.1240 B( 19-C , 25-O ) :  -0.1225
B( 20-H , 25-O ) :   0.1811 B( 25-O , 27-H ) :   0.1066

MP2 TOTAL ENERGY:     -727.496888368 Eh
FINAL SINGLE POINT ENERGY      -727.496888368435

DIPOLE MOMENT
-------------
                                X             Y             Z
Electronic contribution:     -1.85044      -1.34252      -0.00007
Nuclear contribution   :      4.70000       1.26727       0.00011
                        -----------------------------------------
Total Dipole Moment    :      2.84956      -0.07525       0.00004
                        -----------------------------------------
Magnitude (a.u.)       :      2.85055
Magnitude (Debye)      :      7.24552

Rotational constants in cm-1:     0.046942     0.006642     0.005819
Rotational constants in MHz :  1407.293843   199.129956   174.446096

                             ****ORCA TERMINATED NORMALLY****
TOTAL RUN TIME: 0 days 2 hours 58 minutes 33 seconds 778 msec
