                         Program Version 4.2.1 -  RELEASE  -
|  1> %pal
|  2>  nprocs 32
|  3> end
|  4> !RI-MP2 aug-cc-pVQZ aug-cc-pVQZ/C TightSCF
|  5> %maxcore 4500
|  6> *xyzfile 0 1  10_3P.xyz
|  7>
|  8>
|  9>                          ****END OF INPUT****

CARTESIAN COORDINATES (ANGSTROEM)
---------------------------------
  C     -0.862506    2.681434   -0.378439
  N      0.013085    1.543042   -0.630881
  C      0.688017    1.040691    0.559869
  O     -0.779881    0.439102   -1.077464
  C     -1.116501   -0.413235    0.036031
  C     -2.626662   -0.401106    0.203108
  C     -0.376014    0.155733    1.240392
  C      1.951677    0.272230    0.227884
  H     -1.596819    2.507202    0.415384
  H     -0.231116    3.534238   -0.124410
  H     -1.393311    2.909785   -1.301058
  C      2.291755   -0.052860   -1.079182
  C      3.449430   -0.774664   -1.341844
  C      4.280483   -1.172862   -0.305084
  C      3.948931   -0.844845    1.003328
  C      2.790732   -0.128990    1.264813
  H      1.644488    0.267514   -1.884228
  H      3.703138   -1.024141   -2.365366
  H      5.184049   -1.732919   -0.513743
  H      4.595098   -1.143670    1.820133
  H      2.540038    0.126748    2.289648
  O     -3.176551   -1.523068   -0.266487
  O     -3.258841    0.505925    0.675908
  C     -4.605948   -1.591389   -0.206728
  H     -4.870660   -2.560016   -0.621217
  H     -4.945811   -1.506465    0.825113
  H     -5.045096   -0.786748   -0.795661
  H     -0.788333   -1.418779   -0.226265
  H      0.060803   -0.623603    1.861187
  H     -1.051102    0.758631    1.846838
  H      0.944855    1.894444    1.189272

 Total Charge           Charge          ....    0
 Multiplicity           Mult            ....    1
 Number of Electrons    NEL             ....  118
 Basis Dimension        Dim             .... 1970

ORBITAL ENERGIES
----------------

  NO   OCC          E(Eh)            E(eV)
   0   2.0000     -20.609632      -560.8166
   1   2.0000     -20.587522      -560.2149
   2   2.0000     -20.547667      -559.1304
   3   2.0000     -15.608138      -424.7190
   4   2.0000     -11.380868      -309.6892
   5   2.0000     -11.299420      -307.4728
   6   2.0000     -11.288823      -307.1845
   7   2.0000     -11.273315      -306.7625
   8   2.0000     -11.242144      -305.9143
   9   2.0000     -11.238337      -305.8107
  10   2.0000     -11.237116      -305.7775
  11   2.0000     -11.232402      -305.6492
  12   2.0000     -11.230798      -305.6056
  13   2.0000     -11.229500      -305.5702
  14   2.0000     -11.228116      -305.5326
  15   2.0000     -11.223110      -305.3964
  16   2.0000      -1.473566       -40.0978
  17   2.0000      -1.425148       -38.7802
  18   2.0000      -1.368152       -37.2293
  19   2.0000      -1.174989       -31.9731
  20   2.0000      -1.146366       -31.1942
  21   2.0000      -1.085305       -29.5327
  22   2.0000      -1.024875       -27.8883
  23   2.0000      -1.013691       -27.5839
  24   2.0000      -0.991532       -26.9810
  25   2.0000      -0.943270       -25.6677
  26   2.0000      -0.864916       -23.5356
  27   2.0000      -0.849895       -23.1268
  28   2.0000      -0.822632       -22.3850
  29   2.0000      -0.789310       -21.4782
  30   2.0000      -0.776245       -21.1227
  31   2.0000      -0.731709       -19.9108
  32   2.0000      -0.716052       -19.4848
  33   2.0000      -0.693032       -18.8584
  34   2.0000      -0.678987       -18.4762
  35   2.0000      -0.669861       -18.2278
  36   2.0000      -0.657516       -17.8919
  37   2.0000      -0.642384       -17.4802
  38   2.0000      -0.624923       -17.0050
  39   2.0000      -0.607835       -16.5400
  40   2.0000      -0.601968       -16.3804
  41   2.0000      -0.588568       -16.0157
  42   2.0000      -0.582118       -15.8402
  43   2.0000      -0.571576       -15.5534
  44   2.0000      -0.551779       -15.0147
  45   2.0000      -0.548029       -14.9126
  46   2.0000      -0.538508       -14.6536
  47   2.0000      -0.531414       -14.4605
  48   2.0000      -0.527872       -14.3641
  49   2.0000      -0.505132       -13.7453
  50   2.0000      -0.493221       -13.4212
  51   2.0000      -0.488822       -13.3015
  52   2.0000      -0.481066       -13.0905
  53   2.0000      -0.478017       -13.0075
  54   2.0000      -0.468945       -12.7607
  55   2.0000      -0.437795       -11.9130
  56   2.0000      -0.380944       -10.3660
  57   2.0000      -0.335491        -9.1292
  58   2.0000      -0.328878        -8.9492
  59   0.0000       0.021519         0.5856
  60   0.0000       0.025502         0.6939
  61   0.0000       0.028189         0.7671
  62   0.0000       0.031139         0.8473
  63   0.0000       0.037569         1.0223

MULLIKEN ATOMIC CHARGES
-----------------------
   0 C :   -1.078720
   1 N :    0.013027
   2 C :    0.813055
   3 O :   -0.930107
   4 C :    0.395724
   5 C :    1.343098
   6 C :   -0.773556
   7 C :    0.622580
   8 H :    0.270362
   9 H :    0.357838
  10 H :    0.326919
  11 C :   -0.699633
  12 C :   -0.367492
  13 C :   -0.353108
  14 C :   -0.384480
  15 C :   -0.667953
  16 H :    0.234250
  17 H :    0.219476
  18 H :    0.340428
  19 H :    0.215134
  20 H :    0.217371
  21 O :   -0.828619
  22 O :   -0.940876
  23 C :   -0.815795
  24 H :    0.434310
  25 H :    0.348690
  26 H :    0.344479
  27 H :    0.240992
  28 H :    0.329760
  29 H :    0.328517
  30 H :    0.444328
Sum of atomic charges:    0.0000000

LOEWDIN ATOMIC CHARGES
----------------------
   0 C :    0.748652
   1 N :    0.203823
   2 C :   -0.100887
   3 O :    0.756355
   4 C :   -0.266670
   5 C :   -1.072562
   6 C :    0.511793
   7 C :   -0.070955
   8 H :   -0.317445
   9 H :   -0.289038
  10 H :   -0.293043
  11 C :    0.352048
  12 C :    0.354478
  13 C :    0.335940
  14 C :    0.345857
  15 C :    0.341972
  16 H :   -0.350426
  17 H :   -0.318886
  18 H :   -0.323350
  19 H :   -0.320439
  20 H :   -0.307021
  21 O :    0.860410
  22 O :    0.752945
  23 C :    0.586559
  24 H :   -0.321164
  25 H :   -0.315607
  26 H :   -0.312906
  27 H :   -0.322688
  28 H :   -0.258918
  29 H :   -0.300669
  30 H :   -0.288156

  Mayer bond orders larger than 0.100000
B(  0-C ,  1-N ) :   0.7840 B(  0-C ,  2-C ) :  -0.1317 B(  0-C ,  8-H ) :   0.9916
B(  0-C ,  9-H ) :   0.9298 B(  0-C , 10-H ) :   0.9676 B(  1-N ,  2-C ) :   0.6212
B(  1-N ,  3-O ) :   0.3724 B(  2-C ,  4-C ) :  -0.1218 B(  2-C ,  6-C ) :   0.9629
B(  2-C ,  7-C ) :   0.4116 B(  2-C , 11-C ) :  -0.2661 B(  2-C , 15-C ) :  -0.4283
B(  2-C , 30-H ) :   0.8458 B(  3-O ,  4-C ) :   0.5228 B(  3-O ,  5-C ) :   0.1605
B(  3-O ,  6-C ) :   0.1033 B(  4-C ,  5-C ) :   0.8789 B(  4-C ,  6-C ) :   1.1548
B(  4-C , 21-O ) :   0.1760 B(  4-C , 22-O ) :   0.1440 B(  4-C , 27-H ) :   0.9509
B(  5-C , 21-O ) :   0.6620 B(  5-C , 22-O ) :   1.1119 B(  5-C , 23-C ) :  -0.2424
B(  6-C , 28-H ) :   0.8809 B(  6-C , 29-H ) :   0.9094 B(  6-C , 30-H ) :   0.1298
B(  7-C , 11-C ) :   0.9841 B(  7-C , 12-C ) :  -0.4094 B(  7-C , 14-C ) :  -0.3600
B(  7-C , 15-C ) :   0.9575 B(  7-C , 20-H ) :  -0.1025 B(  7-C , 30-H ) :  -0.1019
B( 11-C , 12-C ) :   1.2810 B( 11-C , 14-C ) :   0.1699 B( 11-C , 16-H ) :   1.0213
B( 11-C , 17-H ) :  -0.1453 B( 12-C , 13-C ) :   1.1669 B( 12-C , 15-C ) :   0.1082
B( 12-C , 17-H ) :   1.1584 B( 12-C , 18-H ) :  -0.1063 B( 13-C , 14-C ) :   1.1483
B( 13-C , 15-C ) :   0.1128 B( 13-C , 18-H ) :   1.0105 B( 13-C , 19-H ) :  -0.1044
B( 14-C , 15-C ) :   1.3830 B( 14-C , 19-H ) :   1.1803 B( 15-C , 19-H ) :  -0.1420
B( 15-C , 20-H ) :   1.0518 B( 21-O , 22-O ) :   0.1746 B( 21-O , 23-C ) :   0.9380
B( 23-C , 24-H ) :   0.8363 B( 23-C , 25-H ) :   0.8983 B( 23-C , 26-H ) :   0.8967

MP2 TOTAL ENERGY:     -745.500969317 Eh
FINAL SINGLE POINT ENERGY      -745.500969316560

DIPOLE MOMENT
-------------
                                X             Y             Z
Electronic contribution:      1.23415      -1.68312      -1.76848
Nuclear contribution   :     -1.36564       1.20410       2.40526
                        -----------------------------------------
Total Dipole Moment    :     -0.13149      -0.47902       0.63678
                        -----------------------------------------
Magnitude (a.u.)       :      0.80761
Magnitude (Debye)      :      2.05279

Rotational constants in cm-1:     0.037416     0.009514     0.008827
Rotational constants in MHz :  1121.690445   285.217649   264.621004

                             ****ORCA TERMINATED NORMALLY****
TOTAL RUN TIME: 0 days 3 hours 26 minutes 13 seconds 665 msec
