                         Program Version 4.2.1 -  RELEASE  -
|  1> %pal
|  2>  nprocs 32
|  3> end
|  4> !RI-MP2 aug-cc-pVQZ aug-cc-pVQZ/C TightSCF
|  5> %maxcore 4500
|  6> *xyzfile 0 1  08_15P1.xyz
|  7>
|  8>
|  9>                          ****END OF INPUT****

CARTESIAN COORDINATES (ANGSTROEM)
---------------------------------
  C     -2.730225    1.049490    0.124214
  C     -1.628169    0.763860    1.150078
  C     -1.046233   -0.652085    1.020853
  O     -2.005727   -1.633171    0.856375
  C     -2.890825   -1.414366   -0.245878
  C     -3.678896   -0.128561   -0.044450
  H     -3.558648   -2.272406   -0.270980
  O     -2.193545    1.315124   -1.163651
  H     -3.292988    1.924550    0.467029
  H     -1.617831    2.083741   -1.088161
  O     -4.570392    0.088764   -1.114935
  H     -4.281892   -0.227004    0.861752
  H     -4.067232    0.529540   -1.810990
  O     -0.155436   -0.665743   -0.119399
  C      1.108150   -1.047294    0.052463
  O      1.584842   -1.403977    1.102828
  C      1.901393   -0.936524   -1.224301
  C      3.281238   -0.330475   -0.950178
  H      1.348737   -0.326906   -1.935708
  H      2.018741   -1.937175   -1.647657
  C      3.126489    1.026870   -0.247046
  O      2.163087    1.732544   -0.392696
  O      4.156357    1.354322    0.517098
  H      4.729434    0.556364    0.539473
  N      4.218585   -1.144983   -0.184300
  H      3.748513   -0.101746   -1.912581
  H      3.731096   -1.634045    0.561557
  H      4.708918   -1.815696   -0.760703
  N     -0.638891    1.824505    1.099343
  H     -0.227875    2.028524    1.999085
  H      0.112751    1.651083    0.440159
  H     -2.325613   -1.371009   -1.180230
  H     -2.108549    0.786759    2.132495
  H     -0.466444   -0.919620    1.900664

 Total Charge           Charge          ....    0
 Multiplicity           Mult            ....    1
 Number of Electrons    NEL             ....  140
 Basis Dimension        Dim             .... 2176

ORBITAL ENERGIES
----------------

  NO   OCC          E(Eh)            E(eV)
   0   2.0000     -20.610972      -560.8531
   1   2.0000     -20.608248      -560.7789
   2   2.0000     -20.573650      -559.8375
   3   2.0000     -20.561180      -559.4981
   4   2.0000     -20.559099      -559.4415
   5   2.0000     -20.551073      -559.2231
   6   2.0000     -20.550883      -559.2180
   7   2.0000     -15.581881      -424.0045
   8   2.0000     -15.542331      -422.9283
   9   2.0000     -11.399776      -310.2037
  10   2.0000     -11.390968      -309.9640
  11   2.0000     -11.347669      -308.7858
  12   2.0000     -11.309659      -307.7515
  13   2.0000     -11.282243      -307.0054
  14   2.0000     -11.278859      -306.9134
  15   2.0000     -11.273717      -306.7734
  16   2.0000     -11.269692      -306.6639
  17   2.0000     -11.265705      -306.5554
  18   2.0000      -1.487854       -40.4866
  19   2.0000      -1.472425       -40.0667
  20   2.0000      -1.412791       -38.4440
  21   2.0000      -1.383967       -37.6596
  22   2.0000      -1.375502       -37.4293
  23   2.0000      -1.367199       -37.2034
  24   2.0000      -1.350676       -36.7538
  25   2.0000      -1.231534       -33.5117
  26   2.0000      -1.192992       -32.4630
  27   2.0000      -1.074802       -29.2469
  28   2.0000      -1.044191       -28.4139
  29   2.0000      -1.018212       -27.7070
  30   2.0000      -0.950292       -25.8588
  31   2.0000      -0.898067       -24.4376
  32   2.0000      -0.867103       -23.5951
  33   2.0000      -0.832261       -22.6470
  34   2.0000      -0.819692       -22.3049
  35   2.0000      -0.773211       -21.0402
  36   2.0000      -0.770287       -20.9606
  37   2.0000      -0.732971       -19.9452
  38   2.0000      -0.722916       -19.6715
  39   2.0000      -0.712749       -19.3949
  40   2.0000      -0.700311       -19.0564
  41   2.0000      -0.695784       -18.9332
  42   2.0000      -0.681135       -18.5346
  43   2.0000      -0.679687       -18.4952
  44   2.0000      -0.669498       -18.2180
  45   2.0000      -0.649208       -17.6658
  46   2.0000      -0.642710       -17.4890
  47   2.0000      -0.629549       -17.1309
  48   2.0000      -0.627482       -17.0746
  49   2.0000      -0.611308       -16.6345
  50   2.0000      -0.603287       -16.4163
  51   2.0000      -0.596213       -16.2238
  52   2.0000      -0.591999       -16.1091
  53   2.0000      -0.578201       -15.7336
  54   2.0000      -0.573078       -15.5942
  55   2.0000      -0.552761       -15.0414
  56   2.0000      -0.548016       -14.9123
  57   2.0000      -0.542833       -14.7712
  58   2.0000      -0.524039       -14.2598
  59   2.0000      -0.511284       -13.9127
  60   2.0000      -0.494105       -13.4453
  61   2.0000      -0.488242       -13.2857
  62   2.0000      -0.486646       -13.2423
  63   2.0000      -0.480405       -13.0725
  64   2.0000      -0.465679       -12.6718
  65   2.0000      -0.459878       -12.5139
  66   2.0000      -0.453626       -12.3438
  67   2.0000      -0.433779       -11.8037
  68   2.0000      -0.422905       -11.5078
  69   2.0000      -0.388023       -10.5586
  70   0.0000       0.013418         0.3651
  71   0.0000       0.026942         0.7331
  72   0.0000       0.028303         0.7702
  73   0.0000       0.028980         0.7886
  74   0.0000       0.038484         1.0472

MULLIKEN ATOMIC CHARGES
-----------------------
   0 C :    0.353684
   1 C :    0.317696
   2 C :    1.078256
   3 O :   -1.238836
   4 C :   -0.342504
   5 C :    0.418266
   6 H :    0.354482
   7 O :   -1.012675
   8 H :    0.302075
   9 H :    0.330014
  10 O :   -1.072552
  11 H :    0.270764
  12 H :    0.381741
  13 O :   -0.708591
  14 C :    1.229983
  15 O :   -1.086779
  16 C :   -0.735133
  17 C :    0.068602
  18 H :    0.247507
  19 H :    0.355479
  20 C :    1.390449
  21 O :   -0.952268
  22 O :   -0.972497
  23 H :    0.384201
  24 N :   -0.794060
  25 H :    0.434343
  26 H :    0.297339
  27 H :    0.153643
  28 N :   -1.000456
  29 H :    0.077111
  30 H :    0.419165
  31 H :    0.263684
  32 H :    0.406081
  33 H :    0.381786
Sum of atomic charges:   -0.0000000

LOEWDIN ATOMIC CHARGES
----------------------
   0 C :   -0.218669
   1 C :   -0.033840
   2 C :   -0.548237
   3 O :    0.931384
   4 C :    0.194663
   5 C :   -0.244516
   6 H :   -0.297713
   7 O :    1.327836
   8 H :   -0.276353
   9 H :   -0.784867
  10 O :    1.309332
  11 H :   -0.297456
  12 H :   -0.862495
  13 O :    0.903335
  14 C :   -1.035244
  15 O :    0.804001
  16 C :    0.464266
  17 C :   -0.073146
  18 H :   -0.305602
  19 H :   -0.265777
  20 C :   -1.011278
  21 O :    0.754025
  22 O :    1.277312
  23 H :   -0.927104
  24 N :    1.297097
  25 H :   -0.279360
  26 H :   -0.555744
  27 H :   -0.450783
  28 N :    1.309721
  29 H :   -0.466376
  30 H :   -0.642774
  31 H :   -0.309315
  32 H :   -0.286066
  33 H :   -0.400255

  Mayer bond orders larger than 0.100000
B(  0-C ,  1-C ) :   0.8277 B(  0-C ,  4-C ) :  -0.1016 B(  0-C ,  5-C ) :   0.8907
B(  0-C ,  7-O ) :   0.1789 B(  0-C ,  8-H ) :   0.8978 B(  0-C , 10-O ) :   0.1931
B(  0-C , 28-N ) :   0.1601 B(  1-C ,  2-C ) :   0.7612 B(  1-C ,  3-O ) :   0.3130
B(  1-C , 28-N ) :   0.2422 B(  1-C , 32-H ) :   0.9015 B(  2-C ,  3-O ) :  -0.1197
B(  2-C , 13-O ) :   0.4681 B(  2-C , 33-H ) :   0.8261 B(  3-O ,  4-C ) :   0.7220
B(  4-C ,  5-C ) :   1.0394 B(  4-C ,  6-H ) :   0.8600 B(  4-C , 10-O ) :   0.2086
B(  4-C , 31-H ) :   0.9244 B(  5-C ,  7-O ) :   0.1169 B(  5-C , 11-H ) :   0.9168
B(  7-O ,  9-H ) :   0.9202 B( 10-O , 12-H ) :   0.8252 B( 13-O , 14-C ) :   1.1490
B( 13-O , 15-O ) :   0.1193 B( 14-C , 15-O ) :   0.8860 B( 14-C , 16-C ) :   0.9231
B( 14-C , 17-C ) :  -0.1321 B( 15-O , 16-C ) :   0.1235 B( 15-O , 33-H ) :   0.1056
B( 16-C , 17-C ) :   1.0299 B( 16-C , 18-H ) :   0.9830 B( 16-C , 19-H ) :   0.8554
B( 17-C , 20-C ) :   1.1045 B( 17-C , 21-O ) :   0.1788 B( 17-C , 22-O ) :   0.1972
B( 17-C , 24-N ) :   0.6564 B( 17-C , 25-H ) :   0.7496 B( 20-C , 21-O ) :   1.3608
B( 20-C , 22-O ) :   0.3767 B( 21-O , 22-O ) :   0.1275 B( 22-O , 23-H ) :   0.7563
B( 23-H , 24-N ) :   0.1287 B( 24-N , 26-H ) :   0.8939 B( 24-N , 27-H ) :   1.0547
B( 28-N , 29-H ) :   1.2180 B( 28-N , 30-H ) :   0.7237

MP2 TOTAL ENERGY:     -987.371653366 Eh
FINAL SINGLE POINT ENERGY      -987.371653366498

DIPOLE MOMENT
-------------
                                X             Y             Z
Electronic contribution:      3.01923       0.06000       1.12639
Nuclear contribution   :     -1.53634      -1.02356      -1.69597
                        -----------------------------------------
Total Dipole Moment    :      1.48289      -0.96356      -0.56958
                        -----------------------------------------
Magnitude (a.u.)       :      1.85791
Magnitude (Debye)      :      4.72243

Rotational constants in cm-1:     0.030132     0.007797     0.007177
Rotational constants in MHz :   903.340400   233.752664   215.165235

                             ****ORCA TERMINATED NORMALLY****
TOTAL RUN TIME: 0 days 4 hours 32 minutes 6 seconds 390 msec
