                         Program Version 4.2.1 -  RELEASE  -
|  1> %pal
|  2>  nprocs 32
|  3> end
|  4> !RI-MP2 aug-cc-pVQZ aug-cc-pVQZ/C TightSCF
|  5> %maxcore 4500
|  6> *xyzfile 0 1  04_10R1.xyz
|  7>
|  8>
|  9>                          ****END OF INPUT****

CARTESIAN COORDINATES (ANGSTROEM)
---------------------------------
  N     -0.612510   -1.091392   -0.278201
  H      0.070365   -1.526045   -0.885966
  C     -0.119102   -0.061500    0.622144
  C      1.321082   -0.350353    1.026578
  C     -0.271810    1.350155    0.021785
  H      1.704782    0.478589    1.616100
  H      1.349782   -1.252727    1.636938
  S      2.460863   -0.669419   -0.362623
  O      0.690024    2.058273   -0.211576
  H      2.399056    0.576563   -0.863686
  N     -1.548618    1.721134   -0.195862
  H     -1.719787    2.625014   -0.606549
  H     -2.316550    1.093232    0.012961
  C     -1.912179   -1.420669   -0.383091
  H     -2.094660   -2.256080   -1.075738
  O     -2.815189   -0.863977    0.216998
  H     -0.745523   -0.096202    1.518468

 Total Charge           Charge          ....    0
 Multiplicity           Mult            ....    1
 Number of Electrons    NEL             ....   78
 Basis Dimension        Dim             .... 1092

ORBITAL ENERGIES
----------------

  NO   OCC          E(Eh)            E(eV)
   0   2.0000     -91.957127     -2502.2807
   1   2.0000     -20.545616      -559.0746
   2   2.0000     -20.528895      -558.6196
   3   2.0000     -15.611651      -424.8146
   4   2.0000     -15.581806      -424.0025
   5   2.0000     -11.371326      -309.4295
   6   2.0000     -11.359848      -309.1172
   7   2.0000     -11.304342      -307.6068
   8   2.0000     -11.277946      -306.8885
   9   2.0000      -8.960012      -243.8143
  10   2.0000      -6.641626      -180.7278
  11   2.0000      -6.640755      -180.7041
  12   2.0000      -6.639937      -180.6819
  13   2.0000      -1.410404       -38.3790
  14   2.0000      -1.394905       -37.9573
  15   2.0000      -1.267646       -34.4944
  16   2.0000      -1.216471       -33.1019
  17   2.0000      -1.086844       -29.5745
  18   2.0000      -0.984650       -26.7937
  19   2.0000      -0.871677       -23.7195
  20   2.0000      -0.856412       -23.3041
  21   2.0000      -0.794827       -21.6283
  22   2.0000      -0.755346       -20.5540
  23   2.0000      -0.739537       -20.1238
  24   2.0000      -0.689411       -18.7598
  25   2.0000      -0.676376       -18.4051
  26   2.0000      -0.634528       -17.2664
  27   2.0000      -0.622172       -16.9302
  28   2.0000      -0.591005       -16.0821
  29   2.0000      -0.581412       -15.8210
  30   2.0000      -0.576450       -15.6860
  31   2.0000      -0.562874       -15.3166
  32   2.0000      -0.524486       -14.2720
  33   2.0000      -0.470162       -12.7938
  34   2.0000      -0.463632       -12.6161
  35   2.0000      -0.451662       -12.2903
  36   2.0000      -0.419267       -11.4088
  37   2.0000      -0.408082       -11.1045
  38   2.0000      -0.370496       -10.0817
  39   0.0000       0.021398         0.5823
  40   0.0000       0.028963         0.7881
  41   0.0000       0.030326         0.8252
  42   0.0000       0.038839         1.0569
  43   0.0000       0.045959         1.2506

MULLIKEN ATOMIC CHARGES
-----------------------
   0 N :   -0.495385
   1 H :    0.232014
   2 C :    0.159371
   3 C :   -0.513774
   4 C :    1.028100
   5 H :    0.324047
   6 H :    0.243497
   7 S :   -0.234021
   8 O :   -0.879007
   9 H :    0.087054
  10 N :   -0.795306
  11 H :    0.150296
  12 H :    0.390293
  13 C :    0.306870
  14 H :    0.516239
  15 O :   -0.830541
  16 H :    0.310253
Sum of atomic charges:   -0.0000000

LOEWDIN ATOMIC CHARGES
----------------------
   0 N :    0.802919
   1 H :   -0.574459
   2 C :   -0.156078
   3 C :    0.111574
   4 C :   -0.830873
   5 H :   -0.363473
   6 H :   -0.363067
   7 S :    1.635989
   8 O :    0.716637
   9 H :   -0.801228
  10 N :    1.246655
  11 H :   -0.475997
  12 H :   -0.657889
  13 C :   -0.379500
  14 H :   -0.339801
  15 O :    0.745301
  16 H :   -0.316708

  Mayer bond orders larger than 0.100000
B(  0-N ,  1-H ) :   0.9875 B(  0-N ,  2-C ) :   0.6299 B(  0-N , 13-C ) :   1.2332
B(  2-C ,  3-C ) :   0.8627 B(  2-C ,  4-C ) :   0.9303 B(  2-C ,  7-S ) :  -0.1095
B(  2-C ,  8-O ) :   0.1486 B(  2-C , 16-H ) :   0.8474 B(  3-C ,  5-H ) :   0.9173
B(  3-C ,  6-H ) :   0.9601 B(  3-C ,  7-S ) :   0.9146 B(  4-C ,  8-O ) :   1.1910
B(  4-C , 10-N ) :   1.1326 B(  7-S ,  9-H ) :   1.0392 B(  8-O , 10-N ) :   0.1423
B( 10-N , 11-H ) :   1.1080 B( 10-N , 12-H ) :   0.8004 B( 13-C , 14-H ) :   0.7472
B( 13-C , 15-O ) :   1.5278

MP2 TOTAL ENERGY:     -814.374125577 Eh
FINAL SINGLE POINT ENERGY      -814.374125577480

DIPOLE MOMENT
-------------
                                X             Y             Z
Electronic contribution:      1.15284      -0.37903      -1.44023
Nuclear contribution   :     -1.45783      -0.31089       1.34550
                        -----------------------------------------
Total Dipole Moment    :     -0.30500      -0.68992      -0.09474
                        -----------------------------------------
Magnitude (a.u.)       :      0.76026
Magnitude (Debye)      :      1.93242

Rotational constants in cm-1:     0.066174     0.034097     0.024973
Rotational constants in MHz :  1983.860749  1022.205214   748.658324

                             ****ORCA TERMINATED NORMALLY****
TOTAL RUN TIME: 0 days 0 hours 38 minutes 5 seconds 734 msec
