                         Program Version 4.2.1 -  RELEASE  -
|  1> %pal
|  2>  nprocs 32
|  3> end
|  4> !RI-MP2 aug-cc-pVQZ aug-cc-pVQZ/C TightSCF
|  5> %maxcore 4500
|  6> *xyzfile 0 1  02_28R.xyz
|  7>
|  8>
|  9>                          ****END OF INPUT****

CARTESIAN COORDINATES (ANGSTROEM)
---------------------------------
  C      1.106195   -2.749293   -0.741013
  C     -0.926828   -0.942901   -0.268226
  C      0.197715   -2.448768   -1.748367
  C      0.976090   -2.166921    0.511900
  C     -0.048741   -1.266842    0.752516
  C     -0.827920   -1.548740   -1.509967
  N     -1.972982    0.015557   -0.028809
  C     -3.186258   -0.581052    0.484615
  C     -1.800633    1.362942   -0.285220
  O     -2.695786    2.175058   -0.101205
  C     -0.495528    1.900518   -0.799448
  C      0.608047    1.235162   -1.018510
  C      1.780232    0.722453   -1.264415
  H      1.681905   -2.403068    1.298171
  H     -0.164243   -0.800942    1.722989
  C      2.855412    0.561133   -0.274419
  C      4.027834   -0.098090   -0.638579
  C      2.727947    1.029787    1.034128
  C      5.046702   -0.292966    0.282196
  H      4.135427   -0.469847   -1.651342
  C      3.744268    0.835166    1.953439
  H      1.821391    1.545294    1.328487
  C      4.907967    0.170613    1.582635
  H      5.950706   -0.809804   -0.016864
  H      3.630376    1.203385    2.966063
  H      5.701661    0.018243    2.303723
  O     -3.212788   -1.779208    0.667710
  N     -4.216536    0.241038    0.730189
  H     -4.092366    1.226635    0.534466
  C     -5.456677   -0.301841    1.244336
  H     -5.299483   -0.800315    2.202474
  H     -6.159580    0.518527    1.379409
  H     -5.884297   -1.029933    0.552583
  C     -0.523939    3.392519   -1.052318
  H     -1.288929    3.639085   -1.789932
  H     -0.777061    3.929813   -0.137618
  H      0.446455    3.728691   -1.412840
  H      1.967398    0.332146   -2.261014
  H     -1.545964   -1.301699   -2.281923
  H      0.287547   -2.919486   -2.719787
  H      1.912951   -3.446965   -0.930444

 Total Charge           Charge          ....    0
 Multiplicity           Mult            ....    1
 Number of Electrons    NEL             ....  162
 Basis Dimension        Dim             .... 2668

ORBITAL ENERGIES
----------------

  NO   OCC          E(Eh)            E(eV)
   0   2.0000     -20.543000      -559.0035
   1   2.0000     -20.510097      -558.1081
   2   2.0000     -15.615565      -424.9211
   3   2.0000     -15.568893      -423.6511
   4   2.0000     -11.383119      -309.7504
   5   2.0000     -11.377989      -309.6108
   6   2.0000     -11.276968      -306.8619
   7   2.0000     -11.272340      -306.7360
   8   2.0000     -11.265869      -306.5599
   9   2.0000     -11.255455      -306.2765
  10   2.0000     -11.254015      -306.2373
  11   2.0000     -11.252474      -306.1954
  12   2.0000     -11.241709      -305.9025
  13   2.0000     -11.241345      -305.8925
  14   2.0000     -11.240215      -305.8618
  15   2.0000     -11.239073      -305.8307
  16   2.0000     -11.238957      -305.8276
  17   2.0000     -11.238692      -305.8204
  18   2.0000     -11.237869      -305.7980
  19   2.0000     -11.236900      -305.7716
  20   2.0000     -11.236556      -305.7622
  21   2.0000     -11.235345      -305.7293
  22   2.0000     -11.227346      -305.5116
  23   2.0000      -1.422151       -38.6987
  24   2.0000      -1.391726       -37.8708
  25   2.0000      -1.263290       -34.3759
  26   2.0000      -1.226287       -33.3690
  27   2.0000      -1.172204       -31.8973
  28   2.0000      -1.152135       -31.3512
  29   2.0000      -1.121190       -30.5091
  30   2.0000      -1.062962       -28.9247
  31   2.0000      -1.026234       -27.9253
  32   2.0000      -1.025078       -27.8938
  33   2.0000      -1.018336       -27.7103
  34   2.0000      -0.988753       -26.9053
  35   2.0000      -0.956980       -26.0408
  36   2.0000      -0.918335       -24.9892
  37   2.0000      -0.868210       -23.6252
  38   2.0000      -0.841911       -22.9096
  39   2.0000      -0.840598       -22.8738
  40   2.0000      -0.834027       -22.6950
  41   2.0000      -0.820832       -22.3360
  42   2.0000      -0.792140       -21.5552
  43   2.0000      -0.755501       -20.5582
  44   2.0000      -0.732321       -19.9275
  45   2.0000      -0.718348       -19.5473
  46   2.0000      -0.685057       -18.6413
  47   2.0000      -0.679953       -18.5025
  48   2.0000      -0.665735       -18.1156
  49   2.0000      -0.653388       -17.7796
  50   2.0000      -0.651022       -17.7152
  51   2.0000      -0.633573       -17.2404
  52   2.0000      -0.624207       -16.9855
  53   2.0000      -0.619762       -16.8646
  54   2.0000      -0.613541       -16.6953
  55   2.0000      -0.606982       -16.5168
  56   2.0000      -0.596291       -16.2259
  57   2.0000      -0.595335       -16.1999
  58   2.0000      -0.591562       -16.0972
  59   2.0000      -0.588845       -16.0233
  60   2.0000      -0.580144       -15.7865
  61   2.0000      -0.563431       -15.3317
  62   2.0000      -0.549309       -14.9475
  63   2.0000      -0.544196       -14.8083
  64   2.0000      -0.534058       -14.5325
  65   2.0000      -0.532046       -14.4777
  66   2.0000      -0.520329       -14.1589
  67   2.0000      -0.513459       -13.9719
  68   2.0000      -0.506686       -13.7876
  69   2.0000      -0.505966       -13.7680
  70   2.0000      -0.500684       -13.6243
  71   2.0000      -0.465792       -12.6748
  72   2.0000      -0.444195       -12.0872
  73   2.0000      -0.418920       -11.3994
  74   2.0000      -0.414697       -11.2845
  75   2.0000      -0.390672       -10.6307
  76   2.0000      -0.382423       -10.4063
  77   2.0000      -0.353454        -9.6180
  78   2.0000      -0.349124        -9.5001
  79   2.0000      -0.339532        -9.2391
  80   2.0000      -0.305079        -8.3016
  81   0.0000       0.018708         0.5091
  82   0.0000       0.023275         0.6333
  83   0.0000       0.024709         0.6724
  84   0.0000       0.029331         0.7981
  85   0.0000       0.032340         0.8800

MULLIKEN ATOMIC CHARGES
-----------------------
   0 C :   -0.228096
   1 C :    1.238118
   2 C :   -0.171465
   3 C :   -0.206858
   4 C :   -0.650155
   5 C :   -0.837127
   6 N :   -0.858652
   7 C :    1.492394
   8 C :    1.621668
   9 O :   -1.051468
  10 C :    0.085139
  11 C :    0.280856
  12 C :   -0.187627
  13 H :    0.260586
  14 H :    0.132884
  15 C :    0.710876
  16 C :   -0.560540
  17 C :   -0.377332
  18 C :   -0.278323
  19 H :    0.248702
  20 C :   -0.399108
  21 H :    0.352447
  22 C :   -0.405596
  23 H :    0.247226
  24 H :    0.206972
  25 H :    0.338542
  26 O :   -0.922158
  27 N :   -0.884954
  28 H :    0.478668
  29 C :   -1.175839
  30 H :    0.343255
  31 H :    0.350734
  32 H :    0.344587
  33 C :   -1.171798
  34 H :    0.301361
  35 H :    0.264718
  36 H :    0.378624
  37 H :    0.049715
  38 H :    0.135088
  39 H :    0.276689
  40 H :    0.227244
Sum of atomic charges:   -0.0000000

LOEWDIN ATOMIC CHARGES
----------------------
   0 C :    0.348559
   1 C :   -0.398372
   2 C :    0.357393
   3 C :    0.346650
   4 C :    0.330220
   5 C :    0.338746
   6 N :    0.391572
   7 C :   -0.996506
   8 C :   -0.768846
   9 O :    0.847728
  10 C :   -0.091574
  11 C :    0.174175
  12 C :    0.319932
  13 H :   -0.302100
  14 H :   -0.285840
  15 C :   -0.135378
  16 C :    0.330300
  17 C :    0.324023
  18 C :    0.346881
  19 H :   -0.314597
  20 C :    0.352929
  21 H :   -0.319832
  22 C :    0.340481
  23 H :   -0.317785
  24 H :   -0.315811
  25 H :   -0.320619
  26 O :    0.742447
  27 N :    0.807801
  28 H :   -0.757363
  29 C :    0.783311
  30 H :   -0.291860
  31 H :   -0.292975
  32 H :   -0.291017
  33 C :    0.854828
  34 H :   -0.291253
  35 H :   -0.295303
  36 H :   -0.302851
  37 H :   -0.336444
  38 H :   -0.290513
  39 H :   -0.311087
  40 H :   -0.310050

  Mayer bond orders larger than 0.100000
B(  0-C ,  1-C ) :   0.1878 B(  0-C ,  2-C ) :   1.0420 B(  0-C ,  3-C ) :   1.1201
B(  0-C ,  6-N ) :  -0.1475 B(  0-C , 40-H ) :   1.1389 B(  1-C ,  2-C ) :  -0.3487
B(  1-C ,  3-C ) :  -0.4802 B(  1-C ,  4-C ) :   1.4567 B(  1-C ,  5-C ) :   1.5151
B(  1-C ,  6-N ) :   0.4549 B(  1-C ,  7-C ) :  -0.2550 B(  1-C , 11-C ) :   0.1731
B(  2-C ,  4-C ) :   0.1674 B(  2-C ,  5-C ) :   1.4788 B(  2-C ,  6-N ) :   0.2060
B(  2-C , 39-H ) :   1.0662 B(  3-C ,  4-C ) :   1.4699 B(  3-C ,  5-C ) :   0.2189
B(  3-C ,  6-N ) :   0.1962 B(  3-C , 13-H ) :   1.0882 B(  4-C ,  6-N ) :  -0.1135
B(  4-C ,  7-C ) :  -0.1162 B(  4-C , 14-H ) :   1.0573 B(  5-C ,  6-N ) :  -0.2216
B(  5-C ,  7-C ) :  -0.2421 B(  5-C , 10-C ) :  -0.1240 B(  5-C , 38-H ) :   1.2042
B(  6-N ,  7-C ) :   1.5100 B(  6-N ,  8-C ) :   1.3591 B(  6-N ,  9-O ) :   0.4070
B(  7-C , 26-O ) :   0.9151 B(  7-C , 27-N ) :   1.1237 B(  7-C , 29-C ) :  -0.1353
B(  8-C ,  9-O ) :   0.1003 B(  8-C , 10-C ) :   0.9697 B(  8-C , 11-C ) :  -0.1408
B(  9-O , 10-C ) :   0.5652 B( 10-C , 11-C ) :   1.2919 B( 10-C , 12-C ) :  -1.2341
B( 10-C , 33-C ) :   0.3654 B( 10-C , 34-H ) :  -0.2301 B( 10-C , 35-H ) :  -0.3299
B( 10-C , 36-H ) :   0.1380 B( 11-C , 12-C ) :   1.6594 B( 11-C , 15-C ) :  -0.1846
B( 12-C , 15-C ) :   0.4728 B( 12-C , 16-C ) :  -0.2624 B( 12-C , 17-C ) :  -0.2373
B( 12-C , 37-H ) :   1.1697 B( 15-C , 16-C ) :   1.0186 B( 15-C , 17-C ) :   1.0576
B( 15-C , 18-C ) :  -0.3776 B( 15-C , 19-H ) :  -0.1233 B( 15-C , 20-C ) :  -0.3928
B( 15-C , 22-C ) :   0.1239 B( 16-C , 18-C ) :   1.2378 B( 16-C , 19-H ) :   1.0172
B( 16-C , 20-C ) :   0.1653 B( 16-C , 23-H ) :  -0.1742 B( 17-C , 20-C ) :   1.2440
B( 17-C , 21-H ) :   0.8606 B( 17-C , 24-H ) :  -0.1406 B( 18-C , 22-C ) :   1.1226
B( 18-C , 23-H ) :   1.1621 B( 20-C , 22-C ) :   1.2243 B( 20-C , 24-H ) :   1.1937
B( 22-C , 23-H ) :  -0.1118 B( 22-C , 25-H ) :   1.0029 B( 26-O , 27-N ) :   0.2799
B( 27-N , 28-H ) :   0.7025 B( 27-N , 29-C ) :   0.9768 B( 29-C , 30-H ) :   0.9539
B( 29-C , 31-H ) :   0.9241 B( 29-C , 32-H ) :   0.9509 B( 33-C , 34-H ) :   1.0465
B( 33-C , 35-H ) :   1.0777 B( 33-C , 36-H ) :   0.9246 B( 34-H , 35-H ) :   0.1032

MP2 TOTAL ENERGY:     -993.148489273 Eh
FINAL SINGLE POINT ENERGY      -993.148489273077

DIPOLE MOMENT
-------------
                                X             Y             Z
Electronic contribution:     -1.02324      -1.78279      -1.41242
Nuclear contribution   :      2.17926       2.15253       1.09205
                        -----------------------------------------
Total Dipole Moment    :      1.15602       0.36974      -0.32037
                        -----------------------------------------
Magnitude (a.u.)       :      1.25528
Magnitude (Debye)      :      3.19067

Rotational constants in cm-1:     0.015802     0.005811     0.005071
Rotational constants in MHz :   473.738621   174.205515   152.014084

                             ****ORCA TERMINATED NORMALLY****
TOTAL RUN TIME: 0 days 9 hours 50 minutes 41 seconds 441 msec
