                         Program Version 4.2.1 -  RELEASE  -
|  1> %pal
|  2>  nprocs 32
|  3> end
|  4> !RI-MP2 aug-cc-pVQZ aug-cc-pVQZ/C TightSCF
|  5> %maxcore 4500
|  6> *xyzfile 0 1  10_85P.xyz
|  7>
|  8>
|  9>                          ****END OF INPUT****

CARTESIAN COORDINATES (ANGSTROEM)
---------------------------------
  C     -0.050567   -0.490725   -0.043378
  C     -1.275670    0.401581   -0.105444
  C     -2.632100   -0.175277    0.204778
  C     -2.734787   -1.651659   -0.227144
  C     -1.586107   -2.425987    0.430731
  C     -0.411322   -1.949297   -0.429334
  C     -1.131577    1.704069   -0.423841
  H     -3.408322    0.430444   -0.264741
  H     -2.786093   -0.100156    1.287439
  H     -3.725801   -2.036551    0.014378
  C     -2.359722   -1.767798   -1.695254
  H     -1.466269   -2.205408    1.492754
  H     -1.730001   -3.500632    0.309764
  C     -1.046206   -1.931679   -1.808066
  H      0.481724   -2.568903   -0.369719
  H     -0.475155   -1.959404   -2.726903
  H     -3.060638   -1.638601   -2.510057
  C      0.154213    2.264206   -0.709839
  C     -2.245435    2.600278   -0.477935
  N      1.194371    2.690433   -0.944197
  N     -3.145728    3.312284   -0.515658
  C     -0.516454    0.543006    3.438562
  C      0.058964    0.063037    2.378228
  H     -0.451929    1.598750    3.678915
  H     -1.074147   -0.094009    4.116617
  C      0.640105   -0.407384    1.311966
  C      2.066083   -0.890300    1.396361
  O      2.960334    0.020621    0.736310
  H      2.391010   -0.912393    2.433037
  H      2.178811   -1.878281    0.950658
  C      3.282310   -0.228686   -0.547634
  C      4.189848    0.828813   -1.088891
  O      2.855326   -1.175082   -1.159116
  H      3.606876    1.743556   -1.217706
  H      4.992974    1.039915   -0.383467
  H      4.590854    0.509013   -2.047213
  H      0.660865   -0.127850   -0.785530

 Total Charge           Charge          ....    0
 Multiplicity           Mult            ....    1
 Number of Electrons    NEL             ....  148
 Basis Dimension        Dim             .... 2416

ORBITAL ENERGIES
----------------

  NO   OCC          E(Eh)            E(eV)
   0   2.0000     -20.607099      -560.7477
   1   2.0000     -20.547522      -559.1265
   2   2.0000     -15.581439      -423.9925
   3   2.0000     -15.579032      -423.9270
   4   2.0000     -11.385617      -309.8184
   5   2.0000     -11.321196      -308.0654
   6   2.0000     -11.309918      -307.7585
   7   2.0000     -11.309819      -307.7558
   8   2.0000     -11.290495      -307.2300
   9   2.0000     -11.286166      -307.1122
  10   2.0000     -11.274912      -306.8060
  11   2.0000     -11.273289      -306.7618
  12   2.0000     -11.269887      -306.6692
  13   2.0000     -11.260429      -306.4119
  14   2.0000     -11.256530      -306.3058
  15   2.0000     -11.255638      -306.2815
  16   2.0000     -11.253367      -306.2197
  17   2.0000     -11.241747      -305.9035
  18   2.0000     -11.239869      -305.8524
  19   2.0000     -11.237044      -305.7755
  20   2.0000     -11.233374      -305.6757
  21   2.0000      -1.469901       -39.9980
  22   2.0000      -1.368252       -37.2320
  23   2.0000      -1.249509       -34.0009
  24   2.0000      -1.230973       -33.4965
  25   2.0000      -1.210520       -32.9399
  26   2.0000      -1.146857       -31.2076
  27   2.0000      -1.127457       -30.6797
  28   2.0000      -1.057570       -28.7779
  29   2.0000      -1.042133       -28.3579
  30   2.0000      -1.031033       -28.0558
  31   2.0000      -0.994016       -27.0486
  32   2.0000      -0.980810       -26.6892
  33   2.0000      -0.926231       -25.2040
  34   2.0000      -0.890726       -24.2379
  35   2.0000      -0.858339       -23.3566
  36   2.0000      -0.796512       -21.6742
  37   2.0000      -0.786666       -21.4063
  38   2.0000      -0.771302       -20.9882
  39   2.0000      -0.744653       -20.2630
  40   2.0000      -0.740058       -20.1380
  41   2.0000      -0.711065       -19.3491
  42   2.0000      -0.702202       -19.1079
  43   2.0000      -0.692478       -18.8433
  44   2.0000      -0.681400       -18.5418
  45   2.0000      -0.662326       -18.0228
  46   2.0000      -0.646297       -17.5866
  47   2.0000      -0.632513       -17.2116
  48   2.0000      -0.625634       -17.0244
  49   2.0000      -0.621079       -16.9004
  50   2.0000      -0.605678       -16.4813
  51   2.0000      -0.589059       -16.0291
  52   2.0000      -0.577987       -15.7278
  53   2.0000      -0.576746       -15.6940
  54   2.0000      -0.572673       -15.5832
  55   2.0000      -0.562110       -15.2958
  56   2.0000      -0.560212       -15.2441
  57   2.0000      -0.554833       -15.0978
  58   2.0000      -0.550630       -14.9834
  59   2.0000      -0.534859       -14.5543
  60   2.0000      -0.531325       -14.4581
  61   2.0000      -0.511285       -13.9128
  62   2.0000      -0.495409       -13.4808
  63   2.0000      -0.493551       -13.4302
  64   2.0000      -0.491060       -13.3624
  65   2.0000      -0.490300       -13.3417
  66   2.0000      -0.480962       -13.0877
  67   2.0000      -0.476237       -12.9591
  68   2.0000      -0.463167       -12.6034
  69   2.0000      -0.456956       -12.4344
  70   2.0000      -0.402024       -10.9396
  71   2.0000      -0.396128       -10.7792
  72   2.0000      -0.378586       -10.3018
  73   2.0000      -0.360371        -9.8062
  74   0.0000       0.014847         0.4040
  75   0.0000       0.022851         0.6218
  76   0.0000       0.025114         0.6834
  77   0.0000       0.028288         0.7698
  78   0.0000       0.034044         0.9264

MULLIKEN ATOMIC CHARGES
-----------------------
   0 C :    0.776293
   1 C :    0.810622
   2 C :   -0.730640
   3 C :   -0.108715
   4 C :   -0.814874
   5 C :    0.228416
   6 C :   -0.544381
   7 H :    0.188465
   8 H :    0.356526
   9 H :    0.305603
  10 C :   -0.592125
  11 H :    0.323708
  12 H :    0.162503
  13 C :   -0.646426
  14 H :    0.288249
  15 H :    0.278617
  16 H :    0.239576
  17 C :    0.817131
  18 C :    0.702735
  19 N :   -1.066684
  20 N :   -1.011513
  21 C :   -0.884839
  22 C :    0.155114
  23 H :    0.301211
  24 H :    0.328929
  25 C :   -0.237724
  26 C :   -0.283821
  27 O :   -0.846274
  28 H :    0.357072
  29 H :    0.362707
  30 C :    1.281433
  31 C :   -0.802468
  32 O :   -1.043399
  33 H :    0.370165
  34 H :    0.271129
  35 H :    0.294548
  36 H :    0.413131
Sum of atomic charges:    0.0000000

LOEWDIN ATOMIC CHARGES
----------------------
   0 C :    0.071975
   1 C :   -0.076549
   2 C :    0.539959
   3 C :    0.140252
   4 C :    0.528586
   5 C :    0.126771
   6 C :   -0.199564
   7 H :   -0.298263
   8 H :   -0.252057
   9 H :   -0.240823
  10 C :    0.431031
  11 H :   -0.260608
  12 H :   -0.237169
  13 C :    0.435360
  14 H :   -0.265875
  15 H :   -0.265041
  16 H :   -0.273037
  17 C :   -0.319082
  18 C :   -0.341529
  19 N :    0.495939
  20 N :    0.450838
  21 C :    0.780681
  22 C :    0.212617
  23 H :   -0.362878
  24 H :   -0.364925
  25 C :   -0.069431
  26 C :    0.175918
  27 O :    0.893968
  28 H :   -0.316512
  29 H :   -0.355950
  30 C :   -1.055453
  31 C :    0.873963
  32 O :    0.757088
  33 H :   -0.351864
  34 H :   -0.298481
  35 H :   -0.311909
  36 H :   -0.397945

  Mayer bond orders larger than 0.100000
B(  0-C ,  1-C ) :   0.4717 B(  0-C ,  2-C ) :  -0.1408 B(  0-C ,  3-C ) :   0.1344
B(  0-C ,  5-C ) :   0.5484 B(  0-C ,  6-C ) :  -0.6252 B(  0-C , 14-H ) :  -0.1316
B(  0-C , 17-C ) :   0.1271 B(  0-C , 19-N ) :   0.1052 B(  0-C , 21-C ) :   0.1251
B(  0-C , 22-C ) :   0.1097 B(  0-C , 25-C ) :   0.5393 B(  0-C , 36-H ) :   0.7563
B(  1-C ,  2-C ) :   0.3264 B(  1-C ,  3-C ) :  -0.1435 B(  1-C ,  6-C ) :   1.6978
B(  1-C ,  7-H ) :  -0.2347 B(  1-C , 10-C ) :   0.1112 B(  1-C , 17-C ) :  -0.5134
B(  1-C , 18-C ) :  -0.3230 B(  1-C , 20-N ) :   0.1287 B(  1-C , 22-C ) :   0.1252
B(  1-C , 36-H ) :  -0.2714 B(  2-C ,  3-C ) :   1.0735 B(  2-C ,  7-H ) :   1.1092
B(  2-C ,  8-H ) :   0.8943 B(  3-C ,  4-C ) :   1.0019 B(  3-C ,  9-H ) :   0.9473
B(  3-C , 10-C ) :   0.9357 B(  3-C , 13-C ) :  -0.1507 B(  4-C ,  5-C ) :   0.4461
B(  4-C , 11-H ) :   0.9757 B(  4-C , 12-H ) :   1.0912 B(  4-C , 13-C ) :   0.2200
B(  5-C , 10-C ) :  -0.2866 B(  5-C , 13-C ) :   0.6369 B(  5-C , 14-H ) :   1.0737
B(  5-C , 25-C ) :   0.1509 B(  5-C , 32-O ) :   0.1036 B(  6-C , 17-C ) :   1.5169
B(  6-C , 18-C ) :   1.4073 B( 10-C , 13-C ) :   1.5716 B( 10-C , 16-H ) :   1.1519
B( 13-C , 14-H ) :  -0.1615 B( 13-C , 15-H ) :   1.0799 B( 17-C , 18-C ) :  -0.1102
B( 17-C , 19-N ) :   2.0016 B( 18-C , 20-N ) :   1.9172 B( 21-C , 22-C ) :   1.6597
B( 21-C , 23-H ) :   1.0721 B( 21-C , 24-H ) :   1.0360 B( 21-C , 25-C ) :  -0.3268
B( 22-C , 23-H ) :  -0.2165 B( 22-C , 24-H ) :  -0.2005 B( 22-C , 25-C ) :   1.4047
B( 22-C , 26-C ) :  -0.1362 B( 22-C , 36-H ) :   0.1219 B( 25-C , 26-C ) :   0.7189
B( 25-C , 27-O ) :  -0.1610 B( 25-C , 29-H ) :  -0.1520 B( 26-C , 27-O ) :   0.6548
B( 26-C , 28-H ) :   0.9551 B( 26-C , 29-H ) :   1.0733 B( 26-C , 32-O ) :   0.1250
B( 27-O , 30-C ) :   0.7309 B( 27-O , 36-H ) :   0.1157 B( 29-H , 32-O ) :  -0.1220
B( 30-C , 31-C ) :   0.7375 B( 30-C , 32-O ) :   1.1537 B( 30-C , 34-H ) :  -0.1046
B( 31-C , 33-H ) :   0.7926 B( 31-C , 34-H ) :   0.9854 B( 31-C , 35-H ) :   1.0176

MP2 TOTAL ENERGY:     -915.780652359 Eh
FINAL SINGLE POINT ENERGY      -915.780652358968

DIPOLE MOMENT
-------------
                                X             Y             Z
Electronic contribution:     -0.79955       9.67849      -2.79370
Nuclear contribution   :      0.79817     -11.58461       3.92946
                        -----------------------------------------
Total Dipole Moment    :     -0.00138      -1.90612       1.13576
                        -----------------------------------------
Magnitude (a.u.)       :      2.21883
Magnitude (Debye)      :      5.63983

Rotational constants in cm-1:     0.013698     0.009352     0.008058
Rotational constants in MHz :   410.656956   280.365734   241.585550

                             ****ORCA TERMINATED NORMALLY****
TOTAL RUN TIME: 0 days 8 hours 41 minutes 24 seconds 476 msec
