                         Program Version 4.2.1 -  RELEASE  -
|  1> %pal
|  2>  nprocs 32
|  3> end
|  4> !RI-MP2 aug-cc-pVQZ aug-cc-pVQZ/C TightSCF
|  5> %maxcore 4500
|  6> *xyzfile 0 2  04_5R2.xyz
|  7>
|  8>
|  9>                          ****END OF INPUT****

CARTESIAN COORDINATES (ANGSTROEM)
---------------------------------
  C     -0.573656    0.000024   -0.013398
  H     -0.867453   -0.000871    1.053485
  H     -1.001399    0.909059   -0.456080
  H     -1.001330   -0.908398   -0.457425
  O      0.789015    0.000008   -0.007449

 Total Charge           Charge          ....    0
 Multiplicity           Mult            ....    2
 Number of Electrons    NEL             ....   17
 Basis Dimension        Dim             ....  298

ORBITAL ENERGIES
----------------
                 SPIN UP ORBITALS
  NO   OCC          E(Eh)            E(eV)
   0   1.0000     -20.619040      -561.0726
   1   1.0000     -11.281486      -306.9848
   2   1.0000      -1.409686       -38.3595
   3   1.0000      -0.922293       -25.0969
   4   1.0000      -0.708671       -19.2839
   5   1.0000      -0.657146       -17.8819
   6   1.0000      -0.630072       -17.1451
   7   1.0000      -0.516980       -14.0678
   8   1.0000      -0.479962       -13.0604
   9   0.0000       0.025717         0.6998
  10   0.0000       0.041687         1.1344
  11   0.0000       0.042199         1.1483
  12   0.0000       0.063738         1.7344
  13   0.0000       0.102189         2.7807

                 SPIN DOWN ORBITALS
  NO   OCC          E(Eh)            E(eV)
   0   1.0000     -20.579340      -559.9923
   1   1.0000     -11.284354      -307.0629
   2   1.0000      -1.278681       -34.7947
   3   1.0000      -0.890790       -24.2396
   4   1.0000      -0.641801       -17.4643
   5   1.0000      -0.596243       -16.2246
   6   1.0000      -0.580794       -15.8042
   7   1.0000      -0.446865       -12.1598
   8   0.0000       0.025846         0.7033
   9   0.0000       0.041655         1.1335
  10   0.0000       0.042232         1.1492
  11   0.0000       0.064219         1.7475
  12   0.0000       0.084992         2.3128

MULLIKEN ATOMIC CHARGES AND SPIN POPULATIONS
--------------------------------------------
   0 C :   -0.339785   -0.168573
   1 H :    0.239900    0.099616
   2 H :    0.258771    0.021139
   3 H :    0.258743    0.021206
   4 O :   -0.417629    1.026611
Sum of atomic charges         :   -0.0000000

LOEWDIN ATOMIC CHARGES AND SPIN POPULATIONS
-------------------------------------------
   0 C :    0.363906    0.170803
   1 H :   -0.371129    0.038336
   2 H :   -0.356842    0.007262
   3 H :   -0.356847    0.007285
   4 O :    0.720912    0.776315

  Mayer bond orders larger than 0.100000
B(  0-C ,  1-H ) :   0.8907 B(  0-C ,  2-H ) :   0.9150 B(  0-C ,  3-H ) :   0.9150
B(  0-C ,  4-O ) :   0.8502

MP2 TOTAL ENERGY:     -114.875553357 Eh
FINAL SINGLE POINT ENERGY      -114.875553356970

DIPOLE MOMENT
-------------
                                X             Y             Z
Electronic contribution:      2.20177       0.00015      -0.10439
Nuclear contribution   :     -2.94000      -0.00022       0.14389
                        -----------------------------------------
Total Dipole Moment    :     -0.73823      -0.00007       0.03950
                        -----------------------------------------
Magnitude (a.u.)       :      0.73928
Magnitude (Debye)      :      1.87911

Rotational constants in cm-1:     5.257345     0.937865     0.931487
Rotational constants in MHz : 157611.229439 28116.495985 27925.273417

                             ****ORCA TERMINATED NORMALLY****
TOTAL RUN TIME: 0 days 0 hours 0 minutes 37 seconds 101 msec
