                         Program Version 4.2.1 -  RELEASE  -
|  1> %pal
|  2>  nprocs 32
|  3> end
|  4> !RI-MP2 aug-cc-pVQZ aug-cc-pVQZ/C TightSCF
|  5> %maxcore 4500
|  6> *xyzfile 1 1  08_8TS.xyz
|  7>
|  8>
|  9>                          ****END OF INPUT****

CARTESIAN COORDINATES (ANGSTROEM)
---------------------------------
  N     -2.226533   -0.667593   -1.574676
  C     -3.373811   -1.131618   -0.805416
  C     -3.041896   -1.195320    0.676761
  H     -3.710459   -2.126723   -1.121973
  H     -4.215356   -0.447020   -0.947861
  O     -1.972693   -0.895213    1.126261
  O     -4.024456   -1.614571    1.476205
  C     -1.308376    1.138508   -1.097637
  S      0.126429    2.826570   -0.401844
  H     -0.544748    0.852360   -1.794449
  H     -2.123797    1.772316   -1.412601
  H     -1.280163    0.755666   -0.094230
  H     -4.829792   -1.842497    0.995999
  C      1.098153    1.737722    0.690802
  C     -0.875267    3.661187    0.851085
  H     -1.569042    4.319330    0.330714
  H     -0.234610    4.260880    1.495302
  H     -1.428293    2.934417    1.446144
  C      2.095011    0.894796   -0.086896
  H      0.413951    1.099781    1.249422
  H      1.633518    2.373516    1.397671
  C      2.729703   -0.209701    0.759987
  O      1.448717    0.230869   -1.186716
  H      2.877014    1.533669   -0.506276
  C      1.662968   -1.169936   -1.168904
  C      2.903308   -1.333139   -0.268677
  O      2.930336   -2.603931    0.342782
  H      3.800950   -1.155821   -0.866254
  O      1.827951   -0.616489    1.766033
  H      3.678214    0.115881    1.197101
  N      0.459591   -1.851520   -0.727421
  H      1.872559   -1.490582   -2.190295
  H      2.104877   -1.487674    2.076758
  H      3.810659   -2.985439    0.299365
  H     -2.430171   -0.685895   -2.568877
  H     -1.384759   -1.238048   -1.395780
  H      0.600196   -2.854850   -0.806035
  H      0.287371   -1.654897    0.257178

 Total Charge           Charge          ....    1
 Multiplicity           Mult            ....    1
 Number of Electrons    NEL             ....  144
 Basis Dimension        Dim             .... 2330

ORBITAL ENERGIES
----------------

  NO   OCC          E(Eh)            E(eV)
   0   2.0000     -92.098671     -2506.1322
   1   2.0000     -20.730430      -564.1037
   2   2.0000     -20.683733      -562.8330
   3   2.0000     -20.677682      -562.6683
   4   2.0000     -20.667723      -562.3973
   5   2.0000     -20.667170      -562.3823
   6   2.0000     -15.707060      -427.4108
   7   2.0000     -15.656855      -426.0447
   8   2.0000     -11.511092      -313.2327
   9   2.0000     -11.440625      -311.3152
  10   2.0000     -11.425641      -310.9075
  11   2.0000     -11.415949      -310.6438
  12   2.0000     -11.411094      -310.5117
  13   2.0000     -11.401602      -310.2534
  14   2.0000     -11.398971      -310.1818
  15   2.0000     -11.379671      -309.6566
  16   2.0000     -11.375869      -309.5531
  17   2.0000      -9.100269      -247.6309
  18   2.0000      -6.781574      -184.5360
  19   2.0000      -6.780862      -184.5166
  20   2.0000      -6.780254      -184.5001
  21   2.0000      -1.589203       -43.2444
  22   2.0000      -1.525463       -41.5100
  23   2.0000      -1.493212       -40.6324
  24   2.0000      -1.492881       -40.6233
  25   2.0000      -1.471240       -40.0345
  26   2.0000      -1.345609       -36.6159
  27   2.0000      -1.294888       -35.2357
  28   2.0000      -1.218974       -33.1700
  29   2.0000      -1.161082       -31.5947
  30   2.0000      -1.123955       -30.5844
  31   2.0000      -1.116460       -30.3804
  32   2.0000      -1.080546       -29.4031
  33   2.0000      -1.040109       -28.3028
  34   2.0000      -0.958492       -26.0819
  35   2.0000      -0.954973       -25.9861
  36   2.0000      -0.934233       -25.4218
  37   2.0000      -0.901703       -24.5366
  38   2.0000      -0.872207       -23.7340
  39   2.0000      -0.853040       -23.2124
  40   2.0000      -0.833044       -22.6683
  41   2.0000      -0.815656       -22.1951
  42   2.0000      -0.810255       -22.0482
  43   2.0000      -0.803333       -21.8598
  44   2.0000      -0.791749       -21.5446
  45   2.0000      -0.782555       -21.2944
  46   2.0000      -0.773204       -21.0399
  47   2.0000      -0.757223       -20.6051
  48   2.0000      -0.747628       -20.3440
  49   2.0000      -0.737472       -20.0676
  50   2.0000      -0.729704       -19.8563
  51   2.0000      -0.722203       -19.6522
  52   2.0000      -0.716725       -19.5031
  53   2.0000      -0.712506       -19.3883
  54   2.0000      -0.702375       -19.1126
  55   2.0000      -0.693695       -18.8764
  56   2.0000      -0.690513       -18.7898
  57   2.0000      -0.687750       -18.7146
  58   2.0000      -0.662348       -18.0234
  59   2.0000      -0.653834       -17.7917
  60   2.0000      -0.639776       -17.4092
  61   2.0000      -0.627258       -17.0685
  62   2.0000      -0.617936       -16.8149
  63   2.0000      -0.606574       -16.5057
  64   2.0000      -0.604525       -16.4500
  65   2.0000      -0.579820       -15.7777
  66   2.0000      -0.573804       -15.6140
  67   2.0000      -0.566296       -15.4097
  68   2.0000      -0.557900       -15.1812
  69   2.0000      -0.548106       -14.9147
  70   2.0000      -0.510369       -13.8879
  71   2.0000      -0.474164       -12.9027
  72   0.0000      -0.068471        -1.8632
  73   0.0000      -0.056381        -1.5342
  74   0.0000      -0.053085        -1.4445
  75   0.0000      -0.051689        -1.4065
  76   0.0000      -0.041834        -1.1384

MULLIKEN ATOMIC CHARGES
-----------------------
   0 N :   -0.418043
   1 C :   -0.531477
   2 C :    1.334468
   3 H :    0.328384
   4 H :    0.292095
   5 O :   -0.984509
   6 O :   -0.904692
   7 C :   -0.398861
   8 S :   -0.202689
   9 H :    0.399348
  10 H :    0.382193
  11 H :    0.586689
  12 H :    0.378974
  13 C :   -0.462316
  14 C :   -1.212751
  15 H :    0.394968
  16 H :    0.406003
  17 H :    0.314993
  18 C :    0.330473
  19 H :    0.307635
  20 H :    0.365516
  21 C :    0.338919
  22 O :   -1.074543
  23 H :    0.348350
  24 C :    0.174064
  25 C :    0.275018
  26 O :   -0.948814
  27 H :    0.326976
  28 O :   -0.999529
  29 H :    0.368594
  30 N :   -0.554446
  31 H :    0.531979
  32 H :    0.323094
  33 H :    0.283374
  34 H :    0.096549
  35 H :    0.314920
  36 H :    0.084189
  37 H :    0.404906
Sum of atomic charges:    1.0000000

LOEWDIN ATOMIC CHARGES
----------------------
   0 N :    1.194306
   1 C :    0.390039
   2 C :   -0.970582
   3 H :   -0.264880
   4 H :   -0.274301
   5 O :    0.765098
   6 O :    1.276550
   7 C :    0.963888
   8 S :    1.441413
   9 H :   -0.429460
  10 H :   -0.264595
  11 H :   -0.489119
  12 H :   -0.777260
  13 C :    0.251664
  14 C :    0.680800
  15 H :   -0.353207
  16 H :   -0.341967
  17 H :   -0.338895
  18 C :   -0.250170
  19 H :   -0.391042
  20 H :   -0.314327
  21 C :   -0.197943
  22 O :    0.926222
  23 H :   -0.286397
  24 C :   -0.329884
  25 C :   -0.199929
  26 O :    1.318761
  27 H :   -0.269076
  28 O :    1.327737
  29 H :   -0.257776
  30 N :    1.308240
  31 H :   -0.294763
  32 H :   -0.794644
  33 H :   -0.734477
  34 H :   -0.405284
  35 H :   -0.595483
  36 H :   -0.463978
  37 H :   -0.555278

  Mayer bond orders larger than 0.100000
B(  0-N ,  1-C ) :   1.1142 B(  0-N ,  7-C ) :   0.3987 B(  0-N , 34-H ) :   1.1542
B(  0-N , 35-H ) :   0.8535 B(  1-C ,  2-C ) :   1.1411 B(  1-C ,  3-H ) :   0.8340
B(  1-C ,  4-H ) :   0.8629 B(  1-C ,  6-O ) :   0.1373 B(  2-C ,  5-O ) :   1.5960
B(  2-C ,  6-O ) :   0.3472 B(  5-O ,  6-O ) :   0.1078 B(  5-O , 11-H ) :  -0.2312
B(  6-O , 12-H ) :   0.8608 B(  7-C ,  8-S ) :   0.3498 B(  7-C ,  9-H ) :   0.7692
B(  7-C , 10-H ) :   0.8753 B(  7-C , 11-H ) :   0.7956 B(  8-S , 11-H ) :  -0.1834
B(  8-S , 13-C ) :   0.7284 B(  8-S , 14-C ) :   1.2510 B(  8-S , 18-C ) :  -0.1401
B(  9-H , 11-H ) :   0.1833 B( 13-C , 14-C ) :  -0.1684 B( 13-C , 18-C ) :   0.7153
B( 13-C , 19-H ) :   0.8414 B( 13-C , 20-H ) :   0.8987 B( 14-C , 15-H ) :   0.8468
B( 14-C , 16-H ) :   0.8415 B( 14-C , 17-H ) :   0.8727 B( 18-C , 21-C ) :   0.9762
B( 18-C , 22-O ) :   0.6082 B( 18-C , 23-H ) :   0.8718 B( 18-C , 25-C ) :  -0.1442
B( 21-C , 25-C ) :   1.1005 B( 21-C , 28-O ) :   0.5164 B( 21-C , 29-H ) :   0.8816
B( 22-O , 24-C ) :   0.7170 B( 24-C , 25-C ) :   0.9996 B( 24-C , 26-O ) :   0.1809
B( 24-C , 30-N ) :   1.0501 B( 24-C , 31-H ) :   0.6667 B( 25-C , 26-O ) :   0.2919
B( 25-C , 27-H ) :   0.9401 B( 25-C , 28-O ) :   0.1131 B( 26-O , 33-H ) :   0.9909
B( 28-O , 32-H ) :   0.8634 B( 28-O , 37-H ) :  -0.1010 B( 30-N , 36-H ) :   1.1008
B( 30-N , 37-H ) :   0.9004

MP2 TOTAL ENERGY:    -1237.498270565 Eh
FINAL SINGLE POINT ENERGY     -1237.498270564756

DIPOLE MOMENT
-------------
                                X             Y             Z
Electronic contribution:      1.55616      -1.87703       1.46410
Nuclear contribution   :     -2.71257       1.88028      -2.93671
                        -----------------------------------------
Total Dipole Moment    :     -1.15642       0.00324      -1.47262
                        -----------------------------------------
Magnitude (a.u.)       :      1.87241
Magnitude (Debye)      :      4.75928

Rotational constants in cm-1:     0.014665     0.010505     0.007683
Rotational constants in MHz :   439.658163   314.942333   230.323982

                             ****ORCA TERMINATED NORMALLY****
TOTAL RUN TIME: 0 days 6 hours 5 minutes 13 seconds 821 msec
