                         Program Version 4.2.1 -  RELEASE  -
|  1> %pal
|  2>  nprocs 32
|  3> end
|  4> !RI-MP2 aug-cc-pVQZ aug-cc-pVQZ/C TightSCF
|  5> %maxcore 4500
|  6> *xyzfile -1 1  09_22TS.xyz
|  7>
|  8>
|  9>                          ****END OF INPUT****

CARTESIAN COORDINATES (ANGSTROEM)
---------------------------------
  C     -5.810851    0.210345   -0.263172
  N     -4.543720    0.022550    0.401710
  H     -5.863788   -0.259604   -1.263269
  H     -6.020803    1.277207   -0.395604
  H     -6.616649   -0.202864    0.349831
  C     -3.394249    0.452743   -0.379033
  C     -3.035972    1.902960   -0.080760
  H     -3.916986    2.538323   -0.217388
  H     -2.257532    2.279453   -0.751271
  H     -2.679996    1.978516    0.944180
  C     -2.266224   -0.578666   -0.172003
  H     -3.625470    0.362614   -1.457914
  N     -1.087231   -0.319462   -0.946897
  O     -2.582813   -1.759123    0.046144
  C      0.027804   -0.898462   -0.238372
  C     -0.253963   -0.614360    1.338230
  O     -1.403994    0.086686    1.413081
  H      0.608171   -0.070015    1.761365
  H     -0.288504   -1.607182    1.822847
  C      1.304034   -0.261815   -0.632479
  H      0.078869   -1.972300   -0.403842
  O      1.462445    0.826839   -1.130295
  O      2.375909   -1.030224   -0.287304
  C      3.667430   -0.472798   -0.541471
  C      3.870764    0.874199    0.147017
  O      4.489929    1.785741   -0.321313
  O      3.348538    0.882373    1.382046
  N      4.673016   -1.374989   -0.072492
  H      3.787200   -0.294313   -1.609281
  H      3.483435    1.765786    1.750712
  H      4.648298   -2.236090   -0.604403
  H      4.506848   -1.600628    0.902363
  H     -4.379576   -0.958915    0.615422
  H     -0.930723    0.680118   -1.006624

 Total Charge           Charge          ....   -1
 Multiplicity           Mult            ....    1
 Number of Electrons    NEL             ....  140
 Basis Dimension        Dim             .... 2176

ORBITAL ENERGIES
----------------

  NO   OCC          E(Eh)            E(eV)
   0   2.0000     -20.528679      -558.6138
   1   2.0000     -20.505742      -557.9896
   2   2.0000     -20.463524      -556.8408
   3   2.0000     -20.438644      -556.1638
   4   2.0000     -20.326346      -553.1080
   5   2.0000     -20.308707      -552.6280
   6   2.0000     -15.487449      -421.4349
   7   2.0000     -15.408584      -419.2889
   8   2.0000     -15.395727      -418.9390
   9   2.0000     -11.302439      -307.5550
  10   2.0000     -11.269981      -306.6718
  11   2.0000     -11.254973      -306.2634
  12   2.0000     -11.195789      -304.6529
  13   2.0000     -11.126218      -302.7598
  14   2.0000     -11.125905      -302.7513
  15   2.0000     -11.115625      -302.4715
  16   2.0000     -11.114044      -302.4285
  17   2.0000     -11.075935      -301.3915
  18   2.0000      -1.392614       -37.8950
  19   2.0000      -1.364211       -37.1221
  20   2.0000      -1.283548       -34.9271
  21   2.0000      -1.264195       -34.4005
  22   2.0000      -1.205720       -32.8093
  23   2.0000      -1.128986       -30.7213
  24   2.0000      -1.120944       -30.5024
  25   2.0000      -1.069445       -29.1011
  26   2.0000      -1.052763       -28.6471
  27   2.0000      -0.909874       -24.7589
  28   2.0000      -0.884177       -24.0597
  29   2.0000      -0.844545       -22.9812
  30   2.0000      -0.782928       -21.3045
  31   2.0000      -0.758937       -20.6517
  32   2.0000      -0.715332       -19.4652
  33   2.0000      -0.704761       -19.1775
  34   2.0000      -0.667026       -18.1507
  35   2.0000      -0.642434       -17.4815
  36   2.0000      -0.617425       -16.8010
  37   2.0000      -0.615550       -16.7500
  38   2.0000      -0.598686       -16.2911
  39   2.0000      -0.588812       -16.0224
  40   2.0000      -0.578546       -15.7430
  41   2.0000      -0.551371       -15.0036
  42   2.0000      -0.548891       -14.9361
  43   2.0000      -0.520841       -14.1728
  44   2.0000      -0.514428       -13.9983
  45   2.0000      -0.502801       -13.6819
  46   2.0000      -0.487165       -13.2564
  47   2.0000      -0.480258       -13.0685
  48   2.0000      -0.472316       -12.8524
  49   2.0000      -0.458917       -12.4878
  50   2.0000      -0.453038       -12.3278
  51   2.0000      -0.442800       -12.0492
  52   2.0000      -0.430160       -11.7053
  53   2.0000      -0.426006       -11.5922
  54   2.0000      -0.407454       -11.0874
  55   2.0000      -0.403632       -10.9834
  56   2.0000      -0.390007       -10.6126
  57   2.0000      -0.389070       -10.5871
  58   2.0000      -0.381924       -10.3927
  59   2.0000      -0.373882       -10.1738
  60   2.0000      -0.360666        -9.8142
  61   2.0000      -0.357833        -9.7371
  62   2.0000      -0.353158        -9.6099
  63   2.0000      -0.336071        -9.1450
  64   2.0000      -0.311657        -8.4806
  65   2.0000      -0.258853        -7.0437
  66   2.0000      -0.244061        -6.6412
  67   2.0000      -0.232135        -6.3167
  68   2.0000      -0.215331        -5.8595
  69   2.0000      -0.197139        -5.3644
  70   0.0000       0.086559         2.3554
  71   0.0000       0.096846         2.6353
  72   0.0000       0.097744         2.6597
  73   0.0000       0.102015         2.7760
  74   0.0000       0.107447         2.9238

MULLIKEN ATOMIC CHARGES
-----------------------
   0 C :   -0.984000
   1 N :   -0.685058
   2 H :    0.285266
   3 H :    0.230412
   4 H :    0.371369
   5 C :    0.303685
   6 C :   -1.094773
   7 H :    0.280701
   8 H :    0.188751
   9 H :    0.273780
  10 C :    2.313626
  11 H :    0.246338
  12 N :   -1.094859
  13 O :   -1.376104
  14 C :    0.202326
  15 C :   -0.306245
  16 O :   -1.317696
  17 H :    0.465032
  18 H :    0.265977
  19 C :    1.278984
  20 H :    0.338522
  21 O :   -1.065862
  22 O :   -1.033986
  23 C :    0.577139
  24 C :    1.234672
  25 O :   -0.934401
  26 O :   -0.797486
  27 N :   -0.928394
  28 H :    0.376702
  29 H :    0.314651
  30 H :    0.256897
  31 H :    0.300693
  32 H :    0.223281
  33 H :    0.290059
Sum of atomic charges:   -1.0000000

LOEWDIN ATOMIC CHARGES
----------------------
   0 C :    0.735326
   1 N :    0.870143
   2 H :   -0.282790
   3 H :   -0.311363
   4 H :   -0.302403
   5 C :   -0.116047
   6 C :    0.901273
   7 H :   -0.290445
   8 H :   -0.284733
   9 H :   -0.337585
  10 C :   -1.116413
  11 H :   -0.300634
  12 N :    0.834902
  13 O :    0.745511
  14 C :   -0.148504
  15 C :   -0.057274
  16 O :    0.728882
  17 H :   -0.359209
  18 H :   -0.324476
  19 C :   -1.072495
  20 H :   -0.324857
  21 O :    0.766940
  22 O :    0.878306
  23 C :   -0.497396
  24 C :   -1.115102
  25 O :    0.712944
  26 O :    1.264921
  27 N :    1.264015
  28 H :   -0.351687
  29 H :   -0.794558
  30 H :   -0.499702
  31 H :   -0.513247
  32 H :   -0.663965
  33 H :   -0.638277

  Mayer bond orders larger than 0.100000
B(  0-C ,  1-N ) :   1.0092 B(  0-C ,  2-H ) :   0.9472 B(  0-C ,  3-H ) :   0.9774
B(  0-C ,  4-H ) :   0.9211 B(  0-C ,  5-C ) :  -0.1871 B(  1-N ,  5-C ) :   0.2923
B(  1-N ,  6-C ) :   0.1252 B(  1-N , 32-H ) :   0.9407 B(  5-C ,  6-C ) :   0.6259
B(  5-C , 10-C ) :   0.9477 B(  5-C , 11-H ) :   0.8993 B(  5-C , 12-N ) :   0.1217
B(  5-C , 13-O ) :   0.2300 B(  5-C , 16-O ) :   0.1437 B(  6-C ,  7-H ) :   1.0263
B(  6-C ,  8-H ) :   1.0731 B(  6-C ,  9-H ) :   0.9698 B( 10-C , 12-N ) :   0.7086
B( 10-C , 13-O ) :  -0.1393 B( 10-C , 16-O ) :  -0.1434 B( 12-N , 13-O ) :   0.1498
B( 12-N , 14-C ) :   0.6614 B( 12-N , 33-H ) :   0.7520 B( 13-O , 14-C ) :   0.2051
B( 14-C , 15-C ) :   0.8152 B( 14-C , 19-C ) :   0.9915 B( 14-C , 20-H ) :   0.8575
B( 15-C , 16-O ) :   1.0042 B( 15-C , 17-H ) :   0.7225 B( 15-C , 18-H ) :   0.9598
B( 16-O , 33-H ) :   0.1437 B( 19-C , 21-O ) :   0.8190 B( 19-C , 22-O ) :   0.8197
B( 19-C , 23-C ) :  -0.1775 B( 21-O , 22-O ) :   0.1697 B( 21-O , 23-C ) :   0.1566
B( 22-O , 23-C ) :   0.7845 B( 22-O , 27-N ) :   0.1563 B( 23-C , 24-C ) :   0.9808
B( 23-C , 25-O ) :   0.1085 B( 23-C , 27-N ) :   0.5873 B( 23-C , 28-H ) :   0.8931
B( 24-C , 25-O ) :   1.0163 B( 24-C , 26-O ) :   0.8704 B( 25-O , 26-O ) :   0.1494
B( 26-O , 29-H ) :   0.9322 B( 27-N , 30-H ) :   0.9213 B( 27-N , 31-H ) :   0.8582

MP2 TOTAL ENERGY:     -966.910275375 Eh
FINAL SINGLE POINT ENERGY      -966.910275374761

DIPOLE MOMENT
-------------
                                X             Y             Z
Electronic contribution:     21.94059      -1.79169      -0.86899
Nuclear contribution   :    -19.26380       1.67515       0.44883
                        -----------------------------------------
Total Dipole Moment    :      2.67679      -0.11654      -0.42016
                        -----------------------------------------
Magnitude (a.u.)       :      2.71207
Magnitude (Debye)      :      6.89353

Rotational constants in cm-1:     0.038556     0.005903     0.005652
Rotational constants in MHz :  1155.886690   176.979168   169.432481

                             ****ORCA TERMINATED NORMALLY****
TOTAL RUN TIME: 0 days 3 hours 48 minutes 13 seconds 810 msec
