                         Program Version 4.2.1 -  RELEASE  -
|  1> %pal
|  2>  nprocs 32
|  3> end
|  4> !RI-MP2 aug-cc-pVQZ aug-cc-pVQZ/C TightSCF
|  5> %maxcore 4500
|  6> *xyzfile 0 1  08_5P1.xyz
|  7>
|  8>
|  9>                          ****END OF INPUT****

CARTESIAN COORDINATES (ANGSTROEM)
---------------------------------
  C      2.655027    0.922387   -0.003630
  O      3.802988    1.263568   -0.070156
  O      1.677333    1.784737    0.239029
  C      2.298483   -0.557463   -0.176864
  C      2.946502   -1.148540   -1.410642
  H      2.556143   -0.676933   -2.313973
  H      2.751131   -2.220087   -1.458379
  H      4.020986   -0.979853   -1.367280
  O      0.873643   -0.717084   -0.289291
  C      0.187140   -1.169866    0.774848
  O      0.689612   -1.582716    1.780857
  C     -1.299622   -1.082812    0.533088
  C     -1.687424    0.190686   -0.223899
  H     -1.784558   -1.126968    1.509948
  H     -1.616852   -1.961348   -0.031572
  N     -1.096714    1.354796    0.418462
  C     -3.199313    0.285962   -0.345730
  H     -1.286365    0.121370   -1.237360
  O     -3.870690    1.171174    0.105025
  O     -3.707189   -0.750355   -1.032286
  H     -4.667325   -0.636777   -1.081280
  H      0.760099    1.416445    0.267548
  H     -1.376763    2.204893   -0.061149
  H     -1.441647    1.449454    1.369979
  H      2.631816   -1.070477    0.725838

 Total Charge           Charge          ....    0
 Multiplicity           Mult            ....    1
 Number of Electrons    NEL             ....  108
 Basis Dimension        Dim             .... 1626

ORBITAL ENERGIES
----------------

  NO   OCC          E(Eh)            E(eV)
   0   2.0000     -20.641698      -561.6892
   1   2.0000     -20.624834      -561.2303
   2   2.0000     -20.589061      -560.2568
   3   2.0000     -20.579760      -560.0037
   4   2.0000     -20.567686      -559.6752
   5   2.0000     -20.530072      -558.6517
   6   2.0000     -15.593678      -424.3256
   7   2.0000     -11.412695      -310.5552
   8   2.0000     -11.406364      -310.3829
   9   2.0000     -11.375267      -309.5368
  10   2.0000     -11.318995      -308.0055
  11   2.0000     -11.317807      -307.9732
  12   2.0000     -11.280732      -306.9643
  13   2.0000     -11.234365      -305.7026
  14   2.0000      -1.501025       -40.8450
  15   2.0000      -1.493301       -40.6348
  16   2.0000      -1.448383       -39.4125
  17   2.0000      -1.397742       -38.0345
  18   2.0000      -1.390649       -37.8415
  19   2.0000      -1.353104       -36.8198
  20   2.0000      -1.247610       -33.9492
  21   2.0000      -1.098888       -29.9022
  22   2.0000      -1.059532       -28.8313
  23   2.0000      -0.972816       -26.4717
  24   2.0000      -0.911979       -24.8162
  25   2.0000      -0.843713       -22.9586
  26   2.0000      -0.836650       -22.7664
  27   2.0000      -0.812424       -22.1072
  28   2.0000      -0.766176       -20.8487
  29   2.0000      -0.743376       -20.2283
  30   2.0000      -0.734714       -19.9926
  31   2.0000      -0.731013       -19.8919
  32   2.0000      -0.714717       -19.4484
  33   2.0000      -0.683956       -18.6114
  34   2.0000      -0.667404       -18.1610
  35   2.0000      -0.657932       -17.9033
  36   2.0000      -0.646683       -17.5972
  37   2.0000      -0.631529       -17.1848
  38   2.0000      -0.628417       -17.1001
  39   2.0000      -0.621464       -16.9109
  40   2.0000      -0.591754       -16.1025
  41   2.0000      -0.583649       -15.8819
  42   2.0000      -0.577908       -15.7257
  43   2.0000      -0.556358       -15.1393
  44   2.0000      -0.548282       -14.9195
  45   2.0000      -0.538481       -14.6528
  46   2.0000      -0.525740       -14.3061
  47   2.0000      -0.516530       -14.0555
  48   2.0000      -0.503473       -13.7002
  49   2.0000      -0.496821       -13.5192
  50   2.0000      -0.476825       -12.9751
  51   2.0000      -0.463316       -12.6075
  52   2.0000      -0.453701       -12.3458
  53   2.0000      -0.433114       -11.7856
  54   0.0000       0.014059         0.3826
  55   0.0000       0.026046         0.7087
  56   0.0000       0.028115         0.7651
  57   0.0000       0.029988         0.8160
  58   0.0000       0.039790         1.0827

MULLIKEN ATOMIC CHARGES
-----------------------
   0 C :    1.291670
   1 O :   -0.901232
   2 O :   -0.953505
   3 C :    0.125064
   4 C :   -0.952228
   5 H :    0.230788
   6 H :    0.227057
   7 H :    0.296635
   8 O :   -0.755453
   9 C :    1.374686
  10 O :   -0.986825
  11 C :   -0.566359
  12 C :   -0.106690
  13 H :    0.305068
  14 H :    0.299419
  15 N :   -0.327146
  16 C :    1.250263
  17 H :    0.378004
  18 O :   -0.866046
  19 O :   -0.763593
  20 H :    0.324942
  21 H :    0.381256
  22 H :    0.152238
  23 H :    0.196325
  24 H :    0.345660
Sum of atomic charges:   -0.0000000

LOEWDIN ATOMIC CHARGES
----------------------
   0 C :   -1.033948
   1 O :    0.684890
   2 O :    1.258597
   3 C :   -0.277815
   4 C :    0.906434
   5 H :   -0.276161
   6 H :   -0.276327
   7 H :   -0.300057
   8 O :    0.879430
   9 C :   -1.024532
  10 O :    0.765915
  11 C :    0.457424
  12 C :   -0.101935
  13 H :   -0.290543
  14 H :   -0.277064
  15 N :    1.289491
  16 C :   -1.013014
  17 H :   -0.305964
  18 O :    0.730810
  19 O :    1.273224
  20 H :   -0.790461
  21 H :   -1.014479
  22 H :   -0.444057
  23 H :   -0.445757
  24 H :   -0.374099

  Mayer bond orders larger than 0.100000
B(  0-C ,  1-O ) :   1.1286 B(  0-C ,  2-O ) :   0.7131 B(  0-C ,  3-C ) :   1.1029
B(  1-O ,  2-O ) :   0.1384 B(  1-O ,  3-C ) :   0.1602 B(  2-O ,  3-C ) :   0.1719
B(  2-O , 21-H ) :   0.7091 B(  3-C ,  4-C ) :   0.7700 B(  3-C ,  8-O ) :   0.7227
B(  3-C , 24-H ) :   0.7767 B(  4-C ,  5-H ) :   0.9648 B(  4-C ,  6-H ) :   1.0104
B(  4-C ,  7-H ) :   0.9707 B(  8-O ,  9-C ) :   0.9824 B(  9-C , 10-O ) :   0.6935
B(  9-C , 11-C ) :   1.1507 B( 10-O , 11-C ) :   0.2351 B( 11-C , 12-C ) :   0.8119
B( 11-C , 13-H ) :   0.8775 B( 11-C , 14-H ) :   0.8807 B( 12-C , 15-N ) :   1.0224
B( 12-C , 16-C ) :   1.2365 B( 12-C , 17-H ) :   0.7838 B( 12-C , 18-O ) :   0.3379
B( 15-N , 21-H ) :   0.1610 B( 15-N , 22-H ) :   1.0577 B( 15-N , 23-H ) :   1.0198
B( 16-C , 18-O ) :   1.0227 B( 16-C , 19-O ) :   0.7931 B( 18-O , 19-O ) :   0.1431
B( 19-O , 20-H ) :   0.9410

MP2 TOTAL ENERGY:     -778.491385702 Eh
FINAL SINGLE POINT ENERGY      -778.491385701967

DIPOLE MOMENT
-------------
                                X             Y             Z
Electronic contribution:     -2.78713       2.24899       2.62198
Nuclear contribution   :      0.52575      -3.41460      -3.62199
                        -----------------------------------------
Total Dipole Moment    :     -2.26138      -1.16562      -1.00001
                        -----------------------------------------
Magnitude (a.u.)       :      2.73359
Magnitude (Debye)      :      6.94822

Rotational constants in cm-1:     0.043039     0.012034     0.010945
Rotational constants in MHz :  1290.288676   360.775791   328.127341

                             ****ORCA TERMINATED NORMALLY****
TOTAL RUN TIME: 0 days 1 hours 47 minutes 57 seconds 516 msec
