                         Program Version 4.2.1 -  RELEASE  -
|  1> %pal
|  2>  nprocs 32
|  3> end
|  4> !RI-MP2 aug-cc-pVQZ aug-cc-pVQZ/C TightSCF
|  5> %maxcore 4500
|  6> *xyzfile 0 1  10_53R.xyz
|  7>
|  8>
|  9>                          ****END OF INPUT****

CARTESIAN COORDINATES (ANGSTROEM)
---------------------------------
  C     -0.621931   -0.684736    1.345464
  N      0.096314    0.372397    0.637558
  C     -0.210669    1.738728    1.072873
  C     -1.194476    2.511507    0.164373
  C     -2.461675    1.731120    0.043898
  C     -2.988006   -1.629732   -0.664721
  C     -1.522449   -1.964366   -0.758707
  C     -0.787387   -2.010840    0.592526
  C     -2.572080    0.753477   -0.846788
  C     -3.481032   -0.392444   -0.720173
  C      1.416577    0.141480    0.220307
  C      1.988752    0.986657   -0.739759
  C      3.290877    0.801024   -1.169221
  C      4.060430   -0.241805   -0.667516
  C      3.504991   -1.083991    0.282534
  C      2.204131   -0.895006    0.729842
  H     -0.152042   -0.897268    2.319759
  H     -1.614102   -0.292754    1.565214
  H     -0.626456    1.695716    2.086118
  H      0.720917    2.302378    1.146875
  H     -0.740574    2.646003   -0.820215
  H     -1.351433    3.504026    0.596370
  H     -1.414829   -2.948168   -1.222882
  H     -1.004540   -1.258180   -1.409694
  H     -1.322233   -2.685218    1.269839
  H      0.188372   -2.466103    0.419223
  H      1.394125    1.786666   -1.162206
  H      3.703998    1.470005   -1.915147
  H      5.075599   -0.392738   -1.012202
  H      4.092243   -1.895458    0.696677
  H      1.813313   -1.548856    1.496351
  H     -4.543909   -0.220360   -0.580532
  H     -3.670263   -2.458999   -0.498787
  H     -1.795743    0.676165   -1.602594
  H     -3.182955    1.809929    0.855325

 Total Charge           Charge          ....    0
 Multiplicity           Mult            ....    1
 Number of Electrons    NEL             ....  116
 Basis Dimension        Dim             .... 2154

ORBITAL ENERGIES
----------------

  NO   OCC          E(Eh)            E(eV)
   0   2.0000     -15.553814      -423.2408
   1   2.0000     -11.268854      -306.6411
   2   2.0000     -11.257640      -306.3359
   3   2.0000     -11.251062      -306.1570
   4   2.0000     -11.230267      -305.5911
   5   2.0000     -11.230213      -305.5896
   6   2.0000     -11.225628      -305.4649
   7   2.0000     -11.224923      -305.4457
   8   2.0000     -11.222793      -305.3877
   9   2.0000     -11.221552      -305.3540
  10   2.0000     -11.220508      -305.3256
  11   2.0000     -11.220151      -305.3158
  12   2.0000     -11.220133      -305.3153
  13   2.0000     -11.219676      -305.3029
  14   2.0000     -11.219265      -305.2917
  15   2.0000     -11.218315      -305.2659
  16   2.0000      -1.249480       -34.0001
  17   2.0000      -1.139166       -30.9983
  18   2.0000      -1.107270       -30.1303
  19   2.0000      -1.079996       -29.3882
  20   2.0000      -1.026373       -27.9290
  21   2.0000      -1.012967       -27.5642
  22   2.0000      -0.989941       -26.9377
  23   2.0000      -0.983394       -26.7595
  24   2.0000      -0.902219       -24.5506
  25   2.0000      -0.858901       -23.3719
  26   2.0000      -0.832633       -22.6571
  27   2.0000      -0.821641       -22.3580
  28   2.0000      -0.773661       -21.0524
  29   2.0000      -0.769906       -20.9502
  30   2.0000      -0.724306       -19.7094
  31   2.0000      -0.699853       -19.0440
  32   2.0000      -0.656942       -17.8763
  33   2.0000      -0.654711       -17.8156
  34   2.0000      -0.652542       -17.7566
  35   2.0000      -0.623328       -16.9616
  36   2.0000      -0.619425       -16.8554
  37   2.0000      -0.616391       -16.7729
  38   2.0000      -0.606305       -16.4984
  39   2.0000      -0.581142       -15.8137
  40   2.0000      -0.574936       -15.6448
  41   2.0000      -0.571353       -15.5473
  42   2.0000      -0.554830       -15.0977
  43   2.0000      -0.538994       -14.6668
  44   2.0000      -0.523443       -14.2436
  45   2.0000      -0.517784       -14.0896
  46   2.0000      -0.508411       -13.8346
  47   2.0000      -0.497778       -13.5452
  48   2.0000      -0.493881       -13.4392
  49   2.0000      -0.490490       -13.3469
  50   2.0000      -0.480006       -13.0616
  51   2.0000      -0.464164       -12.6306
  52   2.0000      -0.455041       -12.3823
  53   2.0000      -0.394339       -10.7305
  54   2.0000      -0.392577       -10.6826
  55   2.0000      -0.335481        -9.1289
  56   2.0000      -0.313947        -8.5429
  57   2.0000      -0.291622        -7.9354
  58   0.0000       0.022517         0.6127
  59   0.0000       0.026009         0.7077
  60   0.0000       0.026274         0.7150
  61   0.0000       0.029434         0.8009
  62   0.0000       0.035655         0.9702

MULLIKEN ATOMIC CHARGES
-----------------------
   0 C :   -0.684784
   1 N :    1.191143
   2 C :   -0.737048
   3 C :   -0.516010
   4 C :   -0.189675
   5 C :   -0.590297
   6 C :   -0.526199
   7 C :   -0.510951
   8 C :   -0.245419
   9 C :   -0.476597
  10 C :    0.857467
  11 C :   -0.629418
  12 C :   -0.550850
  13 C :   -0.476153
  14 C :   -0.424564
  15 C :   -0.547567
  16 H :    0.123408
  17 H :    0.329508
  18 H :    0.191690
  19 H :    0.315708
  20 H :    0.323444
  21 H :    0.214717
  22 H :    0.266294
  23 H :    0.318502
  24 H :    0.239904
  25 H :    0.351024
  26 H :    0.276845
  27 H :    0.151963
  28 H :    0.326485
  29 H :    0.167646
  30 H :    0.244141
  31 H :    0.375791
  32 H :    0.287656
  33 H :    0.438222
  34 H :    0.113974
Sum of atomic charges:    0.0000000

LOEWDIN ATOMIC CHARGES
----------------------
   0 C :    0.364650
   1 N :    0.500493
   2 C :    0.378891
   3 C :    0.523988
   4 C :    0.378282
   5 C :    0.394949
   6 C :    0.519070
   7 C :    0.558562
   8 C :    0.322877
   9 C :    0.371872
  10 C :   -0.236519
  11 C :    0.342479
  12 C :    0.345336
  13 C :    0.335803
  14 C :    0.349218
  15 C :    0.348932
  16 H :   -0.254870
  17 H :   -0.329462
  18 H :   -0.272761
  19 H :   -0.292702
  20 H :   -0.302841
  21 H :   -0.268543
  22 H :   -0.274948
  23 H :   -0.316914
  24 H :   -0.256523
  25 H :   -0.312611
  26 H :   -0.333360
  27 H :   -0.317958
  28 H :   -0.328268
  29 H :   -0.316378
  30 H :   -0.356120
  31 H :   -0.322439
  32 H :   -0.312324
  33 H :   -0.337797
  34 H :   -0.292066

  Mayer bond orders larger than 0.100000
B(  0-C ,  1-N ) :   0.8135 B(  0-C ,  7-C ) :   0.6932 B(  0-C , 10-C ) :  -0.1522
B(  0-C , 16-H ) :   1.1818 B(  0-C , 17-H ) :   0.9171 B(  1-N ,  2-C ) :   0.2733
B(  1-N ,  3-C ) :  -0.2554 B(  1-N ,  7-C ) :  -0.1349 B(  1-N , 10-C ) :   0.4854
B(  1-N , 11-C ) :  -0.3005 B(  1-N , 15-C ) :  -0.3347 B(  1-N , 16-H ) :  -0.1386
B(  1-N , 17-H ) :  -0.1265 B(  1-N , 18-H ) :  -0.1870 B(  1-N , 19-H ) :  -0.1044
B(  2-C ,  3-C ) :   0.8369 B(  2-C , 18-H ) :   1.1440 B(  2-C , 19-H ) :   0.9732
B(  3-C ,  4-C ) :   0.9222 B(  3-C , 20-H ) :   0.9328 B(  3-C , 21-H ) :   1.0680
B(  4-C ,  8-C ) :   1.6210 B(  4-C ,  9-C ) :  -0.2905 B(  4-C , 34-H ) :   1.1456
B(  5-C ,  6-C ) :   1.0863 B(  5-C ,  7-C ) :  -0.1033 B(  5-C ,  8-C ) :  -0.2071
B(  5-C ,  9-C ) :   1.7524 B(  5-C , 31-H ) :  -0.1123 B(  5-C , 32-H ) :   1.0128
B(  6-C ,  7-C ) :   0.8468 B(  6-C , 22-H ) :   0.9676 B(  6-C , 23-H ) :   0.8965
B(  7-C , 24-H ) :   1.0047 B(  7-C , 25-H ) :   0.9244 B(  8-C ,  9-C ) :   0.8530
B(  8-C , 33-H ) :   0.8513 B(  9-C , 31-H ) :   0.9569 B( 10-C , 11-C ) :   1.0703
B( 10-C , 12-C ) :  -0.5432 B( 10-C , 13-C ) :  -0.1804 B( 10-C , 14-C ) :  -0.5420
B( 10-C , 15-C ) :   0.9485 B( 11-C , 12-C ) :   1.3364 B( 11-C , 14-C ) :   0.1133
B( 11-C , 15-C ) :   0.1414 B( 11-C , 26-H ) :   0.8928 B( 11-C , 27-H ) :  -0.1588
B( 12-C , 13-C ) :   1.2656 B( 12-C , 15-C ) :   0.1052 B( 12-C , 27-H ) :   1.2392
B( 13-C , 14-C ) :   1.1984 B( 13-C , 28-H ) :   1.0298 B( 13-C , 29-H ) :  -0.1211
B( 14-C , 15-C ) :   1.3574 B( 14-C , 29-H ) :   1.2387 B( 15-C , 28-H ) :  -0.1052
B( 15-C , 29-H ) :  -0.1552 B( 15-C , 30-H ) :   0.9627

MP2 TOTAL ENERGY:     -636.561326345 Eh
FINAL SINGLE POINT ENERGY      -636.561326345434

DIPOLE MOMENT
-------------
                                X             Y             Z
Electronic contribution:      4.46467       1.16748      -1.81501
Nuclear contribution   :     -4.52407      -1.19591       2.27864
                        -----------------------------------------
Total Dipole Moment    :     -0.05940      -0.02843       0.46364
                        -----------------------------------------
Magnitude (a.u.)       :      0.46829
Magnitude (Debye)      :      1.19029

Rotational constants in cm-1:     0.030603     0.012668     0.010550
Rotational constants in MHz :   917.454199   379.774172   316.267336

                             ****ORCA TERMINATED NORMALLY****
TOTAL RUN TIME: 0 days 5 hours 3 minutes 6 seconds 817 msec
