                         Program Version 4.2.1 -  RELEASE  -
|  1> %pal
|  2>  nprocs 32
|  3> end
|  4> !RI-MP2 aug-cc-pVQZ aug-cc-pVQZ/C TightSCF
|  5> %maxcore 4500
|  6> *xyzfile 0 1  09_18R2.xyz
|  7>
|  8>
|  9>                          ****END OF INPUT****

CARTESIAN COORDINATES (ANGSTROEM)
---------------------------------
  N      1.123517   -0.412023   -0.000022
  C      0.262895    0.707033   -0.000122
  C     -1.031617    0.336368    0.000023
  S     -1.104293   -1.413856    0.000275
  C      0.595731   -1.641146    0.000188
  C      0.831159    2.087027   -0.000351
  H      1.450763    2.267264    0.881516
  H      0.032951    2.826747   -0.000415
  H      1.450670    2.267011   -0.882333
  C     -2.260867    1.182936   -0.000009
  H     -2.011684    2.244253   -0.000200
  H     -2.875461    0.985528    0.881158
  H     -2.875608    0.985246   -0.881011
  C      2.573308   -0.243642   -0.000138
  H      2.899617    0.297857   -0.889502
  H      3.009447   -1.237550   -0.000062
  H      2.899737    0.298044    0.889069

 Total Charge           Charge          ....    0
 Multiplicity           Mult            ....    1
 Number of Electrons    NEL             ....   68
 Basis Dimension        Dim             .... 1058

ORBITAL ENERGIES
----------------

  NO   OCC          E(Eh)            E(eV)
   0   2.0000     -91.962523     -2502.4275
   1   2.0000     -15.618881      -425.0113
   2   2.0000     -11.278006      -306.8901
   3   2.0000     -11.265900      -306.5607
   4   2.0000     -11.257149      -306.3226
   5   2.0000     -11.256856      -306.3146
   6   2.0000     -11.245323      -306.0008
   7   2.0000     -11.238332      -305.8106
   8   2.0000      -8.965562      -243.9653
   9   2.0000      -6.646819      -180.8691
  10   2.0000      -6.645802      -180.8415
  11   2.0000      -6.645574      -180.8353
  12   2.0000      -1.307948       -35.5911
  13   2.0000      -1.107868       -30.1466
  14   2.0000      -1.050217       -28.5779
  15   2.0000      -0.994227       -27.0543
  16   2.0000      -0.933563       -25.4035
  17   2.0000      -0.909438       -24.7471
  18   2.0000      -0.786303       -21.3964
  19   2.0000      -0.713646       -19.4193
  20   2.0000      -0.656550       -17.8656
  21   2.0000      -0.648553       -17.6480
  22   2.0000      -0.603502       -16.4221
  23   2.0000      -0.591499       -16.0955
  24   2.0000      -0.588938       -16.0258
  25   2.0000      -0.577351       -15.7105
  26   2.0000      -0.555668       -15.1205
  27   2.0000      -0.545013       -14.8306
  28   2.0000      -0.524142       -14.2626
  29   2.0000      -0.514095       -13.9892
  30   2.0000      -0.457082       -12.4378
  31   2.0000      -0.381252       -10.3744
  32   2.0000      -0.353821        -9.6280
  33   2.0000      -0.322878        -8.7860
  34   0.0000       0.020625         0.5612
  35   0.0000       0.026787         0.7289
  36   0.0000       0.034312         0.9337
  37   0.0000       0.035100         0.9551
  38   0.0000       0.046897         1.2761

MULLIKEN ATOMIC CHARGES
-----------------------
   0 N :   -0.194607
   1 C :    0.509458
   2 C :   -0.291457
   3 S :    0.256784
   4 C :   -0.484533
   5 C :   -0.718006
   6 H :    0.223454
   7 H :    0.328891
   8 H :    0.223447
   9 C :   -0.736546
  10 H :    0.260235
  11 H :    0.240180
  12 H :    0.240181
  13 C :   -0.873783
  14 H :    0.311598
  15 H :    0.393108
  16 H :    0.311596
Sum of atomic charges:   -0.0000000

LOEWDIN ATOMIC CHARGES
----------------------
   0 N :    0.144225
   1 C :   -0.346123
   2 C :   -0.488322
   3 S :    1.234328
   4 C :   -0.335458
   5 C :    0.915082
   6 H :   -0.278898
   7 H :   -0.318192
   8 H :   -0.278903
   9 C :    0.831525
  10 H :   -0.328116
  11 H :   -0.298098
  12 H :   -0.298098
  13 C :    0.744566
  14 H :   -0.283499
  15 H :   -0.332527
  16 H :   -0.283493

  Mayer bond orders larger than 0.100000
B(  0-N ,  1-C ) :   0.7550 B(  0-N ,  4-C ) :   1.1143 B(  0-N , 13-C ) :   0.8762
B(  1-C ,  2-C ) :   1.4149 B(  1-C ,  3-S ) :  -0.1971 B(  1-C ,  4-C ) :  -0.1387
B(  1-C ,  5-C ) :   0.6778 B(  2-C ,  3-S ) :   1.0013 B(  2-C ,  4-C ) :   0.1263
B(  2-C ,  9-C ) :   0.6544 B(  3-S ,  4-C ) :   0.9658 B(  5-C ,  6-H ) :   1.0115
B(  5-C ,  7-H ) :   0.9425 B(  5-C ,  8-H ) :   1.0115 B(  9-C , 10-H ) :   1.0102
B(  9-C , 11-H ) :   1.0024 B(  9-C , 12-H ) :   1.0024 B( 13-C , 14-H ) :   0.9438
B( 13-C , 15-H ) :   0.8433 B( 13-C , 16-H ) :   0.9438

MP2 TOTAL ENERGY:     -685.978250677 Eh
FINAL SINGLE POINT ENERGY      -685.978250677273

DIPOLE MOMENT
-------------
                                X             Y             Z
Electronic contribution:     -3.76545      -9.24834       0.00153
Nuclear contribution   :      4.03703      11.01909      -0.00180
                        -----------------------------------------
Total Dipole Moment    :      0.27158       1.77075      -0.00026
                        -----------------------------------------
Magnitude (a.u.)       :      1.79146
Magnitude (Debye)      :      4.55352

Rotational constants in cm-1:     0.081590     0.060223     0.035335
Rotational constants in MHz :  2446.021300  1805.425418  1059.316390

                             ****ORCA TERMINATED NORMALLY****
TOTAL RUN TIME: 0 days 0 hours 36 minutes 21 seconds 361 msec
