                         Program Version 4.2.1 -  RELEASE  -
|  1> %pal
|  2>  nprocs 32
|  3> end
|  4> !RI-MP2 aug-cc-pVQZ aug-cc-pVQZ/C TightSCF
|  5> %maxcore 4500
|  6> *xyzfile 0 2  04_73P1.xyz
|  7>
|  8>
|  9>                          ****END OF INPUT****

CARTESIAN COORDINATES (ANGSTROEM)
---------------------------------
  N      1.328109   -1.540506    0.201343
  C      0.276843   -2.402431    0.712440
  H      1.920407   -1.038938    0.857435
  C     -1.007600   -1.609023    0.949650
  H      0.102525   -3.210530    0.000627
  H      0.590381   -2.819596    1.665705
  O     -1.411183   -1.339297    2.063127
  N     -1.635290   -1.213738   -0.192383
  H     -1.162803   -1.396129   -1.072513
  C     -2.724027   -0.285959   -0.148605
  C     -2.307563    1.147761   -0.397594
  H     -3.492447   -0.541976   -0.881549
  H     -3.186966   -0.332170    0.838555
  O     -1.193140    1.540501   -0.625047
  O     -3.367749    1.964800   -0.345727
  H     -3.062289    2.867394   -0.512922
  C      1.341144   -1.130431   -1.083489
  C      2.287026    0.027494   -1.375220
  O      0.595492   -1.585585   -1.942294
  N      1.819751    1.235344   -0.720314
  H      2.305085    0.180190   -2.451757
  H      3.293643   -0.187470   -1.017374
  H      0.962901    1.641391   -1.071745
  C      2.110149    1.462403    0.596888
  C      1.487424    2.623603    1.193458
  O      2.859445    0.718675    1.233531
  H      0.774583    3.227127    0.648592
  H      1.723687    2.849750    2.222531

 Total Charge           Charge          ....    0
 Multiplicity           Mult            ....    2
 Number of Electrons    NEL             ....  121
 Basis Dimension        Dim             .... 1832

ORBITAL ENERGIES
----------------
                 SPIN UP ORBITALS
  NO   OCC          E(Eh)            E(eV)
   0   1.0000     -20.633371      -561.4626
   1   1.0000     -20.572706      -559.8118
   2   1.0000     -20.538269      -558.8747
   3   1.0000     -20.532055      -558.7056
   4   1.0000     -20.525905      -558.5383
   5   1.0000     -15.591825      -424.2751
   6   1.0000     -15.591195      -424.2580
   7   1.0000     -15.584513      -424.0762
   8   1.0000     -11.408516      -310.4415
   9   1.0000     -11.359117      -309.0973
  10   1.0000     -11.358899      -309.0914
  11   1.0000     -11.352893      -308.9279
  12   1.0000     -11.294662      -307.3434
  13   1.0000     -11.281657      -306.9895
  14   1.0000     -11.281360      -306.9814
  15   1.0000     -11.269693      -306.6639
  16   1.0000      -1.494025       -40.6545
  17   1.0000      -1.406286       -38.2670
  18   1.0000      -1.398710       -38.0608
  19   1.0000      -1.391976       -37.8776
  20   1.0000      -1.388419       -37.7808
  21   1.0000      -1.254486       -34.1363
  22   1.0000      -1.246791       -33.9269
  23   1.0000      -1.235635       -33.6233
  24   1.0000      -1.057898       -28.7869
  25   1.0000      -1.036605       -28.2075
  26   1.0000      -0.993513       -27.0349
  27   1.0000      -0.949643       -25.8411
  28   1.0000      -0.857918       -23.3451
  29   1.0000      -0.810992       -22.0682
  30   1.0000      -0.799223       -21.7480
  31   1.0000      -0.789212       -21.4756
  32   1.0000      -0.745446       -20.2846
  33   1.0000      -0.734052       -19.9746
  34   1.0000      -0.730969       -19.8907
  35   1.0000      -0.717900       -19.5350
  36   1.0000      -0.699427       -19.0324
  37   1.0000      -0.676109       -18.3979
  38   1.0000      -0.671198       -18.2642
  39   1.0000      -0.665242       -18.1022
  40   1.0000      -0.658861       -17.9285
  41   1.0000      -0.629596       -17.1322
  42   1.0000      -0.614605       -16.7243
  43   1.0000      -0.612041       -16.6545
  44   1.0000      -0.601773       -16.3751
  45   1.0000      -0.595171       -16.1954
  46   1.0000      -0.592993       -16.1361
  47   1.0000      -0.574384       -15.6298
  48   1.0000      -0.569585       -15.4992
  49   1.0000      -0.550202       -14.9717
  50   1.0000      -0.546146       -14.8614
  51   1.0000      -0.542844       -14.7715
  52   1.0000      -0.512632       -13.9494
  53   1.0000      -0.485786       -13.2189
  54   1.0000      -0.469945       -12.7878
  55   1.0000      -0.455413       -12.3924
  56   1.0000      -0.452552       -12.3146
  57   1.0000      -0.428167       -11.6510
  58   1.0000      -0.408526       -11.1166
  59   1.0000      -0.398552       -10.8452
  60   1.0000      -0.392100       -10.6696
  61   0.0000       0.016655         0.4532
  62   0.0000       0.028234         0.7683
  63   0.0000       0.030528         0.8307
  64   0.0000       0.032875         0.8946
  65   0.0000       0.039226         1.0674

                 SPIN DOWN ORBITALS
  NO   OCC          E(Eh)            E(eV)
   0   1.0000     -20.633369      -561.4625
   1   1.0000     -20.572702      -559.8117
   2   1.0000     -20.532102      -558.7069
   3   1.0000     -20.529965      -558.6488
   4   1.0000     -20.525902      -558.5382
   5   1.0000     -15.591161      -424.2571
   6   1.0000     -15.590477      -424.2384
   7   1.0000     -15.584514      -424.0762
   8   1.0000     -11.408509      -310.4413
   9   1.0000     -11.363657      -309.2208
  10   1.0000     -11.358762      -309.0876
  11   1.0000     -11.352892      -308.9279
  12   1.0000     -11.294663      -307.3434
  13   1.0000     -11.281834      -306.9943
  14   1.0000     -11.281373      -306.9818
  15   1.0000     -11.248072      -306.0756
  16   1.0000      -1.494006       -40.6540
  17   1.0000      -1.403075       -38.1796
  18   1.0000      -1.392759       -37.8989
  19   1.0000      -1.388907       -37.7941
  20   1.0000      -1.386355       -37.7246
  21   1.0000      -1.252707       -34.0879
  22   1.0000      -1.244332       -33.8600
  23   1.0000      -1.233228       -33.5578
  24   1.0000      -1.047313       -28.4988
  25   1.0000      -1.018868       -27.7248
  26   1.0000      -0.974640       -26.5213
  27   1.0000      -0.923955       -25.1421
  28   1.0000      -0.857537       -23.3348
  29   1.0000      -0.808251       -21.9936
  30   1.0000      -0.796143       -21.6642
  31   1.0000      -0.788967       -21.4689
  32   1.0000      -0.744066       -20.2471
  33   1.0000      -0.733618       -19.9628
  34   1.0000      -0.728852       -19.8331
  35   1.0000      -0.713036       -19.4027
  36   1.0000      -0.694817       -18.9069
  37   1.0000      -0.671728       -18.2786
  38   1.0000      -0.669983       -18.2312
  39   1.0000      -0.663716       -18.0606
  40   1.0000      -0.658169       -17.9097
  41   1.0000      -0.627619       -17.0784
  42   1.0000      -0.611819       -16.6484
  43   1.0000      -0.607004       -16.5174
  44   1.0000      -0.596235       -16.2244
  45   1.0000      -0.587478       -15.9861
  46   1.0000      -0.574471       -15.6321
  47   1.0000      -0.569948       -15.5091
  48   1.0000      -0.565799       -15.3962
  49   1.0000      -0.547394       -14.8953
  50   1.0000      -0.543740       -14.7959
  51   1.0000      -0.541073       -14.7233
  52   1.0000      -0.512294       -13.9402
  53   1.0000      -0.485273       -13.2049
  54   1.0000      -0.454360       -12.3638
  55   1.0000      -0.452046       -12.3008
  56   1.0000      -0.444770       -12.1028
  57   1.0000      -0.408522       -11.1164
  58   1.0000      -0.396382       -10.7861
  59   1.0000      -0.388345       -10.5674
  60   0.0000       0.016777         0.4565
  61   0.0000       0.027982         0.7614
  62   0.0000       0.029802         0.8110
  63   0.0000       0.032907         0.8954
  64   0.0000       0.038283         1.0417

MULLIKEN ATOMIC CHARGES AND SPIN POPULATIONS
--------------------------------------------
   0 N :   -0.709871    0.002717
   1 C :   -0.545166    0.000333
   2 H :    0.442647   -0.001322
   3 C :    1.066973   -0.000739
   4 H :    0.355952    0.000260
   5 H :    0.375900    0.000043
   6 O :   -0.954746    0.000186
   7 N :   -0.687216   -0.001118
   8 H :    0.377943    0.000064
   9 C :   -0.635668    0.000365
  10 C :    1.263354   -0.001107
  11 H :    0.387327    0.000089
  12 H :    0.341196   -0.000216
  13 O :   -0.918464    0.000705
  14 O :   -0.818481   -0.000363
  15 H :    0.403455   -0.000061
  16 C :    1.252623    0.001580
  17 C :   -0.563304   -0.008043
  18 O :   -1.008614   -0.001068
  19 N :   -0.575980    0.033601
  20 H :    0.375676    0.001533
  21 H :    0.374941    0.001266
  22 H :    0.370173   -0.002323
  23 C :    0.864222   -0.217280
  24 C :   -0.771690    1.132405
  25 O :   -0.926469    0.192742
  26 H :    0.465932   -0.056459
  27 H :    0.397353   -0.077791
Sum of atomic charges         :   -0.0000000

LOEWDIN ATOMIC CHARGES AND SPIN POPULATIONS
-------------------------------------------
   0 N :    0.851375    0.000181
   1 C :    0.372465   -0.000040
   2 H :   -0.645977   -0.000257
   3 C :   -0.810763    0.000107
   4 H :   -0.297034    0.000025
   5 H :   -0.304154   -0.000014
   6 O :    0.730684    0.000079
   7 N :    0.815306    0.000009
   8 H :   -0.680838    0.000003
   9 C :    0.320481    0.000126
  10 C :   -0.970794    0.000848
  11 H :   -0.282019    0.000006
  12 H :   -0.344056    0.000024
  13 O :    0.777032    0.001762
  14 O :    1.268696    0.000094
  15 H :   -0.798579    0.000019
  16 C :   -0.782587    0.000638
  17 C :    0.359170    0.000264
  18 O :    0.796113   -0.000468
  19 N :    0.822594    0.017752
  20 H :   -0.302949   -0.000087
  21 H :   -0.310680   -0.000446
  22 H :   -0.621092    0.003566
  23 C :   -0.853096    0.139174
  24 C :    0.825642    0.422416
  25 O :    0.761842    0.124933
  26 H :   -0.348658    0.146544
  27 H :   -0.348121    0.142745

  Mayer bond orders larger than 0.100000
B(  0-N ,  1-C ) :   1.0519 B(  0-N ,  2-H ) :   0.7960 B(  0-N , 16-C ) :   1.1619
B(  0-N , 17-C ) :  -0.1001 B(  0-N , 18-O ) :   0.2033 B(  1-C ,  3-C ) :   1.0117
B(  1-C ,  4-H ) :   0.9173 B(  1-C ,  5-H ) :   0.8612 B(  1-C ,  6-O ) :   0.1399
B(  3-C ,  6-O ) :   0.8369 B(  3-C ,  7-N ) :   1.1537 B(  6-O ,  7-N ) :   0.2823
B(  7-N ,  8-H ) :   0.8441 B(  7-N ,  9-C ) :   1.0559 B(  9-C , 10-C ) :   1.1410
B(  9-C , 11-H ) :   0.8385 B(  9-C , 12-H ) :   0.8428 B(  9-C , 13-O ) :   0.1505
B(  9-C , 14-O ) :   0.2225 B( 10-C , 13-O ) :   1.3406 B( 10-C , 14-O ) :   0.6026
B( 14-O , 15-H ) :   0.8785 B( 16-C , 17-C ) :   0.8560 B( 16-C , 18-O ) :   0.7844
B( 17-C , 18-O ) :   0.1535 B( 17-C , 19-N ) :   0.9782 B( 17-C , 20-H ) :   0.8946
B( 17-C , 21-H ) :   0.9261 B( 19-N , 22-H ) :   0.8177 B( 19-N , 23-C ) :   1.0899
B( 19-N , 24-C ) :  -0.1361 B( 19-N , 25-O ) :   0.1406 B( 23-C , 24-C ) :   1.0193
B( 23-C , 25-O ) :   0.9896 B( 24-C , 25-O ) :   0.1534 B( 24-C , 26-H ) :   0.8347
B( 24-C , 27-H ) :   0.9092

MP2 TOTAL ENERGY:     -851.290507668 Eh
FINAL SINGLE POINT ENERGY      -851.290507668449

DIPOLE MOMENT
-------------
                                X             Y             Z
Electronic contribution:     -1.40192      -0.10872      -0.10466
Nuclear contribution   :      0.72844       1.23456      -0.76263
                        -----------------------------------------
Total Dipole Moment    :     -0.67348       1.12584      -0.86729
                        -----------------------------------------
Magnitude (a.u.)       :      1.57267
Magnitude (Debye)      :      3.99740

Rotational constants in cm-1:     0.020775     0.014829     0.011915
Rotational constants in MHz :   622.810877   444.569638   357.212764

                             ****ORCA TERMINATED NORMALLY****
TOTAL RUN TIME: 0 days 5 hours 24 minutes 44 seconds 569 msec
