                         Program Version 4.2.1 -  RELEASE  -
|  1> %pal
|  2>  nprocs 32
|  3> end
|  4> !RI-MP2 aug-cc-pVQZ aug-cc-pVQZ/C TightSCF
|  5> %maxcore 4500
|  6> *xyzfile 0 2  04_79TS.xyz
|  7>
|  8>
|  9>                          ****END OF INPUT****

CARTESIAN COORDINATES (ANGSTROEM)
---------------------------------
  C      2.063096    2.378413   -0.171236
  C      1.166413    2.519306   -1.375004
  H      0.580740    3.444797   -1.323821
  H      0.473114    1.681916   -1.452472
  H      1.752348    2.554680   -2.298099
  C      3.163048    3.403055   -0.044529
  H      2.671543    1.230601   -0.306404
  H      1.510866    2.231911    0.756385
  H      2.751374    4.411886    0.075410
  H      3.794486    3.416378   -0.937965
  H      3.801936    3.203291    0.818576
  O      1.383267   -0.931771   -1.227311
  C      2.614119   -1.126540   -0.504076
  C      2.175582   -1.600356    0.877770
  C      0.978920   -2.507506    0.523094
  C      0.450831   -1.904436   -0.822832
  C      3.450048    0.109266   -0.571267
  H      3.150859   -1.965463   -0.979211
  H      3.830434    0.327592   -1.567037
  H      4.223101    0.155621    0.192111
  O      1.801261   -0.587610    1.772306
  H      2.970580   -2.164843    1.365813
  H      1.055442   -0.059334    1.404129
  O      0.023931   -2.600393    1.534985
  H      1.338230   -3.516542    0.307713
  H      0.186232   -1.866057    2.144816
  N     -0.858715   -1.302659   -0.758034
  H      0.372185   -2.691501   -1.579839
  C     -1.943854   -1.655850   -1.531585
  N     -2.998542   -0.926958   -1.323290
  C     -2.597921   -0.027243   -0.357511
  C     -1.278385   -0.243192    0.007457
  N     -0.603064    0.467260    0.916784
  C     -1.335023    1.434038    1.458511
  N     -2.600782    1.748144    1.195589
  C     -3.264118    1.027529    0.284028
  N     -4.543276    1.336492    0.010730
  H     -4.979955    2.095792    0.504686
  H     -5.059253    0.799036   -0.664708
  H     -0.841551    2.045250    2.206894
  H     -1.876268   -2.471688   -2.236181

 Total Charge           Charge          ....    0
 Multiplicity           Mult            ....    2
 Number of Electrons    NEL             ....  157
 Basis Dimension        Dim             .... 2600

ORBITAL ENERGIES
----------------
                 SPIN UP ORBITALS
  NO   OCC          E(Eh)            E(eV)
   0   1.0000     -20.572376      -559.8028
   1   1.0000     -20.560731      -559.4859
   2   1.0000     -20.545283      -559.0656
   3   1.0000     -15.629131      -425.2903
   4   1.0000     -15.589263      -424.2054
   5   1.0000     -15.566323      -423.5812
   6   1.0000     -15.565959      -423.5713
   7   1.0000     -15.555126      -423.2765
   8   1.0000     -11.343551      -308.6737
   9   1.0000     -11.343476      -308.6717
  10   1.0000     -11.321180      -308.0650
  11   1.0000     -11.320325      -308.0417
  12   1.0000     -11.320258      -308.0399
  13   1.0000     -11.295386      -307.3631
  14   1.0000     -11.291195      -307.2490
  15   1.0000     -11.286116      -307.1108
  16   1.0000     -11.253684      -306.2283
  17   1.0000     -11.229434      -305.5684
  18   1.0000     -11.220809      -305.3337
  19   1.0000     -11.206039      -304.9318
  20   1.0000     -11.199729      -304.7601
  21   1.0000      -1.424083       -38.7513
  22   1.0000      -1.381383       -37.5893
  23   1.0000      -1.371784       -37.3281
  24   1.0000      -1.349617       -36.7249
  25   1.0000      -1.312948       -35.7271
  26   1.0000      -1.259397       -34.2699
  27   1.0000      -1.203605       -32.7518
  28   1.0000      -1.167465       -31.7683
  29   1.0000      -1.067654       -29.0524
  30   1.0000      -1.054268       -28.6881
  31   1.0000      -1.046911       -28.4879
  32   1.0000      -1.028652       -27.9910
  33   1.0000      -0.947421       -25.7806
  34   1.0000      -0.923544       -25.1309
  35   1.0000      -0.902602       -24.5610
  36   1.0000      -0.887257       -24.1435
  37   1.0000      -0.850093       -23.1322
  38   1.0000      -0.820391       -22.3240
  39   1.0000      -0.812852       -22.1188
  40   1.0000      -0.790871       -21.5207
  41   1.0000      -0.771893       -21.0043
  42   1.0000      -0.745953       -20.2984
  43   1.0000      -0.730891       -19.8886
  44   1.0000      -0.714881       -19.4529
  45   1.0000      -0.695265       -18.9191
  46   1.0000      -0.691819       -18.8254
  47   1.0000      -0.681919       -18.5560
  48   1.0000      -0.650658       -17.7053
  49   1.0000      -0.644796       -17.5458
  50   1.0000      -0.636709       -17.3257
  51   1.0000      -0.631318       -17.1790
  52   1.0000      -0.622992       -16.9525
  53   1.0000      -0.613929       -16.7058
  54   1.0000      -0.601360       -16.3638
  55   1.0000      -0.596732       -16.2379
  56   1.0000      -0.585106       -15.9215
  57   1.0000      -0.581299       -15.8179
  58   1.0000      -0.567005       -15.4290
  59   1.0000      -0.557959       -15.1828
  60   1.0000      -0.550186       -14.9713
  61   1.0000      -0.545598       -14.8465
  62   1.0000      -0.527459       -14.3529
  63   1.0000      -0.522383       -14.2148
  64   1.0000      -0.512317       -13.9408
  65   1.0000      -0.507439       -13.8081
  66   1.0000      -0.500142       -13.6096
  67   1.0000      -0.482706       -13.1351
  68   1.0000      -0.478033       -13.0079
  69   1.0000      -0.475157       -12.9297
  70   1.0000      -0.466406       -12.6915
  71   1.0000      -0.458745       -12.4831
  72   1.0000      -0.452075       -12.3016
  73   1.0000      -0.428758       -11.6671
  74   1.0000      -0.418703       -11.3935
  75   1.0000      -0.410382       -11.1671
  76   1.0000      -0.379389       -10.3237
  77   1.0000      -0.317300        -8.6342
  78   1.0000      -0.303878        -8.2689
  79   0.0000       0.018373         0.4999
  80   0.0000       0.024035         0.6540
  81   0.0000       0.025370         0.6904
  82   0.0000       0.030268         0.8236
  83   0.0000       0.033621         0.9149

                 SPIN DOWN ORBITALS
  NO   OCC          E(Eh)            E(eV)
   0   1.0000     -20.571883      -559.7894
   1   1.0000     -20.560738      -559.4861
   2   1.0000     -20.545329      -559.0668
   3   1.0000     -15.629131      -425.2903
   4   1.0000     -15.589264      -424.2054
   5   1.0000     -15.566334      -423.5815
   6   1.0000     -15.565961      -423.5713
   7   1.0000     -15.555123      -423.2764
   8   1.0000     -11.343553      -308.6738
   9   1.0000     -11.343511      -308.6726
  10   1.0000     -11.321177      -308.0649
  11   1.0000     -11.320326      -308.0417
  12   1.0000     -11.320256      -308.0398
  13   1.0000     -11.295416      -307.3639
  14   1.0000     -11.292907      -307.2956
  15   1.0000     -11.285923      -307.1056
  16   1.0000     -11.253684      -306.2283
  17   1.0000     -11.209272      -305.0198
  18   1.0000     -11.207495      -304.9714
  19   1.0000     -11.203212      -304.8549
  20   1.0000     -11.201073      -304.7967
  21   1.0000      -1.423289       -38.7297
  22   1.0000      -1.381259       -37.5860
  23   1.0000      -1.371510       -37.3207
  24   1.0000      -1.349646       -36.7257
  25   1.0000      -1.312927       -35.7265
  26   1.0000      -1.259400       -34.2700
  27   1.0000      -1.203454       -32.7477
  28   1.0000      -1.167438       -31.7676
  29   1.0000      -1.051909       -28.6239
  30   1.0000      -1.046781       -28.4843
  31   1.0000      -1.035898       -28.1882
  32   1.0000      -1.021052       -27.7842
  33   1.0000      -0.927859       -25.2483
  34   1.0000      -0.923352       -25.1257
  35   1.0000      -0.900236       -24.4967
  36   1.0000      -0.884223       -24.0609
  37   1.0000      -0.847804       -23.0699
  38   1.0000      -0.816955       -22.2305
  39   1.0000      -0.801365       -21.8062
  40   1.0000      -0.771687       -20.9987
  41   1.0000      -0.762756       -20.7556
  42   1.0000      -0.743313       -20.2266
  43   1.0000      -0.728929       -19.8352
  44   1.0000      -0.714301       -19.4371
  45   1.0000      -0.694110       -18.8877
  46   1.0000      -0.690642       -18.7933
  47   1.0000      -0.679578       -18.4923
  48   1.0000      -0.649506       -17.6740
  49   1.0000      -0.639060       -17.3897
  50   1.0000      -0.633357       -17.2345
  51   1.0000      -0.630193       -17.1484
  52   1.0000      -0.613979       -16.7072
  53   1.0000      -0.604264       -16.4429
  54   1.0000      -0.596920       -16.2430
  55   1.0000      -0.588881       -16.0243
  56   1.0000      -0.580196       -15.7879
  57   1.0000      -0.574376       -15.6296
  58   1.0000      -0.561100       -15.2683
  59   1.0000      -0.554928       -15.1004
  60   1.0000      -0.545751       -14.8506
  61   1.0000      -0.540618       -14.7110
  62   1.0000      -0.524032       -14.2596
  63   1.0000      -0.519923       -14.1478
  64   1.0000      -0.511033       -13.9059
  65   1.0000      -0.506037       -13.7700
  66   1.0000      -0.481514       -13.1027
  67   1.0000      -0.474593       -12.9143
  68   1.0000      -0.473156       -12.8752
  69   1.0000      -0.465454       -12.6656
  70   1.0000      -0.459304       -12.4983
  71   1.0000      -0.454012       -12.3543
  72   1.0000      -0.436575       -11.8798
  73   1.0000      -0.428404       -11.6575
  74   1.0000      -0.418606       -11.3909
  75   1.0000      -0.409804       -11.1513
  76   1.0000      -0.379324       -10.3219
  77   1.0000      -0.317230        -8.6323
  78   0.0000       0.018442         0.5018
  79   0.0000       0.024050         0.6544
  80   0.0000       0.025363         0.6902
  81   0.0000       0.030291         0.8243
  82   0.0000       0.033661         0.9160

MULLIKEN ATOMIC CHARGES AND SPIN POPULATIONS
--------------------------------------------
   0 C :    0.259099    0.724521
   1 C :   -1.172995   -0.063032
   2 H :    0.228198    0.042274
   3 H :    0.302245    0.015887
   4 H :    0.238233    0.005247
   5 C :   -1.094702   -0.032548
   6 H :    0.640918   -0.335456
   7 H :    0.300334   -0.044923
   8 H :    0.267691    0.035333
   9 H :    0.191201    0.008613
  10 H :    0.233312    0.009443
  11 O :   -1.007706    0.010623
  12 C :    0.267547   -0.081470
  13 C :    0.341620   -0.001451
  14 C :    0.435888   -0.000071
  15 C :    0.284529   -0.006129
  16 C :   -0.999580    0.771248
  17 H :    0.291098    0.067496
  18 H :    0.172970   -0.066113
  19 H :    0.257581   -0.069355
  20 O :   -1.318326   -0.000313
  21 H :    0.459794   -0.000239
  22 H :    0.586817    0.005853
  23 O :   -1.243200   -0.000364
  24 H :    0.361352    0.000279
  25 H :    0.405942   -0.000133
  26 N :   -0.173070   -0.000534
  27 H :    0.415655   -0.000407
  28 C :    0.294000    0.000585
  29 N :   -1.098317   -0.000377
  30 C :    0.025539    0.000313
  31 C :    0.086174    0.002894
  32 N :   -0.187509    0.002746
  33 C :    0.348449    0.000345
  34 N :   -1.088877    0.000011
  35 C :    1.077292   -0.000563
  36 N :   -0.898960   -0.000027
  37 H :    0.258052    0.000009
  38 H :    0.311879   -0.000014
  39 H :    0.516661   -0.000111
  40 H :    0.423172   -0.000085
Sum of atomic charges         :    0.0000000

LOEWDIN ATOMIC CHARGES AND SPIN POPULATIONS
-------------------------------------------
   0 C :    0.413749    0.228369
   1 C :    0.923066    0.046985
   2 H :   -0.270735    0.013078
   3 H :   -0.312919    0.001945
   4 H :   -0.275315    0.001712
   5 C :    0.928326    0.046077
   6 H :   -0.573355    0.107245
   7 H :   -0.287717    0.054886
   8 H :   -0.278813    0.012579
   9 H :   -0.282973    0.001702
  10 H :   -0.278659    0.001162
  11 O :    0.935471    0.004695
  12 C :   -0.213786    0.062654
  13 C :   -0.205103    0.003485
  14 C :   -0.192067    0.000819
  15 C :   -0.333135    0.001061
  16 C :    0.848523    0.266312
  17 H :   -0.280137    0.018494
  18 H :   -0.256957    0.063009
  19 H :   -0.256589    0.064967
  20 O :    1.335928   -0.000645
  21 H :   -0.287299    0.000729
  22 H :   -1.014691   -0.001261
  23 O :    1.325128   -0.000152
  24 H :   -0.295535    0.000492
  25 H :   -0.883606   -0.000037
  26 N :    0.433528    0.000118
  27 H :   -0.315540    0.000098
  28 C :   -0.019714    0.000076
  29 N :    0.628739   -0.000012
  30 C :   -0.416952   -0.000003
  31 C :   -0.556275    0.000013
  32 N :    0.660582   -0.000580
  33 C :   -0.120945   -0.000123
  34 N :    0.613549    0.000016
  35 C :   -0.487554   -0.000018
  36 N :    1.269567   -0.000016
  37 H :   -0.482296   -0.000003
  38 H :   -0.480581   -0.000002
  39 H :   -0.356546    0.000053
  40 H :   -0.300362    0.000022

  Mayer bond orders larger than 0.100000
B(  0-C ,  1-C ) :   0.6415 B(  0-C ,  5-C ) :   0.3968 B(  0-C ,  6-H ) :   0.1907
B(  0-C ,  7-H ) :   0.8849 B(  0-C ,  8-H ) :  -0.1353 B(  0-C ,  9-H ) :  -0.1321
B(  0-C , 10-H ) :  -0.2034 B(  1-C ,  2-H ) :   1.0204 B(  1-C ,  3-H ) :   0.9178
B(  1-C ,  4-H ) :   1.0212 B(  1-C ,  5-C ) :   0.1515 B(  5-C ,  6-H ) :  -0.1392
B(  5-C ,  8-H ) :   1.0333 B(  5-C ,  9-H ) :   1.0915 B(  5-C , 10-H ) :   1.1132
B(  6-H , 11-O ) :  -0.1504 B(  6-H , 12-C ) :  -0.1654 B(  6-H , 16-C ) :   0.1377
B(  6-H , 20-O ) :  -0.1095 B( 11-O , 12-C ) :   0.7351 B( 11-O , 13-C ) :  -0.1251
B( 11-O , 14-C ) :   0.1425 B( 11-O , 15-C ) :   0.5494 B( 11-O , 16-C ) :   0.1187
B( 12-C , 13-C ) :   0.7491 B( 12-C , 16-C ) :   0.7395 B( 12-C , 17-H ) :   0.9412
B( 13-C , 14-C ) :   1.0165 B( 13-C , 15-C ) :  -0.1004 B( 13-C , 20-O ) :   0.5170
B( 13-C , 21-H ) :   0.7707 B( 13-C , 23-O ) :   0.2721 B( 14-C , 15-C ) :   1.2915
B( 14-C , 24-H ) :   0.9035 B( 15-C , 23-O ) :   0.1918 B( 15-C , 26-N ) :   0.9748
B( 15-C , 27-H ) :   0.7382 B( 16-C , 18-H ) :   1.1359 B( 16-C , 19-H ) :   1.1159
B( 16-C , 20-O ) :   0.1489 B( 20-O , 22-H ) :   0.2943 B( 22-H , 32-N ) :   0.2114
B( 23-O , 25-H ) :   0.7674 B( 23-O , 32-N ) :  -0.1804 B( 26-N , 28-C ) :   1.4369
B( 26-N , 30-C ) :  -0.5290 B( 26-N , 31-C ) :   0.4395 B( 28-C , 29-N ) :   1.3229
B( 28-C , 30-C ) :   0.1995 B( 28-C , 31-C ) :   0.1762 B( 28-C , 40-H ) :   0.6799
B( 29-N , 31-C ) :   0.6790 B( 30-C , 31-C ) :   1.6511 B( 30-C , 32-N ) :  -0.2640
B( 30-C , 33-C ) :   0.1355 B( 30-C , 35-C ) :   1.4628 B( 31-C , 32-N ) :   1.2220
B( 31-C , 34-N ) :   0.1031 B( 31-C , 35-C ) :  -0.3009 B( 31-C , 36-N ) :   0.1061
B( 32-N , 33-C ) :   1.6246 B( 33-C , 34-N ) :   0.8334 B( 33-C , 39-H ) :   0.7449
B( 34-N , 35-C ) :   0.8379 B( 34-N , 36-N ) :   0.1021 B( 35-C , 36-N ) :   0.6977
B( 36-N , 37-H ) :   1.0062 B( 36-N , 38-H ) :   0.9185

MP2 TOTAL ENERGY:    -1005.251090562 Eh
FINAL SINGLE POINT ENERGY     -1005.251090562462

DIPOLE MOMENT
-------------
                                X             Y             Z
Electronic contribution:    -21.63510     -13.22693       2.82374
Nuclear contribution   :     21.72741      12.82887      -3.54245
                        -----------------------------------------
Total Dipole Moment    :      0.09230      -0.39806      -0.71870
                        -----------------------------------------
Magnitude (a.u.)       :      0.82674
Magnitude (Debye)      :      2.10142

Rotational constants in cm-1:     0.014171     0.009036     0.006980
Rotational constants in MHz :   424.822945   270.885884   209.241774

                             ****ORCA TERMINATED NORMALLY****
TOTAL RUN TIME: 0 days 14 hours 30 minutes 30 seconds 445 msec
