                         Program Version 4.2.1 -  RELEASE  -
|  1> %pal
|  2>  nprocs 32
|  3> end
|  4> !RI-MP2 aug-cc-pVQZ aug-cc-pVQZ/C TightSCF
|  5> %maxcore 4500
|  6> *xyzfile 0 1  02_20TS.xyz
|  7>
|  8>
|  9>                          ****END OF INPUT****

CARTESIAN COORDINATES (ANGSTROEM)
---------------------------------
  C     -0.345850   -0.788419   -0.293527
  C      0.011345    1.420606    0.630455
  C     -1.708560   -1.092058   -0.166318
  H      0.019356   -0.431463   -1.246394
  C      0.649269   -1.367086    0.582305
  C     -1.101128    2.009709    0.036840
  C      1.419381    1.820550    0.461986
  H     -0.161124    0.858959    1.531541
  C     -2.369453    1.462676    0.232478
  C     -2.702379    0.321664    0.979070
  C     -4.149405   -0.151825    0.897117
  C     -2.122983    0.090751    2.371361
  C     -2.512293   -1.137110   -1.449710
  H     -1.943648   -1.861584    0.565178
  H     -2.912709   -0.290223    3.022334
  H     -1.309208   -0.633411    2.399858
  H     -1.769553    1.027626    2.806631
  C     -4.750199   -0.326558   -0.495926
  H     -4.764989    0.541432    1.484262
  H     -4.219384   -1.115834    1.413804
  C     -4.002156   -1.405701   -1.274011
  H     -2.357638   -0.201676   -1.996778
  H     -2.086292   -1.924595   -2.080404
  C     -6.235476   -0.661156   -0.391586
  H     -4.659955    0.614512   -1.049954
  H     -4.460951   -1.521386   -2.260729
  H     -4.136043   -2.365709   -0.758653
  C     -0.983780    3.127132   -0.972848
  H     -3.142070    1.852463   -0.423823
  H     -0.157981    3.798077   -0.736853
  H     -0.813626    2.746902   -1.984116
  H     -1.906844    3.708117   -0.994202
  H     -6.385196   -1.593179    0.161933
  H     -6.785142    0.126706    0.129190
  H     -6.682700   -0.786841   -1.380444
  C      2.186908    1.862973    1.758699
  H      1.755973    2.603443    2.438549
  H      2.123246    0.894364    2.262492
  H      3.239187    2.104731    1.622587
  C      1.950983    2.066549   -0.739096
  C      3.355110    2.457720   -1.066912
  H      3.365954    3.381057   -1.653912
  H      3.978440    2.616100   -0.188066
  H      3.824328    1.687614   -1.686213
  H      1.314163    1.927204   -1.605014
  C      2.064997   -1.392706    0.100328
  O      0.412075   -1.823723    1.697182
  C      3.094895   -1.724242    0.877802
  C      2.589450   -1.086015   -1.272441
  H      3.018700   -1.998502    1.921120
  C      4.394638   -1.653421    0.136568
  N      3.948221   -1.217900   -1.171118
  H      4.534853   -1.172642   -1.988185
  O      1.987952   -0.789136   -2.283900
  C      5.405826   -0.704129    0.773048
  H      6.313737   -0.647004    0.169557
  H      5.683214   -1.053946    1.769396
  H      4.981023    0.296799    0.857079
  H      4.830281   -2.659370    0.075702

 Total Charge           Charge          ....    0
 Multiplicity           Mult            ....    1
 Number of Electrons    NEL             ....  194
 Basis Dimension        Dim             .... 3598

ORBITAL ENERGIES
----------------

  NO   OCC          E(Eh)            E(eV)
   0   2.0000     -20.514626      -558.2314
   1   2.0000     -20.507216      -558.0297
   2   2.0000     -15.580910      -423.9781
   3   2.0000     -11.350274      -308.8567
   4   2.0000     -11.314428      -307.8812
   5   2.0000     -11.292719      -307.2905
   6   2.0000     -11.263517      -306.4959
   7   2.0000     -11.245524      -306.0063
   8   2.0000     -11.242471      -305.9232
   9   2.0000     -11.240398      -305.8668
  10   2.0000     -11.239095      -305.8313
  11   2.0000     -11.238344      -305.8109
  12   2.0000     -11.227779      -305.5234
  13   2.0000     -11.225085      -305.4501
  14   2.0000     -11.221697      -305.3579
  15   2.0000     -11.221225      -305.3451
  16   2.0000     -11.219756      -305.3051
  17   2.0000     -11.217722      -305.2497
  18   2.0000     -11.217150      -305.2342
  19   2.0000     -11.216885      -305.2270
  20   2.0000     -11.214496      -305.1619
  21   2.0000     -11.211407      -305.0779
  22   2.0000     -11.211267      -305.0741
  23   2.0000     -11.208584      -305.0011
  24   2.0000     -11.203382      -304.8595
  25   2.0000     -11.201078      -304.7968
  26   2.0000      -1.383501       -37.6470
  27   2.0000      -1.355619       -36.8883
  28   2.0000      -1.265365       -34.4323
  29   2.0000      -1.141452       -31.0605
  30   2.0000      -1.113621       -30.3032
  31   2.0000      -1.087058       -29.5803
  32   2.0000      -1.078778       -29.3550
  33   2.0000      -1.058779       -28.8108
  34   2.0000      -1.039799       -28.2944
  35   2.0000      -1.034072       -28.1385
  36   2.0000      -0.993152       -27.0250
  37   2.0000      -0.981888       -26.7185
  38   2.0000      -0.934167       -25.4200
  39   2.0000      -0.929055       -25.2809
  40   2.0000      -0.920505       -25.0482
  41   2.0000      -0.913309       -24.8524
  42   2.0000      -0.884921       -24.0799
  43   2.0000      -0.875520       -23.8241
  44   2.0000      -0.833431       -22.6788
  45   2.0000      -0.815456       -22.1897
  46   2.0000      -0.788379       -21.4529
  47   2.0000      -0.770850       -20.9759
  48   2.0000      -0.763182       -20.7672
  49   2.0000      -0.722220       -19.6526
  50   2.0000      -0.717711       -19.5299
  51   2.0000      -0.694492       -18.8981
  52   2.0000      -0.684621       -18.6295
  53   2.0000      -0.656390       -17.8613
  54   2.0000      -0.653027       -17.7698
  55   2.0000      -0.652224       -17.7479
  56   2.0000      -0.633678       -17.2433
  57   2.0000      -0.627580       -17.0773
  58   2.0000      -0.618689       -16.8354
  59   2.0000      -0.610872       -16.6227
  60   2.0000      -0.607264       -16.5245
  61   2.0000      -0.601076       -16.3561
  62   2.0000      -0.586331       -15.9549
  63   2.0000      -0.584283       -15.8992
  64   2.0000      -0.583259       -15.8713
  65   2.0000      -0.579707       -15.7746
  66   2.0000      -0.568231       -15.4623
  67   2.0000      -0.561660       -15.2836
  68   2.0000      -0.559713       -15.2306
  69   2.0000      -0.557297       -15.1648
  70   2.0000      -0.553555       -15.0630
  71   2.0000      -0.547773       -14.9057
  72   2.0000      -0.544433       -14.8148
  73   2.0000      -0.537274       -14.6200
  74   2.0000      -0.534142       -14.5347
  75   2.0000      -0.531458       -14.4617
  76   2.0000      -0.527170       -14.3450
  77   2.0000      -0.525093       -14.2885
  78   2.0000      -0.520526       -14.1642
  79   2.0000      -0.514567       -14.0021
  80   2.0000      -0.512863       -13.9557
  81   2.0000      -0.506256       -13.7759
  82   2.0000      -0.495223       -13.4757
  83   2.0000      -0.479857       -13.0576
  84   2.0000      -0.477667       -12.9980
  85   2.0000      -0.468026       -12.7356
  86   2.0000      -0.462998       -12.5988
  87   2.0000      -0.452896       -12.3239
  88   2.0000      -0.436476       -11.8771
  89   2.0000      -0.425222       -11.5709
  90   2.0000      -0.420610       -11.4454
  91   2.0000      -0.400704       -10.9037
  92   2.0000      -0.398741       -10.8503
  93   2.0000      -0.382237       -10.4012
  94   2.0000      -0.357421        -9.7259
  95   2.0000      -0.297981        -8.1085
  96   2.0000      -0.266095        -7.2408
  97   0.0000       0.017045         0.4638
  98   0.0000       0.022745         0.6189
  99   0.0000       0.025130         0.6838
 100   0.0000       0.027188         0.7398
 101   0.0000       0.031546         0.8584

MULLIKEN ATOMIC CHARGES
-----------------------
   0 C :   -0.744632
   1 C :    0.597151
   2 C :    0.465015
   3 H :    0.158934
   4 C :    2.564708
   5 C :    0.109662
   6 C :   -0.037158
   7 H :    0.246857
   8 C :    0.055121
   9 C :    1.811649
  10 C :   -0.477321
  11 C :   -1.258678
  12 C :   -0.627855
  13 H :    0.244481
  14 H :    0.080718
  15 H :    0.408054
  16 H :    0.174400
  17 C :    0.224069
  18 H :    0.150875
  19 H :    0.125077
  20 C :   -0.728926
  21 H :    0.173129
  22 H :    0.188285
  23 C :   -1.149684
  24 H :    0.222905
  25 H :    0.064495
  26 H :    0.128757
  27 C :   -1.274126
  28 H :   -0.130285
  29 H :    0.131549
  30 H :    0.175854
  31 H :    0.177011
  32 H :    0.151787
  33 H :    0.200818
  34 H :    0.212829
  35 C :   -1.176399
  36 H :    0.209213
  37 H :    0.181689
  38 H :    0.301604
  39 C :   -0.333963
  40 C :   -1.117453
  41 H :    0.300723
  42 H :    0.181128
  43 H :    0.238123
  44 H :    0.205969
  45 C :   -0.020888
  46 O :   -1.358273
  47 C :   -0.706785
  48 C :    1.938853
  49 H :    0.074759
  50 C :    0.121814
  51 N :   -0.690290
  52 H :   -0.065269
  53 O :   -1.237386
  54 C :   -1.161646
  55 H :    0.233494
  56 H :    0.280598
  57 H :    0.391265
  58 H :    0.393596
Sum of atomic charges:   -0.0000000

LOEWDIN ATOMIC CHARGES
----------------------
   0 C :    0.277189
   1 C :    0.303434
   2 C :    0.288785
   3 H :   -0.418761
   4 C :   -0.683139
   5 C :    0.007455
   6 C :   -0.016091
   7 H :   -0.466198
   8 C :    0.369522
   9 C :   -0.058948
  10 C :    0.503312
  11 C :    0.939540
  12 C :    0.549363
  13 H :   -0.305104
  14 H :   -0.273721
  15 H :   -0.383987
  16 H :   -0.262601
  17 C :    0.128934
  18 H :   -0.246198
  19 H :   -0.281426
  20 C :    0.544431
  21 H :   -0.269765
  22 H :   -0.251861
  23 C :    0.940545
  24 H :   -0.285418
  25 H :   -0.255096
  26 H :   -0.256156
  27 C :    0.915092
  28 H :   -0.335777
  29 H :   -0.300455
  30 H :   -0.269593
  31 H :   -0.289991
  32 H :   -0.269127
  33 H :   -0.268916
  34 H :   -0.269867
  35 C :    0.919771
  36 H :   -0.257664
  37 H :   -0.285752
  38 H :   -0.325007
  39 C :    0.367853
  40 C :    0.926607
  41 H :   -0.273746
  42 H :   -0.326912
  43 H :   -0.296035
  44 H :   -0.347911
  45 C :   -0.096828
  46 O :    0.782322
  47 C :    0.362810
  48 C :   -0.862041
  49 H :   -0.265451
  50 C :   -0.045911
  51 N :    0.834193
  52 H :   -0.448106
  53 O :    0.742043
  54 C :    0.944480
  55 H :   -0.269542
  56 H :   -0.270867
  57 H :   -0.296504
  58 H :   -0.261208

  Mayer bond orders larger than 0.100000
B(  0-C ,  2-C ) :   0.7488 B(  0-C ,  3-H ) :   1.1374 B(  0-C ,  4-C ) :   1.1027
B(  0-C ,  7-H ) :   0.1823 B(  0-C , 10-C ) :  -0.1038 B(  0-C , 12-C ) :  -0.1413
B(  0-C , 13-H ) :  -0.2887 B(  0-C , 22-H ) :  -0.1144 B(  0-C , 28-H ) :  -0.1017
B(  0-C , 45-C ) :  -0.2755 B(  0-C , 46-O ) :   0.7278 B(  0-C , 47-C ) :  -0.2725
B(  1-C ,  2-C ) :   0.2986 B(  1-C ,  4-C ) :  -0.1166 B(  1-C ,  5-C ) :   1.1031
B(  1-C ,  6-C ) :  -0.6519 B(  1-C ,  7-H ) :   1.1856 B(  1-C ,  8-C ) :  -0.6975
B(  1-C ,  9-C ) :   0.4732 B(  1-C , 13-H ) :   0.1473 B(  1-C , 30-H ) :   0.1296
B(  1-C , 35-C ) :  -0.3124 B(  1-C , 36-H ) :  -0.1349 B(  1-C , 37-H ) :   0.1910
B(  1-C , 39-C ) :  -0.5634 B(  1-C , 45-C ) :   0.1965 B(  1-C , 46-O ) :   0.2666
B(  2-C ,  3-H ) :  -0.1041 B(  2-C ,  4-C ) :  -0.3775 B(  2-C ,  8-C ) :   0.1173
B(  2-C ,  9-C ) :   0.4522 B(  2-C , 12-C ) :   0.5622 B(  2-C , 13-H ) :   1.0379
B(  2-C , 17-C ) :   0.1856 B(  2-C , 20-C ) :  -0.1306 B(  2-C , 22-H ) :  -0.1393
B(  2-C , 45-C ) :  -0.3870 B(  2-C , 46-O ) :   0.2904 B(  2-C , 48-C ) :   0.1966
B(  3-H ,  4-C ) :  -0.1731 B(  3-H , 12-C ) :  -0.1237 B(  3-H , 45-C ) :   0.2294
B(  4-C ,  5-C ) :  -0.1321 B(  4-C ,  7-H ) :   0.1542 B(  4-C ,  8-C ) :   0.2344
B(  4-C , 11-C ) :  -0.1300 B(  4-C , 45-C ) :   0.1562 B(  4-C , 46-O ) :  -0.9956
B(  4-C , 47-C ) :  -0.5942 B(  4-C , 48-C ) :  -0.3280 B(  4-C , 53-O ) :  -0.1018
B(  5-C ,  6-C ) :  -0.1629 B(  5-C ,  8-C ) :   0.3412 B(  5-C ,  9-C ) :  -0.3811
B(  5-C , 27-C ) :   0.5619 B(  5-C , 28-H ) :  -0.1934 B(  5-C , 29-H ) :  -0.1484
B(  5-C , 30-H ) :  -0.2472 B(  5-C , 31-H ) :  -0.1236 B(  5-C , 39-C ) :   0.3800
B(  6-C , 35-C ) :   0.5210 B(  6-C , 37-H ) :  -0.3360 B(  6-C , 39-C ) :   1.5260
B(  6-C , 42-H ) :   0.1502 B(  7-H , 11-C ) :  -0.2622 B(  8-C ,  9-C ) :   0.6091
B(  8-C , 10-C ) :  -0.1685 B(  8-C , 17-C ) :  -0.1414 B(  8-C , 24-H ) :  -0.1272
B(  8-C , 27-C ) :  -0.4207 B(  8-C , 28-H ) :   1.4166 B(  9-C , 10-C ) :   0.1799
B(  9-C , 14-H ) :  -0.1540 B(  9-C , 16-H ) :  -0.2661 B(  9-C , 18-H ) :  -0.2042
B(  9-C , 19-H ) :  -0.3196 B(  9-C , 24-H ) :   0.1384 B(  9-C , 28-H ) :  -0.2439
B(  9-C , 46-O ) :   0.1213 B( 10-C , 17-C ) :   0.5468 B( 10-C , 18-H ) :   1.1784
B( 10-C , 19-H ) :   1.2436 B( 10-C , 20-C ) :  -0.1207 B( 10-C , 23-C ) :  -0.1272
B( 11-C , 14-H ) :   1.2652 B( 11-C , 15-H ) :   0.9051 B( 11-C , 16-H ) :   1.2734
B( 12-C , 13-H ) :  -0.1161 B( 12-C , 20-C ) :   0.7490 B( 12-C , 21-H ) :   1.1232
B( 12-C , 22-H ) :   1.0952 B( 12-C , 25-H ) :  -0.1821 B( 13-H , 45-C ) :  -0.1091
B( 15-H , 46-O ) :   0.1445 B( 17-C , 20-C ) :   0.4475 B( 17-C , 23-C ) :   0.3601
B( 17-C , 24-H ) :   0.9900 B( 17-C , 25-H ) :  -0.1840 B( 17-C , 26-H ) :  -0.1107
B( 17-C , 32-H ) :  -0.2042 B( 17-C , 33-H ) :  -0.1631 B( 17-C , 34-H ) :  -0.1847
B( 20-C , 22-H ) :  -0.1051 B( 20-C , 23-C ) :   0.1991 B( 20-C , 25-H ) :   1.2841
B( 20-C , 26-H ) :   1.1892 B( 23-C , 32-H ) :   1.1495 B( 23-C , 33-H ) :   1.1287
B( 23-C , 34-H ) :   1.1434 B( 27-C , 29-H ) :   1.2498 B( 27-C , 30-H ) :   1.1398
B( 27-C , 31-H ) :   1.1736 B( 35-C , 36-H ) :   1.2030 B( 35-C , 37-H ) :   1.1125
B( 35-C , 38-H ) :   0.9987 B( 39-C , 40-C ) :   0.1842 B( 39-C , 41-H ) :  -0.1985
B( 39-C , 42-H ) :  -0.1686 B( 39-C , 43-H ) :  -0.3041 B( 39-C , 44-H ) :   1.0111
B( 40-C , 41-H ) :   1.0623 B( 40-C , 42-H ) :   1.1063 B( 40-C , 43-H ) :   1.0865
B( 45-C , 46-O ) :   0.1079 B( 45-C , 47-C ) :   1.2468 B( 45-C , 48-C ) :   0.9889
B( 45-C , 49-H ) :  -0.1330 B( 45-C , 50-C ) :  -0.4499 B( 45-C , 51-N ) :  -0.3028
B( 45-C , 53-O ) :   0.6218 B( 47-C , 48-C ) :   0.2467 B( 47-C , 49-H ) :   1.3276
B( 47-C , 50-C ) :   1.2152 B( 47-C , 54-C ) :  -0.1280 B( 48-C , 51-N ) :   0.8261
B( 48-C , 52-H ) :  -0.2844 B( 50-C , 51-N ) :   0.5841 B( 50-C , 54-C ) :   0.9431
B( 50-C , 58-H ) :   0.8221 B( 51-N , 52-H ) :   1.3871 B( 51-N , 53-O ) :   0.2261
B( 54-C , 55-H ) :   1.0712 B( 54-C , 56-H ) :   0.9940 B( 54-C , 57-H ) :   0.8218

MP2 TOTAL ENERGY:    -1099.541265935 Eh
FINAL SINGLE POINT ENERGY     -1099.541265935380

DIPOLE MOMENT
-------------
                                X             Y             Z
Electronic contribution:     13.04864     -10.38162      -2.54174
Nuclear contribution   :    -11.89979      10.74053       2.64542
                        -----------------------------------------
Total Dipole Moment    :      1.14885       0.35891       0.10368
                        -----------------------------------------
Magnitude (a.u.)       :      1.20807
Magnitude (Debye)      :      3.07066

Rotational constants in cm-1:     0.012820     0.004382     0.004037
Rotational constants in MHz :   384.320789   131.354798   121.018522

                             ****ORCA TERMINATED NORMALLY****
TOTAL RUN TIME: 1 days 8 hours 28 minutes 56 seconds 824 msec
