                         Program Version 4.2.1 -  RELEASE  -
|  1> %pal
|  2>  nprocs 32
|  3> end
|  4> !RI-MP2 aug-cc-pVQZ aug-cc-pVQZ/C TightSCF
|  5> %maxcore 4500
|  6> *xyzfile 0 1  06_28TS.xyz
|  7>
|  8>
|  9>                          ****END OF INPUT****

CARTESIAN COORDINATES (ANGSTROEM)
---------------------------------
  C      0.672391    2.879273   -0.664082
  C      0.995994    1.686039    0.260341
  C     -2.022595    1.177180   -0.170494
  H      0.881588    2.597284   -1.703591
  C      0.530323    1.902184    1.719124
  H      1.325573    1.566860    2.389722
  H      0.403684    2.970691    1.923013
  H     -3.037444    0.852513   -0.418168
  H      2.092824    1.638815    0.285983
  C     -0.731326    1.138121    2.129393
  H     -0.510130    0.069092    2.078764
  H     -0.926555    1.341900    3.187325
  C     -2.026495    1.406436    1.358984
  H     -2.791053    0.761569    1.803158
  H     -2.365280    2.429145    1.556172
  C     -1.868862    2.489482   -0.965448
  H     -1.774176    2.237216   -2.028008
  C     -0.742944    3.437502   -0.570519
  H     -0.806915    4.323441   -1.210593
  H     -0.919661    3.801844    0.445406
  H     -2.809901    3.043229   -0.870953
  H      1.364698    3.695986   -0.427969
  C     -1.059600    0.059276   -0.659652
  H     -1.055061    0.141133   -1.760246
  Si    -1.822057   -1.664026   -0.492634
  C     -0.839253   -2.913235   -1.508528
  H      0.166298   -3.105556   -1.130927
  H     -1.366436   -3.871055   -1.529381
  H     -0.739241   -2.569062   -2.541106
  C     -3.561438   -1.639967   -1.215606
  H     -3.953874   -2.658101   -1.286300
  H     -4.258945   -1.063974   -0.603746
  H     -3.570218   -1.211807   -2.221530
  C     -1.971649   -2.278997    1.281878
  H     -2.602922   -1.614024    1.875276
  H     -2.435553   -3.269299    1.292568
  H     -1.012853   -2.360277    1.795048
  B      0.476057    0.298580   -0.326479
  C      1.525759   -1.114639    0.582927
  H      0.716508   -1.818508    0.455687
  C      2.247108   -1.165809    1.854816
  H      3.157537   -0.575191    1.909140
  C      1.854286   -1.836480    2.934097
  H      0.958238   -2.446863    2.934526
  H      2.416939   -1.792660    3.857644
  C      2.179143   -0.778145   -0.612949
  O      1.403117   -0.219947   -1.475716
  O      3.478616   -0.771750   -0.776623
  C      4.002878   -0.062845   -1.914384
  H      3.732008   -0.579983   -2.833333
  H      3.612142    0.953213   -1.934647
  H      5.080514   -0.062791   -1.780349

 Total Charge           Charge          ....    0
 Multiplicity           Mult            ....    1
 Number of Electrons    NEL             ....  168
 Basis Dimension        Dim             .... 3110

ORBITAL ENERGIES
----------------

  NO   OCC          E(Eh)            E(eV)
   0   2.0000     -68.736354     -1870.4113
   1   2.0000     -20.634408      -561.4908
   2   2.0000     -20.587751      -560.2212
   3   2.0000     -11.408469      -310.4402
   4   2.0000     -11.307254      -307.6860
   5   2.0000     -11.235231      -305.7262
   6   2.0000     -11.216809      -305.2249
   7   2.0000     -11.213362      -305.1311
   8   2.0000     -11.212268      -305.1013
   9   2.0000     -11.203261      -304.8562
  10   2.0000     -11.202725      -304.8417
  11   2.0000     -11.201408      -304.8058
  12   2.0000     -11.200732      -304.7874
  13   2.0000     -11.200190      -304.7727
  14   2.0000     -11.199585      -304.7562
  15   2.0000     -11.187779      -304.4349
  16   2.0000     -11.187683      -304.4323
  17   2.0000     -11.185329      -304.3683
  18   2.0000     -11.183385      -304.3154
  19   2.0000     -11.169484      -303.9371
  20   2.0000      -7.608620      -207.0411
  21   2.0000      -6.085226      -165.5874
  22   2.0000      -4.191747      -114.0632
  23   2.0000      -4.191679      -114.0614
  24   2.0000      -4.191378      -114.0532
  25   2.0000      -1.501992       -40.8713
  26   2.0000      -1.406888       -38.2834
  27   2.0000      -1.104045       -30.0426
  28   2.0000      -1.090726       -29.6802
  29   2.0000      -1.036605       -28.2074
  30   2.0000      -1.031900       -28.0794
  31   2.0000      -1.017740       -27.6941
  32   2.0000      -0.971820       -26.4446
  33   2.0000      -0.957815       -26.0635
  34   2.0000      -0.941994       -25.6330
  35   2.0000      -0.916906       -24.9503
  36   2.0000      -0.913321       -24.8527
  37   2.0000      -0.905383       -24.6367
  38   2.0000      -0.868209       -23.6252
  39   2.0000      -0.824447       -22.4343
  40   2.0000      -0.792959       -21.5775
  41   2.0000      -0.785305       -21.3692
  42   2.0000      -0.773238       -21.0409
  43   2.0000      -0.726276       -19.7630
  44   2.0000      -0.725113       -19.7313
  45   2.0000      -0.704924       -19.1820
  46   2.0000      -0.694154       -18.8889
  47   2.0000      -0.655911       -17.8482
  48   2.0000      -0.644167       -17.5287
  49   2.0000      -0.626012       -17.0346
  50   2.0000      -0.620539       -16.8857
  51   2.0000      -0.615786       -16.7564
  52   2.0000      -0.609399       -16.5826
  53   2.0000      -0.588703       -16.0194
  54   2.0000      -0.582810       -15.8591
  55   2.0000      -0.573720       -15.6117
  56   2.0000      -0.567385       -15.4393
  57   2.0000      -0.562255       -15.2997
  58   2.0000      -0.559103       -15.2140
  59   2.0000      -0.557327       -15.1656
  60   2.0000      -0.553342       -15.0572
  61   2.0000      -0.546612       -14.8741
  62   2.0000      -0.544565       -14.8184
  63   2.0000      -0.535931       -14.5834
  64   2.0000      -0.531032       -14.4501
  65   2.0000      -0.527654       -14.3582
  66   2.0000      -0.522385       -14.2148
  67   2.0000      -0.514902       -14.0112
  68   2.0000      -0.504763       -13.7353
  69   2.0000      -0.492192       -13.3932
  70   2.0000      -0.480120       -13.0647
  71   2.0000      -0.475076       -12.9275
  72   2.0000      -0.469378       -12.7724
  73   2.0000      -0.459581       -12.5058
  74   2.0000      -0.454811       -12.3760
  75   2.0000      -0.448899       -12.2152
  76   2.0000      -0.428434       -11.6583
  77   2.0000      -0.421390       -11.4666
  78   2.0000      -0.417469       -11.3599
  79   2.0000      -0.410446       -11.1688
  80   2.0000      -0.405364       -11.0305
  81   2.0000      -0.392980       -10.6935
  82   2.0000      -0.370522       -10.0824
  83   2.0000      -0.307174        -8.3586
  84   0.0000       0.017983         0.4894
  85   0.0000       0.024158         0.6574
  86   0.0000       0.026298         0.7156
  87   0.0000       0.027048         0.7360
  88   0.0000       0.034613         0.9419

MULLIKEN ATOMIC CHARGES
-----------------------
   0 C :   -0.707110
   1 C :    0.498955
   2 C :    0.988495
   3 H :    0.218129
   4 C :   -0.614395
   5 H :    0.004576
   6 H :    0.001567
   7 H :    0.438808
   8 H :    0.318831
   9 C :   -0.587283
  10 H :    0.358704
  11 H :    0.053211
  12 C :   -0.397777
  13 H :   -0.008576
  14 H :    0.059524
  15 C :   -0.849566
  16 H :    0.074404
  17 C :   -0.407251
  18 H :    0.072410
  19 H :    0.102047
  20 H :   -0.053852
  21 H :    0.024752
  22 C :   -0.930986
  23 H :    0.113801
  24 Si:    1.991110
  25 C :   -1.041042
  26 H :    0.186703
  27 H :    0.239754
  28 H :    0.141885
  29 C :   -0.825481
  30 H :    0.195986
  31 H :    0.264155
  32 H :    0.248531
  33 C :   -1.141803
  34 H :    0.223754
  35 H :    0.098471
  36 H :    0.165179
  37 B :    2.123598
  38 C :   -0.742999
  39 H :    0.319801
  40 C :   -0.531332
  41 H :    0.150652
  42 C :   -1.053110
  43 H :    0.347142
  44 H :    0.236962
  45 C :    2.275260
  46 O :   -1.799865
  47 O :   -1.088521
  48 C :   -0.940231
  49 H :    0.352258
  50 H :    0.378612
  51 H :    0.453153
Sum of atomic charges:   -0.0000000

LOEWDIN ATOMIC CHARGES
----------------------
   0 C :    0.569138
   1 C :    0.308543
   2 C :    0.155054
   3 H :   -0.252998
   4 C :    0.580261
   5 H :   -0.268154
   6 H :   -0.268491
   7 H :   -0.336699
   8 H :   -0.308008
   9 C :    0.570133
  10 H :   -0.326707
  11 H :   -0.241458
  12 C :    0.586779
  13 H :   -0.270865
  14 H :   -0.267404
  15 C :    0.575539
  16 H :   -0.259764
  17 C :    0.564515
  18 H :   -0.253492
  19 H :   -0.298939
  20 H :   -0.254645
  21 H :   -0.252735
  22 C :    0.407467
  23 H :   -0.361050
  24 Si:    0.183258
  25 C :    1.021811
  26 H :   -0.348587
  27 H :   -0.326085
  28 H :   -0.319984
  29 C :    1.010191
  30 H :   -0.330442
  31 H :   -0.332856
  32 H :   -0.319798
  33 C :    1.029133
  34 H :   -0.331781
  35 H :   -0.317814
  36 H :   -0.364468
  37 B :   -1.216807
  38 C :    0.273449
  39 H :   -0.424947
  40 C :    0.360379
  41 H :   -0.323720
  42 C :    0.813384
  43 H :   -0.357133
  44 H :   -0.347300
  45 C :   -0.859573
  46 O :    1.050795
  47 O :    0.941311
  48 C :    0.648137
  49 H :   -0.291020
  50 H :   -0.307917
  51 H :   -0.307638

  Mayer bond orders larger than 0.100000
B(  0-C ,  3-H ) :   1.1945 B(  0-C , 17-C ) :   0.7460 B(  0-C , 18-H ) :  -0.1295
B(  0-C , 21-H ) :   1.2730 B(  0-C , 37-B ) :  -0.2060 B(  1-C ,  3-H ) :  -0.1859
B(  1-C ,  4-C ) :   0.3496 B(  1-C ,  5-H ) :  -0.2034 B(  1-C ,  6-H ) :  -0.2308
B(  1-C ,  8-H ) :   0.9363 B(  1-C ,  9-C ) :   0.1581 B(  1-C , 17-C ) :  -0.2241
B(  1-C , 22-C ) :   0.1200 B(  1-C , 24-Si) :   0.2232 B(  1-C , 37-B ) :   0.7956
B(  1-C , 40-C ) :  -0.1037 B(  1-C , 45-C ) :  -0.1712 B(  1-C , 46-O ) :  -0.5530
B(  1-C , 47-O ) :   0.1233 B(  2-C ,  7-H ) :   0.9981 B(  2-C ,  9-C ) :   0.1626
B(  2-C , 12-C ) :   0.2709 B(  2-C , 13-H ) :  -0.2407 B(  2-C , 14-H ) :  -0.2391
B(  2-C , 15-C ) :   0.2915 B(  2-C , 16-H ) :  -0.2122 B(  2-C , 20-H ) :  -0.2225
B(  2-C , 22-C ) :   0.4731 B(  2-C , 24-Si) :  -0.4689 B(  2-C , 29-C ) :  -0.1051
B(  2-C , 37-B ) :  -0.2570 B(  2-C , 45-C ) :   0.1062 B(  4-C ,  5-H ) :   1.3954
B(  4-C ,  6-H ) :   1.4362 B(  4-C ,  8-H ) :  -0.1574 B(  4-C ,  9-C ) :   0.7362
B(  4-C , 12-C ) :  -0.1774 B(  4-C , 22-C ) :  -0.1128 B(  7-H , 12-C ) :  -0.2408
B(  7-H , 15-C ) :  -0.1468 B(  7-H , 22-C ) :  -0.2245 B(  9-C , 10-H ) :   0.9860
B(  9-C , 11-H ) :   1.1637 B(  9-C , 12-C ) :   0.6427 B( 10-H , 12-C ) :  -0.1579
B( 10-H , 37-B ) :  -0.2214 B( 12-C , 13-H ) :   1.3796 B( 12-C , 14-H ) :   1.3747
B( 12-C , 15-C ) :  -0.1125 B( 12-C , 22-C ) :   0.1860 B( 12-C , 37-B ) :  -0.1285
B( 15-C , 16-H ) :   1.4353 B( 15-C , 17-C ) :   0.7160 B( 15-C , 20-H ) :   1.4406
B( 15-C , 22-C ) :  -0.3102 B( 16-H , 22-C ) :  -0.1649 B( 17-C , 18-H ) :   1.1498
B( 17-C , 19-H ) :   1.2069 B( 22-C , 23-H ) :   1.2111 B( 22-C , 24-Si) :   0.9106
B( 22-C , 33-C ) :   0.4252 B( 22-C , 37-B ) :   0.8973 B( 22-C , 45-C ) :  -0.1296
B( 22-C , 46-O ) :  -0.2067 B( 23-H , 46-O ) :  -0.2559 B( 24-Si, 25-C ) :   0.4726
B( 24-Si, 27-H ) :  -0.1178 B( 24-Si, 28-H ) :  -0.2113 B( 24-Si, 29-C ) :   0.9660
B( 24-Si, 30-H ) :  -0.1943 B( 24-Si, 31-H ) :  -0.1809 B( 24-Si, 32-H ) :  -0.2120
B( 24-Si, 33-C ) :  -0.1336 B( 24-Si, 34-H ) :  -0.1694 B( 24-Si, 35-H ) :  -0.1030
B( 24-Si, 37-B ) :  -0.5916 B( 24-Si, 38-C ) :   0.1194 B( 24-Si, 45-C ) :  -0.2370
B( 25-C , 26-H ) :   1.0371 B( 25-C , 27-H ) :   1.0388 B( 25-C , 28-H ) :   1.1568
B( 25-C , 29-C ) :   0.1206 B( 25-C , 37-B ) :  -0.1301 B( 26-H , 28-H ) :   0.1132
B( 29-C , 30-H ) :   1.0917 B( 29-C , 31-H ) :   1.0095 B( 29-C , 32-H ) :   1.0614
B( 33-C , 34-H ) :   1.0285 B( 33-C , 35-H ) :   1.1571 B( 33-C , 36-H ) :   1.2025
B( 34-H , 36-H ) :   0.1267 B( 37-B , 38-C ) :  -0.4420 B( 37-B , 39-H ) :   0.1666
B( 37-B , 45-C ) :  -0.4272 B( 37-B , 46-O ) :   0.4149 B( 37-B , 47-O ) :   0.1145
B( 37-B , 48-C ) :   0.2213 B( 38-C , 39-H ) :   0.7621 B( 38-C , 40-C ) :   0.8932
B( 38-C , 41-H ) :  -0.1399 B( 38-C , 42-C ) :  -0.1456 B( 38-C , 45-C ) :   1.5637
B( 38-C , 47-O ) :   0.3107 B( 38-C , 48-C ) :  -0.1117 B( 39-H , 40-C ) :  -0.1982
B( 39-H , 45-C ) :   0.1715 B( 39-H , 47-O ) :   0.1277 B( 40-C , 41-H ) :   1.2202
B( 40-C , 42-C ) :   1.6490 B( 40-C , 44-H ) :  -0.2165 B( 40-C , 45-C ) :  -0.2370
B( 42-C , 43-H ) :   0.9233 B( 42-C , 44-H ) :   1.1908 B( 45-C , 46-O ) :   1.6011
B( 45-C , 47-O ) :  -0.4576 B( 45-C , 48-C ) :  -0.2935 B( 46-O , 47-O ) :   0.2090
B( 46-O , 48-C ) :  -0.1532 B( 47-O , 48-C ) :   1.0456 B( 48-C , 49-H ) :   0.8784
B( 48-C , 50-H ) :   0.8761 B( 48-C , 51-H ) :   0.8523

MP2 TOTAL ENERGY:    -1129.370526149 Eh
FINAL SINGLE POINT ENERGY     -1129.370526149100

DIPOLE MOMENT
-------------
                                X             Y             Z
Electronic contribution:     12.44585      -3.28892      -4.43095
Nuclear contribution   :    -11.56032       3.36763       3.87902
                        -----------------------------------------
Total Dipole Moment    :      0.88553       0.07871      -0.55194
                        -----------------------------------------
Magnitude (a.u.)       :      1.04642
Magnitude (Debye)      :      2.65979

Rotational constants in cm-1:     0.010917     0.009158     0.007473
Rotational constants in MHz :   327.270563   274.557130   224.047914

                             ****ORCA TERMINATED NORMALLY****
TOTAL RUN TIME: 0 days 19 hours 13 minutes 56 seconds 255 msec
