                         Program Version 4.2.1 -  RELEASE  -
|  1> %pal
|  2>  nprocs 32
|  3> end
|  4> !RI-MP2 aug-cc-pVQZ aug-cc-pVQZ/C TightSCF
|  5> %maxcore 4500
|  6> *xyzfile 0 1  06_20R1.xyz
|  7>
|  8>
|  9>                          ****END OF INPUT****

CARTESIAN COORDINATES (ANGSTROEM)
---------------------------------
  C     -0.536558    0.689685    0.000037
  C      0.775457    0.565908    0.000014
  F      1.380523   -0.644086   -0.000060
  C     -1.516475   -0.439031    0.000016
  H     -2.163531   -0.389511    0.879479
  H     -2.163742   -0.389294   -0.879278
  H     -1.010763   -1.403580   -0.000159
  H     -0.915322    1.705825    0.000074
  H      1.494109    1.373967    0.000022

 Total Charge           Charge          ....    0
 Multiplicity           Mult            ....    1
 Number of Electrons    NEL             ....   32
 Basis Dimension        Dim             ....  550

ORBITAL ENERGIES
----------------

  NO   OCC          E(Eh)            E(eV)
   0   2.0000     -26.296674      -715.5689
   1   2.0000     -11.311626      -307.8050
   2   2.0000     -11.237295      -305.7823
   3   2.0000     -11.227483      -305.5153
   4   2.0000      -1.613424       -43.9035
   5   2.0000      -1.078293       -29.3419
   6   2.0000      -0.947038       -25.7702
   7   2.0000      -0.800179       -21.7740
   8   2.0000      -0.732542       -19.9335
   9   2.0000      -0.681572       -18.5465
  10   2.0000      -0.662806       -18.0359
  11   2.0000      -0.596261       -16.2251
  12   2.0000      -0.573372       -15.6022
  13   2.0000      -0.537500       -14.6261
  14   2.0000      -0.524025       -14.2594
  15   2.0000      -0.368055       -10.0153
  16   0.0000       0.025845         0.7033
  17   0.0000       0.033303         0.9062
  18   0.0000       0.039020         1.0618
  19   0.0000       0.041900         1.1402
  20   0.0000       0.054829         1.4920

MULLIKEN ATOMIC CHARGES
-----------------------
   0 C :   -0.441695
   1 C :    0.121528
   2 F :   -0.678054
   3 C :   -0.608368
   4 H :    0.221460
   5 H :    0.221431
   6 H :    0.294221
   7 H :    0.365578
   8 H :    0.503900
Sum of atomic charges:   -0.0000000

LOEWDIN ATOMIC CHARGES
----------------------
   0 C :    0.296755
   1 C :   -0.215353
   2 F :    0.733913
   3 C :    0.865969
   4 H :   -0.298260
   5 H :   -0.298263
   6 H :   -0.325851
   7 H :   -0.356874
   8 H :   -0.402035

  Mayer bond orders larger than 0.100000
B(  0-C ,  1-C ) :   1.7926 B(  0-C ,  3-C ) :   0.8005 B(  0-C ,  7-H ) :   0.8606
B(  1-C ,  2-F ) :   0.4428 B(  1-C ,  8-H ) :   0.7752 B(  3-C ,  4-H ) :   0.9781
B(  3-C ,  5-H ) :   0.9782 B(  3-C ,  6-H ) :   0.9222

MP2 TOTAL ENERGY:     -216.833220935 Eh
FINAL SINGLE POINT ENERGY      -216.833220934743

DIPOLE MOMENT
-------------
                                X             Y             Z
Electronic contribution:      5.69652      -1.03684      -0.00017
Nuclear contribution   :     -6.12543       1.53420       0.00020
                        -----------------------------------------
Total Dipole Moment    :     -0.42890       0.49736       0.00003
                        -----------------------------------------
Magnitude (a.u.)       :      0.65675
Magnitude (Debye)      :      1.66934

Rotational constants in cm-1:     0.599882     0.188741     0.147486
Rotational constants in MHz : 17984.009793  5658.302681  4421.514876

                             ****ORCA TERMINATED NORMALLY****
TOTAL RUN TIME: 0 days 0 hours 3 minutes 7 seconds 100 msec
