                         Program Version 4.2.1 -  RELEASE  -
|  1> %pal
|  2>  nprocs 32
|  3> end
|  4> !RI-MP2 aug-cc-pVQZ aug-cc-pVQZ/C TightSCF
|  5> %maxcore 4500
|  6> *xyzfile 0 1  05_28R1.xyz
|  7>
|  8>
|  9>                          ****END OF INPUT****

CARTESIAN COORDINATES (ANGSTROEM)
---------------------------------
  C     -1.923523   -1.083082   -0.812182
  O     -2.892021   -0.800228    0.223607
  C     -0.640840   -0.356477   -0.588336
  H     -0.693000    0.724080   -0.661250
  C      0.503541   -0.981017   -0.325925
  H      0.489668   -2.065869   -0.244298
  C      1.820040   -0.362002   -0.116333
  C      2.069853    0.990100   -0.365749
  C      2.869785   -1.152544    0.352393
  C      3.323454    1.531136   -0.138568
  H      1.280482    1.623602   -0.750361
  C      4.126899   -0.612202    0.580956
  H      2.693951   -2.205296    0.544228
  C      4.357839    0.733319    0.337669
  H      3.498484    2.581293   -0.339412
  H      4.926575   -1.244125    0.948116
  H      5.338307    1.159410    0.511988
  C     -3.540793    0.372113    0.137770
  O     -3.351882    1.169187   -0.743509
  C     -4.505252    0.541175    1.273855
  H     -3.955378    0.565922    2.216049
  H     -5.060222    1.466630    1.144600
  H     -5.188164   -0.307969    1.314063
  H     -1.780791   -2.161085   -0.765310
  H     -2.364700   -0.811383   -1.772490

 Total Charge           Charge          ....    0
 Multiplicity           Mult            ....    1
 Number of Electrons    NEL             ....   94
 Basis Dimension        Dim             .... 1592

ORBITAL ENERGIES
----------------

  NO   OCC          E(Eh)            E(eV)
   0   2.0000     -20.598201      -560.5056
   1   2.0000     -20.540286      -558.9296
   2   2.0000     -11.377986      -309.6107
   3   2.0000     -11.293139      -307.3019
   4   2.0000     -11.245666      -306.0101
   5   2.0000     -11.242672      -305.9287
   6   2.0000     -11.238752      -305.8220
   7   2.0000     -11.236560      -305.7623
   8   2.0000     -11.236125      -305.7505
   9   2.0000     -11.235327      -305.7288
  10   2.0000     -11.234552      -305.7077
  11   2.0000     -11.234088      -305.6951
  12   2.0000     -11.233203      -305.6710
  13   2.0000      -1.461318       -39.7645
  14   2.0000      -1.359288       -36.9881
  15   2.0000      -1.164739       -31.6942
  16   2.0000      -1.094643       -29.7868
  17   2.0000      -1.040636       -28.3171
  18   2.0000      -1.020393       -27.7663
  19   2.0000      -1.007071       -27.4038
  20   2.0000      -0.934239       -25.4219
  21   2.0000      -0.847778       -23.0692
  22   2.0000      -0.828248       -22.5378
  23   2.0000      -0.787112       -21.4184
  24   2.0000      -0.752800       -20.4847
  25   2.0000      -0.714360       -19.4387
  26   2.0000      -0.693413       -18.8687
  27   2.0000      -0.679555       -18.4916
  28   2.0000      -0.672515       -18.3001
  29   2.0000      -0.645099       -17.5540
  30   2.0000      -0.632857       -17.2209
  31   2.0000      -0.611684       -16.6448
  32   2.0000      -0.594145       -16.1675
  33   2.0000      -0.587464       -15.9857
  34   2.0000      -0.581442       -15.8218
  35   2.0000      -0.557611       -15.1734
  36   2.0000      -0.550153       -14.9704
  37   2.0000      -0.527770       -14.3614
  38   2.0000      -0.521640       -14.1945
  39   2.0000      -0.515602       -14.0302
  40   2.0000      -0.499328       -13.5874
  41   2.0000      -0.491663       -13.3788
  42   2.0000      -0.460304       -12.5255
  43   2.0000      -0.448499       -12.2043
  44   2.0000      -0.412168       -11.2157
  45   2.0000      -0.342106        -9.3092
  46   2.0000      -0.309053        -8.4097
  47   0.0000       0.023212         0.6316
  48   0.0000       0.025589         0.6963
  49   0.0000       0.028160         0.7663
  50   0.0000       0.033414         0.9092
  51   0.0000       0.037341         1.0161

MULLIKEN ATOMIC CHARGES
-----------------------
   0 C :   -0.082054
   1 O :   -0.765253
   2 C :   -0.409897
   3 H :    0.467695
   4 C :   -0.371393
   5 H :    0.233136
   6 C :    0.623070
   7 C :   -0.401680
   8 C :   -0.503450
   9 C :   -0.273084
  10 H :    0.179212
  11 C :   -0.278116
  12 H :    0.230288
  13 C :   -0.412781
  14 H :    0.238111
  15 H :    0.266857
  16 H :    0.323650
  17 C :    0.933524
  18 O :   -0.787471
  19 C :   -0.730233
  20 H :    0.277975
  21 H :    0.307989
  22 H :    0.292452
  23 H :    0.337981
  24 H :    0.303470
Sum of atomic charges:    0.0000000

LOEWDIN ATOMIC CHARGES
----------------------
   0 C :    0.159715
   1 O :    0.863296
   2 C :    0.381836
   3 H :   -0.348512
   4 C :    0.376354
   5 H :   -0.344890
   6 C :   -0.092611
   7 C :    0.336039
   8 C :    0.330343
   9 C :    0.349057
  10 H :   -0.335250
  11 C :    0.343642
  12 H :   -0.321875
  13 C :    0.337253
  14 H :   -0.318975
  15 H :   -0.320464
  16 H :   -0.321944
  17 C :   -1.080518
  18 O :    0.722881
  19 C :    0.870765
  20 H :   -0.298082
  21 H :   -0.320600
  22 H :   -0.301506
  23 H :   -0.335761
  24 H :   -0.330193

  Mayer bond orders larger than 0.100000
B(  0-C ,  1-O ) :   0.6678 B(  0-C ,  2-C ) :   1.0791 B(  0-C ,  4-C ) :  -0.1744
B(  0-C , 23-H ) :   0.9080 B(  0-C , 24-H ) :   0.8931 B(  1-O , 17-C ) :   0.9348
B(  2-C ,  3-H ) :   0.7803 B(  2-C ,  4-C ) :   1.3241 B(  2-C ,  6-C ) :  -0.4764
B(  2-C ,  7-C ) :  -0.2213 B(  4-C ,  5-H ) :   1.0047 B(  4-C ,  6-C ) :   0.7203
B(  4-C ,  7-C ) :  -0.2825 B(  4-C ,  8-C ) :  -0.4503 B(  5-H ,  6-C ) :  -0.1670
B(  6-C ,  7-C ) :   1.1982 B(  6-C ,  8-C ) :   0.9977 B(  6-C ,  9-C ) :  -0.3884
B(  6-C , 11-C ) :  -0.3704 B(  6-C , 12-H ) :  -0.1066 B(  7-C ,  8-C ) :   0.1485
B(  7-C ,  9-C ) :   1.1865 B(  7-C , 10-H ) :   1.0594 B(  7-C , 11-C ) :   0.1230
B(  7-C , 14-H ) :  -0.1297 B(  8-C ,  9-C ) :   0.1174 B(  8-C , 11-C ) :   1.2278
B(  8-C , 12-H ) :   1.0459 B(  8-C , 13-C ) :   0.1082 B(  8-C , 15-H ) :  -0.1532
B(  9-C , 13-C ) :   1.1778 B(  9-C , 14-H ) :   1.1306 B( 11-C , 13-C ) :   1.1690
B( 11-C , 15-H ) :   1.1248 B( 13-C , 15-H ) :  -0.1135 B( 13-C , 16-H ) :   0.9961
B( 17-C , 18-O ) :   1.3684 B( 17-C , 19-C ) :   0.8270 B( 19-C , 20-H ) :   0.9291
B( 19-C , 21-H ) :   0.9737 B( 19-C , 22-H ) :   0.9295

MP2 TOTAL ENERGY:     -575.889069881 Eh
FINAL SINGLE POINT ENERGY      -575.889069881254

DIPOLE MOMENT
-------------
                                X             Y             Z
Electronic contribution:      1.04343       0.11015      -1.63220
Nuclear contribution   :     -0.91490      -0.67020       2.14166
                        -----------------------------------------
Total Dipole Moment    :      0.12853      -0.56005       0.50945
                        -----------------------------------------
Magnitude (a.u.)       :      0.76793
Magnitude (Debye)      :      1.95193

Rotational constants in cm-1:     0.073662     0.009718     0.009204
Rotational constants in MHz :  2208.318086   291.350247   275.928528

                             ****ORCA TERMINATED NORMALLY****
TOTAL RUN TIME: 0 days 1 hours 29 minutes 3 seconds 934 msec
