                         Program Version 4.2.1 -  RELEASE  -
|  1> %pal
|  2>  nprocs 32
|  3> end
|  4> !RI-MP2 aug-cc-pVQZ aug-cc-pVQZ/C TightSCF
|  5> %maxcore 4500
|  6> *xyzfile 0 2  04_61R.xyz
|  7>
|  8>
|  9>                          ****END OF INPUT****

CARTESIAN COORDINATES (ANGSTROEM)
---------------------------------
  C      0.358758   -0.662178    0.679647
  C      1.302101   -1.504554   -0.145657
  C      2.108684   -0.668887   -1.172913
  H      0.737997   -2.270401   -0.686687
  H      1.994823   -2.023521    0.521906
  C      2.941321    0.411914   -0.565056
  H      1.420520   -0.240967   -1.906847
  H      2.750555   -1.370044   -1.718842
  C      4.117600    0.036159    0.270140
  C      2.417057    1.803879   -0.468633
  N      0.555258   -0.348200    1.892492
  C     -0.892958   -0.177266   -0.017433
  H     -0.637442    0.028111   -1.065067
  C     -1.484747    1.090082    0.594176
  C     -1.967639   -1.277549   -0.016694
  H      1.724823    2.034413   -1.282215
  H      3.228220    2.538100   -0.494103
  H      1.874465    1.969155    0.474418
  H      4.542251   -0.924542   -0.032447
  H      3.856965   -0.047259    1.337151
  H      4.907244    0.791284    0.210171
  H     -1.619163   -2.174646   -0.536596
  C     -3.238161   -0.770916   -0.684191
  H     -2.188777   -1.556301    1.017361
  H     -0.774358    1.917639    0.519001
  H     -1.670481    0.923989    1.656225
  C     -2.781721    1.458500   -0.108928
  H     -2.584241    1.725239   -1.159332
  H     -3.261582    2.311945    0.370000
  O     -3.725365    0.402197   -0.066507
  H     -4.038653   -1.507997   -0.615788
  H     -3.047113   -0.572891   -1.750840
  H      1.418293   -0.766594    2.240391

 Total Charge           Charge          ....    0
 Multiplicity           Mult            ....    2
 Number of Electrons    NEL             ....  101
 Basis Dimension        Dim             .... 1960

ORBITAL ENERGIES
----------------
                 SPIN UP ORBITALS
  NO   OCC          E(Eh)            E(eV)
   0   1.0000     -20.545882      -559.0819
   1   1.0000     -15.536521      -422.7702
   2   1.0000     -11.278283      -306.8977
   3   1.0000     -11.270586      -306.6882
   4   1.0000     -11.265917      -306.5612
   5   1.0000     -11.238385      -305.8120
   6   1.0000     -11.232994      -305.6653
   7   1.0000     -11.232767      -305.6591
   8   1.0000     -11.230589      -305.5999
   9   1.0000     -11.224735      -305.4406
  10   1.0000     -11.218145      -305.2612
  11   1.0000     -11.214098      -305.1511
  12   1.0000     -11.211229      -305.0731
  13   1.0000      -1.371886       -37.3309
  14   1.0000      -1.218092       -33.1460
  15   1.0000      -1.110229       -30.2109
  16   1.0000      -1.084474       -29.5100
  17   1.0000      -1.027253       -27.9530
  18   1.0000      -1.019989       -27.7553
  19   1.0000      -0.942135       -25.6368
  20   1.0000      -0.915513       -24.9124
  21   1.0000      -0.880626       -23.9630
  22   1.0000      -0.860865       -23.4253
  23   1.0000      -0.788509       -21.4564
  24   1.0000      -0.753953       -20.5161
  25   1.0000      -0.735453       -20.0127
  26   1.0000      -0.673268       -18.3205
  27   1.0000      -0.656993       -17.8777
  28   1.0000      -0.639350       -17.3976
  29   1.0000      -0.637771       -17.3546
  30   1.0000      -0.627895       -17.0859
  31   1.0000      -0.617740       -16.8096
  32   1.0000      -0.605776       -16.4840
  33   1.0000      -0.592751       -16.1296
  34   1.0000      -0.581116       -15.8130
  35   1.0000      -0.574075       -15.6214
  36   1.0000      -0.551634       -15.0107
  37   1.0000      -0.541310       -14.7298
  38   1.0000      -0.537761       -14.6332
  39   1.0000      -0.531770       -14.4702
  40   1.0000      -0.509772       -13.8716
  41   1.0000      -0.498164       -13.5557
  42   1.0000      -0.492733       -13.4080
  43   1.0000      -0.488531       -13.2936
  44   1.0000      -0.474338       -12.9074
  45   1.0000      -0.465236       -12.6597
  46   1.0000      -0.451858       -12.2957
  47   1.0000      -0.416794       -11.3415
  48   1.0000      -0.411814       -11.2060
  49   1.0000      -0.396573       -10.7913
  50   1.0000      -0.315488        -8.5849
  51   0.0000       0.019500         0.5306
  52   0.0000       0.026179         0.7124
  53   0.0000       0.026556         0.7226
  54   0.0000       0.031256         0.8505
  55   0.0000       0.036962         1.0058

                 SPIN DOWN ORBITALS
  NO   OCC          E(Eh)            E(eV)
   0   1.0000     -20.545881      -559.0819
   1   1.0000     -15.536477      -422.7690
   2   1.0000     -11.278427      -306.9016
   3   1.0000     -11.270584      -306.6882
   4   1.0000     -11.265917      -306.5612
   5   1.0000     -11.236221      -305.7531
   6   1.0000     -11.235663      -305.7379
   7   1.0000     -11.232993      -305.6653
   8   1.0000     -11.224732      -305.4405
   9   1.0000     -11.221337      -305.3481
  10   1.0000     -11.217289      -305.2379
  11   1.0000     -11.211228      -305.0730
  12   1.0000     -11.205846      -304.9266
  13   1.0000      -1.371884       -37.3309
  14   1.0000      -1.217552       -33.1313
  15   1.0000      -1.086019       -29.5521
  16   1.0000      -1.078065       -29.3356
  17   1.0000      -1.026573       -27.9345
  18   1.0000      -1.008557       -27.4442
  19   1.0000      -0.941858       -25.6293
  20   1.0000      -0.915033       -24.8993
  21   1.0000      -0.877476       -23.8773
  22   1.0000      -0.860156       -23.4060
  23   1.0000      -0.787346       -21.4248
  24   1.0000      -0.743095       -20.2206
  25   1.0000      -0.709955       -19.3189
  26   1.0000      -0.672848       -18.3091
  27   1.0000      -0.653384       -17.7795
  28   1.0000      -0.637790       -17.3551
  29   1.0000      -0.627751       -17.0820
  30   1.0000      -0.626757       -17.0549
  31   1.0000      -0.604880       -16.4596
  32   1.0000      -0.591659       -16.0998
  33   1.0000      -0.584828       -15.9140
  34   1.0000      -0.574478       -15.6323
  35   1.0000      -0.568571       -15.4716
  36   1.0000      -0.545687       -14.8489
  37   1.0000      -0.534401       -14.5418
  38   1.0000      -0.532881       -14.5004
  39   1.0000      -0.528521       -14.3818
  40   1.0000      -0.507692       -13.8150
  41   1.0000      -0.497851       -13.5472
  42   1.0000      -0.490759       -13.3542
  43   1.0000      -0.482229       -13.1221
  44   1.0000      -0.469949       -12.7880
  45   1.0000      -0.464397       -12.6369
  46   1.0000      -0.451484       -12.2855
  47   1.0000      -0.415148       -11.2967
  48   1.0000      -0.410627       -11.1737
  49   1.0000      -0.395616       -10.7653
  50   0.0000       0.019588         0.5330
  51   0.0000       0.026209         0.7132
  52   0.0000       0.026608         0.7240
  53   0.0000       0.031267         0.8508
  54   0.0000       0.036976         1.0062

MULLIKEN ATOMIC CHARGES AND SPIN POPULATIONS
--------------------------------------------
   0 C :    0.622491    0.002768
   1 C :   -0.552573    0.063485
   2 C :   -0.346154   -0.241599
   3 H :    0.186538    0.013309
   4 H :    0.290272   -0.014725
   5 C :    0.275217    1.205305
   6 H :    0.265350    0.009758
   7 H :    0.292658    0.047662
   8 C :   -0.961263   -0.169621
   9 C :   -0.921182   -0.173908
  10 N :   -1.147866   -0.000105
  11 C :    1.130704    0.000864
  12 H :    0.074792   -0.001157
  13 C :   -0.880374    0.000686
  14 C :   -0.928551    0.000193
  15 H :    0.202473    0.017613
  16 H :    0.316293    0.025036
  17 H :    0.205808    0.092546
  18 H :    0.225999    0.011433
  19 H :    0.218992    0.082945
  20 H :    0.277743    0.029388
  21 H :    0.321759    0.000533
  22 C :    0.006092   -0.000135
  23 H :    0.216084   -0.000241
  24 H :    0.421909   -0.000536
  25 H :    0.178337   -0.000044
  26 C :   -0.013768   -0.000239
  27 H :    0.086511   -0.000021
  28 H :    0.339086   -0.000077
  29 O :   -1.061323    0.000044
  30 H :    0.356078   -0.000006
  31 H :    0.093235   -0.000024
  32 H :    0.208635   -0.001131
Sum of atomic charges         :    0.0000000

LOEWDIN ATOMIC CHARGES AND SPIN POPULATIONS
-------------------------------------------
   0 C :   -0.280226    0.007242
   1 C :    0.531017    0.027264
   2 C :    0.517536    0.115629
   3 H :   -0.272329    0.006988
   4 H :   -0.293142    0.005490
   5 C :    0.035559    0.454266
   6 H :   -0.301505    0.008195
   7 H :   -0.274694    0.018101
   8 C :    0.898819    0.123253
   9 C :    0.903975    0.125273
  10 N :    1.058269    0.001070
  11 C :    0.070807    0.000217
  12 H :   -0.300489    0.000260
  13 C :    0.497573    0.000278
  14 C :    0.527838    0.000319
  15 H :   -0.293779    0.009814
  16 H :   -0.288936    0.015491
  17 H :   -0.288651    0.027430
  18 H :   -0.294243    0.008671
  19 H :   -0.278475    0.026995
  20 H :   -0.291804    0.015836
  21 H :   -0.263224    0.000369
  22 C :    0.188219    0.000043
  23 H :   -0.257320    0.000030
  24 H :   -0.263780    0.000763
  25 H :   -0.283544   -0.000004
  26 C :    0.194512    0.000012
  27 H :   -0.285012    0.000004
  28 H :   -0.299084   -0.000002
  29 O :    0.917498    0.000014
  30 H :   -0.299287    0.000005
  31 H :   -0.284491    0.000006
  32 H :   -0.647603    0.000680

  Mayer bond orders larger than 0.100000
B(  0-C ,  1-C ) :   0.7216 B(  0-C , 10-N ) :   0.8874 B(  0-C , 11-C ) :   0.4814
B(  0-C , 14-C ) :   0.2450 B(  1-C ,  2-C ) :   0.7356 B(  1-C ,  3-H ) :   1.1031
B(  1-C ,  4-H ) :   0.9724 B(  1-C , 11-C ) :  -0.1912 B(  2-C ,  5-C ) :   0.5367
B(  2-C ,  6-H ) :   0.9730 B(  2-C ,  7-H ) :   0.9942 B(  5-C ,  7-H ) :  -0.1042
B(  5-C ,  8-C ) :   0.6315 B(  5-C ,  9-C ) :   0.8036 B(  5-C , 20-H ) :  -0.1596
B(  8-C , 18-H ) :   1.0636 B(  8-C , 19-H ) :   0.9435 B(  8-C , 20-H ) :   1.0294
B(  9-C , 15-H ) :   1.0697 B(  9-C , 16-H ) :   0.9784 B(  9-C , 17-H ) :   0.9236
B( 10-N , 13-C ) :   0.1028 B( 10-N , 32-H ) :   0.9844 B( 11-C , 12-H ) :   1.0597
B( 11-C , 13-C ) :   0.4842 B( 11-C , 14-C ) :   0.2517 B( 11-C , 22-C ) :  -0.2185
B( 11-C , 23-H ) :  -0.1600 B( 11-C , 26-C ) :  -0.2281 B( 13-C , 14-C ) :   0.1371
B( 13-C , 24-H ) :   0.7828 B( 13-C , 25-H ) :   1.0413 B( 13-C , 26-C ) :   0.9844
B( 13-C , 29-O ) :   0.1224 B( 14-C , 21-H ) :   0.9266 B( 14-C , 22-C ) :   1.0042
B( 14-C , 23-H ) :   1.0138 B( 22-C , 29-O ) :   0.5928 B( 22-C , 30-H ) :   0.8898
B( 22-C , 31-H ) :   1.1170 B( 26-C , 27-H ) :   1.1213 B( 26-C , 28-H ) :   0.9336
B( 26-C , 29-O ) :   0.5529

MP2 TOTAL ENERGY:     -560.134524913 Eh
FINAL SINGLE POINT ENERGY      -560.134524913073

DIPOLE MOMENT
-------------
                                X             Y             Z
Electronic contribution:     -8.00932      -1.31607       2.13651
Nuclear contribution   :      8.92706       0.82103      -3.00946
                        -----------------------------------------
Total Dipole Moment    :      0.91774      -0.49504      -0.87294
                        -----------------------------------------
Magnitude (a.u.)       :      1.35990
Magnitude (Debye)      :      3.45660

Rotational constants in cm-1:     0.053067     0.013539     0.012681
Rotational constants in MHz :  1590.921820   405.886014   380.176906

                             ****ORCA TERMINATED NORMALLY****
TOTAL RUN TIME: 0 days 4 hours 53 minutes 41 seconds 14 msec
