                         Program Version 4.2.1 -  RELEASE  -
|  1> %pal
|  2>  nprocs 320
|  3> end
|  4> !RI-MP2 aug-cc-pVQZ aug-cc-pVQZ/C TightSCF MORead KDIIS NOSOSCF
|  5> %maxcore 4500
|  6> %moinp "05_29TS.gbw"
|  7> %scf
|  8> DIISMaxEq 15
|  9> directresetfreq 10
| 10> end
| 11> *xyzfile 1 1  05_29TS.xyz
| 12>
| 13>
| 14>                          ****END OF INPUT****

CARTESIAN COORDINATES (ANGSTROEM)
---------------------------------
  C      1.086676    0.137843    1.393449
  C      1.429249   -1.111234   -0.912337
  C      2.894291   -1.288942   -0.503609
  C      3.408793   -0.179896    0.406628
  C      2.571108   -0.140884    1.671708
  H      3.008415   -2.247034    0.012714
  H      3.499076   -1.324423   -1.410214
  H      3.344780    0.773045   -0.120315
  H      2.658171   -1.099027    2.195229
  H      2.934633    0.635880    2.347340
  N      0.639008   -0.769962    0.302160
  O     -0.600075   -1.098651    0.289570
  C      0.265235   -0.173846    2.642014
  H      0.678750    0.388751    3.479629
  H     -0.778497    0.112621    2.523543
  H      0.306094   -1.236171    2.884582
  C      0.874074    1.608435    0.994873
  H     -0.163249    1.791235    0.722026
  H      1.110417    2.236228    1.855428
  H      1.510679    1.920505    0.170438
  C      0.898523   -2.426766   -1.478397
  H     -0.088272   -2.311706   -1.925015
  H      1.581032   -2.766787   -2.257673
  H      0.845245   -3.194651   -0.706191
  C      1.274228   -0.000798   -1.966359
  H      1.711289   -0.348617   -2.903056
  H      0.222620    0.223061   -2.150947
  H      1.781771    0.919644   -1.688338
  H     -1.337442   -0.382740   -0.233702
  C     -2.482887    0.088314   -0.900952
  C     -3.438934   -0.882429   -0.394965
  C     -4.566121   -0.537759    0.369860
  C     -3.229168   -2.237322   -0.712810
  C     -5.434694   -1.516609    0.809947
  H     -4.790867    0.500021    0.568448
  C     -4.093326   -3.212610   -0.256979
  H     -2.374001   -2.515540   -1.315938
  C     -5.195276   -2.854491    0.510445
  H     -6.314146   -1.238819    1.376752
  H     -3.917148   -4.251353   -0.504863
  H     -5.880704   -3.616329    0.860515
  C     -2.457569    1.510157   -0.602191
  C     -2.765432    2.026651    0.668231
  C     -2.045558    2.397625   -1.608316
  C     -2.708902    3.386573    0.901771
  H     -3.016014    1.354661    1.478239
  C     -1.997588    3.759305   -1.371700
  H     -1.788836    2.011098   -2.587776
  C     -2.333944    4.256219   -0.118555
  H     -2.946408    3.775111    1.883936
  H     -1.698259    4.435134   -2.162487
  H     -2.293005    5.322018    0.068755
  H     -2.091569   -0.163062   -1.885977
  N      4.811389   -0.357535    0.720169
  C      5.766448    0.018172   -0.182375
  C      7.197965   -0.219135    0.218697
  H      7.665864   -0.867724   -0.522388
  H      7.726258    0.734350    0.198327
  H      7.304206   -0.666711    1.207090
  O      5.456535    0.521031   -1.245979
  H      5.081497   -0.828675    1.568379

 Total Charge           Charge          ....    1
 Multiplicity           Mult            ....    1
 Number of Electrons    NEL             ....  206
 Basis Dimension        Dim             .... 3758

ORBITAL ENERGIES
----------------

  NO   OCC          E(Eh)            E(eV)
   0   2.0000     -20.778881      -565.4221
   1   2.0000     -20.589660      -560.2731
   2   2.0000     -15.768571      -429.0846
   3   2.0000     -15.665158      -426.2706
   4   2.0000     -11.441267      -311.3327
   5   2.0000     -11.424822      -310.8852
   6   2.0000     -11.394509      -310.0603
   7   2.0000     -11.391556      -309.9800
   8   2.0000     -11.383859      -309.7705
   9   2.0000     -11.380051      -309.6669
  10   2.0000     -11.375775      -309.5506
  11   2.0000     -11.373711      -309.4944
  12   2.0000     -11.369806      -309.3881
  13   2.0000     -11.369707      -309.3854
  14   2.0000     -11.367882      -309.3358
  15   2.0000     -11.364179      -309.2350
  16   2.0000     -11.361760      -309.1692
  17   2.0000     -11.358830      -309.0895
  18   2.0000     -11.357743      -309.0599
  19   2.0000     -11.351187      -308.8815
  20   2.0000     -11.350622      -308.8661
  21   2.0000     -11.333533      -308.4011
  22   2.0000     -11.325745      -308.1892
  23   2.0000     -11.323109      -308.1175
  24   2.0000     -11.322870      -308.1110
  25   2.0000     -11.322291      -308.0952
  26   2.0000     -11.321569      -308.0755
  27   2.0000     -11.304676      -307.6159
  28   2.0000      -1.615441       -43.9584
  29   2.0000      -1.461375       -39.7660
  30   2.0000      -1.326438       -36.0942
  31   2.0000      -1.311157       -35.6784
  32   2.0000      -1.289507       -35.0893
  33   2.0000      -1.283800       -34.9340
  34   2.0000      -1.216693       -33.1079
  35   2.0000      -1.216437       -33.1009
  36   2.0000      -1.153990       -31.4017
  37   2.0000      -1.152954       -31.3735
  38   2.0000      -1.147950       -31.2373
  39   2.0000      -1.143095       -31.1052
  40   2.0000      -1.105496       -30.0821
  41   2.0000      -1.069520       -29.1031
  42   2.0000      -1.064509       -28.9668
  43   2.0000      -1.056055       -28.7367
  44   2.0000      -1.045946       -28.4616
  45   2.0000      -1.040405       -28.3109
  46   2.0000      -0.969849       -26.3909
  47   2.0000      -0.966322       -26.2950
  48   2.0000      -0.949307       -25.8320
  49   2.0000      -0.944351       -25.6971
  50   2.0000      -0.931668       -25.3520
  51   2.0000      -0.917471       -24.9657
  52   2.0000      -0.888838       -24.1865
  53   2.0000      -0.875362       -23.8198
  54   2.0000      -0.838454       -22.8155
  55   2.0000      -0.826433       -22.4884
  56   2.0000      -0.803368       -21.8608
  57   2.0000      -0.798426       -21.7263
  58   2.0000      -0.793698       -21.5976
  59   2.0000      -0.790648       -21.5146
  60   2.0000      -0.775208       -21.0945
  61   2.0000      -0.766042       -20.8451
  62   2.0000      -0.753167       -20.4947
  63   2.0000      -0.751105       -20.4386
  64   2.0000      -0.748614       -20.3708
  65   2.0000      -0.726356       -19.7651
  66   2.0000      -0.723048       -19.6751
  67   2.0000      -0.716064       -19.4851
  68   2.0000      -0.714099       -19.4316
  69   2.0000      -0.712095       -19.3771
  70   2.0000      -0.705567       -19.1994
  71   2.0000      -0.698432       -19.0053
  72   2.0000      -0.694858       -18.9081
  73   2.0000      -0.689140       -18.7525
  74   2.0000      -0.680688       -18.5225
  75   2.0000      -0.676502       -18.4086
  76   2.0000      -0.675038       -18.3687
  77   2.0000      -0.660318       -17.9682
  78   2.0000      -0.650813       -17.7095
  79   2.0000      -0.647184       -17.6108
  80   2.0000      -0.642961       -17.4959
  81   2.0000      -0.640510       -17.4292
  82   2.0000      -0.634157       -17.2563
  83   2.0000      -0.633935       -17.2502
  84   2.0000      -0.629215       -17.1218
  85   2.0000      -0.628715       -17.1082
  86   2.0000      -0.624004       -16.9800
  87   2.0000      -0.619137       -16.8476
  88   2.0000      -0.614603       -16.7242
  89   2.0000      -0.612128       -16.6569
  90   2.0000      -0.599582       -16.3155
  91   2.0000      -0.589605       -16.0440
  92   2.0000      -0.586477       -15.9588
  93   2.0000      -0.582846       -15.8600
  94   2.0000      -0.564116       -15.3504
  95   2.0000      -0.561867       -15.2892
  96   2.0000      -0.534698       -14.5499
  97   2.0000      -0.500806       -13.6276
  98   2.0000      -0.474876       -12.9220
  99   2.0000      -0.470304       -12.7976
 100   2.0000      -0.462922       -12.5967
 101   2.0000      -0.456065       -12.4102
 102   2.0000      -0.419919       -11.4266
 103   0.0000      -0.160344        -4.3632
 104   0.0000      -0.054895        -1.4938
 105   0.0000      -0.049151        -1.3375
 106   0.0000      -0.046469        -1.2645
 107   0.0000      -0.044077        -1.1994

MULLIKEN ATOMIC CHARGES
-----------------------
   0 C :    1.264444
   1 C :    1.480514
   2 C :   -1.117185
   3 C :    1.811611
   4 C :   -0.885321
   5 H :    0.284149
   6 H :    0.183582
   7 H :    0.164258
   8 H :    0.215010
   9 H :    0.100489
  10 N :    1.554995
  11 O :   -1.746226
  12 C :   -1.385925
  13 H :    0.166257
  14 H :    0.333153
  15 H :    0.220783
  16 C :   -1.483647
  17 H :    0.361367
  18 H :    0.104382
  19 H :    0.227032
  20 C :   -1.310265
  21 H :    0.282365
  22 H :    0.174281
  23 H :    0.238574
  24 C :   -1.492477
  25 H :    0.080221
  26 H :    0.447524
  27 H :    0.218045
  28 H :    1.077952
  29 C :    0.982052
  30 C :    0.999586
  31 C :   -0.449187
  32 C :   -0.708367
  33 C :   -0.459185
  34 H :    0.216178
  35 C :   -0.633076
  36 H :    0.295961
  37 C :   -0.422869
  38 H :    0.230737
  39 H :    0.236255
  40 H :    0.352675
  41 C :    0.907475
  42 C :   -0.516768
  43 C :   -0.514926
  44 C :   -0.326945
  45 H :    0.251653
  46 C :   -0.509814
  47 H :    0.253830
  48 C :   -0.415540
  49 H :    0.208888
  50 H :    0.199434
  51 H :    0.309570
  52 H :    0.092966
  53 N :   -1.119372
  54 C :    1.013801
  55 C :   -0.921353
  56 H :    0.289130
  57 H :    0.287402
  58 H :    0.212305
  59 O :   -0.945990
  60 H :    0.033551
Sum of atomic charges:    1.0000000

LOEWDIN ATOMIC CHARGES
----------------------
   0 C :   -0.362851
   1 C :   -0.365817
   2 C :    0.534107
   3 C :   -0.019335
   4 C :    0.535571
   5 H :   -0.251190
   6 H :   -0.266075
   7 H :   -0.343450
   8 H :   -0.251465
   9 H :   -0.245149
  10 N :    0.203900
  11 O :    1.115540
  12 C :    0.920501
  13 H :   -0.259700
  14 H :   -0.282623
  15 H :   -0.257061
  16 C :    0.953233
  17 H :   -0.327272
  18 H :   -0.245493
  19 H :   -0.289232
  20 C :    0.919051
  21 H :   -0.290809
  22 H :   -0.257999
  23 H :   -0.255578
  24 C :    0.956432
  25 H :   -0.247815
  26 H :   -0.290442
  27 H :   -0.288527
  28 H :   -0.917704
  29 C :    0.395469
  30 C :   -0.018313
  31 C :    0.381978
  32 C :    0.372756
  33 C :    0.395031
  34 H :   -0.341354
  35 C :    0.395592
  36 H :   -0.317454
  37 C :    0.384936
  38 H :   -0.305109
  39 H :   -0.305555
  40 H :   -0.297038
  41 C :   -0.038466
  42 C :    0.342675
  43 C :    0.381039
  44 C :    0.396182
  45 H :   -0.316673
  46 C :    0.394514
  47 H :   -0.295456
  48 C :    0.388111
  49 H :   -0.298830
  50 H :   -0.302602
  51 H :   -0.294773
  52 H :   -0.275786
  53 N :    0.877491
  54 C :   -0.807870
  55 C :    0.912274
  56 H :   -0.290374
  57 H :   -0.291228
  58 H :   -0.304987
  59 O :    0.740611
  60 H :   -0.479539

  Mayer bond orders larger than 0.100000
B(  0-C ,  1-C ) :   0.4363 B(  0-C ,  4-C ) :   0.3863 B(  0-C ,  8-H ) :  -0.1424
B(  0-C ,  9-H ) :  -0.1295 B(  0-C , 10-N ) :   0.8552 B(  0-C , 11-O ) :   0.1271
B(  0-C , 13-H ) :  -0.2253 B(  0-C , 14-H ) :  -0.1867 B(  0-C , 15-H ) :  -0.2910
B(  0-C , 16-C ) :   0.2239 B(  0-C , 17-H ) :  -0.2193 B(  0-C , 19-H ) :  -0.2439
B(  0-C , 53-N ) :   0.1194 B(  1-C ,  5-H ) :  -0.1116 B(  1-C , 10-N ) :   0.9513
B(  1-C , 20-C ) :  -0.3063 B(  1-C , 21-H ) :  -0.2671 B(  1-C , 22-H ) :  -0.2246
B(  1-C , 23-H ) :  -0.3391 B(  1-C , 24-C ) :   0.1260 B(  1-C , 27-H ) :  -0.2911
B(  2-C ,  3-C ) :   0.7537 B(  2-C ,  4-C ) :  -0.1046 B(  2-C ,  5-H ) :   1.0541
B(  2-C ,  6-H ) :   1.1503 B(  2-C , 53-N ) :   0.5043 B(  3-C ,  4-C ) :   0.3931
B(  3-C ,  7-H ) :   1.0297 B(  3-C , 53-N ) :  -1.2564 B(  3-C , 59-O ) :   0.1698
B(  3-C , 60-H ) :  -0.4281 B(  4-C ,  8-H ) :   1.1878 B(  4-C ,  9-H ) :   1.2052
B(  6-H , 59-O ) :  -0.1438 B(  7-H , 53-N ) :   0.1241 B( 10-N , 12-C ) :  -0.1342
B( 10-N , 20-C ) :  -0.1198 B( 10-N , 28-H ) :  -0.1456 B( 10-N , 29-C ) :   0.2531
B( 10-N , 30-C ) :   0.1857 B( 11-O , 28-H ) :  -0.2500 B( 11-O , 29-C ) :   0.1394
B( 11-O , 30-C ) :   0.1612 B( 11-O , 32-C ) :   0.1016 B( 12-C , 13-H ) :   1.2212
B( 12-C , 14-H ) :   0.9655 B( 12-C , 15-H ) :   1.2923 B( 12-C , 16-C ) :   0.1271
B( 16-C , 17-H ) :   0.8200 B( 16-C , 18-H ) :   1.1482 B( 16-C , 19-H ) :   1.1744
B( 16-C , 44-C ) :   0.1139 B( 17-H , 41-C ) :   0.1151 B( 17-H , 43-C ) :   0.1831
B( 17-H , 44-C ) :  -0.1218 B( 20-C , 21-H ) :   1.0579 B( 20-C , 22-H ) :   1.2249
B( 20-C , 23-H ) :   1.2626 B( 20-C , 24-C ) :   0.1277 B( 24-C , 25-H ) :   1.2104
B( 24-C , 26-H ) :   0.8388 B( 24-C , 27-H ) :   1.2427 B( 28-H , 29-C ) :   0.1314
B( 29-C , 30-C ) :   0.2184 B( 29-C , 31-C ) :  -0.2627 B( 29-C , 32-C ) :  -0.6047
B( 29-C , 41-C ) :  -0.1237 B( 29-C , 42-C ) :  -0.4650 B( 29-C , 43-C ) :  -0.6306
B( 29-C , 48-C ) :  -0.1084 B( 29-C , 52-H ) :   1.3922 B( 30-C , 31-C ) :   0.6670
B( 30-C , 32-C ) :   0.6367 B( 30-C , 33-C ) :  -0.5543 B( 30-C , 35-C ) :  -0.5619
B( 30-C , 36-H ) :  -0.1106 B( 30-C , 41-C ) :  -0.2965 B( 31-C , 33-C ) :   1.3291
B( 31-C , 34-H ) :   0.9854 B( 31-C , 38-H ) :  -0.1400 B( 32-C , 33-C ) :   0.1009
B( 32-C , 35-C ) :   1.3299 B( 32-C , 36-H ) :   1.0634 B( 32-C , 39-H ) :  -0.1558
B( 33-C , 35-C ) :   0.1435 B( 33-C , 37-C ) :   1.1863 B( 33-C , 38-H ) :   1.1726
B( 33-C , 40-H ) :  -0.1035 B( 35-C , 37-C ) :   1.2963 B( 35-C , 39-H ) :   1.1494
B( 37-C , 40-H ) :   1.0242 B( 41-C , 42-C ) :   0.7613 B( 41-C , 43-C ) :   1.1473
B( 41-C , 44-C ) :  -0.4973 B( 41-C , 45-H ) :  -0.1226 B( 41-C , 46-C ) :  -0.3692
B( 41-C , 52-H ) :  -0.2580 B( 42-C , 43-C ) :  -0.1882 B( 42-C , 44-C ) :   1.4039
B( 42-C , 45-H ) :   1.0629 B( 42-C , 49-H ) :  -0.1136 B( 43-C , 44-C ) :   0.2042
B( 43-C , 46-C ) :   1.3151 B( 43-C , 47-H ) :   1.0078 B( 43-C , 50-H ) :  -0.1535
B( 44-C , 46-C ) :   0.1153 B( 44-C , 48-C ) :   1.1693 B( 44-C , 49-H ) :   1.1635
B( 44-C , 51-H ) :  -0.1358 B( 46-C , 48-C ) :   1.2023 B( 46-C , 50-H ) :   1.2171
B( 48-C , 50-H ) :  -0.1031 B( 48-C , 51-H ) :   1.0979 B( 53-N , 54-C ) :   1.0923
B( 53-N , 59-O ) :   0.1651 B( 53-N , 60-H ) :   1.4180 B( 54-C , 55-C ) :   0.7221
B( 54-C , 58-H ) :  -0.1716 B( 54-C , 59-O ) :   0.9242 B( 55-C , 56-H ) :   0.9527
B( 55-C , 57-H ) :   0.9763 B( 55-C , 58-H ) :   1.0528

MP2 TOTAL ENERGY:    -1192.041152272 Eh
FINAL SINGLE POINT ENERGY     -1192.041152272434

DIPOLE MOMENT
-------------
                                X             Y             Z
Electronic contribution:    -15.99831       1.85007      -2.09782
Nuclear contribution   :     13.85834      -1.97848       3.07452
                        -----------------------------------------
Total Dipole Moment    :     -2.13997      -0.12841       0.97670
                        -----------------------------------------
Magnitude (a.u.)       :      2.35582
Magnitude (Debye)      :      5.98802

Rotational constants in cm-1:     0.009350     0.003361     0.002877
Rotational constants in MHz :   280.293117   100.770368    86.250257

                             ****ORCA TERMINATED NORMALLY****
TOTAL RUN TIME: 0 days 3 hours 49 minutes 9 seconds 814 msec
