                         Program Version 4.2.1 -  RELEASE  -
|  1> %pal
|  2>  nprocs 32
|  3> end
|  4> !RI-MP2 aug-cc-pVQZ aug-cc-pVQZ/C TightSCF
|  5> %maxcore 4500
|  6> *xyzfile 1 1  05_30P1.xyz
|  7>
|  8>
|  9>                          ****END OF INPUT****

CARTESIAN COORDINATES (ANGSTROEM)
---------------------------------
  C      0.411975   -0.683524   -0.000060
  C     -0.939787   -0.282425   -0.000026
  C     -1.308112    1.078636    0.000060
  C     -1.923881   -1.289429   -0.000082
  C     -2.641396    1.413225    0.000089
  H     -0.541309    1.842348    0.000102
  C     -3.257602   -0.939561   -0.000052
  H     -1.631295   -2.333235   -0.000148
  C     -3.610500    0.406537    0.000033
  H     -2.942722    2.452393    0.000155
  H     -4.023486   -1.703513   -0.000095
  O      1.364138    0.145705   -0.000017
  C      2.793764   -0.310720   -0.000042
  H      2.749581   -1.402704   -0.000188
  H     -4.658735    0.680649    0.000056
  C      3.406430    0.217287    1.272482
  H      2.895472   -0.167379    2.155695
  H      4.449169   -0.100633    1.318939
  H      3.380991    1.307575    1.290718
  C      3.406486    0.217623   -1.272399
  H      2.895558   -0.166801   -2.155735
  H      3.381058    1.307916   -1.290344
  H      4.449223   -0.100295   -1.318901
  H      0.659125   -1.747864   -0.000126

 Total Charge           Charge          ....    1
 Multiplicity           Mult            ....    1
 Number of Electrons    NEL             ....   80
 Basis Dimension        Dim             .... 1478

ORBITAL ENERGIES
----------------

  NO   OCC          E(Eh)            E(eV)
   0   2.0000     -20.804844      -566.1286
   1   2.0000     -11.548756      -314.2576
   2   2.0000     -11.463150      -311.9282
   3   2.0000     -11.417775      -310.6934
   4   2.0000     -11.410883      -310.5059
   5   2.0000     -11.408589      -310.4435
   6   2.0000     -11.408384      -310.4379
   7   2.0000     -11.383925      -309.7723
   8   2.0000     -11.383481      -309.7603
   9   2.0000     -11.358933      -309.0923
  10   2.0000     -11.358919      -309.0919
  11   2.0000      -1.646641       -44.8074
  12   2.0000      -1.331429       -36.2300
  13   2.0000      -1.252719       -34.0882
  14   2.0000      -1.204554       -32.7776
  15   2.0000      -1.184510       -32.2322
  16   2.0000      -1.090648       -29.6780
  17   2.0000      -1.085191       -29.5295
  18   2.0000      -1.011624       -27.5277
  19   2.0000      -0.984322       -26.7848
  20   2.0000      -0.970972       -26.4215
  21   2.0000      -0.896465       -24.3941
  22   2.0000      -0.871777       -23.7223
  23   2.0000      -0.832216       -22.6457
  24   2.0000      -0.815445       -22.1894
  25   2.0000      -0.783356       -21.3162
  26   2.0000      -0.777262       -21.1504
  27   2.0000      -0.760387       -20.6912
  28   2.0000      -0.753630       -20.5073
  29   2.0000      -0.719458       -19.5775
  30   2.0000      -0.702476       -19.1154
  31   2.0000      -0.685155       -18.6440
  32   2.0000      -0.681800       -18.5527
  33   2.0000      -0.664710       -18.0877
  34   2.0000      -0.662610       -18.0305
  35   2.0000      -0.654374       -17.8064
  36   2.0000      -0.644421       -17.5356
  37   2.0000      -0.640071       -17.4172
  38   2.0000      -0.511868       -13.9286
  39   2.0000      -0.499215       -13.5843
  40   0.0000      -0.131511        -3.5786
  41   0.0000      -0.075077        -2.0430
  42   0.0000      -0.061035        -1.6608
  43   0.0000      -0.057214        -1.5569
  44   0.0000      -0.055309        -1.5050

MULLIKEN ATOMIC CHARGES
-----------------------
   0 C :    0.729799
   1 C :   -0.022769
   2 C :   -0.186811
   3 C :   -0.347001
   4 C :   -0.368446
   5 H :    0.364464
   6 C :   -0.311251
   7 H :    0.258532
   8 C :   -0.358139
   9 H :    0.305032
  10 H :    0.291569
  11 O :   -0.626140
  12 C :    0.368787
  13 H :    0.330296
  14 H :    0.327750
  15 C :   -0.949682
  16 H :    0.256796
  17 H :    0.349040
  18 H :    0.252000
  19 C :   -0.949679
  20 H :    0.256770
  21 H :    0.252005
  22 H :    0.349016
  23 H :    0.428062
Sum of atomic charges:    1.0000000

LOEWDIN ATOMIC CHARGES
----------------------
   0 C :    0.055277
   1 C :   -0.074867
   2 C :    0.370829
   3 C :    0.365026
   4 C :    0.403432
   5 H :   -0.299442
   6 C :    0.402174
   7 H :   -0.294165
   8 C :    0.399860
   9 H :   -0.303180
  10 H :   -0.303818
  11 O :    0.966734
  12 C :   -0.110151
  13 H :   -0.302563
  14 H :   -0.285407
  15 C :    0.946794
  16 H :   -0.267274
  17 H :   -0.265323
  18 H :   -0.269827
  19 C :    0.946793
  20 H :   -0.267273
  21 H :   -0.269827
  22 H :   -0.265324
  23 H :   -0.278478

  Mayer bond orders larger than 0.100000
B(  0-C ,  1-C ) :   0.6818 B(  0-C ,  2-C ) :  -0.4576 B(  0-C ,  3-C ) :  -0.5086
B(  0-C , 11-O ) :   1.3380 B(  0-C , 23-H ) :   0.8522 B(  1-C ,  2-C ) :   1.0557
B(  1-C ,  3-C ) :   0.8794 B(  1-C ,  4-C ) :  -0.3865 B(  1-C ,  6-C ) :  -0.4582
B(  1-C ,  7-H ) :  -0.1178 B(  1-C , 11-O ) :   0.2385 B(  1-C , 23-H ) :  -0.2304
B(  2-C ,  3-C ) :   0.1811 B(  2-C ,  4-C ) :   1.1873 B(  2-C ,  5-H ) :   0.8311
B(  2-C ,  9-H ) :  -0.1197 B(  3-C ,  4-C ) :   0.1068 B(  3-C ,  6-C ) :   1.2542
B(  3-C ,  7-H ) :   1.0149 B(  3-C ,  8-C ) :   0.1558 B(  3-C , 10-H ) :  -0.1422
B(  4-C ,  8-C ) :   1.1701 B(  4-C ,  9-H ) :   1.0785 B(  6-C ,  8-C ) :   1.1751
B(  6-C , 10-H ) :   1.1165 B(  8-C , 14-H ) :   1.0137 B( 11-O , 12-C ) :   0.3399
B( 12-C , 13-H ) :   0.8492 B( 12-C , 15-C ) :   0.8246 B( 12-C , 19-C ) :   0.8246
B( 15-C , 16-H ) :   0.9748 B( 15-C , 17-H ) :   0.9205 B( 15-C , 18-H ) :   0.9381
B( 15-C , 19-C ) :   0.1186 B( 19-C , 20-H ) :   0.9748 B( 19-C , 21-H ) :   0.9381
B( 19-C , 22-H ) :   0.9205

MP2 TOTAL ENERGY:     -463.038092023 Eh
FINAL SINGLE POINT ENERGY      -463.038092022733

DIPOLE MOMENT
-------------
                                X             Y             Z
Electronic contribution:    -10.94666      -0.57555      -0.00018
Nuclear contribution   :     11.30037      -0.13177       0.00013
                        -----------------------------------------
Total Dipole Moment    :      0.35371      -0.70732      -0.00005
                        -----------------------------------------
Magnitude (a.u.)       :      0.79082
Magnitude (Debye)      :      2.01012

Rotational constants in cm-1:     0.104187     0.016211     0.015445
Rotational constants in MHz :  3123.454437   485.993352   463.040576

                             ****ORCA TERMINATED NORMALLY****
TOTAL RUN TIME: 0 days 1 hours 23 minutes 28 seconds 186 msec
