                         Program Version 4.2.1 -  RELEASE  -
|  1> %pal
|  2>  nprocs 32
|  3> end
|  4> !RI-MP2 aug-cc-pVQZ aug-cc-pVQZ/C TightSCF
|  5> %maxcore 4500
|  6> *xyzfile -1 1  08_11TS.xyz
|  7>
|  8>
|  9>                          ****END OF INPUT****

CARTESIAN COORDINATES (ANGSTROEM)
---------------------------------
  O     -0.449628   -1.501434   -1.351727
  C     -2.245193   -1.329613   -1.281172
  H     -2.297164   -0.278925   -1.489639
  H     -2.450135   -2.013999   -2.083825
  H     -2.384092   -1.689119   -0.278821
  P      0.311731   -0.642631   -0.346310
  O      0.031924    0.847407   -0.362180
  O      0.115780   -1.182519    1.146909
  O      1.861784   -0.934361   -0.627455
  C      2.848307   -0.289981    0.173890
  C      3.643723    0.763154   -0.604131
  O      4.944338    0.753955   -0.003451
  C      5.092729   -0.347809    0.902278
  C      3.922220   -1.271202    0.602370
  H      4.150363   -1.927269   -0.242239
  H      3.620437   -1.884263    1.451574
  H      2.374521    0.165089    1.048428
  S     -4.818304   -0.973992   -1.056276
  C     -4.951467   -0.648410    0.739142
  C     -4.420036    0.730481    1.188127
  H     -4.425258   -1.412701    1.313286
  H     -6.006022   -0.689980    1.019434
  N     -5.084232    1.789892    0.457870
  C     -2.901813    0.715481    1.107041
  H     -4.637487    0.824908    2.259900
  O     -2.243096   -0.088368    1.756616
  O     -2.364339    1.604758    0.305827
  H     -1.390661    1.406617    0.144014
  H     -0.695890   -0.781954    1.544716
  H     -5.181274    1.470854   -0.506345
  H     -4.515298    2.627090    0.440044
  C      3.106731    2.188907   -0.561216
  H      3.713395    0.443337   -1.649902
  O      2.020155    2.402064   -1.422325
  H      3.912231    2.851855   -0.884095
  H      2.863128    2.447915    0.479405
  H      1.238320    1.921943   -1.085330
  C      6.463710   -0.960958    0.721009
  H      5.003498    0.042701    1.925295
  H      6.611465   -1.784561    1.424654
  H      7.240856   -0.214326    0.893841
  H      6.572792   -1.343418   -0.296157

 Total Charge           Charge          ....   -1
 Multiplicity           Mult            ....    1
 Number of Electrons    NEL             ....  184
 Basis Dimension        Dim             .... 2654

ORBITAL ENERGIES
----------------

  NO   OCC          E(Eh)            E(eV)
   0   2.0000     -91.729418     -2496.0844
   1   2.0000     -79.980706     -2176.3856
   2   2.0000     -20.489197      -557.5394
   3   2.0000     -20.484999      -557.4252
   4   2.0000     -20.474511      -557.1398
   5   2.0000     -20.466785      -556.9295
   6   2.0000     -20.438617      -556.1630
   7   2.0000     -20.437058      -556.1206
   8   2.0000     -20.433236      -556.0166
   9   2.0000     -20.414375      -555.5034
  10   2.0000     -15.419855      -419.5956
  11   2.0000     -11.275749      -306.8287
  12   2.0000     -11.212164      -305.0985
  13   2.0000     -11.210709      -305.0589
  14   2.0000     -11.201579      -304.8105
  15   2.0000     -11.191652      -304.5403
  16   2.0000     -11.178171      -304.1735
  17   2.0000     -11.154247      -303.5225
  18   2.0000     -11.152391      -303.4720
  19   2.0000     -11.150125      -303.4103
  20   2.0000     -11.117401      -302.5199
  21   2.0000      -8.732441      -237.6218
  22   2.0000      -7.497083      -204.0060
  23   2.0000      -6.414235      -174.5402
  24   2.0000      -6.412787      -174.5008
  25   2.0000      -6.412639      -174.4968
  26   2.0000      -5.396496      -146.8461
  27   2.0000      -5.395447      -146.8176
  28   2.0000      -5.394723      -146.7979
  29   2.0000      -1.356928       -36.9239
  30   2.0000      -1.336683       -36.3730
  31   2.0000      -1.302448       -35.4414
  32   2.0000      -1.269286       -34.5390
  33   2.0000      -1.251262       -34.0486
  34   2.0000      -1.248937       -33.9853
  35   2.0000      -1.220987       -33.2247
  36   2.0000      -1.189852       -32.3775
  37   2.0000      -1.077073       -29.3086
  38   2.0000      -0.994740       -27.0682
  39   2.0000      -0.968533       -26.3551
  40   2.0000      -0.897989       -24.4355
  41   2.0000      -0.882407       -24.0115
  42   2.0000      -0.851193       -23.1621
  43   2.0000      -0.802732       -21.8434
  44   2.0000      -0.799188       -21.7470
  45   2.0000      -0.737635       -20.0721
  46   2.0000      -0.724479       -19.7141
  47   2.0000      -0.710625       -19.3371
  48   2.0000      -0.697550       -18.9813
  49   2.0000      -0.640645       -17.4328
  50   2.0000      -0.634096       -17.2546
  51   2.0000      -0.624795       -17.0015
  52   2.0000      -0.604695       -16.4546
  53   2.0000      -0.592140       -16.1130
  54   2.0000      -0.582540       -15.8517
  55   2.0000      -0.580852       -15.8058
  56   2.0000      -0.572289       -15.5728
  57   2.0000      -0.559093       -15.2137
  58   2.0000      -0.548721       -14.9314
  59   2.0000      -0.539793       -14.6885
  60   2.0000      -0.527594       -14.3566
  61   2.0000      -0.516640       -14.0585
  62   2.0000      -0.509017       -13.8511
  63   2.0000      -0.504703       -13.7337
  64   2.0000      -0.497869       -13.5477
  65   2.0000      -0.489875       -13.3302
  66   2.0000      -0.483096       -13.1457
  67   2.0000      -0.481315       -13.0973
  68   2.0000      -0.469847       -12.7852
  69   2.0000      -0.467270       -12.7151
  70   2.0000      -0.461517       -12.5585
  71   2.0000      -0.450273       -12.2525
  72   2.0000      -0.447283       -12.1712
  73   2.0000      -0.441344       -12.0096
  74   2.0000      -0.435911       -11.8617
  75   2.0000      -0.426974       -11.6186
  76   2.0000      -0.407365       -11.0850
  77   2.0000      -0.404078       -10.9955
  78   2.0000      -0.401452       -10.9241
  79   2.0000      -0.395084       -10.7508
  80   2.0000      -0.387543       -10.5456
  81   2.0000      -0.378552       -10.3009
  82   2.0000      -0.365780        -9.9534
  83   2.0000      -0.363567        -9.8932
  84   2.0000      -0.356622        -9.7042
  85   2.0000      -0.354741        -9.6530
  86   2.0000      -0.345145        -9.3919
  87   2.0000      -0.322377        -8.7723
  88   2.0000      -0.299551        -8.1512
  89   2.0000      -0.278661        -7.5827
  90   2.0000      -0.164419        -4.4741
  91   2.0000      -0.161531        -4.3955
  92   0.0000       0.073032         1.9873
  93   0.0000       0.086329         2.3491
  94   0.0000       0.086507         2.3540
  95   0.0000       0.096123         2.6157
  96   0.0000       0.100579         2.7369

MULLIKEN ATOMIC CHARGES
-----------------------
   0 O :   -1.467951
   1 C :   -0.580206
   2 H :    0.450400
   3 H :    0.436636
   4 H :    0.306182
   5 P :    3.968292
   6 O :   -1.030130
   7 O :   -1.248957
   8 O :   -1.689089
   9 C :    0.447569
  10 C :    0.579602
  11 O :   -1.091622
  12 C :    0.452053
  13 C :   -0.623029
  14 H :    0.215533
  15 H :    0.328560
  16 H :    0.139230
  17 S :   -0.867479
  18 C :   -0.754057
  19 C :    0.496361
  20 H :    0.277038
  21 H :    0.272062
  22 N :   -0.967812
  23 C :    1.324745
  24 H :    0.486819
  25 O :   -0.970365
  26 O :   -0.972877
  27 H :    0.308855
  28 H :    0.312869
  29 H :    0.263992
  30 H :    0.225861
  31 C :   -0.044920
  32 H :    0.342186
  33 O :   -1.036921
  34 H :    0.353437
  35 H :    0.109259
  36 H :    0.289729
  37 C :   -0.968244
  38 H :    0.205599
  39 H :    0.219725
  40 H :    0.246310
  41 H :    0.254754
Sum of atomic charges:   -1.0000000

LOEWDIN ATOMIC CHARGES
----------------------
   0 O :    0.517418
   1 C :    0.678701
   2 H :   -0.425104
   3 H :   -0.350871
   4 H :   -0.420806
   5 P :   -0.942759
   6 O :    0.704480
   7 O :    1.113639
   8 O :    0.730487
   9 C :   -0.317999
  10 C :   -0.227717
  11 O :    0.923603
  12 C :   -0.230833
  13 C :    0.502680
  14 H :   -0.273136
  15 H :   -0.241274
  16 H :   -0.328211
  17 S :    0.966037
  18 C :   -0.074663
  19 C :   -0.213071
  20 H :   -0.410358
  21 H :   -0.399293
  22 N :    1.243836
  23 C :   -1.000909
  24 H :   -0.323142
  25 O :    0.877057
  26 O :    1.274959
  27 H :   -1.168523
  28 H :   -1.193672
  29 H :   -0.650513
  30 H :   -0.547353
  31 C :    0.159645
  32 H :   -0.294735
  33 O :    1.278002
  34 H :   -0.325882
  35 H :   -0.294062
  36 H :   -1.096022
  37 C :    0.914945
  38 H :   -0.281034
  39 H :   -0.280317
  40 H :   -0.284865
  41 H :   -0.288366

  Mayer bond orders larger than 0.100000
B(  0-O ,  1-C ) :   0.4808 B(  0-O ,  5-P ) :   0.3684 B(  1-C ,  2-H ) :   0.8094
B(  1-C ,  3-H ) :   0.7893 B(  1-C ,  4-H ) :   0.8946 B(  1-C , 17-S ) :   0.2540
B(  2-H ,  4-H ) :   0.1271 B(  5-P ,  6-O ) :   1.0307 B(  5-P ,  7-O ) :   0.5501
B(  5-P ,  8-O ) :  -0.9527 B(  5-P , 16-H ) :   0.1138 B(  6-O ,  8-O ) :  -0.2395
B(  6-O ,  9-C ) :  -0.1581 B(  6-O , 26-O ) :  -0.1164 B(  6-O , 27-H ) :   0.2066
B(  6-O , 36-H ) :   0.2077 B(  7-O ,  9-C ) :  -0.1102 B(  7-O , 28-H ) :   0.7838
B(  8-O ,  9-C ) :   0.9253 B(  8-O , 16-H ) :   0.1444 B(  9-C , 10-C ) :   0.8258
B(  9-C , 11-O ) :   0.1244 B(  9-C , 12-C ) :  -0.3235 B(  9-C , 13-C ) :   0.6378
B(  9-C , 16-H ) :   0.9248 B( 10-C , 11-O ) :   0.3288 B( 10-C , 31-C ) :   0.6830
B( 10-C , 32-H ) :   0.9242 B( 11-O , 12-C ) :   0.5213 B( 11-O , 13-C ) :   0.1050
B( 12-C , 13-C ) :   1.0821 B( 12-C , 37-C ) :   0.5916 B( 12-C , 38-H ) :   1.0236
B( 12-C , 40-H ) :  -0.1446 B( 13-C , 14-H ) :   0.9913 B( 13-C , 15-H ) :   0.9306
B( 17-S , 18-C ) :   0.9284 B( 18-C , 19-C ) :   0.8956 B( 18-C , 20-H ) :   0.9423
B( 18-C , 21-H ) :   0.9095 B( 18-C , 22-N ) :   0.1202 B( 19-C , 22-N ) :   0.6325
B( 19-C , 23-C ) :   0.7087 B( 19-C , 24-H ) :   0.7336 B( 22-N , 29-H ) :   0.8982
B( 22-N , 30-H ) :   0.9572 B( 23-C , 25-O ) :   1.0856 B( 23-C , 26-O ) :   0.8220
B( 25-O , 28-H ) :   0.2108 B( 26-O , 27-H ) :   0.7800 B( 31-C , 33-O ) :   0.6072
B( 31-C , 34-H ) :   0.8927 B( 31-C , 35-H ) :   1.0580 B( 33-O , 36-H ) :   0.7726
B( 37-C , 39-H ) :   1.0737 B( 37-C , 40-H ) :   1.0489 B( 37-C , 41-H ) :   0.9366

MP2 TOTAL ENERGY:    -1787.698797045 Eh
FINAL SINGLE POINT ENERGY     -1787.698797045078

DIPOLE MOMENT
-------------
                                X             Y             Z
Electronic contribution:     -8.44858      -1.00361      -3.96237
Nuclear contribution   :     13.10141       0.85780       5.74072
                        -----------------------------------------
Total Dipole Moment    :      4.65283      -0.14580       1.77835
                        -----------------------------------------
Magnitude (a.u.)       :      4.98323
Magnitude (Debye)      :     12.66638

Rotational constants in cm-1:     0.020889     0.003709     0.003552
Rotational constants in MHz :   626.225421   111.184293   106.492498

                             ****ORCA TERMINATED NORMALLY****
TOTAL RUN TIME: 0 days 7 hours 41 minutes 22 seconds 563 msec
