                         Program Version 4.2.1 -  RELEASE  -
|  1> %pal
|  2>  nprocs 32
|  3> end
|  4> !RI-MP2 aug-cc-pVQZ aug-cc-pVQZ/C TightSCF
|  5> %maxcore 4500
|  6> *xyzfile -1 1  08_6P2.xyz
|  7>
|  8>
|  9>                          ****END OF INPUT****

CARTESIAN COORDINATES (ANGSTROEM)
---------------------------------
  C     -1.418635    0.961341   -0.552635
  C     -0.927890   -0.477535   -0.691902
  C      0.497675   -0.666299   -0.142547
  O      0.467349   -0.460252    1.223546
  H     -1.001503   -0.775104   -1.746109
  O     -1.756890   -1.361241    0.057353
  O     -1.188504    1.497260    0.730313
  C      1.567193    0.245014   -0.765290
  H      0.791879   -1.710806   -0.383925
  O      2.706348    0.176087    0.075696
  H      1.209492    1.281926   -0.818360
  H      1.850986   -0.081451   -1.772887
  H      2.272475   -0.008460    0.938579
  H     -0.514356    0.888916    1.153984
  H     -0.923597    1.578682   -1.321094
  H     -1.326008   -1.344260    0.932391
  H     -2.495844    0.980597   -0.763602

 Total Charge           Charge          ....   -1
 Multiplicity           Mult            ....    1
 Number of Electrons    NEL             ....   66
 Basis Dimension        Dim             .... 1054

ORBITAL ENERGIES
----------------

  NO   OCC          E(Eh)            E(eV)
   0   2.0000     -20.387378      -554.7688
   1   2.0000     -20.381133      -554.5988
   2   2.0000     -20.367036      -554.2152
   3   2.0000     -20.286632      -552.0273
   4   2.0000     -11.115708      -302.4738
   5   2.0000     -11.115075      -302.4566
   6   2.0000     -11.108351      -302.2736
   7   2.0000     -11.092552      -301.8437
   8   2.0000      -1.209066       -32.9004
   9   2.0000      -1.191322       -32.4175
  10   2.0000      -1.171049       -31.8659
  11   2.0000      -1.078306       -29.3422
  12   2.0000      -0.855877       -23.2896
  13   2.0000      -0.779465       -21.2103
  14   2.0000      -0.692998       -18.8574
  15   2.0000      -0.613889       -16.7048
  16   2.0000      -0.548033       -14.9127
  17   2.0000      -0.528940       -14.3932
  18   2.0000      -0.492525       -13.4023
  19   2.0000      -0.480585       -13.0774
  20   2.0000      -0.446517       -12.1503
  21   2.0000      -0.435557       -11.8521
  22   2.0000      -0.419116       -11.4047
  23   2.0000      -0.405271       -11.0280
  24   2.0000      -0.381613       -10.3842
  25   2.0000      -0.370725       -10.0879
  26   2.0000      -0.326803        -8.8928
  27   2.0000      -0.312857        -8.5133
  28   2.0000      -0.291558        -7.9337
  29   2.0000      -0.279875        -7.6158
  30   2.0000      -0.268084        -7.2949
  31   2.0000      -0.209741        -5.7073
  32   2.0000      -0.190965        -5.1964
  33   0.0000       0.111827         3.0430
  34   0.0000       0.117078         3.1858
  35   0.0000       0.119430         3.2498
  36   0.0000       0.126582         3.4445
  37   0.0000       0.132151         3.5960

MULLIKEN ATOMIC CHARGES
-----------------------
   0 C :   -0.138055
   1 C :    0.387920
   2 C :    0.316007
   3 O :   -1.133303
   4 H :    0.369234
   5 O :   -1.139605
   6 O :   -1.017498
   7 C :   -0.061022
   8 H :    0.347554
   9 O :   -1.004905
  10 H :    0.177382
  11 H :    0.276668
  12 H :    0.325387
  13 H :    0.404761
  14 H :    0.147551
  15 H :    0.389930
  16 H :    0.351996
Sum of atomic charges:   -1.0000000

LOEWDIN ATOMIC CHARGES
----------------------
   0 C :    0.118427
   1 C :   -0.281781
   2 C :   -0.474585
   3 O :    0.832878
   4 H :   -0.306229
   5 O :    1.265338
   6 O :    1.242742
   7 C :    0.124612
   8 H :   -0.323138
   9 O :    1.235792
  10 H :   -0.339976
  11 H :   -0.307860
  12 H :   -1.028457
  13 H :   -1.155791
  14 H :   -0.327732
  15 H :   -0.951585
  16 H :   -0.322657

  Mayer bond orders larger than 0.100000
B(  0-C ,  1-C ) :   0.8203 B(  0-C ,  5-O ) :   0.1310 B(  0-C ,  6-O ) :   0.6500
B(  0-C , 14-H ) :   1.0645 B(  0-C , 16-H ) :   0.8695 B(  1-C ,  2-C ) :   0.9096
B(  1-C ,  4-H ) :   0.8840 B(  1-C ,  5-O ) :   0.2488 B(  2-C ,  3-O ) :   0.7192
B(  2-C ,  5-O ) :   0.1378 B(  2-C ,  7-C ) :   0.8756 B(  2-C ,  8-H ) :   0.8573
B(  3-O , 12-H ) :   0.1775 B(  3-O , 13-H ) :   0.1148 B(  5-O , 15-H ) :   0.7675
B(  6-O , 13-H ) :   0.6950 B(  7-C ,  9-O ) :   0.6016 B(  7-C , 10-H ) :   0.9806
B(  7-C , 11-H ) :   0.9293 B(  9-O , 12-H ) :   0.7719

MP2 TOTAL ENERGY:     -458.169860072 Eh
FINAL SINGLE POINT ENERGY      -458.169860072358

DIPOLE MOMENT
-------------
                                X             Y             Z
Electronic contribution:     -0.18050      -0.78326       2.45419
Nuclear contribution   :     -0.13393       0.81413      -3.77792
                        -----------------------------------------
Total Dipole Moment    :     -0.31444       0.03087      -1.32373
                        -----------------------------------------
Magnitude (a.u.)       :      1.36091
Magnitude (Debye)      :      3.45916

Rotational constants in cm-1:     0.103858     0.049255     0.044210
Rotational constants in MHz :  3113.580524  1476.641851  1325.387068

                             ****ORCA TERMINATED NORMALLY****
TOTAL RUN TIME: 0 days 0 hours 26 minutes 42 seconds 551 msec
