                         Program Version 4.2.1 -  RELEASE  -
|  1> %pal
|  2>  nprocs 32
|  3> end
|  4> !RI-MP2 aug-cc-pVQZ aug-cc-pVQZ/C TightSCF
|  5> %maxcore 4500
|  6> *xyzfile 0 1  02_1R2.xyz
|  7>
|  8>
|  9>                          ****END OF INPUT****

CARTESIAN COORDINATES (ANGSTROEM)
---------------------------------
  C      2.454424    0.762907   -0.000007
  C      1.628566    1.806850    0.000022
  C      0.161250    1.639067    0.000032
  O     -0.562815    2.632330    0.000058
  C     -0.381034    0.281308    0.000009
  C      0.479689   -0.834175   -0.000021
  C      1.956177   -0.633521   -0.000028
  O      2.735682   -1.561316   -0.000050
  C     -0.028007   -2.115246   -0.000043
  C     -1.412185   -2.302299   -0.000036
  C     -2.273588   -1.228234   -0.000007
  C     -1.770506    0.078170    0.000016
  O     -2.642922    1.086311    0.000043
  H      0.656700   -2.952456   -0.000066
  H     -1.816039   -3.307441   -0.000053
  H     -3.347824   -1.360447   -0.000001
  H     -2.133772    1.926966    0.000055
  H      1.980480    2.831572    0.000038
  H      3.532184    0.874243   -0.000015

 Total Charge           Charge          ....    0
 Multiplicity           Mult            ....    1
 Number of Electrons    NEL             ....   90
 Basis Dimension        Dim             .... 1316

ORBITAL ENERGIES
----------------

  NO   OCC          E(Eh)            E(eV)
   0   2.0000     -20.590297      -560.2905
   1   2.0000     -20.576561      -559.9167
   2   2.0000     -20.571458      -559.7778
   3   2.0000     -11.368224      -309.3451
   4   2.0000     -11.358729      -309.0867
   5   2.0000     -11.335538      -308.4557
   6   2.0000     -11.283742      -307.0462
   7   2.0000     -11.281524      -306.9859
   8   2.0000     -11.275916      -306.8333
   9   2.0000     -11.269752      -306.6655
  10   2.0000     -11.263199      -306.4872
  11   2.0000     -11.253182      -306.2146
  12   2.0000     -11.252470      -306.1953
  13   2.0000      -1.436496       -39.0890
  14   2.0000      -1.415342       -38.5134
  15   2.0000      -1.406791       -38.2807
  16   2.0000      -1.192404       -32.4470
  17   2.0000      -1.135065       -30.8867
  18   2.0000      -1.058960       -28.8158
  19   2.0000      -1.043833       -28.4042
  20   2.0000      -0.955828       -26.0094
  21   2.0000      -0.892376       -24.2828
  22   2.0000      -0.882511       -24.0144
  23   2.0000      -0.817616       -22.2485
  24   2.0000      -0.748260       -20.3612
  25   2.0000      -0.745755       -20.2930
  26   2.0000      -0.733591       -19.9620
  27   2.0000      -0.702496       -19.1159
  28   2.0000      -0.668946       -18.2030
  29   2.0000      -0.655521       -17.8376
  30   2.0000      -0.647649       -17.6234
  31   2.0000      -0.627557       -17.0767
  32   2.0000      -0.615492       -16.7484
  33   2.0000      -0.609999       -16.5989
  34   2.0000      -0.583428       -15.8759
  35   2.0000      -0.580274       -15.7900
  36   2.0000      -0.562884       -15.3169
  37   2.0000      -0.559890       -15.2354
  38   2.0000      -0.540317       -14.7028
  39   2.0000      -0.498031       -13.5521
  40   2.0000      -0.465279       -12.6609
  41   2.0000      -0.439769       -11.9667
  42   2.0000      -0.421744       -11.4762
  43   2.0000      -0.375102       -10.2070
  44   2.0000      -0.335631        -9.1330
  45   0.0000       0.001436         0.0391
  46   0.0000       0.022614         0.6154
  47   0.0000       0.023381         0.6362
  48   0.0000       0.032627         0.8878
  49   0.0000       0.039185         1.0663

MULLIKEN ATOMIC CHARGES
-----------------------
   0 C :   -0.709419
   1 C :   -0.579008
   2 C :    1.118301
   3 O :   -0.787984
   4 C :   -0.000324
   5 C :    0.010428
   6 C :    1.307665
   7 O :   -0.808189
   8 C :   -0.497756
   9 C :   -0.433954
  10 C :   -0.710787
  11 C :    1.253543
  12 O :   -0.890809
  13 H :    0.275595
  14 H :    0.221856
  15 H :    0.315118
  16 H :    0.335645
  17 H :    0.289613
  18 H :    0.290467
Sum of atomic charges:   -0.0000000

LOEWDIN ATOMIC CHARGES
----------------------
   0 C :    0.354514
   1 C :    0.362653
   2 C :   -0.601873
   3 O :    0.870309
   4 C :   -0.123508
   5 C :   -0.147223
   6 C :   -0.679915
   7 O :    0.749193
   8 C :    0.340436
   9 C :    0.369221
  10 C :    0.359662
  11 C :   -0.432151
  12 O :    1.301022
  13 H :   -0.335862
  14 H :   -0.308043
  15 H :   -0.318942
  16 H :   -1.098505
  17 H :   -0.330439
  18 H :   -0.330549

  Mayer bond orders larger than 0.100000
B(  0-C ,  1-C ) :   1.4642 B(  0-C ,  2-C ) :  -0.1136 B(  0-C ,  3-O ) :   0.1037
B(  0-C ,  6-C ) :   1.1932 B(  0-C ,  7-O ) :   0.4110 B(  0-C , 17-H ) :  -0.1402
B(  0-C , 18-H ) :   1.0129 B(  1-C ,  2-C ) :   1.2104 B(  1-C ,  3-O ) :   0.2755
B(  1-C ,  4-C ) :  -0.2863 B(  1-C ,  7-O ) :   0.1588 B(  1-C , 17-H ) :   0.9927
B(  1-C , 18-H ) :  -0.1399 B(  2-C ,  3-O ) :   0.3158 B(  2-C ,  4-C ) :   0.7008
B(  2-C ,  5-C ) :  -0.1303 B(  2-C , 11-C ) :  -0.1412 B(  3-O ,  4-C ) :   0.5472
B(  3-O , 16-H ) :   0.1155 B(  4-C ,  5-C ) :   0.4705 B(  4-C ,  6-C ) :  -0.4387
B(  4-C ,  8-C ) :  -0.2490 B(  4-C ,  9-C ) :   0.1481 B(  4-C , 10-C ) :  -0.2151
B(  4-C , 11-C ) :   1.1006 B(  4-C , 12-O ) :   0.5497 B(  4-C , 16-H ) :   0.2284
B(  5-C ,  6-C ) :   0.8642 B(  5-C ,  7-O ) :   0.5790 B(  5-C ,  8-C ) :   1.0044
B(  5-C ,  9-C ) :  -0.4217 B(  5-C , 11-C ) :  -0.2877 B(  6-C ,  7-O ) :   0.1689
B(  6-C ,  8-C ) :  -0.1581 B(  8-C ,  9-C ) :   1.2559 B(  8-C , 10-C ) :   0.1624
B(  8-C , 13-H ) :   0.9587 B(  8-C , 14-H ) :  -0.2156 B(  9-C , 10-C ) :   1.3883
B(  9-C , 11-C ) :  -0.2511 B(  9-C , 14-H ) :   1.2088 B( 10-C , 11-C ) :   1.1548
B( 10-C , 12-O ) :   0.3380 B( 10-C , 14-H ) :  -0.1525 B( 10-C , 15-H ) :   0.9369
B( 11-C , 12-O ) :  -0.2641 B( 12-O , 16-H ) :   0.8171

MP2 TOTAL ENERGY:     -609.420921931 Eh
FINAL SINGLE POINT ENERGY      -609.420921931171

DIPOLE MOMENT
-------------
                                X             Y             Z
Electronic contribution:      1.21817       1.72153       0.00003
Nuclear contribution   :     -1.10224      -1.89603      -0.00004
                        -----------------------------------------
Total Dipole Moment    :      0.11593      -0.17450      -0.00001
                        -----------------------------------------
Magnitude (a.u.)       :      0.20950
Magnitude (Debye)      :      0.53250

Rotational constants in cm-1:     0.039222     0.030494     0.017156
Rotational constants in MHz :  1175.843896   914.200008   514.322449

                             ****ORCA TERMINATED NORMALLY****
TOTAL RUN TIME: 0 days 1 hours 20 minutes 9 seconds 511 msec
