                         Program Version 4.2.1 -  RELEASE  -
|  1> %pal
|  2>  nprocs 32
|  3> end
|  4> !RI-MP2 aug-cc-pVQZ aug-cc-pVQZ/C TightSCF
|  5> %maxcore 4500
|  6> *xyzfile -1 1  09_14R2.xyz
|  7>
|  8>
|  9>                          ****END OF INPUT****

CARTESIAN COORDINATES (ANGSTROEM)
---------------------------------
  C      0.267785    0.020701   -0.009744
  C      1.792701   -0.072446   -0.021732
  C      2.502209    1.080390    0.226160
  O      2.262059   -1.230592   -0.239567
  H      2.024549    2.022423    0.458643
  H      3.584983    1.041332    0.240673
  C     -0.452065   -1.169106    0.100871
  C     -1.840055   -1.176316    0.124526
  C     -2.549842    0.014277    0.021930
  C     -1.847464    1.207743   -0.107378
  C     -0.459046    1.207642   -0.124843
  H      0.131145   -2.080619    0.154712
  H     -2.373940   -2.117320    0.217945
  H     -3.634878    0.013222    0.033906
  H     -2.386564    2.145323   -0.203621
  H      0.072892    2.143068   -0.244466

 Total Charge           Charge          ....   -1
 Multiplicity           Mult            ....    1
 Number of Electrons    NEL             ....   64
 Basis Dimension        Dim             .... 1042

ORBITAL ENERGIES
----------------

  NO   OCC          E(Eh)            E(eV)
   0   2.0000     -20.282373      -551.9114
   1   2.0000     -11.105964      -302.2086
   2   2.0000     -11.104584      -302.1711
   3   2.0000     -11.102723      -302.1205
   4   2.0000     -11.102705      -302.1200
   5   2.0000     -11.093547      -301.8708
   6   2.0000     -11.086491      -301.6788
   7   2.0000     -11.083836      -301.6065
   8   2.0000     -10.996653      -299.2341
   9   2.0000      -1.117925       -30.4203
  10   2.0000      -1.015776       -27.6407
  11   2.0000      -0.887164       -24.1410
  12   2.0000      -0.878636       -23.9089
  13   2.0000      -0.785172       -21.3656
  14   2.0000      -0.693830       -18.8801
  15   2.0000      -0.680446       -18.5159
  16   2.0000      -0.584609       -15.9080
  17   2.0000      -0.540057       -14.6957
  18   2.0000      -0.488881       -13.3031
  19   2.0000      -0.479620       -13.0511
  20   2.0000      -0.452991       -12.3265
  21   2.0000      -0.449436       -12.2298
  22   2.0000      -0.391483       -10.6528
  23   2.0000      -0.378098       -10.2886
  24   2.0000      -0.375596       -10.2205
  25   2.0000      -0.347807        -9.4643
  26   2.0000      -0.324380        -8.8268
  27   2.0000      -0.314415        -8.5557
  28   2.0000      -0.206259        -5.6126
  29   2.0000      -0.201581        -5.4853
  30   2.0000      -0.189791        -5.1645
  31   2.0000      -0.096130        -2.6158
  32   0.0000       0.093786         2.5520
  33   0.0000       0.100185         2.7262
  34   0.0000       0.109469         2.9788
  35   0.0000       0.119280         3.2458
  36   0.0000       0.127740         3.4760

MULLIKEN ATOMIC CHARGES
-----------------------
   0 C :   -0.242555
   1 C :    0.908260
   2 C :   -1.142191
   3 O :   -1.014569
   4 H :    0.243946
   5 H :    0.282911
   6 C :   -0.196621
   7 C :   -0.407728
   8 C :   -0.381141
   9 C :   -0.437891
  10 C :   -0.023649
  11 H :    0.319138
  12 H :    0.225101
  13 H :    0.291426
  14 H :    0.227773
  15 H :    0.347789
Sum of atomic charges:   -1.0000000

LOEWDIN ATOMIC CHARGES
----------------------
   0 C :   -0.166163
   1 C :   -0.858061
   2 C :    0.625338
   3 O :    0.549632
   4 H :   -0.461886
   5 H :   -0.430196
   6 C :    0.288628
   7 C :    0.312599
   8 C :    0.294402
   9 C :    0.310640
  10 C :    0.299707
  11 H :   -0.382788
  12 H :   -0.337148
  13 H :   -0.341812
  14 H :   -0.337172
  15 H :   -0.365720

  Mayer bond orders larger than 0.100000
B(  0-C ,  1-C ) :   1.0301 B(  0-C ,  3-O ) :   0.3446 B(  0-C ,  6-C ) :   1.1280
B(  0-C ,  7-C ) :  -0.2424 B(  0-C ,  9-C ) :  -0.1944 B(  0-C , 10-C ) :   1.1374
B(  0-C , 15-H ) :  -0.1057 B(  1-C ,  2-C ) :   1.4489 B(  1-C ,  3-O ) :   0.6859
B(  1-C ,  6-C ) :  -0.2704 B(  1-C , 10-C ) :  -0.2965 B(  2-C ,  3-O ) :   0.1411
B(  2-C ,  4-H ) :   1.0442 B(  2-C ,  5-H ) :   1.0006 B(  2-C , 10-C ) :  -0.1286
B(  3-O ,  6-C ) :  -0.1042 B(  3-O , 11-H ) :   0.1201 B(  6-C ,  7-C ) :   1.2496
B(  6-C ,  9-C ) :   0.1369 B(  6-C , 11-H ) :   0.8572 B(  6-C , 12-H ) :  -0.1439
B(  7-C ,  8-C ) :   1.2335 B(  7-C , 10-C ) :   0.1176 B(  7-C , 12-H ) :   1.1278
B(  8-C ,  9-C ) :   1.2095 B(  8-C , 13-H ) :   1.0282 B(  9-C , 10-C ) :   1.1551
B(  9-C , 14-H ) :   1.1307 B(  9-C , 15-H ) :  -0.1072 B( 10-C , 14-H ) :  -0.1243
B( 10-C , 15-H ) :   0.9114

MP2 TOTAL ENERGY:     -383.653230244 Eh
FINAL SINGLE POINT ENERGY      -383.653230244412

DIPOLE MOMENT
-------------
                                X             Y             Z
Electronic contribution:     -0.73339      -2.52339      -0.52044
Nuclear contribution   :     -2.52854       3.12625       0.64949
                        -----------------------------------------
Total Dipole Moment    :     -3.26192       0.60286       0.12905
                        -----------------------------------------
Magnitude (a.u.)       :      3.31967
Magnitude (Debye)      :      8.43794

Rotational constants in cm-1:     0.127621     0.041533     0.031643
Rotational constants in MHz :  3825.995831  1245.132981   948.625609

                             ****ORCA TERMINATED NORMALLY****
TOTAL RUN TIME: 0 days 0 hours 31 minutes 56 seconds 843 msec
