                         Program Version 4.2.1 -  RELEASE  -
|  1> %pal
|  2>  nprocs 32
|  3> end
|  4> !RI-MP2 aug-cc-pVQZ aug-cc-pVQZ/C TightSCF
|  5> %maxcore 4500
|  6> *xyzfile 0 1  02_3TS.xyz
|  7>
|  8>
|  9>                          ****END OF INPUT****

CARTESIAN COORDINATES (ANGSTROEM)
---------------------------------
  C      0.551260   -2.367881   -0.757979
  C      0.497068   -1.894045    0.567796
  C      1.473671   -1.025176    1.106431
  C      1.146952   -0.339698    2.404963
  C      2.598124   -0.757347    0.364282
  C      3.670658    0.211079    0.700354
  C      1.391192    0.064124   -1.851005
  C      0.317087   -0.846122   -1.919516
  C     -1.024408   -0.394702   -1.454139
  O     -2.031792   -1.041726   -1.749921
  C     -1.084870    0.768394   -0.578077
  C      0.048477    1.583474   -0.396390
  C      1.312622    1.309539   -1.158432
  O      2.218413    2.145418   -1.156183
  C      0.000176    2.657653    0.466674
  C     -1.173282    2.919453    1.172905
  C     -2.300335    2.140652    1.003697
  C     -2.275662    1.069790    0.110063
  O     -3.392520    0.352250   -0.053916
  H      0.233014    0.249126    2.310047
  H      0.970393   -1.076059    3.190782
  H      1.945977    0.323864    2.724020
  H      3.701168    0.465233    1.758449
  H      4.646094   -0.176263    0.401808
  H      3.508395    1.143267    0.136032
  H      0.245235   -1.459571   -2.812049
  H      0.879039    3.279439    0.569343
  H     -1.208337    3.757108    1.859737
  H     -3.220421    2.346097    1.535250
  H      2.271215   -0.090074   -2.462918
  H      2.818572   -1.403423   -0.470987
  H      1.523973   -2.653374   -1.130693
  H     -3.212579   -0.310205   -0.757806
  O     -0.606186   -2.020681    1.326741
  C     -1.609002   -2.969885    0.978324
  H     -2.109313   -2.698058    0.048975
  H     -2.325120   -2.946788    1.795610
  H     -1.175905   -3.969871    0.893510
  H     -0.233084   -3.038372   -1.082582

 Total Charge           Charge          ....    0
 Multiplicity           Mult            ....    1
 Number of Electrons    NEL             ....  152
 Basis Dimension        Dim             .... 2508

ORBITAL ENERGIES
----------------

  NO   OCC          E(Eh)            E(eV)
   0   2.0000     -20.612286      -560.8888
   1   2.0000     -20.578508      -559.9697
   2   2.0000     -20.557631      -559.4016
   3   2.0000     -20.500928      -557.8586
   4   2.0000     -11.353056      -308.9324
   5   2.0000     -11.342362      -308.6414
   6   2.0000     -11.320705      -308.0521
   7   2.0000     -11.308498      -307.7199
   8   2.0000     -11.296440      -307.3918
   9   2.0000     -11.283329      -307.0350
  10   2.0000     -11.279648      -306.9348
  11   2.0000     -11.261602      -306.4438
  12   2.0000     -11.255486      -306.2773
  13   2.0000     -11.254696      -306.2559
  14   2.0000     -11.250206      -306.1337
  15   2.0000     -11.243321      -305.9463
  16   2.0000     -11.234208      -305.6983
  17   2.0000     -11.227243      -305.5088
  18   2.0000     -11.224183      -305.4255
  19   2.0000     -11.224106      -305.4235
  20   2.0000     -11.215137      -305.1794
  21   2.0000      -1.444654       -39.3110
  22   2.0000      -1.422552       -38.7096
  23   2.0000      -1.391615       -37.8678
  24   2.0000      -1.348273       -36.6884
  25   2.0000      -1.172459       -31.9042
  26   2.0000      -1.148152       -31.2428
  27   2.0000      -1.103899       -30.0386
  28   2.0000      -1.054333       -28.6898
  29   2.0000      -1.034073       -28.1386
  30   2.0000      -1.024035       -27.8654
  31   2.0000      -1.001454       -27.2509
  32   2.0000      -0.972018       -26.4499
  33   2.0000      -0.940280       -25.5863
  34   2.0000      -0.912224       -24.8229
  35   2.0000      -0.873669       -23.7737
  36   2.0000      -0.853611       -23.2279
  37   2.0000      -0.826750       -22.4970
  38   2.0000      -0.797954       -21.7134
  39   2.0000      -0.744754       -20.2658
  40   2.0000      -0.729540       -19.8518
  41   2.0000      -0.719128       -19.5685
  42   2.0000      -0.715494       -19.4696
  43   2.0000      -0.706024       -19.2119
  44   2.0000      -0.695999       -18.9391
  45   2.0000      -0.684896       -18.6370
  46   2.0000      -0.672848       -18.3091
  47   2.0000      -0.637429       -17.3453
  48   2.0000      -0.631247       -17.1771
  49   2.0000      -0.622967       -16.9518
  50   2.0000      -0.618672       -16.8349
  51   2.0000      -0.610754       -16.6195
  52   2.0000      -0.600626       -16.3439
  53   2.0000      -0.599273       -16.3071
  54   2.0000      -0.585274       -15.9261
  55   2.0000      -0.576277       -15.6813
  56   2.0000      -0.575307       -15.6549
  57   2.0000      -0.570567       -15.5259
  58   2.0000      -0.561207       -15.2712
  59   2.0000      -0.554184       -15.0801
  60   2.0000      -0.551534       -15.0080
  61   2.0000      -0.538606       -14.6562
  62   2.0000      -0.535752       -14.5786
  63   2.0000      -0.529448       -14.4070
  64   2.0000      -0.523336       -14.2407
  65   2.0000      -0.516554       -14.0561
  66   2.0000      -0.513183       -13.9644
  67   2.0000      -0.499252       -13.5853
  68   2.0000      -0.477907       -13.0045
  69   2.0000      -0.460188       -12.5224
  70   2.0000      -0.436715       -11.8836
  71   2.0000      -0.400538       -10.8992
  72   2.0000      -0.365549        -9.9471
  73   2.0000      -0.354649        -9.6505
  74   2.0000      -0.319382        -8.6908
  75   2.0000      -0.279566        -7.6074
  76   0.0000       0.016190         0.4406
  77   0.0000       0.023088         0.6283
  78   0.0000       0.024971         0.6795
  79   0.0000       0.028804         0.7838
  80   0.0000       0.033073         0.9000

MULLIKEN ATOMIC CHARGES
-----------------------
   0 C :   -0.543035
   1 C :    1.234548
   2 C :    0.449660
   3 C :   -1.180091
   4 C :   -0.144384
   5 C :   -1.016880
   6 C :   -0.973650
   7 C :   -0.484466
   8 C :    1.446154
   9 O :   -1.082376
  10 C :   -0.025756
  11 C :    0.482697
  12 C :    1.859661
  13 O :   -1.202135
  14 C :   -0.743557
  15 C :   -0.434295
  16 C :   -0.756999
  17 C :    1.366933
  18 O :   -1.081054
  19 H :    0.276035
  20 H :    0.229295
  21 H :    0.352346
  22 H :    0.181597
  23 H :    0.260566
  24 H :    0.248602
  25 H :    0.287419
  26 H :    0.221727
  27 H :    0.175105
  28 H :    0.263284
  29 H :    0.048132
  30 H :    0.333320
  31 H :    0.224309
  32 H :    0.373303
  33 O :   -0.958117
  34 C :   -0.941450
  35 H :    0.421194
  36 H :    0.295892
  37 H :    0.333044
  38 H :    0.203424
Sum of atomic charges:    0.0000000

LOEWDIN ATOMIC CHARGES
----------------------
   0 C :    0.632627
   1 C :   -0.412141
   2 C :   -0.036577
   3 C :    0.906721
   4 C :    0.378812
   5 C :    0.952995
   6 C :    0.290835
   7 C :    0.191012
   8 C :   -0.602577
   9 O :    0.908145
  10 C :   -0.106056
  11 C :   -0.141038
  12 C :   -0.711293
  13 O :    0.763117
  14 C :    0.338241
  15 C :    0.365261
  16 C :    0.356614
  17 C :   -0.429163
  18 O :    1.306275
  19 H :   -0.298812
  20 H :   -0.269990
  21 H :   -0.318126
  22 H :   -0.303943
  23 H :   -0.263204
  24 H :   -0.408939
  25 H :   -0.306176
  26 H :   -0.335390
  27 H :   -0.305329
  28 H :   -0.321315
  29 H :   -0.312022
  30 H :   -0.364952
  31 H :   -0.319393
  32 H :   -1.109736
  33 O :    0.925229
  34 C :    0.628595
  35 H :   -0.350789
  36 H :   -0.299801
  37 H :   -0.286071
  38 H :   -0.331648

  Mayer bond orders larger than 0.100000
B(  0-C ,  1-C ) :   0.9512 B(  0-C ,  2-C ) :  -0.1267 B(  0-C ,  7-C ) :   0.5590
B(  0-C , 31-H ) :   1.0459 B(  0-C , 38-H ) :   1.0687 B(  1-C ,  2-C ) :   1.0867
B(  1-C ,  3-C ) :  -0.1313 B(  1-C ,  4-C ) :  -0.2721 B(  1-C ,  6-C ) :   0.1569
B(  1-C , 11-C ) :   0.1513 B(  1-C , 12-C ) :   0.1003 B(  1-C , 14-C ) :  -0.1004
B(  1-C , 30-H ) :   0.1014 B(  1-C , 33-O ) :   0.2358 B(  1-C , 34-C ) :  -0.3446
B(  1-C , 38-H ) :  -0.1339 B(  2-C ,  3-C ) :   0.4537 B(  2-C ,  4-C ) :   0.9002
B(  2-C , 12-C ) :   0.1046 B(  2-C , 19-H ) :  -0.1244 B(  2-C , 20-H ) :  -0.1707
B(  2-C , 30-H ) :  -0.2573 B(  3-C , 19-H ) :   0.9901 B(  3-C , 20-H ) :   1.1327
B(  3-C , 21-H ) :   0.9911 B(  4-C ,  5-C ) :   0.5595 B(  4-C ,  6-C ) :   0.1280
B(  4-C ,  8-C ) :   0.1031 B(  4-C , 22-H ) :  -0.2092 B(  4-C , 23-H ) :  -0.1758
B(  4-C , 30-H ) :   0.9914 B(  5-C , 22-H ) :   1.1259 B(  5-C , 23-H ) :   1.1044
B(  5-C , 24-H ) :   0.9467 B(  6-C ,  7-C ) :   1.2249 B(  6-C ,  8-C ) :   0.3400
B(  6-C , 11-C ) :  -0.2849 B(  6-C , 12-C ) :   1.4411 B(  6-C , 13-O ) :   0.5217
B(  6-C , 25-H ) :  -0.2088 B(  6-C , 29-H ) :   1.2575 B(  7-C ,  8-C ) :   1.2811
B(  7-C ,  9-O ) :   0.4668 B(  7-C , 10-C ) :  -0.4375 B(  7-C , 12-C ) :  -0.1904
B(  7-C , 13-O ) :   0.1549 B(  7-C , 17-C ) :   0.1277 B(  7-C , 25-H ) :   0.9780
B(  8-C ,  9-O ) :  -0.5776 B(  8-C , 10-C ) :   0.4789 B(  8-C , 11-C ) :  -0.3090
B(  8-C , 16-C ) :   0.1308 B(  8-C , 17-C ) :  -0.1304 B(  8-C , 32-H ) :  -0.1010
B(  9-O , 10-C ) :   0.5519 B(  9-O , 32-H ) :   0.1548 B( 10-C , 11-C ) :   0.2587
B( 10-C , 12-C ) :  -0.4716 B( 10-C , 13-O ) :   0.1275 B( 10-C , 14-C ) :  -0.4616
B( 10-C , 15-C ) :   0.1845 B( 10-C , 16-C ) :  -0.2160 B( 10-C , 17-C ) :   1.4410
B( 10-C , 18-O ) :   0.7467 B( 10-C , 32-H ) :   0.1956 B( 11-C , 12-C ) :   0.8117
B( 11-C , 13-O ) :   0.2715 B( 11-C , 14-C ) :   1.3383 B( 11-C , 15-C ) :  -0.4422
B( 11-C , 17-C ) :  -0.4270 B( 11-C , 29-H ) :  -0.1205 B( 12-C , 13-O ) :  -0.6805
B( 12-C , 14-C ) :  -0.1029 B( 13-O , 26-H ) :   0.1115 B( 14-C , 15-C ) :   1.3143
B( 14-C , 16-C ) :   0.2356 B( 14-C , 17-C ) :   0.1155 B( 14-C , 26-H ) :   0.9958
B( 14-C , 27-H ) :  -0.2303 B( 15-C , 16-C ) :   1.3876 B( 15-C , 17-C ) :  -0.3164
B( 15-C , 27-H ) :   1.2860 B( 16-C , 17-C ) :   0.9809 B( 16-C , 18-O ) :   0.3128
B( 16-C , 27-H ) :  -0.1791 B( 16-C , 28-H ) :   1.0044 B( 17-C , 18-O ) :  -0.7602
B( 17-C , 28-H ) :  -0.1109 B( 18-O , 32-H ) :   0.7286 B( 33-O , 34-C ) :   1.0178
B( 34-C , 35-H ) :   0.8249 B( 34-C , 36-H ) :   1.0205 B( 34-C , 37-H ) :   0.9250

MP2 TOTAL ENERGY:     -957.966744810 Eh
FINAL SINGLE POINT ENERGY      -957.966744810234

DIPOLE MOMENT
-------------
                                X             Y             Z
Electronic contribution:     -8.83579       6.45550      -7.46137
Nuclear contribution   :      9.17060      -8.24200       8.45531
                        -----------------------------------------
Total Dipole Moment    :      0.33481      -1.78650       0.99395
                        -----------------------------------------
Magnitude (a.u.)       :      2.07162
Magnitude (Debye)      :      5.26563

Rotational constants in cm-1:     0.013632     0.012004     0.009466
Rotational constants in MHz :   408.666260   359.876509   283.770415

                             ****ORCA TERMINATED NORMALLY****
TOTAL RUN TIME: 0 days 10 hours 16 minutes 19 seconds 436 msec
