                         Program Version 4.2.1 -  RELEASE  -
|  1> %pal
|  2>  nprocs 32
|  3> end
|  4> !RI-MP2 aug-cc-pVQZ aug-cc-pVQZ/C TightSCF
|  5> %maxcore 4500
|  6> *xyzfile 1 1  05_9R.xyz
|  7>
|  8>
|  9>                          ****END OF INPUT****

CARTESIAN COORDINATES (ANGSTROEM)
---------------------------------
  C     -2.171926   -0.850507   -0.004602
  C     -1.237616   -1.299125    0.989589
  C      0.189557   -1.074228    1.063922
  C      1.074631   -1.504169   -0.146741
  C      2.513724   -1.045399   -0.036036
  C      2.899871    0.219493    0.136827
  C      2.053080    1.453867    0.318394
  C      1.011326    1.741047   -0.798381
  C     -0.295211    2.246678   -0.243133
  C     -1.454570    1.584373   -0.297437
  C     -1.730784    0.269356   -0.969710
  H     -0.884434   -0.056205   -1.568240
  C     -3.568684   -0.605829    0.582536
  H     -4.287498   -0.492143   -0.229443
  H     -3.583482    0.305684    1.179566
  H     -3.896242   -1.434707    1.212354
  C     -2.213219   -2.248596   -0.787291
  H     -2.587504   -3.069826   -0.177452
  H     -1.261131   -2.515942   -1.239746
  H     -2.936390   -2.057149   -1.582904
  C      3.518484   -2.155237   -0.178608
  H      4.539253   -1.779054   -0.129591
  H      3.395003   -2.676182   -1.132979
  H      3.392629   -2.902343    0.611345
  H      0.638842   -1.155646   -1.079424
  H      1.053216   -2.594558   -0.180603
  H      3.971155    0.387920    0.179344
  H      1.544076    1.402210    1.288980
  H      2.718995    2.311015    0.414308
  H     -2.557966    0.397436   -1.674516
  H     -2.321560    2.065397    0.147108
  C     -0.222011    3.598475    0.408281
  H      0.524110    3.617018    1.206994
  H     -1.180195    3.901447    0.829089
  H      0.083677    4.351428   -0.323625
  H      1.421698    2.498587   -1.470480
  H      0.866923    0.857173   -1.413588
  H     -1.689015   -1.873709    1.800740
  H      0.232838    0.029108    1.130029
  H      0.603093   -1.498157    1.977074

 Total Charge           Charge          ....    1
 Multiplicity           Mult            ....    1
 Number of Electrons    NEL             ....  114
 Basis Dimension        Dim             .... 2350

ORBITAL ENERGIES
----------------

  NO   OCC          E(Eh)            E(eV)
   0   2.0000     -11.524213      -313.5898
   1   2.0000     -11.426082      -310.9195
   2   2.0000     -11.406954      -310.3990
   3   2.0000     -11.401881      -310.2610
   4   2.0000     -11.387301      -309.8642
   5   2.0000     -11.374303      -309.5105
   6   2.0000     -11.372305      -309.4562
   7   2.0000     -11.359631      -309.1113
   8   2.0000     -11.352516      -308.9177
   9   2.0000     -11.344299      -308.6941
  10   2.0000     -11.342029      -308.6323
  11   2.0000     -11.341658      -308.6222
  12   2.0000     -11.336599      -308.4845
  13   2.0000     -11.323698      -308.1335
  14   2.0000     -11.323232      -308.1208
  15   2.0000      -1.333964       -36.2990
  16   2.0000      -1.249979       -34.0137
  17   2.0000      -1.234953       -33.6048
  18   2.0000      -1.192681       -32.4545
  19   2.0000      -1.152748       -31.3679
  20   2.0000      -1.110733       -30.2246
  21   2.0000      -1.101112       -29.9628
  22   2.0000      -1.086891       -29.5758
  23   2.0000      -1.042733       -28.3742
  24   2.0000      -1.020339       -27.7648
  25   2.0000      -1.008509       -27.4429
  26   2.0000      -0.959910       -26.1205
  27   2.0000      -0.913659       -24.8619
  28   2.0000      -0.853005       -23.2114
  29   2.0000      -0.836216       -22.7546
  30   2.0000      -0.826684       -22.4952
  31   2.0000      -0.802928       -21.8488
  32   2.0000      -0.781439       -21.2640
  33   2.0000      -0.762812       -20.7572
  34   2.0000      -0.752651       -20.4807
  35   2.0000      -0.740907       -20.1611
  36   2.0000      -0.732435       -19.9306
  37   2.0000      -0.719658       -19.5829
  38   2.0000      -0.706353       -19.2209
  39   2.0000      -0.699667       -19.0389
  40   2.0000      -0.696751       -18.9596
  41   2.0000      -0.692901       -18.8548
  42   2.0000      -0.679657       -18.4944
  43   2.0000      -0.670708       -18.2509
  44   2.0000      -0.668337       -18.1864
  45   2.0000      -0.660286       -17.9673
  46   2.0000      -0.650929       -17.7127
  47   2.0000      -0.641579       -17.4582
  48   2.0000      -0.637581       -17.3495
  49   2.0000      -0.630627       -17.1602
  50   2.0000      -0.628027       -17.0895
  51   2.0000      -0.612451       -16.6657
  52   2.0000      -0.596581       -16.2338
  53   2.0000      -0.585931       -15.9440
  54   2.0000      -0.570338       -15.5197
  55   2.0000      -0.468253       -12.7418
  56   2.0000      -0.455288       -12.3890
  57   0.0000      -0.129252        -3.5171
  58   0.0000      -0.074093        -2.0162
  59   0.0000      -0.059030        -1.6063
  60   0.0000      -0.054933        -1.4948
  61   0.0000      -0.051798        -1.4095

MULLIKEN ATOMIC CHARGES
-----------------------
   0 C :    1.189017
   1 C :    0.004551
   2 C :   -0.558658
   3 C :    0.221091
   4 C :   -0.274703
   5 C :   -0.573748
   6 C :   -0.244508
   7 C :   -0.436692
   8 C :    0.690175
   9 C :   -0.435721
  10 C :   -0.461306
  11 H :    0.469325
  12 C :   -1.106199
  13 H :    0.218880
  14 H :    0.261360
  15 H :    0.260605
  16 C :   -1.232587
  17 H :    0.207054
  18 H :    0.292403
  19 H :    0.243193
  20 C :   -0.899066
  21 H :    0.214325
  22 H :    0.230774
  23 H :    0.199430
  24 H :    0.432460
  25 H :    0.227740
  26 H :    0.173730
  27 H :    0.231425
  28 H :    0.146637
  29 H :    0.162784
  30 H :    0.023615
  31 C :   -1.049972
  32 H :    0.172401
  33 H :    0.198839
  34 H :    0.247146
  35 H :    0.174535
  36 H :    0.434438
  37 H :    0.217507
  38 H :    0.584969
  39 H :    0.142749
Sum of atomic charges:    1.0000000

LOEWDIN ATOMIC CHARGES
----------------------
   0 C :   -0.199610
   1 C :    0.543263
   2 C :    0.643202
   3 C :    0.567272
   4 C :    0.034763
   5 C :    0.458164
   6 C :    0.551197
   7 C :    0.553892
   8 C :    0.025030
   9 C :    0.447156
  10 C :    0.540960
  11 H :   -0.339144
  12 C :    0.961951
  13 H :   -0.249838
  14 H :   -0.254448
  15 H :   -0.258042
  16 C :    0.987082
  17 H :   -0.234410
  18 H :   -0.263641
  19 H :   -0.243298
  20 C :    0.921337
  21 H :   -0.299250
  22 H :   -0.268372
  23 H :   -0.270485
  24 H :   -0.324005
  25 H :   -0.272264
  26 H :   -0.315305
  27 H :   -0.307746
  28 H :   -0.268069
  29 H :   -0.253581
  30 H :   -0.321351
  31 C :    0.932488
  32 H :   -0.280470
  33 H :   -0.292487
  34 H :   -0.262594
  35 H :   -0.247376
  36 H :   -0.354518
  37 H :   -0.195190
  38 H :   -0.362946
  39 H :   -0.229315

  Mayer bond orders larger than 0.100000
B(  0-C ,  1-C ) :   0.4885 B(  0-C ,  2-C ) :   0.2150 B(  0-C ,  8-C ) :   0.1100
B(  0-C ,  9-C ) :  -0.1754 B(  0-C , 10-C ) :   0.6785 B(  0-C , 11-H ) :  -0.1125
B(  0-C , 12-C ) :   0.1255 B(  0-C , 13-H ) :  -0.1802 B(  0-C , 14-H ) :  -0.1834
B(  0-C , 15-H ) :  -0.1700 B(  0-C , 17-H ) :  -0.1996 B(  0-C , 19-H ) :  -0.1325
B(  1-C ,  2-C ) :   1.0259 B(  1-C , 16-C ) :   0.1221 B(  1-C , 37-H ) :   1.1711
B(  1-C , 38-H ) :  -0.1053 B(  1-C , 39-H ) :  -0.1586 B(  2-C ,  3-C ) :   0.7909
B(  2-C , 25-H ) :  -0.1772 B(  2-C , 37-H ) :  -0.2041 B(  2-C , 38-H ) :   0.6797
B(  2-C , 39-H ) :   1.1916 B(  3-C ,  4-C ) :   0.1064 B(  3-C ,  5-C ) :  -0.1368
B(  3-C , 20-C ) :  -0.1036 B(  3-C , 24-H ) :   0.8086 B(  3-C , 25-H ) :   1.0724
B(  3-C , 38-H ) :   0.1322 B(  3-C , 39-H ) :  -0.1467 B(  4-C ,  5-C ) :   1.3369
B(  4-C ,  6-C ) :  -0.1230 B(  4-C , 20-C ) :   0.5133 B(  4-C , 22-H ) :  -0.1702
B(  4-C , 23-H ) :  -0.2267 B(  4-C , 25-H ) :  -0.1716 B(  4-C , 26-H ) :  -0.1927
B(  5-C ,  6-C ) :   0.8178 B(  5-C , 26-H ) :   1.1956 B(  5-C , 28-H ) :  -0.2102
B(  6-C ,  7-C ) :   0.9470 B(  6-C ,  8-C ) :  -0.1279 B(  6-C , 27-H ) :   1.0332
B(  6-C , 28-H ) :   1.1298 B(  6-C , 38-H ) :  -0.1091 B(  7-C ,  8-C ) :   0.6726
B(  7-C , 35-H ) :   1.1061 B(  7-C , 36-H ) :   0.8494 B(  8-C ,  9-C ) :   0.7607
B(  8-C , 10-C ) :  -0.3110 B(  8-C , 30-H ) :  -0.2237 B(  8-C , 31-C ) :   0.6657
B(  8-C , 32-H ) :  -0.1240 B(  8-C , 33-H ) :  -0.1080 B(  8-C , 34-H ) :  -0.1327
B(  9-C , 10-C ) :   1.1216 B(  9-C , 30-H ) :   1.3167 B(  9-C , 31-C ) :  -0.2264
B( 10-C , 11-H ) :   0.6777 B( 10-C , 29-H ) :   1.1226 B( 11-H , 29-H ) :  -0.1368
B( 12-C , 13-H ) :   1.1422 B( 12-C , 14-H ) :   1.0813 B( 12-C , 15-H ) :   1.0669
B( 12-C , 16-C ) :   0.1748 B( 16-C , 17-H ) :   1.1764 B( 16-C , 18-H ) :   0.9988
B( 16-C , 19-H ) :   1.0695 B( 20-C , 21-H ) :   1.0570 B( 20-C , 22-H ) :   1.0820
B( 20-C , 23-H ) :   1.1337 B( 31-C , 32-H ) :   1.0951 B( 31-C , 33-H ) :   1.1367
B( 31-C , 34-H ) :   1.0868

MP2 TOTAL ENERGY:     -585.180833072 Eh
FINAL SINGLE POINT ENERGY      -585.180833072169

DIPOLE MOMENT
-------------
                                X             Y             Z
Electronic contribution:      0.72732       0.52275       0.89647
Nuclear contribution   :     -2.31360      -2.08359      -0.23732
                        -----------------------------------------
Total Dipole Moment    :     -1.58629      -1.56084       0.65915
                        -----------------------------------------
Magnitude (a.u.)       :      2.32099
Magnitude (Debye)      :      5.89949

Rotational constants in cm-1:     0.023112     0.016822     0.010918
Rotational constants in MHz :   692.866295   504.320280   327.309182

                             ****ORCA TERMINATED NORMALLY****
TOTAL RUN TIME: 0 days 6 hours 33 minutes 4 seconds 244 msec
