                         Program Version 4.2.1 -  RELEASE  -
|  1> %pal
|  2>  nprocs 32
|  3> end
|  4> !RI-MP2 aug-cc-pVQZ aug-cc-pVQZ/C TightSCF
|  5> %maxcore 4500
|  6> *xyzfile -1 1  09_1P.xyz
|  7>
|  8>
|  9>                          ****END OF INPUT****

CARTESIAN COORDINATES (ANGSTROEM)
---------------------------------
  C      0.344543    0.000000    0.167131
  C      0.840033    1.260186   -0.599945
  H      0.530625    1.283829   -1.652348
  H      1.931650    1.265867   -0.539934
  H      0.464588    2.150502   -0.092459
  C      0.840042   -1.260178   -0.599952
  H      0.530627   -1.283821   -1.652353
  H      0.464612   -2.150501   -0.092467
  H      1.931659   -1.265845   -0.539949
  C     -1.185965   -0.000006   -0.018530
  N     -2.336610   -0.000001   -0.097322
  O      0.683823   -0.000004    1.444817

 Total Charge           Charge          ....   -1
 Multiplicity           Mult            ....    1
 Number of Electrons    NEL             ....   46
 Basis Dimension        Dim             ....  756

ORBITAL ENERGIES
----------------

  NO   OCC          E(Eh)            E(eV)
   0   2.0000     -20.250462      -551.0431
   1   2.0000     -15.383655      -418.6105
   2   2.0000     -11.129615      -302.8522
   3   2.0000     -11.086971      -301.6918
   4   2.0000     -11.059136      -300.9344
   5   2.0000     -11.059122      -300.9340
   6   2.0000      -1.087462       -29.5913
   7   2.0000      -1.034873       -28.1603
   8   2.0000      -0.854956       -23.2645
   9   2.0000      -0.778373       -21.1806
  10   2.0000      -0.649946       -17.6859
  11   2.0000      -0.485476       -13.2105
  12   2.0000      -0.432064       -11.7570
  13   2.0000      -0.429680       -11.6922
  14   2.0000      -0.403188       -10.9713
  15   2.0000      -0.391368       -10.6497
  16   2.0000      -0.360831        -9.8187
  17   2.0000      -0.342135        -9.3100
  18   2.0000      -0.332435        -9.0460
  19   2.0000      -0.287087        -7.8120
  20   2.0000      -0.286832        -7.8051
  21   2.0000      -0.176810        -4.8112
  22   2.0000      -0.164677        -4.4811
  23   0.0000       0.115160         3.1337
  24   0.0000       0.121007         3.2928
  25   0.0000       0.126506         3.4424
  26   0.0000       0.133369         3.6292
  27   0.0000       0.136936         3.7262

MULLIKEN ATOMIC CHARGES
-----------------------
   0 C :    1.321107
   1 C :   -1.064793
   2 H :    0.225613
   3 H :    0.288763
   4 H :    0.294908
   5 C :   -1.064795
   6 H :    0.225614
   7 H :    0.294909
   8 H :    0.288762
   9 C :    0.274208
  10 N :   -0.832216
  11 O :   -1.252080
Sum of atomic charges:   -1.0000000

LOEWDIN ATOMIC CHARGES
----------------------
   0 C :   -1.145917
   1 C :    0.783046
   2 H :   -0.304432
   3 H :   -0.315361
   4 H :   -0.315253
   5 C :    0.783045
   6 H :   -0.304433
   7 H :   -0.315253
   8 H :   -0.315362
   9 C :   -0.414916
  10 N :    0.337422
  11 O :    0.527412

  Mayer bond orders larger than 0.100000
B(  0-C ,  1-C ) :   0.8041 B(  0-C ,  5-C ) :   0.8041 B(  0-C ,  9-C ) :   0.7631
B(  0-C , 11-O ) :   0.4680 B(  1-C ,  2-H ) :   0.9823 B(  1-C ,  3-H ) :   0.9280
B(  1-C ,  4-H ) :   0.9244 B(  1-C , 11-O ) :   0.1554 B(  5-C ,  6-H ) :   0.9823
B(  5-C ,  7-H ) :   0.9244 B(  5-C ,  8-H ) :   0.9280 B(  5-C , 11-O ) :   0.1555
B(  9-C , 10-N ) :   2.3867 B(  9-C , 11-O ) :   0.1755

MP2 TOTAL ENERGY:     -285.577919130 Eh
FINAL SINGLE POINT ENERGY      -285.577919130445

DIPOLE MOMENT
-------------
                                X             Y             Z
Electronic contribution:     -5.16924      -0.00002       2.89194
Nuclear contribution   :      5.87972       0.00003      -4.56976
                        -----------------------------------------
Total Dipole Moment    :      0.71048       0.00001      -1.67782
                        -----------------------------------------
Magnitude (a.u.)       :      1.82205
Magnitude (Debye)      :      4.63127

Rotational constants in cm-1:     0.164971     0.095928     0.092830
Rotational constants in MHz :  4945.714135  2875.839719  2782.969289

                             ****ORCA TERMINATED NORMALLY****
TOTAL RUN TIME: 0 days 0 hours 10 minutes 47 seconds 959 msec
