                         Program Version 4.2.1 -  RELEASE  -
|  1> %pal
|  2>  nprocs 32
|  3> end
|  4> !RI-MP2 aug-cc-pVQZ aug-cc-pVQZ/C TightSCF
|  5> %maxcore 4500
|  6> *xyzfile 0 2  04_15TS.xyz
|  7>
|  8>
|  9>                          ****END OF INPUT****

CARTESIAN COORDINATES (ANGSTROEM)
---------------------------------
  N     -0.512079    1.351952    0.480703
  H     -0.842680    1.304462    1.436307
  C     -1.204918    0.528197   -0.474555
  H     -1.557168    1.157674   -1.300311
  C     -0.296792   -0.540545   -1.104033
  C     -2.418197   -0.071994    0.239091
  H     -0.833554   -1.109764   -1.862520
  H      0.533565   -0.037869   -1.598290
  S      0.382110   -1.741374    0.073779
  O     -2.589711    0.076350    1.430573
  H      1.243912   -0.764897    0.902612
  N     -3.262227   -0.781752   -0.544954
  H     -3.160965   -0.831838   -1.543832
  H     -4.081471   -1.184370   -0.118422
  C      0.449618    2.223623    0.107445
  H      0.856598    2.806072    0.947799
  O      0.841091    2.352307   -1.034451
  O      2.312850   -0.056571    1.215131
  N      3.131419   -0.235870    0.282969
  O      2.817011   -0.953772   -0.634069

 Total Charge           Charge          ....    0
 Multiplicity           Mult            ....    2
 Number of Electrons    NEL             ....  101
 Basis Dimension        Dim             .... 1332

ORBITAL ENERGIES
----------------
                 SPIN UP ORBITALS
  NO   OCC          E(Eh)            E(eV)
   0   1.0000     -92.039444     -2504.5206
   1   1.0000     -20.587014      -560.2011
   2   1.0000     -20.582067      -560.0665
   3   1.0000     -20.562640      -559.5379
   4   1.0000     -20.535662      -558.8038
   5   1.0000     -15.732957      -428.1155
   6   1.0000     -15.623751      -425.1439
   7   1.0000     -15.603545      -424.5941
   8   1.0000     -11.394422      -310.0580
   9   1.0000     -11.359950      -309.1200
  10   1.0000     -11.329295      -308.2858
  11   1.0000     -11.308864      -307.7298
  12   1.0000      -9.042091      -246.0478
  13   1.0000      -6.737930      -183.3484
  14   1.0000      -6.719316      -182.8419
  15   1.0000      -6.718101      -182.8088
  16   1.0000      -1.564849       -42.5817
  17   1.0000      -1.433803       -39.0158
  18   1.0000      -1.399533       -38.0832
  19   1.0000      -1.363106       -37.0920
  20   1.0000      -1.266678       -34.4681
  21   1.0000      -1.255970       -34.1767
  22   1.0000      -1.129008       -30.7219
  23   1.0000      -1.031912       -28.0797
  24   1.0000      -0.920636       -25.0518
  25   1.0000      -0.880523       -23.9603
  26   1.0000      -0.863226       -23.4896
  27   1.0000      -0.804721       -21.8976
  28   1.0000      -0.794324       -21.6146
  29   1.0000      -0.741784       -20.1850
  30   1.0000      -0.730622       -19.8812
  31   1.0000      -0.712357       -19.3842
  32   1.0000      -0.700819       -19.0702
  33   1.0000      -0.687276       -18.7017
  34   1.0000      -0.668018       -18.1777
  35   1.0000      -0.655915       -17.8483
  36   1.0000      -0.648031       -17.6338
  37   1.0000      -0.618612       -16.8333
  38   1.0000      -0.602786       -16.4026
  39   1.0000      -0.595012       -16.1911
  40   1.0000      -0.568953       -15.4820
  41   1.0000      -0.554716       -15.0946
  42   1.0000      -0.522000       -14.2043
  43   1.0000      -0.501801       -13.6547
  44   1.0000      -0.470294       -12.7974
  45   1.0000      -0.463349       -12.6084
  46   1.0000      -0.460183       -12.5222
  47   1.0000      -0.453516       -12.3408
  48   1.0000      -0.445897       -12.1335
  49   1.0000      -0.417887       -11.3713
  50   1.0000      -0.378686       -10.3046
  51   0.0000       0.007023         0.1911
  52   0.0000       0.026397         0.7183
  53   0.0000       0.028011         0.7622
  54   0.0000       0.033170         0.9026
  55   0.0000       0.044252         1.2042

                 SPIN DOWN ORBITALS
  NO   OCC          E(Eh)            E(eV)
   0   1.0000     -92.029740     -2504.2565
   1   1.0000     -20.586728      -560.1934
   2   1.0000     -20.575186      -559.8793
   3   1.0000     -20.562572      -559.5360
   4   1.0000     -20.535597      -558.8020
   5   1.0000     -15.733326      -428.1256
   6   1.0000     -15.623777      -425.1446
   7   1.0000     -15.603624      -424.5962
   8   1.0000     -11.394468      -310.0592
   9   1.0000     -11.359957      -309.1201
  10   1.0000     -11.328561      -308.2658
  11   1.0000     -11.310205      -307.7663
  12   1.0000      -9.031249      -245.7528
  13   1.0000      -6.713286      -182.6778
  14   1.0000      -6.712488      -182.6561
  15   1.0000      -6.695775      -182.2013
  16   1.0000      -1.560617       -42.4665
  17   1.0000      -1.433587       -39.0099
  18   1.0000      -1.399421       -38.0802
  19   1.0000      -1.355524       -36.8857
  20   1.0000      -1.266107       -34.4525
  21   1.0000      -1.255989       -34.1772
  22   1.0000      -1.106626       -30.1128
  23   1.0000      -1.000052       -27.2128
  24   1.0000      -0.904654       -24.6169
  25   1.0000      -0.863215       -23.4893
  26   1.0000      -0.858358       -23.3571
  27   1.0000      -0.799366       -21.7519
  28   1.0000      -0.794061       -21.6075
  29   1.0000      -0.741320       -20.1723
  30   1.0000      -0.719567       -19.5804
  31   1.0000      -0.700930       -19.0733
  32   1.0000      -0.694010       -18.8850
  33   1.0000      -0.685172       -18.6445
  34   1.0000      -0.662343       -18.0233
  35   1.0000      -0.654831       -17.8189
  36   1.0000      -0.645392       -17.5620
  37   1.0000      -0.614650       -16.7255
  38   1.0000      -0.600775       -16.3479
  39   1.0000      -0.591010       -16.0822
  40   1.0000      -0.564946       -15.3730
  41   1.0000      -0.548076       -14.9139
  42   1.0000      -0.509292       -13.8586
  43   1.0000      -0.471132       -12.8202
  44   1.0000      -0.460293       -12.5252
  45   1.0000      -0.456509       -12.4222
  46   1.0000      -0.448175       -12.1955
  47   1.0000      -0.442317       -12.0361
  48   1.0000      -0.419220       -11.4076
  49   1.0000      -0.366843        -9.9823
  50   0.0000      -0.019394        -0.5277
  51   0.0000       0.007518         0.2046
  52   0.0000       0.026631         0.7247
  53   0.0000       0.028137         0.7656
  54   0.0000       0.033543         0.9127

MULLIKEN ATOMIC CHARGES AND SPIN POPULATIONS
--------------------------------------------
   0 N :   -0.540458    0.007593
   1 H :    0.240369    0.004038
   2 C :    0.320668   -0.006106
   3 H :    0.392741   -0.004433
   4 C :   -0.465263   -0.173108
   5 C :    0.989379    0.005287
   6 H :    0.298728   -0.005153
   7 H :    0.338519    0.046456
   8 S :    0.119413    1.138727
   9 O :   -0.913128    0.001049
  10 H :    0.242725   -0.087330
  11 N :   -0.775283    0.001155
  12 H :    0.345480    0.000705
  13 H :    0.200788   -0.000470
  14 C :    0.269581   -0.002418
  15 H :    0.519698   -0.000099
  16 O :   -0.875932    0.001338
  17 O :   -0.588804    0.013726
  18 N :    0.432035   -0.028049
  19 O :   -0.551255    0.087089
Sum of atomic charges         :   -0.0000000

LOEWDIN ATOMIC CHARGES AND SPIN POPULATIONS
-------------------------------------------
   0 N :    0.767794    0.001851
   1 H :   -0.583000    0.000768
   2 C :   -0.165668    0.017180
   3 H :   -0.290032    0.002033
   4 C :    0.169761    0.124918
   5 C :   -0.837206    0.016760
   6 H :   -0.372778    0.004185
   7 H :   -0.407059    0.012281
   8 S :    1.619050    0.603103
   9 O :    0.760875    0.003016
  10 H :   -1.211646    0.095759
  11 N :    1.257161    0.001829
  12 H :   -0.487093    0.000221
  13 H :   -0.477474    0.000211
  14 C :   -0.444920    0.000083
  15 H :   -0.339142    0.000005
  16 O :    0.706092    0.001086
  17 O :    0.588369    0.002479
  18 N :   -0.559221    0.004174
  19 O :    0.306135    0.108057

  Mayer bond orders larger than 0.100000
B(  0-N ,  1-H ) :   1.0448 B(  0-N ,  2-C ) :   0.6400 B(  0-N , 14-C ) :   1.0807
B(  0-N , 15-H ) :  -0.1153 B(  2-C ,  3-H ) :   0.7547 B(  2-C ,  4-C ) :   0.8737
B(  2-C ,  5-C ) :   1.0113 B(  2-C ,  9-O ) :   0.2258 B(  2-C , 11-N ) :  -0.1407
B(  4-C ,  6-H ) :   0.9100 B(  4-C ,  7-H ) :   0.8815 B(  4-C ,  8-S ) :   0.6610
B(  5-C ,  9-O ) :   1.0146 B(  5-C , 11-N ) :   1.1995 B(  8-S , 10-H ) :   0.5995
B(  9-O , 11-N ) :   0.1545 B( 10-H , 17-O ) :   0.3395 B( 11-N , 12-H ) :   0.8356
B( 11-N , 13-H ) :   1.0547 B( 14-C , 15-H ) :   0.7797 B( 14-C , 16-O ) :   1.5264
B( 17-O , 18-N ) :   1.1950 B( 18-N , 19-O ) :   1.5491

MP2 TOTAL ENERGY:    -1019.175656577 Eh
FINAL SINGLE POINT ENERGY     -1019.175656577222

DIPOLE MOMENT
-------------
                                X             Y             Z
Electronic contribution:      4.72569      -2.26468       2.44264
Nuclear contribution   :     -7.62319       1.38468      -3.04990
                        -----------------------------------------
Total Dipole Moment    :     -2.89750      -0.88000      -0.60726
                        -----------------------------------------
Magnitude (a.u.)       :      3.08847
Magnitude (Debye)      :      7.85026

Rotational constants in cm-1:     0.038564     0.019360     0.015799
Rotational constants in MHz :  1156.116998   580.397544   473.633891

                             ****ORCA TERMINATED NORMALLY****
TOTAL RUN TIME: 0 days 3 hours 5 minutes 19 seconds 774 msec
