                         Program Version 4.2.1 -  RELEASE  -
|  1> %pal
|  2>  nprocs 32
|  3> end
|  4> !RI-MP2 aug-cc-pVQZ aug-cc-pVQZ/C TightSCF
|  5> %maxcore 4500
|  6> *xyzfile 1 1  05_35TS.xyz
|  7>
|  8>
|  9>                          ****END OF INPUT****

CARTESIAN COORDINATES (ANGSTROEM)
---------------------------------
  C      2.957383    0.999820   -0.757541
  C      1.881306    0.398584    1.586807
  C      0.821031    1.460400    1.282395
  C      1.343988    2.604937    0.417246
  C      1.860322    2.055469   -0.909415
  H     -0.024298    0.996620    0.772290
  H      0.453599    1.851327    2.233417
  H      2.161357    3.104510    0.940959
  H      1.016024    1.630287   -1.451230
  H      2.259369    2.869303   -1.518362
  N      2.558345    0.019256    0.305712
  O      3.139457   -1.101754    0.271547
  C      3.122385    0.252426   -2.079400
  H      3.361997    0.979797   -2.855180
  H      3.932578   -0.473704   -2.034977
  H      2.201692   -0.248837   -2.375969
  C      4.312781    1.617708   -0.378113
  H      5.035643    0.836025   -0.142066
  H      4.689498    2.184123   -1.230924
  H      4.248304    2.297599    0.468266
  C      1.224060   -0.833944    2.197072
  H      1.956872   -1.600919    2.442586
  H      0.723167   -0.533883    3.117763
  H      0.479180   -1.253741    1.524942
  C      2.949475    0.906736    2.572653
  H      2.486261    1.039653    3.551023
  H      3.751186    0.174333    2.672452
  H      3.385464    1.858566    2.279616
  C      1.667411   -2.805006   -0.967822
  H      2.257922   -2.860624   -1.891116
  H      2.429415   -1.996055   -0.344079
  O      1.641913   -3.953079   -0.242297
  C      2.846194   -4.714485   -0.263757
  H      3.661182   -4.156628    0.204348
  H      2.650178   -5.619324    0.304841
  C      0.439321   -2.069226   -1.038357
  H      0.411525   -1.219697   -1.707089
  C     -0.661443   -2.426656   -0.316013
  H     -0.579906   -3.344341    0.259569
  H      3.115241   -4.977393   -1.290213
  C     -1.921539   -1.758607   -0.259179
  C     -2.992681   -2.391386    0.392734
  C     -2.142332   -0.476540   -0.806016
  C     -4.235468   -1.801511    0.482764
  H     -2.840251   -3.372572    0.827625
  C     -3.364637    0.128032   -0.709105
  H     -1.342293    0.074713   -1.279548
  C     -4.429377   -0.531410   -0.072530
  H     -5.040255   -2.320446    0.982266
  H     -3.520752    1.122363   -1.103946
  N      0.337865    3.643277    0.216698
  H      0.520181    4.550858    0.611096
  C     -0.829308    3.469934   -0.458585
  C     -1.731036    4.674197   -0.541848
  H     -1.928394    4.888041   -1.592488
  H     -2.683982    4.426793   -0.072626
  H     -1.320142    5.564297   -0.065892
  O     -1.135326    2.403084   -0.968280
  O     -5.583941    0.136847   -0.034560
  C     -6.721354   -0.461061    0.578265
  H     -6.537867   -0.651260    1.638129
  H     -7.526017    0.260649    0.471741
  H     -6.992863   -1.389406    0.071090

 Total Charge           Charge          ....    1
 Multiplicity           Mult            ....    1
 Number of Electrons    NEL             ....  212
 Basis Dimension        Dim             .... 3850

ORBITAL ENERGIES
----------------

  NO   OCC          E(Eh)            E(eV)
   0   2.0000     -20.796093      -565.8905
   1   2.0000     -20.692588      -563.0739
   2   2.0000     -20.677373      -562.6599
   3   2.0000     -20.609756      -560.8200
   4   2.0000     -15.816128      -430.3787
   5   2.0000     -15.685653      -426.8283
   6   2.0000     -11.447107      -311.4916
   7   2.0000     -11.431317      -311.0619
   8   2.0000     -11.407585      -310.4162
   9   2.0000     -11.406783      -310.3944
  10   2.0000     -11.405218      -310.3518
  11   2.0000     -11.384748      -309.7947
  12   2.0000     -11.381552      -309.7078
  13   2.0000     -11.375980      -309.5562
  14   2.0000     -11.364470      -309.2430
  15   2.0000     -11.346530      -308.7548
  16   2.0000     -11.343910      -308.6835
  17   2.0000     -11.335606      -308.4575
  18   2.0000     -11.335049      -308.4424
  19   2.0000     -11.334899      -308.4383
  20   2.0000     -11.333912      -308.4114
  21   2.0000     -11.333300      -308.3948
  22   2.0000     -11.332907      -308.3841
  23   2.0000     -11.332613      -308.3761
  24   2.0000     -11.323877      -308.1384
  25   2.0000     -11.321618      -308.0769
  26   2.0000     -11.321194      -308.0653
  27   2.0000     -11.313419      -307.8538
  28   2.0000      -1.639725       -44.6192
  29   2.0000      -1.522746       -41.4360
  30   2.0000      -1.511966       -41.1427
  31   2.0000      -1.481205       -40.3056
  32   2.0000      -1.342612       -36.5343
  33   2.0000      -1.300270       -35.3821
  34   2.0000      -1.262339       -34.3500
  35   2.0000      -1.228525       -33.4299
  36   2.0000      -1.205102       -32.7925
  37   2.0000      -1.164069       -31.6759
  38   2.0000      -1.136177       -30.9169
  39   2.0000      -1.122247       -30.5379
  40   2.0000      -1.112194       -30.2644
  41   2.0000      -1.084724       -29.5168
  42   2.0000      -1.069627       -29.1060
  43   2.0000      -1.064921       -28.9780
  44   2.0000      -1.051777       -28.6203
  45   2.0000      -1.050598       -28.5882
  46   2.0000      -1.037323       -28.2270
  47   2.0000      -1.004566       -27.3356
  48   2.0000      -0.966764       -26.3070
  49   2.0000      -0.947230       -25.7754
  50   2.0000      -0.935442       -25.4547
  51   2.0000      -0.924482       -25.1564
  52   2.0000      -0.897492       -24.4220
  53   2.0000      -0.868881       -23.6435
  54   2.0000      -0.864293       -23.5186
  55   2.0000      -0.830629       -22.6026
  56   2.0000      -0.820353       -22.3229
  57   2.0000      -0.809768       -22.0349
  58   2.0000      -0.809694       -22.0329
  59   2.0000      -0.803573       -21.8663
  60   2.0000      -0.791641       -21.5417
  61   2.0000      -0.788862       -21.4660
  62   2.0000      -0.762171       -20.7397
  63   2.0000      -0.754384       -20.5278
  64   2.0000      -0.753453       -20.5025
  65   2.0000      -0.745022       -20.2731
  66   2.0000      -0.743957       -20.2441
  67   2.0000      -0.734597       -19.9894
  68   2.0000      -0.731896       -19.9159
  69   2.0000      -0.716034       -19.4843
  70   2.0000      -0.709351       -19.3024
  71   2.0000      -0.705263       -19.1912
  72   2.0000      -0.704404       -19.1678
  73   2.0000      -0.692877       -18.8541
  74   2.0000      -0.687373       -18.7044
  75   2.0000      -0.683763       -18.6061
  76   2.0000      -0.682500       -18.5718
  77   2.0000      -0.678007       -18.4495
  78   2.0000      -0.675143       -18.3716
  79   2.0000      -0.663902       -18.0657
  80   2.0000      -0.658993       -17.9321
  81   2.0000      -0.655723       -17.8431
  82   2.0000      -0.648156       -17.6372
  83   2.0000      -0.645888       -17.5755
  84   2.0000      -0.644906       -17.5488
  85   2.0000      -0.643421       -17.5084
  86   2.0000      -0.633221       -17.2308
  87   2.0000      -0.626218       -17.0403
  88   2.0000      -0.623898       -16.9771
  89   2.0000      -0.620234       -16.8774
  90   2.0000      -0.612121       -16.6567
  91   2.0000      -0.610781       -16.6202
  92   2.0000      -0.605184       -16.4679
  93   2.0000      -0.599198       -16.3050
  94   2.0000      -0.594839       -16.1864
  95   2.0000      -0.590898       -16.0791
  96   2.0000      -0.579545       -15.7702
  97   2.0000      -0.575052       -15.6480
  98   2.0000      -0.573353       -15.6017
  99   2.0000      -0.570446       -15.5226
 100   2.0000      -0.518646       -14.1131
 101   2.0000      -0.511277       -13.9126
 102   2.0000      -0.495246       -13.4763
 103   2.0000      -0.460278       -12.5248
 104   2.0000      -0.440531       -11.9875
 105   2.0000      -0.375084       -10.2066
 106   0.0000      -0.141578        -3.8525
 107   0.0000      -0.053955        -1.4682
 108   0.0000      -0.047274        -1.2864
 109   0.0000      -0.045036        -1.2255
 110   0.0000      -0.041280        -1.1233

MULLIKEN ATOMIC CHARGES
-----------------------
   0 C :    1.288040
   1 C :    1.301386
   2 C :   -1.294871
   3 C :    2.071622
   4 C :   -0.953261
   5 H :    0.850423
   6 H :   -0.092095
   7 H :    0.342655
   8 H :    0.487516
   9 H :   -0.007321
  10 N :    2.827430
  11 O :   -1.752163
  12 C :   -1.313438
  13 H :    0.020007
  14 H :    0.204554
  15 H :    0.173709
  16 C :   -1.246065
  17 H :    0.130527
  18 H :    0.199478
  19 H :    0.227690
  20 C :   -1.432459
  21 H :    0.252359
  22 H :    0.052352
  23 H :    0.278408
  24 C :   -1.337447
  25 H :    0.183407
  26 H :    0.169133
  27 H :    0.263459
  28 C :    1.265220
  29 H :    0.478287
  30 H :    0.025611
  31 O :   -1.083110
  32 C :   -0.903091
  33 H :    0.306779
  34 H :    0.408529
  35 C :   -0.859853
  36 H :    0.266417
  37 C :    0.159538
  38 H :    0.138678
  39 H :    0.291907
  40 C :    0.820280
  41 C :   -0.824293
  42 C :   -0.409251
  43 C :   -0.456407
  44 H :    0.125344
  45 C :   -0.790919
  46 H :    0.419210
  47 C :    1.540857
  48 H :    0.191598
  49 H :    0.159101
  50 N :   -1.133623
  51 H :   -0.145249
  52 C :    0.885139
  53 C :   -0.865593
  54 H :    0.283582
  55 H :    0.297529
  56 H :    0.275223
  57 O :   -1.142179
  58 O :   -0.913456
  59 C :   -0.792962
  60 H :    0.285404
  61 H :    0.483417
  62 H :    0.317300
Sum of atomic charges:    1.0000000

LOEWDIN ATOMIC CHARGES
----------------------
   0 C :   -0.355912
   1 C :   -0.355498
   2 C :    0.539302
   3 C :    0.036042
   4 C :    0.531415
   5 H :   -0.309739
   6 H :   -0.237572
   7 H :   -0.298470
   8 H :   -0.329138
   9 H :   -0.237820
  10 N :    0.175538
  11 O :    1.032754
  12 C :    0.923907
  13 H :   -0.251609
  14 H :   -0.265875
  15 H :   -0.301729
  16 C :    0.956746
  17 H :   -0.253327
  18 H :   -0.254370
  19 H :   -0.299471
  20 C :    0.925519
  21 H :   -0.261774
  22 H :   -0.250444
  23 H :   -0.331194
  24 C :    0.957598
  25 H :   -0.253306
  26 H :   -0.251855
  27 H :   -0.306063
  28 C :    0.021111
  29 H :   -0.262234
  30 H :   -0.868402
  31 O :    0.931873
  32 C :    0.646411
  33 H :   -0.293943
  34 H :   -0.306478
  35 C :    0.408038
  36 H :   -0.335402
  37 C :    0.377618
  38 H :   -0.336102
  39 H :   -0.294665
  40 C :   -0.058370
  41 C :    0.365422
  42 C :    0.335850
  43 C :    0.367581
  44 H :   -0.301695
  45 C :    0.359201
  46 H :   -0.389907
  47 C :   -0.439548
  48 H :   -0.350111
  49 H :   -0.330749
  50 N :    0.899318
  51 H :   -0.481077
  52 C :   -0.772585
  53 C :    0.922407
  54 H :   -0.287090
  55 H :   -0.286387
  56 H :   -0.301496
  57 O :    0.786669
  58 O :    0.896559
  59 C :    0.611900
  60 H :   -0.299889
  61 H :   -0.308756
  62 H :   -0.298726

  Mayer bond orders larger than 0.100000
B(  0-C ,  1-C ) :   0.4533 B(  0-C ,  4-C ) :   0.1756 B(  0-C , 10-N ) :   0.9906
B(  0-C , 11-O ) :   0.2598 B(  0-C , 12-C ) :  -0.2601 B(  0-C , 13-H ) :  -0.1768
B(  0-C , 14-H ) :  -0.3110 B(  0-C , 15-H ) :  -0.3064 B(  0-C , 16-C ) :  -0.1288
B(  0-C , 17-H ) :  -0.3032 B(  0-C , 18-H ) :  -0.1406 B(  0-C , 19-H ) :  -0.1918
B(  0-C , 30-H ) :  -0.1197 B(  1-C ,  2-C ) :   0.1158 B(  1-C ,  3-C ) :  -0.1011
B(  1-C , 10-N ) :   0.9491 B(  1-C , 11-O ) :   0.3504 B(  1-C , 21-H ) :  -0.2025
B(  1-C , 22-H ) :  -0.1633 B(  1-C , 23-H ) :  -0.4486 B(  1-C , 24-C ) :  -0.2014
B(  1-C , 25-H ) :  -0.1475 B(  1-C , 26-H ) :  -0.2801 B(  1-C , 27-H ) :  -0.2253
B(  1-C , 28-C ) :  -0.1199 B(  1-C , 35-C ) :   0.1901 B(  1-C , 42-C ) :  -0.1302
B(  2-C ,  3-C ) :   0.7302 B(  2-C ,  5-H ) :   0.5911 B(  2-C ,  6-H ) :   1.4576
B(  2-C , 10-N ) :   0.1268 B(  2-C , 20-C ) :   0.2313 B(  2-C , 42-C ) :   0.1166
B(  2-C , 50-N ) :   0.1010 B(  2-C , 57-O ) :   0.1316 B(  3-C ,  4-C ) :   0.7617
B(  3-C ,  5-H ) :  -0.1068 B(  3-C ,  6-H ) :  -0.1722 B(  3-C ,  7-H ) :   0.8280
B(  3-C ,  9-H ) :  -0.1594 B(  3-C , 10-N ) :  -0.1690 B(  3-C , 50-N ) :  -1.3453
B(  3-C , 51-H ) :  -0.4033 B(  3-C , 52-C ) :  -0.3958 B(  3-C , 57-O ) :   0.1630
B(  4-C ,  8-H ) :   0.9525 B(  4-C ,  9-H ) :   1.2212 B(  4-C , 10-N ) :   0.2342
B(  4-C , 50-N ) :   0.2320 B(  5-H ,  6-H ) :  -0.1949 B(  5-H ,  7-H ) :   0.1087
B(  5-H , 20-C ) :  -0.1714 B(  5-H , 50-N ) :   0.2358 B(  5-H , 57-O ) :  -0.1700
B(  8-H , 12-C ) :  -0.1016 B(  8-H , 50-N ) :   0.1650 B(  8-H , 57-O ) :  -0.1929
B( 10-N , 11-O ) :  -1.4759 B( 10-N , 12-C ) :  -0.5035 B( 10-N , 13-H ) :  -0.1254
B( 10-N , 16-C ) :  -0.2269 B( 10-N , 17-H ) :  -0.1163 B( 10-N , 20-C ) :  -0.5790
B( 10-N , 22-H ) :  -0.1040 B( 10-N , 24-C ) :  -0.1164 B( 10-N , 28-C ) :   0.1954
B( 10-N , 30-H ) :  -0.1014 B( 11-O , 12-C ) :   0.1333 B( 11-O , 20-C ) :   0.1245
B( 11-O , 30-H ) :   0.5825 B( 11-O , 35-C ) :   0.1810 B( 12-C , 13-H ) :   1.4365
B( 12-C , 14-H ) :   1.3059 B( 12-C , 15-H ) :   1.1711 B( 16-C , 17-H ) :   1.3890
B( 16-C , 18-H ) :   1.1236 B( 16-C , 19-H ) :   1.1639 B( 20-C , 21-H ) :   1.2034
B( 20-C , 22-H ) :   1.3758 B( 20-C , 23-H ) :   1.0933 B( 24-C , 25-H ) :   1.1510
B( 24-C , 26-H ) :   1.3569 B( 24-C , 27-H ) :   1.1324 B( 28-C , 29-H ) :   0.9782
B( 28-C , 30-H ) :   0.5563 B( 28-C , 31-O ) :   0.2730 B( 28-C , 32-C ) :  -0.3738
B( 28-C , 35-C ) :   0.8927 B( 28-C , 36-H ) :  -0.2156 B( 28-C , 37-C ) :  -0.3413
B( 29-H , 31-O ) :  -0.1573 B( 29-H , 32-C ) :  -0.1226 B( 29-H , 35-C ) :  -0.2409
B( 31-O , 32-C ) :   1.1364 B( 31-O , 35-C ) :   0.1975 B( 31-O , 37-C ) :  -0.1737
B( 32-C , 33-H ) :   0.9188 B( 32-C , 34-H ) :   0.8964 B( 32-C , 39-H ) :   0.9409
B( 35-C , 36-H ) :   1.0725 B( 35-C , 37-C ) :   1.3741 B( 35-C , 40-C ) :  -0.2868
B( 35-C , 42-C ) :  -0.1798 B( 37-C , 38-H ) :   1.1578 B( 37-C , 40-C ) :   0.4564
B( 37-C , 41-C ) :  -0.7775 B( 37-C , 42-C ) :  -0.2247 B( 37-C , 43-C ) :   0.1318
B( 38-H , 40-C ) :  -0.1675 B( 40-C , 41-C ) :   1.0707 B( 40-C , 42-C ) :   0.8098
B( 40-C , 43-C ) :  -0.6248 B( 40-C , 45-C ) :  -0.4542 B( 40-C , 47-C ) :  -0.1227
B( 41-C , 43-C ) :   1.0968 B( 41-C , 44-H ) :   1.1678 B( 41-C , 45-C ) :   0.2730
B( 41-C , 48-H ) :  -0.1643 B( 42-C , 45-C ) :   1.2717 B( 42-C , 46-H ) :   0.7437
B( 42-C , 47-C ) :  -0.4991 B( 42-C , 49-H ) :  -0.1100 B( 43-C , 44-H ) :  -0.2143
B( 43-C , 47-C ) :   1.3008 B( 43-C , 48-H ) :   1.1815 B( 43-C , 58-O ) :   0.1862
B( 43-C , 59-C ) :   0.2183 B( 45-C , 46-H ) :  -0.2735 B( 45-C , 47-C ) :   1.1352
B( 45-C , 49-H ) :   1.0741 B( 45-C , 58-O ) :   0.4935 B( 47-C , 48-H ) :  -0.1453
B( 47-C , 58-O ) :  -0.4596 B( 47-C , 59-C ) :  -0.2984 B( 49-H , 58-O ) :   0.1397
B( 50-N , 51-H ) :   1.6681 B( 50-N , 52-C ) :   1.2417 B( 52-C , 53-C ) :   0.5078
B( 52-C , 54-H ) :  -0.1354 B( 52-C , 55-H ) :  -0.1423 B( 52-C , 56-H ) :  -0.1407
B( 52-C , 57-O ) :   0.9722 B( 53-C , 54-H ) :   1.0145 B( 53-C , 55-H ) :   0.9927
B( 53-C , 56-H ) :   1.0371 B( 58-O , 59-C ) :   0.9582 B( 59-C , 60-H ) :   0.8990
B( 59-C , 61-H ) :   0.7798 B( 59-C , 62-H ) :   0.8795

MP2 TOTAL ENERGY:    -1267.424809858 Eh
FINAL SINGLE POINT ENERGY     -1267.424809857964

DIPOLE MOMENT
-------------
                                X             Y             Z
Electronic contribution:    -15.68092      -4.47174      -3.71864
Nuclear contribution   :     17.20269       4.77430       4.50166
                        -----------------------------------------
Total Dipole Moment    :      1.52177       0.30256       0.78302
                        -----------------------------------------
Magnitude (a.u.)       :      1.73794
Magnitude (Debye)      :      4.41750

Rotational constants in cm-1:     0.006731     0.004390     0.003071
Rotational constants in MHz :   201.799483   131.611923    92.075259

                             ****ORCA TERMINATED NORMALLY****
TOTAL RUN TIME: 1 days 19 hours 44 minutes 0 seconds 176 msec
