                         Program Version 4.2.1 -  RELEASE  -
|  1> %pal
|  2>  nprocs 32
|  3> end
|  4> !RI-MP2 aug-cc-pVQZ aug-cc-pVQZ/C TightSCF
|  5> %maxcore 4500
|  6> *xyzfile 0 1  06_6R1.xyz
|  7>
|  8>
|  9>                          ****END OF INPUT****

CARTESIAN COORDINATES (ANGSTROEM)
---------------------------------
  C     -0.174093   -1.114216   -0.013617
  C     -1.484520   -0.709645    0.014852
  C     -1.484522    0.709644    0.014859
  C     -0.174096    1.114216   -0.013621
  N      0.621146    0.000001   -0.037627
  H     -2.345530    1.358659    0.023031
  C      2.066363   -0.000001    0.025563
  H      2.453944   -0.883325   -0.481308
  H      2.453916    0.883519   -0.480986
  H      2.421837   -0.000181    1.058950
  H     -2.345528   -1.358663    0.023019
  H      0.259272   -2.101409   -0.023764
  H      0.259269    2.101410   -0.023772

 Total Charge           Charge          ....    0
 Multiplicity           Mult            ....    1
 Number of Electrons    NEL             ....   44
 Basis Dimension        Dim             ....  802

ORBITAL ENERGIES
----------------

  NO   OCC          E(Eh)            E(eV)
   0   2.0000     -15.601980      -424.5515
   1   2.0000     -11.271386      -306.7100
   2   2.0000     -11.244372      -305.9749
   3   2.0000     -11.244331      -305.9738
   4   2.0000     -11.204139      -304.8801
   5   2.0000     -11.203079      -304.8513
   6   2.0000      -1.300706       -35.3940
   7   2.0000      -1.073719       -29.2174
   8   2.0000      -0.975646       -26.5487
   9   2.0000      -0.933858       -25.4116
  10   2.0000      -0.773675       -21.0528
  11   2.0000      -0.750393       -20.4192
  12   2.0000      -0.709382       -19.3033
  13   2.0000      -0.634871       -17.2757
  14   2.0000      -0.603818       -16.4307
  15   2.0000      -0.572314       -15.5735
  16   2.0000      -0.563477       -15.3330
  17   2.0000      -0.529032       -14.3957
  18   2.0000      -0.524925       -14.2839
  19   2.0000      -0.522125       -14.2077
  20   2.0000      -0.334166        -9.0931
  21   2.0000      -0.295560        -8.0426
  22   0.0000       0.023712         0.6452
  23   0.0000       0.031212         0.8493
  24   0.0000       0.033635         0.9152
  25   0.0000       0.040270         1.0958
  26   0.0000       0.044382         1.2077

MULLIKEN ATOMIC CHARGES
-----------------------
   0 C :   -0.378712
   1 C :   -0.285183
   2 C :   -0.285119
   3 C :   -0.378857
   4 N :   -0.135576
   5 H :    0.366573
   6 C :   -0.835495
   7 H :    0.288640
   8 H :    0.288642
   9 H :    0.278915
  10 H :    0.366572
  11 H :    0.354819
  12 H :    0.354781
Sum of atomic charges:   -0.0000000

LOEWDIN ATOMIC CHARGES
----------------------
   0 C :    0.180956
   1 C :    0.302075
   2 C :    0.302076
   3 C :    0.180956
   4 N :    0.356153
   5 H :   -0.331351
   6 C :    0.805882
   7 H :   -0.293216
   8 H :   -0.293228
   9 H :   -0.271313
  10 H :   -0.331349
  11 H :   -0.303819
  12 H :   -0.303821

  Mayer bond orders larger than 0.100000
B(  0-C ,  1-C ) :   1.4329 B(  0-C ,  4-N ) :   1.0418 B(  0-C , 11-H ) :   0.9805
B(  1-C ,  2-C ) :   1.2084 B(  1-C ,  4-N ) :  -0.1124 B(  1-C , 10-H ) :   0.9212
B(  2-C ,  3-C ) :   1.4328 B(  2-C ,  4-N ) :  -0.1124 B(  2-C ,  5-H ) :   0.9212
B(  3-C ,  4-N ) :   1.0418 B(  3-C , 12-H ) :   0.9805 B(  4-N ,  6-C ) :   0.7390
B(  6-C ,  7-H ) :   0.9715 B(  6-C ,  8-H ) :   0.9715 B(  6-C ,  9-H ) :   0.9658

MP2 TOTAL ENERGY:     -249.037778963 Eh
FINAL SINGLE POINT ENERGY      -249.037778963265

DIPOLE MOMENT
-------------
                                X             Y             Z
Electronic contribution:     -2.37092      -0.00000      -0.09489
Nuclear contribution   :      3.21995       0.00001       0.09673
                        -----------------------------------------
Total Dipole Moment    :      0.84902       0.00001       0.00183
                        -----------------------------------------
Magnitude (a.u.)       :      0.84902
Magnitude (Debye)      :      2.15804

Rotational constants in cm-1:     0.291887     0.119430     0.086170
Rotational constants in MHz :  8750.556823  3580.420208  2583.319790

                             ****ORCA TERMINATED NORMALLY****
TOTAL RUN TIME: 0 days 0 hours 11 minutes 35 seconds 84 msec
