                         Program Version 4.2.1 -  RELEASE  -
|  1> %pal
|  2>  nprocs 32
|  3> end
|  4> !RI-MP2 aug-cc-pVQZ aug-cc-pVQZ/C TightSCF
|  5> %maxcore 4500
|  6> *xyzfile 0 1  09_26R2.xyz
|  7>
|  8>
|  9>                          ****END OF INPUT****

CARTESIAN COORDINATES (ANGSTROEM)
---------------------------------
  C      3.477102    1.173308   -0.911341
  C      3.429640   -0.103758   -0.113867
  C      4.132374   -0.256972    1.006690
  N      2.666580   -1.145998   -0.656621
  C      1.307619   -0.851391   -1.098516
  C      0.353617   -0.417659    0.012772
  H      0.920917   -1.747129   -1.590109
  H      1.348842   -0.079035   -1.871980
  C     -1.034621   -0.075209   -0.513585
  H      0.781431    0.442832    0.539447
  H      0.281698   -1.222956    0.752109
  C     -1.981883    0.362891    0.599297
  H     -1.463420   -0.932101   -1.034791
  H     -0.954321    0.733659   -1.250717
  C     -3.384033    0.767358    0.134275
  H     -1.548662    1.227717    1.113216
  H     -2.068766   -0.435149    1.345142
  C     -4.237490   -0.440127   -0.292285
  N     -4.141591    1.553246    1.116999
  H     -3.292773    1.379929   -0.768854
  O     -3.800780   -1.383852   -0.889378
  O     -5.523549   -0.331335    0.037711
  H     -5.593573    0.506213    0.544746
  O      4.514177    2.053165   -0.522572
  H      2.553626    1.744514   -0.788917
  H      3.558384    0.912904   -1.973946
  H      5.354911    1.614712   -0.681212
  O      4.021189   -1.435552    1.720849
  H      4.766728    0.518599    1.410529
  H      4.787742   -1.550481    2.284513
  H     -3.964877    2.545133    1.027418
  H     -3.907678    1.281769    2.066266
  H      2.702623   -1.961929   -0.059026

 Total Charge           Charge          ....    0
 Multiplicity           Mult            ....    1
 Number of Electrons    NEL             ....  118
 Basis Dimension        Dim             .... 2028

ORBITAL ENERGIES
----------------

  NO   OCC          E(Eh)            E(eV)
   0   2.0000     -20.591591      -560.3257
   1   2.0000     -20.577060      -559.9303
   2   2.0000     -20.560940      -559.4916
   3   2.0000     -20.531033      -558.6778
   4   2.0000     -15.581926      -424.0058
   5   2.0000     -15.549049      -423.1111
   6   2.0000     -11.371526      -309.4350
   7   2.0000     -11.291607      -307.2602
   8   2.0000     -11.283771      -307.0470
   9   2.0000     -11.264119      -306.5123
  10   2.0000     -11.253467      -306.2224
  11   2.0000     -11.252099      -306.1852
  12   2.0000     -11.239047      -305.8300
  13   2.0000     -11.220440      -305.3237
  14   2.0000     -11.218137      -305.2610
  15   2.0000      -1.453532       -39.5526
  16   2.0000      -1.387314       -37.7507
  17   2.0000      -1.367988       -37.2248
  18   2.0000      -1.356350       -36.9082
  19   2.0000      -1.226336       -33.3703
  20   2.0000      -1.224487       -33.3200
  21   2.0000      -1.086955       -29.5775
  22   2.0000      -1.036875       -28.2148
  23   2.0000      -0.996922       -27.1276
  24   2.0000      -0.935793       -25.4642
  25   2.0000      -0.920427       -25.0461
  26   2.0000      -0.855924       -23.2909
  27   2.0000      -0.807864       -21.9831
  28   2.0000      -0.804839       -21.9008
  29   2.0000      -0.766375       -20.8541
  30   2.0000      -0.745554       -20.2876
  31   2.0000      -0.722325       -19.6555
  32   2.0000      -0.698954       -19.0195
  33   2.0000      -0.683975       -18.6119
  34   2.0000      -0.679684       -18.4951
  35   2.0000      -0.667652       -18.1677
  36   2.0000      -0.645185       -17.5564
  37   2.0000      -0.632474       -17.2105
  38   2.0000      -0.624731       -16.9998
  39   2.0000      -0.616996       -16.7893
  40   2.0000      -0.605070       -16.4648
  41   2.0000      -0.588609       -16.0169
  42   2.0000      -0.584779       -15.9127
  43   2.0000      -0.579437       -15.7673
  44   2.0000      -0.565713       -15.3938
  45   2.0000      -0.544900       -14.8275
  46   2.0000      -0.540969       -14.7205
  47   2.0000      -0.527291       -14.3483
  48   2.0000      -0.518095       -14.0981
  49   2.0000      -0.511617       -13.9218
  50   2.0000      -0.496686       -13.5155
  51   2.0000      -0.485032       -13.1984
  52   2.0000      -0.477284       -12.9875
  53   2.0000      -0.466317       -12.6891
  54   2.0000      -0.455853       -12.4044
  55   2.0000      -0.452171       -12.3042
  56   2.0000      -0.426897       -11.6165
  57   2.0000      -0.411760       -11.2046
  58   2.0000      -0.297762        -8.1025
  59   0.0000       0.015257         0.4152
  60   0.0000       0.021900         0.5959
  61   0.0000       0.025797         0.7020
  62   0.0000       0.033736         0.9180
  63   0.0000       0.034482         0.9383

MULLIKEN ATOMIC CHARGES
-----------------------
   0 C :    0.485429
   1 C :   -0.004067
   2 C :    0.148120
   3 N :   -0.832124
   4 C :   -0.349277
   5 C :   -0.621390
   6 H :    0.418602
   7 H :    0.287391
   8 C :   -0.199249
   9 H :    0.269405
  10 H :    0.297370
  11 C :   -0.685759
  12 H :    0.391020
  13 H :    0.220586
  14 C :    0.101197
  15 H :    0.250142
  16 H :    0.229519
  17 C :    1.319709
  18 N :   -0.817938
  19 H :    0.306341
  20 O :   -0.923280
  21 O :   -0.928286
  22 H :    0.384409
  23 O :   -0.983750
  24 H :    0.184622
  25 H :    0.235336
  26 H :    0.354726
  27 O :   -0.822136
  28 H :    0.317656
  29 H :    0.283892
  30 H :    0.203873
  31 H :    0.267512
  32 H :    0.210398
Sum of atomic charges:    0.0000000

LOEWDIN ATOMIC CHARGES
----------------------
   0 C :    0.136912
   1 C :   -0.258070
   2 C :    0.032571
   3 N :    0.882350
   4 C :    0.381676
   5 C :    0.535763
   6 H :   -0.267521
   7 H :   -0.305011
   8 C :    0.526410
   9 H :   -0.275965
  10 H :   -0.253110
  11 C :    0.513447
  12 H :   -0.318528
  13 H :   -0.255420
  14 C :   -0.036739
  15 H :   -0.272344
  16 H :   -0.258672
  17 C :   -1.003804
  18 N :    1.298697
  19 H :   -0.288932
  20 O :    0.708301
  21 O :    1.258747
  22 H :   -0.958012
  23 O :    1.278330
  24 H :   -0.319975
  25 H :   -0.296844
  26 H :   -0.795162
  27 O :    1.246049
  28 H :   -0.367132
  29 H :   -0.790979
  30 H :   -0.454809
  31 H :   -0.462067
  32 H :   -0.560159

  Mayer bond orders larger than 0.100000
B(  0-C ,  1-C ) :   0.6746 B(  0-C ,  2-C ) :  -0.1124 B(  0-C , 23-O ) :   0.3307
B(  0-C , 24-H ) :   0.9358 B(  0-C , 25-H ) :   1.0262 B(  1-C ,  2-C ) :   1.7945
B(  1-C ,  3-N ) :   0.6469 B(  1-C , 25-H ) :  -0.1100 B(  1-C , 27-O ) :   0.2109
B(  1-C , 28-H ) :  -0.1175 B(  2-C , 27-O ) :   0.5261 B(  2-C , 28-H ) :   0.9622
B(  3-N ,  4-C ) :   0.8237 B(  3-N , 32-H ) :   0.9675 B(  4-C ,  5-C ) :   1.0664
B(  4-C ,  6-H ) :   0.8089 B(  4-C ,  7-H ) :   0.9009 B(  5-C ,  8-C ) :   1.0902
B(  5-C ,  9-H ) :   0.8694 B(  5-C , 10-H ) :   0.7928 B(  8-C , 11-C ) :   0.9539
B(  8-C , 12-H ) :   0.7452 B(  8-C , 13-H ) :   0.8703 B(  8-C , 14-C ) :  -0.1450
B( 11-C , 14-C ) :   1.2036 B( 11-C , 15-H ) :   0.8919 B( 11-C , 16-H ) :   0.8227
B( 11-C , 18-N ) :   0.1006 B( 12-H , 20-O ) :  -0.1232 B( 14-C , 17-C ) :   1.0493
B( 14-C , 18-N ) :   0.5333 B( 14-C , 19-H ) :   0.8296 B( 14-C , 20-O ) :   0.2329
B( 14-C , 21-O ) :   0.1562 B( 17-C , 20-O ) :   1.2630 B( 17-C , 21-O ) :   0.5108
B( 18-N , 22-H ) :   0.1321 B( 18-N , 30-H ) :   1.0146 B( 18-N , 31-H ) :   0.8897
B( 20-O , 21-O ) :   0.1083 B( 21-O , 22-H ) :   0.7368 B( 23-O , 26-H ) :   0.8544
B( 27-O , 29-H ) :   0.9750

MP2 TOTAL ENERGY:     -763.060543022 Eh
FINAL SINGLE POINT ENERGY      -763.060543022106

DIPOLE MOMENT
-------------
                                X             Y             Z
Electronic contribution:     -3.48960      -3.62941       0.03710
Nuclear contribution   :      4.30703       5.04071       1.08850
                        -----------------------------------------
Total Dipole Moment    :      0.81743       1.41129       1.12560
                        -----------------------------------------
Magnitude (a.u.)       :      1.98165
Magnitude (Debye)      :      5.03694

Rotational constants in cm-1:     0.040130     0.005765     0.005592
Rotational constants in MHz :  1203.057372   172.840363   167.632543

                             ****ORCA TERMINATED NORMALLY****
TOTAL RUN TIME: 0 days 2 hours 50 minutes 20 seconds 657 msec
