                         Program Version 4.2.1 -  RELEASE  -
|  1> %pal
|  2>  nprocs 32
|  3> end
|  4> !RI-MP2 aug-cc-pVQZ aug-cc-pVQZ/C TightSCF
|  5> %maxcore 4500
|  6> *xyzfile 0 2  06_31P.xyz
|  7>
|  8>
|  9>                          ****END OF INPUT****

CARTESIAN COORDINATES (ANGSTROEM)
---------------------------------
  Si     1.009991   -0.256438    1.884303
  Si    -1.200987    2.056673   -0.200994
  Si    -1.692643   -1.712535   -0.442613
  C     -0.216905    0.178798    3.250789
  H      0.237274    0.016045    4.232524
  H     -0.516298    1.228061    3.197695
  H     -1.122594   -0.428213    3.198740
  C      1.574619   -2.036687    2.151247
  H      2.089746   -2.139097    3.110697
  H      0.722493   -2.720702    2.158999
  H      2.259273   -2.371292    1.369010
  C      2.485723    0.901675    2.062191
  H      2.919441    0.805869    3.062063
  H      3.271250    0.688465    1.336423
  H      2.185943    1.942595    1.926083
  C     -1.595712    2.533109   -1.982613
  H     -2.227738    1.783995   -2.465007
  H     -2.125127    3.489559   -2.018874
  H     -0.687298    2.633870   -2.581059
  C     -2.816323    1.957195    0.767858
  H     -2.647119    1.646584    1.801263
  H     -3.305969    2.934988    0.791263
  H     -3.515683    1.249057    0.318252
  C     -0.147728    3.419490    0.567220
  H      0.031574    3.233303    1.628591
  H      0.824692    3.501554    0.077329
  H     -0.650613    4.387155    0.481735
  C     -2.691215   -1.939895    1.140872
  H     -3.148189   -1.006372    1.474738
  H     -3.493689   -2.665817    0.980852
  H     -2.066230   -2.315368    1.954461
  C     -2.874739   -1.261860   -1.842999
  H     -3.596087   -2.066690   -2.011628
  H     -3.438290   -0.353284   -1.620318
  H     -2.338226   -1.097425   -2.780849
  C     -0.902252   -3.371030   -0.869946
  H     -1.669281   -4.149583   -0.919398
  H     -0.399803   -3.340003   -1.838965
  H     -0.166735   -3.676183   -0.122221
  C      1.090971   -0.040486   -1.720807
  C      2.047386    1.097905   -1.718875
  C      2.004337   -1.284985   -1.840918
  C      3.467204    0.643088   -1.633837
  H      1.756204    2.128814   -1.870720
  C      3.352274   -0.842969   -1.258583
  H      1.610282   -2.170830   -1.342186
  H      2.127338   -1.539805   -2.898239
  H      3.971485    0.754973   -2.605921
  H      4.065429    1.217483   -0.918619
  H      4.185066   -1.442438   -1.629611
  H      3.340134   -0.948504   -0.171804
  Si    -0.084011   -0.012719   -0.180978
  H      0.398614    0.019421   -2.570919

 Total Charge           Charge          ....    0
 Multiplicity           Mult            ....    2
 Number of Electrons    NEL             ....  175
 Basis Dimension        Dim             .... 3066

ORBITAL ENERGIES
----------------
                 SPIN UP ORBITALS
  NO   OCC          E(Eh)            E(eV)
   0   1.0000     -68.741597     -1870.5539
   1   1.0000     -68.740978     -1870.5371
   2   1.0000     -68.740183     -1870.5155
   3   1.0000     -68.722228     -1870.0269
   4   1.0000     -11.218372      -305.2674
   5   1.0000     -11.216913      -305.2277
   6   1.0000     -11.215623      -305.1926
   7   1.0000     -11.214872      -305.1722
   8   1.0000     -11.209622      -305.0293
   9   1.0000     -11.194732      -304.6242
  10   1.0000     -11.194456      -304.6166
  11   1.0000     -11.193885      -304.6011
  12   1.0000     -11.193655      -304.5948
  13   1.0000     -11.193391      -304.5877
  14   1.0000     -11.193359      -304.5868
  15   1.0000     -11.193163      -304.5814
  16   1.0000     -11.192898      -304.5742
  17   1.0000     -11.191823      -304.5450
  18   1.0000      -6.091015      -165.7449
  19   1.0000      -6.090445      -165.7294
  20   1.0000      -6.089685      -165.7087
  21   1.0000      -6.075416      -165.3205
  22   1.0000      -4.197406      -114.2172
  23   1.0000      -4.197225      -114.2123
  24   1.0000      -4.197139      -114.2100
  25   1.0000      -4.196936      -114.2044
  26   1.0000      -4.196571      -114.1945
  27   1.0000      -4.196549      -114.1939
  28   1.0000      -4.196048      -114.1803
  29   1.0000      -4.195876      -114.1756
  30   1.0000      -4.195828      -114.1743
  31   1.0000      -4.181473      -113.7837
  32   1.0000      -4.180945      -113.7693
  33   1.0000      -4.180830      -113.7662
  34   1.0000      -1.125407       -30.6239
  35   1.0000      -0.969349       -26.3773
  36   1.0000      -0.964909       -26.2565
  37   1.0000      -0.962234       -26.1837
  38   1.0000      -0.959076       -26.0978
  39   1.0000      -0.958103       -26.0713
  40   1.0000      -0.922915       -25.1138
  41   1.0000      -0.921077       -25.0638
  42   1.0000      -0.920659       -25.0524
  43   1.0000      -0.918068       -24.9819
  44   1.0000      -0.917516       -24.9669
  45   1.0000      -0.916938       -24.9512
  46   1.0000      -0.782428       -21.2910
  47   1.0000      -0.761650       -20.7255
  48   1.0000      -0.697724       -18.9860
  49   1.0000      -0.660565       -17.9749
  50   1.0000      -0.642891       -17.4940
  51   1.0000      -0.621741       -16.9184
  52   1.0000      -0.620656       -16.8889
  53   1.0000      -0.587487       -15.9863
  54   1.0000      -0.573898       -15.6166
  55   1.0000      -0.572703       -15.5840
  56   1.0000      -0.568172       -15.4607
  57   1.0000      -0.563628       -15.3371
  58   1.0000      -0.562856       -15.3161
  59   1.0000      -0.560798       -15.2601
  60   1.0000      -0.554185       -15.0801
  61   1.0000      -0.553000       -15.0479
  62   1.0000      -0.550585       -14.9822
  63   1.0000      -0.544234       -14.8094
  64   1.0000      -0.541539       -14.7360
  65   1.0000      -0.537904       -14.6371
  66   1.0000      -0.536352       -14.5949
  67   1.0000      -0.533733       -14.5236
  68   1.0000      -0.533079       -14.5058
  69   1.0000      -0.530867       -14.4456
  70   1.0000      -0.527036       -14.3414
  71   1.0000      -0.525973       -14.3125
  72   1.0000      -0.524524       -14.2730
  73   1.0000      -0.510456       -13.8902
  74   1.0000      -0.495273       -13.4771
  75   1.0000      -0.478922       -13.0321
  76   1.0000      -0.473026       -12.8717
  77   1.0000      -0.469669       -12.7804
  78   1.0000      -0.436391       -11.8748
  79   1.0000      -0.430352       -11.7105
  80   1.0000      -0.429727       -11.6935
  81   1.0000      -0.424366       -11.5476
  82   1.0000      -0.424239       -11.5441
  83   1.0000      -0.421873       -11.4797
  84   1.0000      -0.406227       -11.0540
  85   1.0000      -0.336200        -9.1485
  86   1.0000      -0.333983        -9.0881
  87   1.0000      -0.291947        -7.9443
  88   0.0000       0.019750         0.5374
  89   0.0000       0.024782         0.6743
  90   0.0000       0.024870         0.6768
  91   0.0000       0.025022         0.6809
  92   0.0000       0.034405         0.9362

MULLIKEN ATOMIC CHARGES AND SPIN POPULATIONS
--------------------------------------------
   0 Si:    1.533037    0.017717
   1 Si:    1.618116   -0.019938
   2 Si:    1.279718    0.009792
   3 C :   -1.190169   -0.000015
   4 H :    0.173572    0.000671
   5 H :    0.287787    0.000459
   6 H :    0.354250    0.000704
   7 C :   -1.188447   -0.000743
   8 H :    0.196882   -0.000085
   9 H :    0.289712   -0.000117
  10 H :    0.346891   -0.000393
  11 C :   -1.297811   -0.005290
  12 H :    0.201511    0.001210
  13 H :    0.299466    0.004816
  14 H :    0.297275   -0.003671
  15 C :   -1.185667   -0.000692
  16 H :    0.354799    0.000014
  17 H :    0.258924   -0.000357
  18 H :    0.292592    0.000936
  19 C :   -1.129830   -0.000111
  20 H :    0.304460    0.001378
  21 H :    0.167841    0.000436
  22 H :    0.313768   -0.000021
  23 C :   -1.197747   -0.004774
  24 H :    0.272567    0.002503
  25 H :    0.376852   -0.003962
  26 H :    0.191601    0.000232
  27 C :   -1.206877    0.006395
  28 H :    0.344795   -0.000129
  29 H :    0.180595    0.000135
  30 H :    0.293082    0.000459
  31 C :   -1.174438   -0.000255
  32 H :    0.180308    0.000332
  33 H :    0.331202    0.000016
  34 H :    0.325776    0.000091
  35 C :   -1.123977   -0.003926
  36 H :    0.117563   -0.000079
  37 H :    0.281571    0.000190
  38 H :    0.382900   -0.000278
  39 C :   -0.123920   -0.269613
  40 C :   -0.482120    1.232093
  41 C :   -0.588996    0.010132
  42 C :   -0.586912   -0.170931
  43 H :    0.068075   -0.193187
  44 C :   -0.682467    0.019899
  45 H :    0.400714   -0.007737
  46 H :    0.102497   -0.002363
  47 H :    0.283185    0.099407
  48 H :    0.236965    0.060868
  49 H :    0.232919   -0.005352
  50 H :    0.223407   -0.011585
  51 Si:   -0.419265    0.129335
  52 H :    0.181470    0.105381
Sum of atomic charges         :    0.0000000

LOEWDIN ATOMIC CHARGES AND SPIN POPULATIONS
-------------------------------------------
   0 Si:    0.162616    0.004625
   1 Si:    0.146159    0.003800
   2 Si:    0.163310    0.009298
   3 C :    0.960945    0.000142
   4 H :   -0.324391    0.000031
   5 H :   -0.349521    0.000067
   6 H :   -0.357920    0.000121
   7 C :    0.969458   -0.000184
   8 H :   -0.326667   -0.000056
   9 H :   -0.347011   -0.000012
  10 H :   -0.348884   -0.000052
  11 C :    0.976965    0.002022
  12 H :   -0.323394    0.000203
  13 H :   -0.371364    0.001624
  14 H :   -0.348869    0.000677
  15 C :    0.966252   -0.000198
  16 H :   -0.349249   -0.000001
  17 H :   -0.329426   -0.000024
  18 H :   -0.345272   -0.000089
  19 C :    0.962121   -0.000181
  20 H :   -0.348991    0.000030
  21 H :   -0.325847   -0.000046
  22 H :   -0.353240    0.000029
  23 C :    0.964399    0.001129
  24 H :   -0.352105    0.000125
  25 H :   -0.345968    0.002361
  26 H :   -0.327455    0.000150
  27 C :    0.960583    0.003334
  28 H :   -0.354908    0.000568
  29 H :   -0.326678    0.000784
  30 H :   -0.348172    0.000434
  31 C :    0.962664    0.000858
  32 H :   -0.329257    0.000217
  33 H :   -0.356462    0.000153
  34 H :   -0.334676    0.000274
  35 C :    0.965127   -0.000046
  36 H :   -0.329713   -0.000048
  37 H :   -0.345550   -0.000112
  38 H :   -0.345251   -0.000071
  39 C :    0.101704    0.130159
  40 C :    0.393683    0.440090
  41 C :    0.483432    0.009858
  42 C :    0.516289    0.127665
  43 H :   -0.296896    0.137588
  44 C :    0.521664    0.009333
  45 H :   -0.307647    0.000841
  46 H :   -0.247809    0.001503
  47 H :   -0.262112    0.030381
  48 H :   -0.275225    0.018626
  49 H :   -0.242175    0.000883
  50 H :   -0.318715    0.001213
  51 Si:    0.353385    0.036019
  52 H :   -0.333938    0.023904

  Mayer bond orders larger than 0.100000
B(  0-Si,  2-Si) :   0.1732 B(  0-Si,  3-C ) :   0.8283 B(  0-Si,  4-H ) :  -0.1039
B(  0-Si,  5-H ) :  -0.1318 B(  0-Si,  6-H ) :  -0.1335 B(  0-Si,  7-C ) :   1.0218
B(  0-Si,  9-H ) :  -0.1156 B(  0-Si, 10-H ) :  -0.1156 B(  0-Si, 11-C ) :   0.6874
B(  0-Si, 13-H ) :  -0.1388 B(  0-Si, 14-H ) :  -0.1159 B(  0-Si, 51-Si) :   0.5071
B(  1-Si,  2-Si) :   0.1074 B(  1-Si, 15-C ) :   0.8056 B(  1-Si, 19-C ) :   0.8211
B(  1-Si, 23-C ) :   1.0363 B(  1-Si, 25-H ) :  -0.1039 B(  1-Si, 39-C ) :   0.1667
B(  1-Si, 51-Si) :   0.6993 B(  2-Si, 27-C ) :   0.6473 B(  2-Si, 31-C ) :   1.2177
B(  2-Si, 35-C ) :   0.9299 B(  2-Si, 39-C ) :   0.2935 B(  2-Si, 51-Si) :   0.5444
B(  3-C ,  4-H ) :   1.0948 B(  3-C ,  5-H ) :   0.9335 B(  3-C ,  6-H ) :   0.8455
B(  3-C ,  7-C ) :   0.1120 B(  3-C , 11-C ) :   0.1008 B(  7-C ,  8-H ) :   1.0795
B(  7-C ,  9-H ) :   0.9299 B(  7-C , 10-H ) :   0.8074 B( 11-C , 12-H ) :   1.0742
B( 11-C , 13-H ) :   0.9162 B( 11-C , 14-H ) :   0.9100 B( 15-C , 16-H ) :   0.8709
B( 15-C , 17-H ) :   1.0080 B( 15-C , 18-H ) :   0.9552 B( 19-C , 20-H ) :   0.8714
B( 19-C , 21-H ) :   1.1344 B( 19-C , 22-H ) :   0.8821 B( 23-C , 24-H ) :   0.9083
B( 23-C , 25-H ) :   0.8320 B( 23-C , 26-H ) :   1.0912 B( 23-C , 51-Si) :  -0.1924
B( 27-C , 28-H ) :   0.8324 B( 27-C , 29-H ) :   1.1229 B( 27-C , 30-H ) :   0.9309
B( 31-C , 32-H ) :   1.0999 B( 31-C , 33-H ) :   0.8580 B( 31-C , 34-H ) :   0.9124
B( 31-C , 51-Si) :  -0.3710 B( 35-C , 36-H ) :   1.1493 B( 35-C , 37-H ) :   0.9560
B( 35-C , 38-H ) :   0.8195 B( 39-C , 40-C ) :   0.6498 B( 39-C , 41-C ) :   0.1839
B( 39-C , 46-H ) :  -0.1681 B( 39-C , 51-Si) :   0.2289 B( 39-C , 52-H ) :   1.0913
B( 40-C , 42-C ) :   0.5172 B( 40-C , 43-H ) :   1.3126 B( 40-C , 47-H ) :  -0.1353
B( 40-C , 48-H ) :  -0.1354 B( 40-C , 51-Si) :   0.3512 B( 40-C , 52-H ) :  -0.2751
B( 41-C , 42-C ) :  -0.1287 B( 41-C , 44-C ) :   0.8788 B( 41-C , 45-H ) :   0.8626
B( 41-C , 46-H ) :   1.2151 B( 42-C , 44-C ) :   1.0476 B( 42-C , 47-H ) :   0.9838
B( 42-C , 48-H ) :   1.0628 B( 44-C , 49-H ) :   1.0206 B( 44-C , 50-H ) :   0.9616
B( 51-Si, 52-H ) :  -0.1587

MP2 TOTAL ENERGY:    -1709.780853108 Eh
FINAL SINGLE POINT ENERGY     -1709.780853107785

DIPOLE MOMENT
-------------
                                X             Y             Z
Electronic contribution:      1.11798       0.75084      -2.85688
Nuclear contribution   :     -1.04006      -0.80596       2.77899
                        -----------------------------------------
Total Dipole Moment    :      0.07793      -0.05513      -0.07790
                        -----------------------------------------
Magnitude (a.u.)       :      0.12320
Magnitude (Debye)      :      0.31316

Rotational constants in cm-1:     0.009725     0.008617     0.007900
Rotational constants in MHz :   291.544296   258.343473   236.836977

                             ****ORCA TERMINATED NORMALLY****
TOTAL RUN TIME: 0 days 21 hours 31 minutes 22 seconds 845 msec
