                         Program Version 4.2.1 -  RELEASE  -
|  1> %pal
|  2>  nprocs 32
|  3> end
|  4> !RI-MP2 aug-cc-pVQZ aug-cc-pVQZ/C TightSCF
|  5> %maxcore 4500
|  6> *xyzfile 0 1  10_53TS.xyz
|  7>
|  8>
|  9>                          ****END OF INPUT****

CARTESIAN COORDINATES (ANGSTROEM)
---------------------------------
  C      0.258597    1.184225    1.312044
  N     -0.379053   -0.068631    0.945732
  C      0.257835   -1.306550    1.349720
  C      1.255583   -1.871292    0.336684
  C      2.523086   -1.070766    0.241916
  C      3.002194    1.006159   -0.289139
  C      1.651050    1.384562   -0.864168
  C      0.702244    2.049792    0.131694
  C      3.405490   -1.107319   -0.868659
  C      3.928181    0.155031   -0.955548
  H      3.411400    1.833425    0.306221
  H      2.962119   -0.797317    1.193054
  C     -1.623129   -0.083864    0.336514
  C     -2.144952   -1.258642   -0.232355
  C     -3.398269   -1.271721   -0.821765
  C     -4.175979   -0.124329   -0.881034
  C     -3.667862    1.043981   -0.331756
  C     -2.418371    1.072370    0.265245
  H     -0.401709    1.774976    1.959577
  H      1.128989    0.931860    1.916647
  H      0.775808   -1.129584    2.297778
  H     -0.515162   -2.046536    1.562108
  H      0.776791   -1.947917   -0.642620
  H      1.515083   -2.894249    0.646432
  H      1.834626    2.121460   -1.658094
  H      1.170299    0.532729   -1.346220
  H      1.180316    2.945340    0.545297
  H     -0.173951    2.398918   -0.418078
  H      3.556732   -1.960288   -1.524724
  H      4.901078    0.457344   -1.333427
  H     -1.563401   -2.169474   -0.232527
  H     -3.764899   -2.197441   -1.250346
  H     -5.152205   -0.139153   -1.348183
  H     -4.253946    1.955460   -0.360938
  H     -2.068784    2.001048    0.691556

 Total Charge           Charge          ....    0
 Multiplicity           Mult            ....    1
 Number of Electrons    NEL             ....  116
 Basis Dimension        Dim             .... 2154

ORBITAL ENERGIES
----------------

  NO   OCC          E(Eh)            E(eV)
   0   2.0000     -15.558384      -423.3651
   1   2.0000     -11.274241      -306.7877
   2   2.0000     -11.260400      -306.4111
   3   2.0000     -11.254697      -306.2559
   4   2.0000     -11.248176      -306.0784
   5   2.0000     -11.246122      -306.0225
   6   2.0000     -11.227578      -305.5179
   7   2.0000     -11.227437      -305.5141
   8   2.0000     -11.225015      -305.4482
   9   2.0000     -11.222396      -305.3769
  10   2.0000     -11.221628      -305.3560
  11   2.0000     -11.220068      -305.3136
  12   2.0000     -11.216828      -305.2254
  13   2.0000     -11.215165      -305.1802
  14   2.0000     -11.214433      -305.1602
  15   2.0000     -11.210151      -305.0437
  16   2.0000      -1.258489       -34.2452
  17   2.0000      -1.137958       -30.9654
  18   2.0000      -1.127770       -30.6882
  19   2.0000      -1.073145       -29.2018
  20   2.0000      -1.034108       -28.1395
  21   2.0000      -1.009318       -27.4649
  22   2.0000      -0.989114       -26.9152
  23   2.0000      -0.969647       -26.3854
  24   2.0000      -0.890340       -24.2274
  25   2.0000      -0.868074       -23.6215
  26   2.0000      -0.830045       -22.5867
  27   2.0000      -0.817428       -22.2434
  28   2.0000      -0.786079       -21.3903
  29   2.0000      -0.767715       -20.8906
  30   2.0000      -0.718895       -19.5621
  31   2.0000      -0.701763       -19.0959
  32   2.0000      -0.669261       -18.2115
  33   2.0000      -0.657395       -17.8886
  34   2.0000      -0.648498       -17.6465
  35   2.0000      -0.634978       -17.2786
  36   2.0000      -0.612981       -16.6800
  37   2.0000      -0.605894       -16.4872
  38   2.0000      -0.596788       -16.2394
  39   2.0000      -0.592925       -16.1343
  40   2.0000      -0.575652       -15.6643
  41   2.0000      -0.572015       -15.5653
  42   2.0000      -0.547412       -14.8958
  43   2.0000      -0.543559       -14.7910
  44   2.0000      -0.537002       -14.6126
  45   2.0000      -0.516573       -14.0567
  46   2.0000      -0.506568       -13.7844
  47   2.0000      -0.503021       -13.6879
  48   2.0000      -0.496060       -13.4985
  49   2.0000      -0.485926       -13.2227
  50   2.0000      -0.480229       -13.0677
  51   2.0000      -0.471886       -12.8407
  52   2.0000      -0.468083       -12.7372
  53   2.0000      -0.400765       -10.9054
  54   2.0000      -0.339868        -9.2483
  55   2.0000      -0.332873        -9.0579
  56   2.0000      -0.299432        -8.1480
  57   2.0000      -0.276650        -7.5280
  58   0.0000       0.022638         0.6160
  59   0.0000       0.025288         0.6881
  60   0.0000       0.026712         0.7269
  61   0.0000       0.027852         0.7579
  62   0.0000       0.035275         0.9599

MULLIKEN ATOMIC CHARGES
-----------------------
   0 C :   -0.493730
   1 N :    0.278973
   2 C :   -0.649404
   3 C :   -0.300590
   4 C :    0.239988
   5 C :   -0.470849
   6 C :   -0.412383
   7 C :   -0.449765
   8 C :   -0.909706
   9 C :   -0.447351
  10 H :    0.199131
  11 H :    0.284883
  12 C :    1.382984
  13 C :   -0.530071
  14 C :   -0.561379
  15 C :   -0.499102
  16 C :   -0.471513
  17 C :   -0.471030
  18 H :    0.147338
  19 H :    0.237034
  20 H :    0.299654
  21 H :    0.214267
  22 H :    0.190934
  23 H :    0.280127
  24 H :    0.279050
  25 H :    0.227381
  26 H :    0.314755
  27 H :    0.262089
  28 H :    0.337537
  29 H :    0.415706
  30 H :    0.207488
  31 H :    0.182681
  32 H :    0.337054
  33 H :    0.183088
  34 H :    0.164729
Sum of atomic charges:    0.0000000

LOEWDIN ATOMIC CHARGES
----------------------
   0 C :    0.384899
   1 N :    0.511650
   2 C :    0.376798
   3 C :    0.549997
   4 C :    0.293396
   5 C :    0.304979
   6 C :    0.512733
   7 C :    0.547787
   8 C :    0.349546
   9 C :    0.350049
  10 H :   -0.273905
  11 H :   -0.309594
  12 C :   -0.205710
  13 C :    0.350322
  14 C :    0.340776
  15 C :    0.333219
  16 C :    0.342770
  17 C :    0.347931
  18 H :   -0.271963
  19 H :   -0.309753
  20 H :   -0.281558
  21 H :   -0.306162
  22 H :   -0.288367
  23 H :   -0.256390
  24 H :   -0.263909
  25 H :   -0.300578
  26 H :   -0.259889
  27 H :   -0.294380
  28 H :   -0.286882
  29 H :   -0.295575
  30 H :   -0.359443
  31 H :   -0.317574
  32 H :   -0.331567
  33 H :   -0.316630
  34 H :   -0.367022

  Mayer bond orders larger than 0.100000
B(  0-C ,  1-N ) :   0.8117 B(  0-C ,  7-C ) :   0.8267 B(  0-C , 12-C ) :  -0.1618
B(  0-C , 18-H ) :   1.0601 B(  0-C , 19-H ) :   0.9950 B(  1-N ,  2-C ) :   0.8340
B(  1-N ,  3-C ) :  -0.2309 B(  1-N ,  7-C ) :  -0.1789 B(  1-N , 12-C ) :   0.8327
B(  1-N , 17-C ) :  -0.2069 B(  2-C ,  3-C ) :   1.0001 B(  2-C , 20-H ) :   0.9282
B(  2-C , 21-H ) :   1.0353 B(  3-C ,  4-C ) :   0.6107 B(  3-C ,  8-C ) :  -0.2321
B(  3-C , 22-H ) :   0.9879 B(  3-C , 23-H ) :   0.9425 B(  4-C ,  5-C ) :   0.3956
B(  4-C ,  8-C ) :   0.9582 B(  4-C ,  9-C ) :  -0.4671 B(  4-C , 11-H ) :   0.9827
B(  4-C , 23-H ) :  -0.1412 B(  5-C ,  6-C ) :   0.9367 B(  5-C ,  7-C ) :  -0.1251
B(  5-C ,  9-C ) :   1.3730 B(  5-C , 10-H ) :   1.0349 B(  6-C ,  7-C ) :   0.7630
B(  6-C , 24-H ) :   0.9459 B(  6-C , 25-H ) :   0.9168 B(  7-C , 26-H ) :   0.8700
B(  7-C , 27-H ) :   0.9889 B(  8-C ,  9-C ) :   1.7414 B(  8-C , 28-H ) :   0.9449
B(  9-C , 29-H ) :   0.8501 B( 12-C , 13-C ) :   0.8479 B( 12-C , 14-C ) :  -0.5135
B( 12-C , 15-C ) :  -0.1909 B( 12-C , 16-C ) :  -0.4332 B( 12-C , 17-C ) :   0.8501
B( 13-C , 14-C ) :   1.2721 B( 13-C , 30-H ) :   1.0222 B( 13-C , 31-H ) :  -0.1748
B( 14-C , 15-C ) :   1.2448 B( 14-C , 17-C ) :   0.1586 B( 14-C , 31-H ) :   1.2263
B( 14-C , 32-H ) :  -0.1001 B( 15-C , 16-C ) :   1.1944 B( 15-C , 31-H ) :  -0.1219
B( 15-C , 32-H ) :   1.0246 B( 15-C , 33-H ) :  -0.1226 B( 16-C , 17-C ) :   1.2819
B( 16-C , 33-H ) :   1.2414 B( 17-C , 32-H ) :  -0.1124 B( 17-C , 33-H ) :  -0.1825
B( 17-C , 34-H ) :   1.0639

MP2 TOTAL ENERGY:     -636.504947478 Eh
FINAL SINGLE POINT ENERGY      -636.504947477550

DIPOLE MOMENT
-------------
                                X             Y             Z
Electronic contribution:     -4.99764      -1.69189      -0.71171
Nuclear contribution   :      5.42993       1.70568       1.03050
                        -----------------------------------------
Total Dipole Moment    :      0.43228       0.01379       0.31879
                        -----------------------------------------
Magnitude (a.u.)       :      0.53730
Magnitude (Debye)      :      1.36570

Rotational constants in cm-1:     0.036151     0.011147     0.009923
Rotational constants in MHz :  1083.769216   334.166681   297.498062

                             ****ORCA TERMINATED NORMALLY****
TOTAL RUN TIME: 0 days 4 hours 31 minutes 24 seconds 376 msec
