                         Program Version 4.2.1 -  RELEASE  -
|  1> %pal
|  2>  nprocs 32
|  3> end
|  4> !RI-MP2 aug-cc-pVQZ aug-cc-pVQZ/C TightSCF
|  5> %maxcore 4500
|  6> *xyzfile -1 1  09_23P.xyz
|  7>
|  8>
|  9>                          ****END OF INPUT****

CARTESIAN COORDINATES (ANGSTROEM)
---------------------------------
  C      3.881509   -0.600483    0.831477
  C      2.633189   -0.105875    0.103585
  H      3.609554   -1.256603    1.663301
  H      4.457247    0.236650    1.239527
  H      4.539051   -1.162793    0.157375
  C      3.060331    0.809150   -1.048928
  H      3.611853    1.674511   -0.668493
  H      2.196764    1.187782   -1.597243
  H      3.707735    0.274722   -1.753686
  C      1.788208   -1.268802   -0.431986
  C      0.374711   -0.719018   -0.588999
  H      1.772337   -2.071789    0.317835
  H      2.204515   -1.700011   -1.353652
  C     -0.670015   -1.842743   -0.759127
  C     -2.044944   -1.335149   -0.390155
  H     -0.407121   -2.681730   -0.102901
  H     -0.629657   -2.234172   -1.784059
  C     -2.688841   -1.959852    0.814778
  H     -2.835943   -3.035083    0.654653
  H     -3.658584   -1.514035    1.039777
  H     -2.052504   -1.854733    1.699955
  C     -2.456940   -0.193551   -0.936051
  C     -3.206116    0.867645   -0.207313
  C     -2.172503    1.399409    0.896501
  H     -4.126037    0.520662    0.279858
  H     -3.482149    1.683028   -0.881979
  C     -0.711240    1.499602    0.560841
  H     -2.294495    0.730838    1.758727
  H     -2.562930    2.382009    1.211507
  C      0.167859    0.261730    0.652113
  C     -0.413403    2.404512   -0.596957
  H     -0.978518    3.343547   -0.515176
  H     -0.658568    2.008792   -1.626091
  H      0.647281    2.685820   -0.655258
  C      1.644022    0.622983    1.041492
  H      1.826107    0.331295    2.081104
  H      1.773349    1.704861    1.000390
  H      0.337520   -0.101482   -1.492679
  H     -0.235618   -0.363863    1.460093
  H     -1.876165    0.174440   -1.780520

 Total Charge           Charge          ....   -1
 Multiplicity           Mult            ....    1
 Number of Electrons    NEL             ....  116
 Basis Dimension        Dim             .... 2350

ORBITAL ENERGIES
----------------

  NO   OCC          E(Eh)            E(eV)
   0   2.0000     -11.098707      -302.0112
   1   2.0000     -11.096159      -301.9418
   2   2.0000     -11.094273      -301.8905
   3   2.0000     -11.089256      -301.7540
   4   2.0000     -11.087295      -301.7006
   5   2.0000     -11.081985      -301.5561
   6   2.0000     -11.081174      -301.5341
   7   2.0000     -11.068700      -301.1946
   8   2.0000     -11.068035      -301.1765
   9   2.0000     -11.065293      -301.1019
  10   2.0000     -11.055897      -300.8463
  11   2.0000     -11.054496      -300.8081
  12   2.0000     -11.047095      -300.6067
  13   2.0000     -11.036156      -300.3091
  14   2.0000     -10.962254      -298.2981
  15   2.0000      -1.004316       -27.3288
  16   2.0000      -0.970143       -26.3989
  17   2.0000      -0.898029       -24.4366
  18   2.0000      -0.887594       -24.1527
  19   2.0000      -0.835418       -22.7329
  20   2.0000      -0.813314       -22.1314
  21   2.0000      -0.804364       -21.8879
  22   2.0000      -0.796137       -21.6640
  23   2.0000      -0.754625       -20.5344
  24   2.0000      -0.715724       -19.4758
  25   2.0000      -0.694461       -18.8973
  26   2.0000      -0.621216       -16.9042
  27   2.0000      -0.594208       -16.1692
  28   2.0000      -0.569254       -15.4902
  29   2.0000      -0.528995       -14.3947
  30   2.0000      -0.503792       -13.7089
  31   2.0000      -0.498368       -13.5613
  32   2.0000      -0.486010       -13.2250
  33   2.0000      -0.474842       -12.9211
  34   2.0000      -0.461628       -12.5615
  35   2.0000      -0.456325       -12.4172
  36   2.0000      -0.442625       -12.0444
  37   2.0000      -0.432200       -11.7608
  38   2.0000      -0.416089       -11.3223
  39   2.0000      -0.413173       -11.2430
  40   2.0000      -0.402566       -10.9544
  41   2.0000      -0.397527       -10.8172
  42   2.0000      -0.385583       -10.4922
  43   2.0000      -0.382244       -10.4014
  44   2.0000      -0.371107       -10.0983
  45   2.0000      -0.361887        -9.8474
  46   2.0000      -0.355773        -9.6811
  47   2.0000      -0.333677        -9.0798
  48   2.0000      -0.322761        -8.7828
  49   2.0000      -0.316572        -8.6144
  50   2.0000      -0.310038        -8.4366
  51   2.0000      -0.305510        -8.3134
  52   2.0000      -0.299913        -8.1611
  53   2.0000      -0.285799        -7.7770
  54   2.0000      -0.261143        -7.1061
  55   2.0000      -0.256031        -6.9670
  56   2.0000      -0.176067        -4.7910
  57   2.0000      -0.027311        -0.7432
  58   0.0000       0.089880         2.4458
  59   0.0000       0.094985         2.5847
  60   0.0000       0.099194         2.6992
  61   0.0000       0.102348         2.7850
  62   0.0000       0.107112         2.9147

MULLIKEN ATOMIC CHARGES
-----------------------
   0 C :   -1.252770
   1 C :    1.457977
   2 H :    0.189330
   3 H :    0.187872
   4 H :    0.214087
   5 C :   -1.356668
   6 H :    0.117810
   7 H :    0.200451
   8 H :    0.129251
   9 C :   -0.795916
  10 C :    1.732131
  11 H :    0.037213
  12 H :    0.229375
  13 C :   -0.789066
  14 C :    0.598741
  15 H :    0.136437
  16 H :    0.197253
  17 C :   -1.061547
  18 H :    0.233766
  19 H :    0.235759
  20 H :    0.204962
  21 C :   -0.575858
  22 C :   -0.782681
  23 C :   -0.588234
  24 H :    0.122562
  25 H :    0.110812
  26 C :   -0.388826
  27 H :    0.097841
  28 H :    0.204939
  29 C :    0.817077
  30 C :   -1.299411
  31 H :    0.189319
  32 H :    0.015959
  33 H :    0.338283
  34 C :   -1.179366
  35 H :    0.000493
  36 H :    0.166709
  37 H :    0.142246
  38 H :    0.526856
  39 H :    0.234832
Sum of atomic charges:   -1.0000000

LOEWDIN ATOMIC CHARGES
----------------------
   0 C :    0.905542
   1 C :   -0.267369
   2 H :   -0.282969
   3 H :   -0.272108
   4 H :   -0.273092
   5 C :    0.912757
   6 H :   -0.266131
   7 H :   -0.297741
   8 H :   -0.267672
   9 C :    0.506949
  10 C :    0.154265
  11 H :   -0.271113
  12 H :   -0.236385
  13 C :    0.512609
  14 C :   -0.023929
  15 H :   -0.301003
  16 H :   -0.255179
  17 C :    0.897921
  18 H :   -0.280713
  19 H :   -0.315340
  20 H :   -0.283294
  21 C :    0.339738
  22 C :    0.508881
  23 C :    0.435229
  24 H :   -0.302698
  25 H :   -0.292337
  26 C :    0.010469
  27 H :   -0.330733
  28 H :   -0.306692
  29 C :    0.141063
  30 C :    0.780323
  31 H :   -0.307910
  32 H :   -0.293197
  33 H :   -0.333662
  34 C :    0.524977
  35 H :   -0.264258
  36 H :   -0.314246
  37 H :   -0.315986
  38 H :   -0.325524
  39 H :   -0.349440

  Mayer bond orders larger than 0.100000
B(  0-C ,  2-H ) :   1.1597 B(  0-C ,  3-H ) :   1.1770 B(  0-C ,  4-H ) :   1.1257
B(  0-C ,  5-C ) :   0.2029 B(  1-C ,  2-H ) :  -0.2014 B(  1-C ,  3-H ) :  -0.2383
B(  1-C ,  4-H ) :  -0.1858 B(  1-C ,  6-H ) :  -0.2549 B(  1-C ,  7-H ) :  -0.1591
B(  1-C ,  8-H ) :  -0.2320 B(  1-C ,  9-C ) :   0.6962 B(  1-C , 26-C ) :   0.1963
B(  1-C , 29-C ) :   0.1953 B(  1-C , 34-C ) :   0.4902 B(  5-C ,  6-H ) :   1.2859
B(  5-C ,  7-H ) :   1.1361 B(  5-C ,  8-H ) :   1.2542 B(  9-C , 10-C ) :   0.3302
B(  9-C , 11-H ) :   1.2565 B(  9-C , 12-H ) :   1.1108 B(  9-C , 13-C ) :   0.1363
B(  9-C , 37-H ) :  -0.1280 B( 10-C , 11-H ) :  -0.1507 B( 10-C , 12-H ) :  -0.1646
B( 10-C , 13-C ) :  -0.2755 B( 10-C , 14-C ) :  -0.2549 B( 10-C , 15-H ) :  -0.1568
B( 10-C , 16-H ) :  -0.2336 B( 10-C , 26-C ) :  -0.3380 B( 10-C , 29-C ) :   0.6768
B( 10-C , 30-C ) :  -0.1160 B( 10-C , 32-H ) :  -0.1125 B( 10-C , 34-C ) :  -0.1319
B( 10-C , 37-H ) :   1.0765 B( 13-C , 14-C ) :   0.6228 B( 13-C , 15-H ) :   1.2050
B( 13-C , 16-H ) :   1.2881 B( 13-C , 21-C ) :  -0.1780 B( 14-C , 16-H ) :  -0.1376
B( 14-C , 17-C ) :   0.4262 B( 14-C , 18-H ) :  -0.1531 B( 14-C , 19-H ) :  -0.1917
B( 14-C , 21-C ) :   1.6166 B( 14-C , 22-C ) :  -0.3341 B( 14-C , 39-H ) :  -0.2211
B( 17-C , 18-H ) :   1.0769 B( 17-C , 19-H ) :   1.1114 B( 17-C , 20-H ) :   1.0188
B( 17-C , 21-C ) :   0.1423 B( 21-C , 22-C ) :   0.8675 B( 21-C , 25-H ) :  -0.2099
B( 21-C , 29-C ) :  -0.1069 B( 21-C , 39-H ) :   1.1043 B( 22-C , 23-C ) :   0.7420
B( 22-C , 24-H ) :   1.1963 B( 22-C , 25-H ) :   1.2163 B( 22-C , 39-H ) :  -0.1164
B( 23-C , 26-C ) :   0.6195 B( 23-C , 27-H ) :   1.1767 B( 23-C , 28-H ) :   1.0704
B( 23-C , 29-C ) :  -0.1256 B( 26-C , 28-H ) :  -0.1529 B( 26-C , 29-C ) :  -1.0361
B( 26-C , 30-C ) :   1.0761 B( 26-C , 31-H ) :  -0.1268 B( 26-C , 33-H ) :  -0.2158
B( 26-C , 34-C ) :   0.8655 B( 26-C , 35-H ) :   0.1516 B( 26-C , 36-H ) :   0.1037
B( 26-C , 38-H ) :  -0.4565 B( 29-C , 30-C ) :  -0.2516 B( 29-C , 34-C ) :   0.1864
B( 29-C , 35-H ) :  -0.2463 B( 29-C , 38-H ) :   1.1653 B( 30-C , 31-H ) :   1.0620
B( 30-C , 32-H ) :   1.0512 B( 30-C , 33-H ) :   1.0145 B( 34-C , 35-H ) :   1.3344
B( 34-C , 36-H ) :   1.2307 B( 34-C , 38-H ) :  -0.2755

MP2 TOTAL ENERGY:     -585.454363770 Eh
FINAL SINGLE POINT ENERGY      -585.454363769539

DIPOLE MOMENT
-------------
                                X             Y             Z
Electronic contribution:     -4.08653      -2.86802      -0.85159
Nuclear contribution   :      5.13749       1.01241       0.37058
                        -----------------------------------------
Total Dipole Moment    :      1.05096      -1.85561      -0.48101
                        -----------------------------------------
Magnitude (a.u.)       :      2.18613
Magnitude (Debye)      :      5.55671

Rotational constants in cm-1:     0.034279     0.014537     0.012171
Rotational constants in MHz :  1027.660517   435.804319   364.878417

                             ****ORCA TERMINATED NORMALLY****
TOTAL RUN TIME: 0 days 7 hours 45 minutes 10 seconds 958 msec
