                         Program Version 4.2.1 -  RELEASE  -
|  1> %pal
|  2>  nprocs 32
|  3> end
|  4> !RI-MP2 aug-cc-pVQZ aug-cc-pVQZ/C TightSCF
|  5> %maxcore 4500
|  6> *xyzfile 0 1  10_18R2.xyz
|  7>
|  8>
|  9>                          ****END OF INPUT****

CARTESIAN COORDINATES (ANGSTROEM)
---------------------------------
  C      3.992539    1.160078    0.424717
  C      2.648903    1.285796    0.108967
  C      1.867672    0.170146   -0.211198
  C      2.500098   -1.078605   -0.227916
  C      3.840714   -1.206671    0.097987
  C      4.597336   -0.089499    0.428543
  H      4.570223    2.043362    0.671297
  H      2.185615    2.266465    0.117626
  H      1.943153   -1.959868   -0.522487
  H      4.303848   -2.186452    0.076833
  H      5.647309   -0.191044    0.674041
  C      0.446316    0.353697   -0.512978
  C     -0.472581   -0.622364   -0.440968
  C     -2.410076    0.696582   -1.161466
  C     -2.722489   -1.442359   -0.070532
  C     -2.907668    1.458723    0.067556
  H     -3.256687    0.475569   -1.821088
  H     -1.697193    1.278770   -1.743990
  C     -3.250985   -0.771932    1.198639
  H     -3.557743   -1.682171   -0.738085
  H     -2.211538   -2.378650    0.160699
  C     -3.875381    0.585780    0.870127
  H     -3.393525    2.388053   -0.241634
  H     -2.051292    1.731667    0.691542
  H     -3.981026   -1.423648    1.686620
  H     -2.419429   -0.635588    1.898082
  H     -4.179478    1.096245    1.786950
  H     -4.787645    0.428008    0.281848
  N     -1.802629   -0.571896   -0.791245
  H     -0.172126   -1.604950   -0.089239
  H      0.149539    1.361265   -0.779160

 Total Charge           Charge          ....    0
 Multiplicity           Mult            ....    1
 Number of Electrons    NEL             ....  102
 Basis Dimension        Dim             .... 1902

ORBITAL ENERGIES
----------------

  NO   OCC          E(Eh)            E(eV)
   0   2.0000     -15.564592      -423.5341
   1   2.0000     -11.266082      -306.5657
   2   2.0000     -11.259196      -306.3783
   3   2.0000     -11.254526      -306.2512
   4   2.0000     -11.234204      -305.6982
   5   2.0000     -11.223887      -305.4175
   6   2.0000     -11.223416      -305.4047
   7   2.0000     -11.222998      -305.3933
   8   2.0000     -11.222727      -305.3859
   9   2.0000     -11.221144      -305.3429
  10   2.0000     -11.217161      -305.2345
  11   2.0000     -11.216742      -305.2231
  12   2.0000     -11.216581      -305.2187
  13   2.0000     -11.204441      -304.8883
  14   2.0000      -1.263331       -34.3770
  15   2.0000      -1.147423       -31.2230
  16   2.0000      -1.086096       -29.5542
  17   2.0000      -1.048049       -28.5189
  18   2.0000      -1.027249       -27.9529
  19   2.0000      -1.004692       -27.3391
  20   2.0000      -0.976674       -26.5767
  21   2.0000      -0.893481       -24.3129
  22   2.0000      -0.860845       -23.4248
  23   2.0000      -0.827597       -22.5201
  24   2.0000      -0.813459       -22.1353
  25   2.0000      -0.782973       -21.3058
  26   2.0000      -0.740683       -20.1550
  27   2.0000      -0.695842       -18.9348
  28   2.0000      -0.683226       -18.5915
  29   2.0000      -0.646765       -17.5994
  30   2.0000      -0.633139       -17.2286
  31   2.0000      -0.624781       -17.0012
  32   2.0000      -0.614829       -16.7303
  33   2.0000      -0.603035       -16.4094
  34   2.0000      -0.585770       -15.9396
  35   2.0000      -0.574586       -15.6353
  36   2.0000      -0.565726       -15.3942
  37   2.0000      -0.559657       -15.2290
  38   2.0000      -0.542213       -14.7544
  39   2.0000      -0.520200       -14.1554
  40   2.0000      -0.506984       -13.7957
  41   2.0000      -0.500638       -13.6231
  42   2.0000      -0.497854       -13.5473
  43   2.0000      -0.486749       -13.2451
  44   2.0000      -0.476382       -12.9630
  45   2.0000      -0.469612       -12.7788
  46   2.0000      -0.457109       -12.4386
  47   2.0000      -0.431531       -11.7425
  48   2.0000      -0.357304        -9.7227
  49   2.0000      -0.328661        -8.9433
  50   2.0000      -0.263701        -7.1757
  51   0.0000       0.021724         0.5912
  52   0.0000       0.025958         0.7064
  53   0.0000       0.027233         0.7410
  54   0.0000       0.030109         0.8193
  55   0.0000       0.035593         0.9685

MULLIKEN ATOMIC CHARGES
-----------------------
   0 C :   -0.282200
   1 C :   -0.560910
   2 C :    0.693516
   3 C :   -0.471688
   4 C :   -0.272697
   5 C :   -0.420615
   6 H :    0.232871
   7 H :    0.182531
   8 H :    0.248203
   9 H :    0.244331
  10 H :    0.351661
  11 C :   -0.274519
  12 C :    0.305988
  13 C :   -0.541914
  14 C :   -0.633244
  15 C :   -0.464105
  16 H :    0.246090
  17 H :    0.326843
  18 C :   -0.401391
  19 H :    0.242978
  20 H :    0.291092
  21 C :   -0.461356
  22 H :    0.319953
  23 H :    0.220664
  24 H :    0.296089
  25 H :    0.210226
  26 H :    0.245606
  27 H :    0.172711
  28 N :   -0.606150
  29 H :    0.264848
  30 H :    0.294587
Sum of atomic charges:   -0.0000000

LOEWDIN ATOMIC CHARGES
----------------------
   0 C :    0.333167
   1 C :    0.328160
   2 C :   -0.105031
   3 C :    0.328691
   4 C :    0.337183
   5 C :    0.328443
   6 H :   -0.322508
   7 H :   -0.323973
   8 H :   -0.337562
   9 H :   -0.321763
  10 H :   -0.327991
  11 C :    0.374562
  12 C :    0.222363
  13 C :    0.369986
  14 C :    0.379753
  15 C :    0.547427
  16 H :   -0.266868
  17 H :   -0.301610
  18 C :    0.548016
  19 H :   -0.265966
  20 H :   -0.283156
  21 C :    0.535522
  22 H :   -0.253352
  23 H :   -0.268764
  24 H :   -0.256625
  25 H :   -0.261459
  26 H :   -0.258026
  27 H :   -0.264846
  28 N :    0.503312
  29 H :   -0.348273
  30 H :   -0.368813

  Mayer bond orders larger than 0.100000
B(  0-C ,  1-C ) :   1.3060 B(  0-C ,  2-C ) :  -0.3891 B(  0-C ,  3-C ) :   0.1210
B(  0-C ,  5-C ) :   1.1839 B(  0-C ,  6-H ) :   1.1663 B(  1-C ,  2-C ) :   1.0168
B(  1-C ,  3-C ) :   0.1156 B(  1-C ,  4-C ) :   0.1521 B(  1-C ,  5-C ) :   0.1211
B(  1-C ,  6-H ) :  -0.1555 B(  1-C ,  7-H ) :   1.1031 B(  1-C , 11-C ) :  -0.4624
B(  2-C ,  3-C ) :   1.1011 B(  2-C ,  4-C ) :  -0.4112 B(  2-C ,  7-H ) :  -0.1132
B(  2-C , 11-C ) :   0.5810 B(  2-C , 12-C ) :  -0.6043 B(  2-C , 30-H ) :  -0.1083
B(  3-C ,  4-C ) :   1.2720 B(  3-C ,  8-H ) :   1.0073 B(  3-C ,  9-H ) :  -0.1403
B(  3-C , 11-C ) :  -0.2928 B(  3-C , 12-C ) :  -0.1700 B(  4-C ,  5-C ) :   1.1544
B(  4-C ,  9-H ) :   1.1286 B(  5-C ,  6-H ) :  -0.1091 B(  5-C , 10-H ) :   0.9660
B( 11-C , 12-C ) :   1.5578 B( 11-C , 28-N ) :  -0.1339 B( 11-C , 30-H ) :   0.9227
B( 12-C , 28-N ) :   1.1964 B( 12-C , 29-H ) :   0.9219 B( 13-C , 15-C ) :   0.9506
B( 13-C , 16-H ) :   0.9692 B( 13-C , 17-H ) :   0.9337 B( 13-C , 28-N ) :   0.9109
B( 14-C , 18-C ) :   1.0114 B( 14-C , 19-H ) :   0.9602 B( 14-C , 20-H ) :   0.9489
B( 14-C , 28-N ) :   0.9442 B( 15-C , 21-C ) :   0.8783 B( 15-C , 22-H ) :   0.8696
B( 15-C , 23-H ) :   0.9338 B( 18-C , 21-C ) :   0.8755 B( 18-C , 24-H ) :   0.8944
B( 18-C , 25-H ) :   0.9239 B( 21-C , 26-H ) :   0.9314 B( 21-C , 27-H ) :   0.9911

MP2 TOTAL ENERGY:     -559.330455178 Eh
FINAL SINGLE POINT ENERGY      -559.330455178476

DIPOLE MOMENT
-------------
                                X             Y             Z
Electronic contribution:     12.19452      -1.08980      -1.96936
Nuclear contribution   :    -13.21362       1.02660       2.15329
                        -----------------------------------------
Total Dipole Moment    :     -1.01910      -0.06320       0.18393
                        -----------------------------------------
Magnitude (a.u.)       :      1.03749
Magnitude (Debye)      :      2.63709

Rotational constants in cm-1:     0.061575     0.009840     0.009245
Rotational constants in MHz :  1845.971969   294.987989   277.169397

                             ****ORCA TERMINATED NORMALLY****
TOTAL RUN TIME: 0 days 3 hours 2 minutes 54 seconds 663 msec
