                         Program Version 4.2.1 -  RELEASE  -
|  1> %pal
|  2>  nprocs 32
|  3> end
|  4> !RI-MP2 aug-cc-pVQZ aug-cc-pVQZ/C TightSCF
|  5> %maxcore 4500
|  6> *xyzfile 0 1  10_39R.xyz
|  7>
|  8>
|  9>                          ****END OF INPUT****

CARTESIAN COORDINATES (ANGSTROEM)
---------------------------------
  C     -0.222163   -2.609910    0.138800
  H     -0.690425   -3.406971   -0.464867
  C      0.915078   -1.997668   -0.648414
  C     -0.234463    0.220544   -0.710299
  H     -0.328244    1.022128    0.023989
  H     -0.217929    0.696733   -1.692699
  C     -1.458502   -0.697913   -0.578331
  H     -1.572548   -1.280648   -1.511346
  N     -1.193898   -1.605534    0.534446
  C      2.225854    0.067556   -0.203581
  C      1.668442   -2.724965   -1.467282
  C      3.472206   -0.646865    0.082743
  C      4.693367   -0.117189    0.094719
  C      1.060124   -0.534977   -0.503243
  C      5.939253   -0.884790    0.397509
  H      6.648622   -0.828467   -0.433645
  H      6.448866   -0.475538    1.275159
  H      5.722531   -1.936883    0.590807
  C     -2.375968   -2.200140    1.123493
  H     -2.953643   -2.777045    0.377936
  H     -2.053732   -2.903019    1.895544
  C     -2.723817    0.114117   -0.401217
  C     -3.564253   -0.062746    0.696195
  C     -3.245290   -1.113511    1.725615
  H     -2.712455   -0.662119    2.568131
  H     -4.170790   -1.542849    2.117207
  H      0.175338   -3.076568    1.045907
  C     -4.708131    0.725113    0.813424
  H     -5.361132    0.579123    1.667469
  C     -3.057539    1.062605   -1.367934
  H     -2.416071    1.193236   -2.231887
  C     -5.024168    1.676071   -0.140646
  H     -5.917880    2.278846   -0.033215
  C     -4.194180    1.841668   -1.242871
  H     -4.434533    2.574231   -2.003772
  C      2.236091    1.561805   -0.140998
  O      1.824289    2.292876   -1.005523
  O      2.744095    2.021021    1.011630
  C      2.782069    3.443133    1.150273
  H      3.223867    3.630106    2.125409
  H      1.775763    3.858584    1.098583
  H      3.388620    3.887821    0.361025
  H      2.475767   -2.281416   -2.035145
  H      1.486777   -3.785780   -1.602126
  H      4.823653    0.939936   -0.119320
  H      3.365737   -1.707505    0.283130

 Total Charge           Charge          ....    0
 Multiplicity           Mult            ....    1
 Number of Electrons    NEL             ....  166
 Basis Dimension        Dim             .... 2898

ORBITAL ENERGIES
----------------

  NO   OCC          E(Eh)            E(eV)
   0   2.0000     -20.594083      -560.3935
   1   2.0000     -20.535285      -558.7935
   2   2.0000     -15.548980      -423.1093
   3   2.0000     -11.372142      -309.4517
   4   2.0000     -11.279615      -306.9339
   5   2.0000     -11.262370      -306.4647
   6   2.0000     -11.259146      -306.3770
   7   2.0000     -11.253428      -306.2213
   8   2.0000     -11.251627      -306.1723
   9   2.0000     -11.246149      -306.0233
  10   2.0000     -11.240969      -305.8823
  11   2.0000     -11.234797      -305.7144
  12   2.0000     -11.233569      -305.6809
  13   2.0000     -11.227975      -305.5287
  14   2.0000     -11.227575      -305.5178
  15   2.0000     -11.227296      -305.5103
  16   2.0000     -11.226237      -305.4814
  17   2.0000     -11.225797      -305.4695
  18   2.0000     -11.225784      -305.4691
  19   2.0000     -11.224968      -305.4469
  20   2.0000     -11.224434      -305.4324
  21   2.0000     -11.224101      -305.4233
  22   2.0000     -11.219637      -305.3018
  23   2.0000      -1.458940       -39.6998
  24   2.0000      -1.354181       -36.8491
  25   2.0000      -1.258406       -34.2430
  26   2.0000      -1.157852       -31.5068
  27   2.0000      -1.138240       -30.9731
  28   2.0000      -1.085033       -29.5253
  29   2.0000      -1.065736       -29.0001
  30   2.0000      -1.056037       -28.7362
  31   2.0000      -1.029641       -28.0180
  32   2.0000      -1.001676       -27.2570
  33   2.0000      -0.981049       -26.6957
  34   2.0000      -0.958832       -26.0911
  35   2.0000      -0.934118       -25.4186
  36   2.0000      -0.906436       -24.6654
  37   2.0000      -0.861198       -23.4344
  38   2.0000      -0.845003       -22.9937
  39   2.0000      -0.833901       -22.6916
  40   2.0000      -0.811182       -22.0734
  41   2.0000      -0.782057       -21.2809
  42   2.0000      -0.759392       -20.6641
  43   2.0000      -0.751170       -20.4404
  44   2.0000      -0.714851       -19.4521
  45   2.0000      -0.695567       -18.9273
  46   2.0000      -0.686077       -18.6691
  47   2.0000      -0.672235       -18.2924
  48   2.0000      -0.668341       -18.1865
  49   2.0000      -0.664003       -18.0684
  50   2.0000      -0.651911       -17.7394
  51   2.0000      -0.644005       -17.5243
  52   2.0000      -0.628955       -17.1147
  53   2.0000      -0.616272       -16.7696
  54   2.0000      -0.608564       -16.5599
  55   2.0000      -0.598061       -16.2741
  56   2.0000      -0.596560       -16.2332
  57   2.0000      -0.586270       -15.9532
  58   2.0000      -0.569465       -15.4959
  59   2.0000      -0.566657       -15.4195
  60   2.0000      -0.565749       -15.3948
  61   2.0000      -0.558486       -15.1972
  62   2.0000      -0.551626       -15.0105
  63   2.0000      -0.546510       -14.8713
  64   2.0000      -0.528954       -14.3936
  65   2.0000      -0.527764       -14.3612
  66   2.0000      -0.527327       -14.3493
  67   2.0000      -0.524723       -14.2784
  68   2.0000      -0.520870       -14.1736
  69   2.0000      -0.511811       -13.9271
  70   2.0000      -0.497359       -13.5338
  71   2.0000      -0.483818       -13.1654
  72   2.0000      -0.478447       -13.0192
  73   2.0000      -0.466110       -12.6835
  74   2.0000      -0.458177       -12.4676
  75   2.0000      -0.457028       -12.4364
  76   2.0000      -0.438891       -11.9428
  77   2.0000      -0.418652       -11.3921
  78   2.0000      -0.379249       -10.3199
  79   2.0000      -0.361167        -9.8279
  80   2.0000      -0.328242        -8.9319
  81   2.0000      -0.321313        -8.7434
  82   2.0000      -0.298624        -8.1260
  83   0.0000       0.020840         0.5671
  84   0.0000       0.023957         0.6519
  85   0.0000       0.025567         0.6957
  86   0.0000       0.028100         0.7646
  87   0.0000       0.032619         0.8876

MULLIKEN ATOMIC CHARGES
-----------------------
   0 C :   -0.267078
   1 H :    0.214831
   2 C :    0.082796
   3 C :    0.264633
   4 H :    0.219005
   5 H :    0.103609
   6 C :    1.520399
   7 H :    0.188843
   8 N :   -0.168793
   9 C :   -0.405377
  10 C :   -1.182441
  11 C :   -0.780902
  12 C :   -0.447159
  13 C :    0.508790
  14 C :   -0.811593
  15 H :    0.279066
  16 H :    0.245669
  17 H :    0.246481
  18 C :   -0.838216
  19 H :    0.265991
  20 H :    0.229104
  21 C :    0.560862
  22 C :    0.248128
  23 C :   -0.704957
  24 H :    0.217806
  25 H :    0.198619
  26 H :    0.355692
  27 C :   -0.692381
  28 H :    0.230355
  29 C :   -0.803465
  30 H :    0.109837
  31 C :   -0.411074
  32 H :    0.276183
  33 C :   -0.464511
  34 H :    0.209410
  35 C :    2.136484
  36 O :   -1.169600
  37 O :   -0.944247
  38 C :   -0.978972
  39 H :    0.438293
  40 H :    0.388961
  41 H :    0.379424
  42 H :    0.182614
  43 H :    0.219328
  44 H :    0.303145
  45 H :    0.246405
Sum of atomic charges:    0.0000000

LOEWDIN ATOMIC CHARGES
----------------------
   0 C :    0.332996
   1 H :   -0.269496
   2 C :   -0.058866
   3 C :    0.499177
   4 H :   -0.283723
   5 H :   -0.274467
   6 C :   -0.046548
   7 H :   -0.256557
   8 N :    0.530956
   9 C :   -0.102820
  10 C :    0.824277
  11 C :    0.335557
  12 C :    0.387004
  13 C :   -0.041706
  14 C :    0.901409
  15 H :   -0.292314
  16 H :   -0.291171
  17 H :   -0.312426
  18 C :    0.354732
  19 H :   -0.239761
  20 H :   -0.272354
  21 C :   -0.033280
  22 C :   -0.037929
  23 C :    0.525181
  24 H :   -0.254863
  25 H :   -0.274519
  26 H :   -0.264757
  27 C :    0.358826
  28 H :   -0.313010
  29 C :    0.362585
  30 H :   -0.311837
  31 C :    0.349979
  32 H :   -0.320445
  33 C :    0.358547
  34 H :   -0.318765
  35 C :   -1.143134
  36 O :    0.756089
  37 O :    0.855792
  38 C :    0.580263
  39 H :   -0.319809
  40 H :   -0.313000
  41 H :   -0.314220
  42 H :   -0.329104
  43 H :   -0.317391
  44 H :   -0.334301
  45 H :   -0.370798

  Mayer bond orders larger than 0.100000
B(  0-C ,  1-H ) :   1.0731 B(  0-C ,  2-C ) :   0.6359 B(  0-C ,  8-N ) :   1.0198
B(  0-C , 10-C ) :  -0.3492 B(  0-C , 13-C ) :  -0.1970 B(  0-C , 26-H ) :   0.8849
B(  2-C ,  3-C ) :  -0.1818 B(  2-C ,  6-C ) :  -0.1255 B(  2-C ,  9-C ) :  -0.3336
B(  2-C , 10-C ) :   1.6356 B(  2-C , 11-C ) :  -0.1253 B(  2-C , 13-C ) :   0.6800
B(  2-C , 42-H ) :  -0.1742 B(  2-C , 43-H ) :  -0.1457 B(  3-C ,  4-H ) :   0.9221
B(  3-C ,  5-H ) :   0.8772 B(  3-C ,  6-C ) :   0.8710 B(  3-C ,  9-C ) :  -0.5071
B(  3-C , 13-C ) :   0.3473 B(  3-C , 21-C ) :  -0.1629 B(  3-C , 29-C ) :   0.1172
B(  3-C , 36-O ) :  -0.2025 B(  4-H ,  9-C ) :   0.1104 B(  4-H , 36-O ) :   0.1082
B(  5-H , 13-C ) :   0.1198 B(  5-H , 36-O ) :   0.1254 B(  6-C ,  7-H ) :   0.9639
B(  6-C ,  8-N ) :   0.4325 B(  6-C , 13-C ) :  -0.1288 B(  6-C , 18-C ) :  -0.1509
B(  6-C , 22-C ) :  -0.4723 B(  6-C , 29-C ) :  -0.7488 B(  8-N ,  9-C ) :   0.1301
B(  8-N , 13-C ) :  -0.1598 B(  8-N , 18-C ) :   0.8039 B(  9-C , 10-C ) :   0.1530
B(  9-C , 11-C ) :   0.8733 B(  9-C , 12-C ) :  -0.4587 B(  9-C , 13-C ) :   1.4012
B(  9-C , 35-C ) :   1.5084 B(  9-C , 36-O ) :   0.3957 B(  9-C , 37-O ) :   0.2571
B( 10-C , 13-C ) :  -0.4274 B( 10-C , 42-H ) :   1.2379 B( 10-C , 43-H ) :   1.1380
B( 11-C , 12-C ) :   1.7203 B( 11-C , 13-C ) :  -0.2400 B( 11-C , 14-C ) :  -0.1583
B( 11-C , 17-H ) :   0.1121 B( 11-C , 35-C ) :  -0.2445 B( 11-C , 45-H ) :   0.8891
B( 12-C , 14-C ) :   0.7738 B( 12-C , 15-H ) :  -0.1473 B( 12-C , 17-H ) :  -0.1001
B( 12-C , 44-H ) :   0.8578 B( 13-C , 35-C ) :  -0.1023 B( 14-C , 15-H ) :   1.0073
B( 14-C , 16-H ) :   0.9978 B( 14-C , 17-H ) :   0.9903 B( 18-C , 19-H ) :   0.9558
B( 18-C , 20-H ) :   1.0111 B( 18-C , 23-C ) :   1.2189 B( 21-C , 22-C ) :   1.0469
B( 21-C , 23-C ) :  -0.1172 B( 21-C , 27-C ) :  -0.5537 B( 21-C , 29-C ) :   1.1069
B( 21-C , 30-H ) :  -0.1215 B( 21-C , 33-C ) :  -0.2746 B( 22-C , 23-C ) :   0.4303
B( 22-C , 25-H ) :  -0.1482 B( 22-C , 27-C ) :   1.0835 B( 22-C , 28-H ) :  -0.1071
B( 22-C , 29-C ) :  -0.1113 B( 22-C , 31-C ) :  -0.2834 B( 23-C , 24-H ) :   1.0197
B( 23-C , 25-H ) :   1.1322 B( 27-C , 28-H ) :   1.0617 B( 27-C , 29-C ) :   0.1909
B( 27-C , 31-C ) :   1.3047 B( 27-C , 32-H ) :  -0.1939 B( 27-C , 33-C ) :   0.1413
B( 29-C , 30-H ) :   1.2692 B( 29-C , 33-C ) :   1.2170 B( 29-C , 34-H ) :  -0.1878
B( 31-C , 32-H ) :   1.1275 B( 31-C , 33-C ) :   1.1936 B( 32-H , 33-C ) :  -0.1225
B( 33-C , 34-H ) :   1.2106 B( 35-C , 36-O ) :   0.4587 B( 35-C , 37-O ) :   0.4230
B( 35-C , 38-C ) :  -0.3036 B( 36-O , 37-O ) :   0.1578 B( 37-O , 38-C ) :   1.0918
B( 38-C , 39-H ) :   0.8446 B( 38-C , 40-H ) :   0.8745 B( 38-C , 41-H ) :   0.8740

MP2 TOTAL ENERGY:     -979.464016040 Eh
FINAL SINGLE POINT ENERGY      -979.464016039988

DIPOLE MOMENT
-------------
                                X             Y             Z
Electronic contribution:     -6.78934       5.39653      -2.79553
Nuclear contribution   :      6.82262      -5.99066       3.33063
                        -----------------------------------------
Total Dipole Moment    :      0.03328      -0.59413       0.53510
                        -----------------------------------------
Magnitude (a.u.)       :      0.80027
Magnitude (Debye)      :      2.03412

Rotational constants in cm-1:     0.014623     0.005224     0.004358
Rotational constants in MHz :   438.391621   156.623950   130.648141

                             ****ORCA TERMINATED NORMALLY****
TOTAL RUN TIME: 0 days 11 hours 18 minutes 11 seconds 395 msec
