                         Program Version 4.2.1 -  RELEASE  -
|  1> %pal
|  2>  nprocs 32
|  3> end
|  4> !RI-MP2 aug-cc-pVQZ aug-cc-pVQZ/C TightSCF
|  5> %maxcore 4500
|  6> *xyzfile 1 2  03_30P1.xyz
|  7>
|  8>
|  9>                          ****END OF INPUT****

CARTESIAN COORDINATES (ANGSTROEM)
---------------------------------
  N      1.502845    0.000028   -0.000016
  C      1.168661   -0.976009   -1.007585
  C     -0.407925   -1.069362   -0.960078
  C     -0.953289   -0.000009    0.000004
  C      1.168630    1.360603   -0.341483
  C     -0.407956    1.366143   -0.445996
  C     -2.479866   -0.000002   -0.000003
  H     -2.869926   -0.977879    0.287293
  C      1.168683   -0.384566    1.349027
  C     -0.407909   -0.296827    1.406122
  H      1.636304   -1.927777   -0.762371
  H      1.525117   -0.628135   -1.974870
  H     -0.699407   -2.066297   -0.628551
  H     -0.796791   -0.924138   -1.967999
  H      1.636226    1.624121   -1.288372
  H      1.525143    2.024372    0.443394
  H     -0.699489    1.577587   -1.475098
  H     -0.796796    2.166359    0.183819
  H     -2.869900    0.240137   -0.990527
  H     -2.869914    0.737755    0.703212
  H      1.636285    0.303717    2.050669
  H      1.525194   -1.396175    1.531419
  H     -0.699401    0.488695    2.103786
  H     -0.796732   -1.242362    1.784262

 Total Charge           Charge          ....    1
 Multiplicity           Mult            ....    2
 Number of Electrons    NEL             ....   69
 Basis Dimension        Dim             .... 1410

ORBITAL ENERGIES
----------------
                 SPIN UP ORBITALS
  NO   OCC          E(Eh)            E(eV)
   0   1.0000     -15.877209      -432.0408
   1   1.0000     -11.448518      -311.5300
   2   1.0000     -11.448517      -311.5300
   3   1.0000     -11.448493      -311.5293
   4   1.0000     -11.400725      -310.2295
   5   1.0000     -11.397270      -310.1355
   6   1.0000     -11.397270      -310.1355
   7   1.0000     -11.397177      -310.1329
   8   1.0000     -11.351427      -308.8880
   9   1.0000      -1.542636       -41.9773
  10   1.0000      -1.280236       -34.8370
  11   1.0000      -1.219243       -33.1773
  12   1.0000      -1.219240       -33.1772
  13   1.0000      -1.101817       -29.9820
  14   1.0000      -1.053918       -28.6786
  15   1.0000      -1.053913       -28.6784
  16   1.0000      -1.003659       -27.3109
  17   1.0000      -0.907231       -24.6870
  18   1.0000      -0.876037       -23.8382
  19   1.0000      -0.876035       -23.8381
  20   1.0000      -0.867291       -23.6002
  21   1.0000      -0.773246       -21.0411
  22   1.0000      -0.773243       -21.0410
  23   1.0000      -0.758980       -20.6529
  24   1.0000      -0.740691       -20.1552
  25   1.0000      -0.740687       -20.1551
  26   1.0000      -0.715020       -19.4567
  27   1.0000      -0.715016       -19.4566
  28   1.0000      -0.694220       -18.8907
  29   1.0000      -0.665109       -18.0985
  30   1.0000      -0.665105       -18.0984
  31   1.0000      -0.655055       -17.8250
  32   1.0000      -0.612314       -16.6619
  33   1.0000      -0.612310       -16.6618
  34   1.0000      -0.585511       -15.9326
  35   0.0000      -0.079723        -2.1694
  36   0.0000      -0.064838        -1.7643
  37   0.0000      -0.064838        -1.7643
  38   0.0000      -0.062015        -1.6875
  39   0.0000      -0.045829        -1.2471

                 SPIN DOWN ORBITALS
  NO   OCC          E(Eh)            E(eV)
   0   1.0000     -15.842333      -431.0918
   1   1.0000     -11.450791      -311.5919
   2   1.0000     -11.450790      -311.5918
   3   1.0000     -11.450762      -311.5911
   4   1.0000     -11.401288      -310.2448
   5   1.0000     -11.394762      -310.0672
   6   1.0000     -11.394762      -310.0672
   7   1.0000     -11.394699      -310.0655
   8   1.0000     -11.351214      -308.8822
   9   1.0000      -1.468898       -39.9707
  10   1.0000      -1.265511       -34.4363
  11   1.0000      -1.213226       -33.0136
  12   1.0000      -1.213223       -33.0135
  13   1.0000      -1.086379       -29.5619
  14   1.0000      -1.045940       -28.4615
  15   1.0000      -1.045934       -28.4613
  16   1.0000      -0.989906       -26.9367
  17   1.0000      -0.868865       -23.6430
  18   1.0000      -0.868863       -23.6430
  19   1.0000      -0.861781       -23.4502
  20   1.0000      -0.800031       -21.7700
  21   1.0000      -0.764847       -20.8125
  22   1.0000      -0.764844       -20.8125
  23   1.0000      -0.757706       -20.6182
  24   1.0000      -0.738165       -20.0865
  25   1.0000      -0.738161       -20.0864
  26   1.0000      -0.703709       -19.1489
  27   1.0000      -0.703704       -19.1488
  28   1.0000      -0.658027       -17.9058
  29   1.0000      -0.658023       -17.9057
  30   1.0000      -0.653450       -17.7813
  31   1.0000      -0.627732       -17.0815
  32   1.0000      -0.609674       -16.5901
  33   1.0000      -0.609669       -16.5899
  34   0.0000      -0.134179        -3.6512
  35   0.0000      -0.079270        -2.1571
  36   0.0000      -0.064775        -1.7626
  37   0.0000      -0.064775        -1.7626
  38   0.0000      -0.057970        -1.5774

MULLIKEN ATOMIC CHARGES AND SPIN POPULATIONS
--------------------------------------------
   0 N :   -0.306596    0.962910
   1 C :   -0.478721   -0.095619
   2 C :   -0.612083    0.088111
   3 C :    1.495998   -0.022412
   4 C :   -0.478570   -0.095694
   5 C :   -0.612050    0.088173
   6 C :   -1.053012    0.006310
   7 H :    0.214340   -0.002944
   8 C :   -0.478638   -0.095632
   9 C :   -0.611984    0.088088
  10 H :    0.341604    0.020618
  11 H :    0.300422    0.013944
  12 H :    0.262487   -0.003239
  13 H :    0.259691   -0.003155
  14 H :    0.341600    0.020646
  15 H :    0.300383    0.013956
  16 H :    0.262566   -0.003233
  17 H :    0.259757   -0.003153
  18 H :    0.214347   -0.002926
  19 H :    0.214212   -0.002934
  20 H :    0.341603    0.020636
  21 H :    0.300218    0.013936
  22 H :    0.262531   -0.003227
  23 H :    0.259896   -0.003159
Sum of atomic charges         :    1.0000000

LOEWDIN ATOMIC CHARGES AND SPIN POPULATIONS
-------------------------------------------
   0 N :    0.601844    0.549774
   1 C :    0.521529    0.087490
   2 C :    0.596031    0.032724
   3 C :   -0.278161    0.014019
   4 C :    0.521507    0.087496
   5 C :    0.596026    0.032726
   6 C :    0.963134    0.001763
   7 H :   -0.252860    0.000799
   8 C :    0.521520    0.087493
   9 C :    0.596032    0.032726
  10 H :   -0.239420    0.004229
  11 H :   -0.243786    0.001987
  12 H :   -0.238675    0.008314
  13 H :   -0.238415    0.009266
  14 H :   -0.239421    0.004231
  15 H :   -0.243780    0.001988
  16 H :   -0.238666    0.008315
  17 H :   -0.238422    0.009266
  18 H :   -0.252863    0.000799
  19 H :   -0.252860    0.000799
  20 H :   -0.239423    0.004230
  21 H :   -0.243778    0.001987
  22 H :   -0.238673    0.008315
  23 H :   -0.238419    0.009266

  Mayer bond orders larger than 0.100000
B(  0-N ,  1-C ) :   1.0097 B(  0-N ,  3-C ) :   0.1454 B(  0-N ,  4-C ) :   1.0097
B(  0-N ,  8-C ) :   1.0096 B(  1-C ,  2-C ) :   1.0787 B(  1-C ,  3-C ) :  -0.1931
B(  1-C , 10-H ) :   0.9003 B(  1-C , 11-H ) :   0.9217 B(  2-C ,  3-C ) :   0.5556
B(  2-C ,  6-C ) :   0.1147 B(  2-C , 12-H ) :   0.9654 B(  2-C , 13-H ) :   0.9756
B(  3-C ,  4-C ) :  -0.1930 B(  3-C ,  5-C ) :   0.5553 B(  3-C ,  7-H ) :  -0.2349
B(  3-C ,  8-C ) :  -0.1932 B(  3-C ,  9-C ) :   0.5552 B(  3-C , 18-H ) :  -0.2348
B(  3-C , 19-H ) :  -0.2348 B(  4-C ,  5-C ) :   1.0787 B(  4-C , 14-H ) :   0.9002
B(  4-C , 15-H ) :   0.9218 B(  5-C ,  6-C ) :   0.1147 B(  5-C , 16-H ) :   0.9654
B(  5-C , 17-H ) :   0.9755 B(  6-C ,  7-H ) :   1.1193 B(  6-C ,  9-C ) :   0.1146
B(  6-C , 18-H ) :   1.1192 B(  6-C , 19-H ) :   1.1194 B(  8-C ,  9-C ) :   1.0788
B(  8-C , 20-H ) :   0.9003 B(  8-C , 21-H ) :   0.9219 B(  9-C , 22-H ) :   0.9654
B(  9-C , 23-H ) :   0.9754

MP2 TOTAL ENERGY:     -367.661745643 Eh
FINAL SINGLE POINT ENERGY      -367.661745643104

DIPOLE MOMENT
-------------
                                X             Y             Z
Electronic contribution:      4.81876       0.00002      -0.00008
Nuclear contribution   :     -3.78522      -0.00002       0.00007
                        -----------------------------------------
Total Dipole Moment    :      1.03354       0.00000      -0.00001
                        -----------------------------------------
Magnitude (a.u.)       :      1.03354
Magnitude (Debye)      :      2.62705

Rotational constants in cm-1:     0.083104     0.053283     0.053282
Rotational constants in MHz :  2491.408492  1597.376861  1597.364817

                             ****ORCA TERMINATED NORMALLY****
TOTAL RUN TIME: 0 days 2 hours 12 minutes 5 seconds 996 msec
