                         Program Version 4.2.1 -  RELEASE  -
|  1> %pal
|  2>  nprocs 32
|  3> end
|  4> !RI-MP2 aug-cc-pVQZ aug-cc-pVQZ/C TightSCF
|  5> %maxcore 4500
|  6> *xyzfile 0 1  02_5R.xyz
|  7>
|  8>
|  9>                          ****END OF INPUT****

CARTESIAN COORDINATES (ANGSTROEM)
---------------------------------
  C      1.776438   -1.483908   -0.592522
  C      2.734509   -0.405059   -1.124411
  C      2.851995    0.594310    0.031071
  C      1.484944    0.584438    0.678001
  C      0.823798   -0.703007    0.289016
  H      1.264097   -2.036835   -1.379532
  H      2.326160   -2.209309    0.016406
  H      2.285154    0.086596   -1.991271
  H      3.695554   -0.814942   -1.436115
  H      3.582770    0.243065    0.767982
  H      3.140398    1.601732   -0.264928
  C     -0.386141   -1.028071    0.644043
  C     -1.600732   -1.292572    1.024177
  C     -2.854049   -0.909900    0.279038
  H     -3.501837   -0.341797    0.953455
  H     -3.402557   -1.822612    0.024972
  C     -2.617930   -0.104493   -1.001065
  H     -1.959332   -0.666110   -1.670235
  H     -3.569621    0.016927   -1.524605
  C     -2.037075    1.212252   -0.759226
  C     -1.560448    2.289106   -0.546856
  H     -1.111321    3.232223   -0.350361
  N      1.030819    1.530897    1.381415
  H     -1.742190   -1.840799    1.953648
  H      0.085142    1.317004    1.703089

 Total Charge           Charge          ....    0
 Multiplicity           Mult            ....    1
 Number of Electrons    NEL             ....   86
 Basis Dimension        Dim             .... 1558

ORBITAL ENERGIES
----------------

  NO   OCC          E(Eh)            E(eV)
   0   2.0000     -15.528651      -422.5561
   1   2.0000     -11.276230      -306.8418
   2   2.0000     -11.255986      -306.2909
   3   2.0000     -11.251716      -306.1747
   4   2.0000     -11.249771      -306.1218
   5   2.0000     -11.248956      -306.0996
   6   2.0000     -11.242962      -305.9366
   7   2.0000     -11.235347      -305.7293
   8   2.0000     -11.227839      -305.5250
   9   2.0000     -11.225314      -305.4563
  10   2.0000     -11.223170      -305.3980
  11   2.0000     -11.212930      -305.1193
  12   2.0000      -1.212170       -32.9848
  13   2.0000      -1.124334       -30.5947
  14   2.0000      -1.106780       -30.1170
  15   2.0000      -1.054378       -28.6911
  16   2.0000      -1.010117       -27.4867
  17   2.0000      -0.965439       -26.2709
  18   2.0000      -0.932100       -25.3637
  19   2.0000      -0.878587       -23.9076
  20   2.0000      -0.819699       -22.3051
  21   2.0000      -0.766833       -20.8666
  22   2.0000      -0.715051       -19.4575
  23   2.0000      -0.696091       -18.9416
  24   2.0000      -0.666841       -18.1457
  25   2.0000      -0.652003       -17.7419
  26   2.0000      -0.651201       -17.7201
  27   2.0000      -0.638319       -17.3695
  28   2.0000      -0.590327       -16.0636
  29   2.0000      -0.568313       -15.4646
  30   2.0000      -0.555089       -15.1047
  31   2.0000      -0.547482       -14.8977
  32   2.0000      -0.540358       -14.7039
  33   2.0000      -0.530233       -14.4284
  34   2.0000      -0.521270       -14.1845
  35   2.0000      -0.505031       -13.7426
  36   2.0000      -0.491950       -13.3866
  37   2.0000      -0.437394       -11.9021
  38   2.0000      -0.411679       -11.2024
  39   2.0000      -0.384943       -10.4748
  40   2.0000      -0.382034       -10.3957
  41   2.0000      -0.361765        -9.8441
  42   2.0000      -0.346079        -9.4173
  43   0.0000       0.021450         0.5837
  44   0.0000       0.026354         0.7171
  45   0.0000       0.029038         0.7902
  46   0.0000       0.032337         0.8799
  47   0.0000       0.039116         1.0644

MULLIKEN ATOMIC CHARGES
-----------------------
   0 C :   -0.617834
   1 C :   -0.580492
   2 C :   -0.584941
   3 C :    0.541789
   4 C :    0.143709
   5 H :    0.259129
   6 H :    0.296147
   7 H :    0.182283
   8 H :    0.316494
   9 H :    0.254843
  10 H :    0.291074
  11 C :    0.249022
  12 C :   -0.278951
  13 C :   -0.535078
  14 H :    0.258758
  15 H :    0.323787
  16 C :   -0.186555
  17 H :    0.198107
  18 H :    0.366758
  19 C :    0.287774
  20 C :   -1.109380
  21 H :    0.308016
  22 N :   -1.024446
  23 H :    0.306633
  24 H :    0.333355
Sum of atomic charges:    0.0000000

LOEWDIN ATOMIC CHARGES
----------------------
   0 C :    0.497413
   1 C :    0.523409
   2 C :    0.497609
   3 C :   -0.338633
   4 C :   -0.089957
   5 H :   -0.265923
   6 H :   -0.264147
   7 H :   -0.262063
   8 H :   -0.255081
   9 H :   -0.263695
  10 H :   -0.271666
  11 C :    0.208820
  12 C :    0.364551
  13 C :    0.462838
  14 H :   -0.280923
  15 H :   -0.278332
  16 C :    0.412142
  17 H :   -0.300681
  18 H :   -0.293854
  19 C :    0.090340
  20 C :    0.571000
  21 H :   -0.442463
  22 N :    1.011594
  23 H :   -0.332007
  24 H :   -0.700291

  Mayer bond orders larger than 0.100000
B(  0-C ,  1-C ) :   1.0552 B(  0-C ,  4-C ) :   0.6482 B(  0-C ,  5-H ) :   0.9555
B(  0-C ,  6-H ) :   0.9175 B(  1-C ,  2-C ) :   1.0440 B(  1-C ,  4-C ) :  -0.1538
B(  1-C ,  7-H ) :   0.9763 B(  1-C ,  8-H ) :   0.9217 B(  2-C ,  3-C ) :   0.8349
B(  2-C ,  4-C ) :  -0.1655 B(  2-C ,  9-H ) :   0.9295 B(  2-C , 10-H ) :   0.9906
B(  3-C ,  4-C ) :   0.7525 B(  3-C , 22-N ) :   1.1595 B(  4-C , 11-C ) :   1.3181
B(  4-C , 12-C ) :  -0.5580 B(  4-C , 22-N ) :   0.2590 B( 11-C , 12-C ) :   2.0055
B( 11-C , 13-C ) :  -0.1699 B( 12-C , 13-C ) :   1.0047 B( 12-C , 23-H ) :   0.8935
B( 13-C , 14-H ) :   0.9050 B( 13-C , 15-H ) :   0.8997 B( 13-C , 16-C ) :   1.0203
B( 16-C , 17-H ) :   0.9250 B( 16-C , 18-H ) :   0.9112 B( 16-C , 19-C ) :   0.4999
B( 16-C , 20-C ) :  -0.1791 B( 18-H , 19-C ) :  -0.1731 B( 19-C , 20-C ) :   2.4577
B( 19-C , 21-H ) :  -0.2096 B( 20-C , 21-H ) :   1.1919 B( 22-N , 24-H ) :   0.7486

MP2 TOTAL ENERGY:     -480.737885055 Eh
FINAL SINGLE POINT ENERGY      -480.737885054805

DIPOLE MOMENT
-------------
                                X             Y             Z
Electronic contribution:     -1.46465       2.11530       2.72417
Nuclear contribution   :      1.11421      -3.27211      -3.23510
                        -----------------------------------------
Total Dipole Moment    :     -0.35043      -1.15681      -0.51094
                        -----------------------------------------
Magnitude (a.u.)       :      1.31227
Magnitude (Debye)      :      3.33554

Rotational constants in cm-1:     0.048708     0.021722     0.018903
Rotational constants in MHz :  1460.237547   651.202538   566.689317

                             ****ORCA TERMINATED NORMALLY****
TOTAL RUN TIME: 0 days 1 hours 45 minutes 53 seconds 676 msec
