                         Program Version 4.2.1 -  RELEASE  -
|  1> %pal
|  2>  nprocs 32
|  3> end
|  4> !RI-MP2 aug-cc-pVQZ aug-cc-pVQZ/C TightSCF
|  5> %maxcore 4500
|  6> *xyzfile 1 1  05_31TS.xyz
|  7>
|  8>
|  9>                          ****END OF INPUT****

CARTESIAN COORDINATES (ANGSTROEM)
---------------------------------
  C     -1.311997   -0.251047   -0.887417
  C     -1.780696   -1.117702    1.576842
  C     -3.237657   -1.324383    1.143524
  C     -3.678605   -0.367264    0.051566
  C     -2.785659   -0.555813   -1.169604
  H     -3.353812   -2.353665    0.787683
  H     -3.866658   -1.213440    2.029208
  H     -3.599016    0.665333    0.394581
  H     -2.882782   -1.586849   -1.523446
  H     -3.120177    0.104997   -1.969349
  N     -0.926442   -0.970557    0.361842
  O      0.302591   -1.265431    0.506133
  C     -0.443967   -0.779014   -2.026687
  H     -0.813307   -0.360659   -2.963287
  H      0.599170   -0.486626   -1.914004
  H     -0.499336   -1.866544   -2.091540
  C     -1.082519    1.261371   -0.728990
  H     -0.046598    1.475465   -0.472081
  H     -1.299215    1.738839   -1.685172
  H     -1.732971    1.715796    0.014361
  C     -1.301234   -2.344677    2.350356
  H     -0.310163   -2.200051    2.777313
  H     -1.998857   -2.534855    3.166691
  H     -1.274745   -3.225584    1.708082
  C     -1.630648    0.136024    2.454231
  H     -2.122326   -0.046707    3.410471
  H     -0.580703    0.345555    2.662885
  H     -2.077969    1.020725    2.006918
  C      2.145280    0.104021    1.499821
  H      1.794386    0.162285    2.529011
  H      1.005349   -0.414412    0.963008
  C      2.237249    1.395472    0.817611
  C      2.713668    1.596391   -0.487265
  C      1.726305    2.490222    1.532525
  C      2.707575    2.866110   -1.033179
  H      3.080230    0.770093   -1.076240
  C      1.724008    3.756451    0.977486
  H      1.348905    2.345698    2.538257
  C      2.217506    3.946546   -0.306608
  H      3.083337    3.015913   -2.037234
  H      1.342521    4.594899    1.545764
  O      2.993689   -0.925117    1.403819
  H      2.216638    4.936607   -0.745248
  C      3.794352   -1.144436    0.272436
  C      3.284073   -1.880309   -0.780795
  C      5.090328   -0.667050    0.286988
  C      4.100430   -2.110425   -1.879931
  H      2.272221   -2.260160   -0.733284
  C      5.894811   -0.907377   -0.818412
  H      5.455610   -0.116695    1.144282
  C      5.399971   -1.620494   -1.902419
  H      3.721692   -2.684102   -2.716419
  H      6.912942   -0.539711   -0.827914
  H      6.032822   -1.806993   -2.760564
  N     -5.075795   -0.565191   -0.272606
  C     -5.781388    0.431601   -0.886485
  C     -7.223685    0.136845   -1.200640
  H     -7.541781   -0.858539   -0.890000
  H     -7.845770    0.882694   -0.705263
  H     -7.376878    0.244910   -2.274709
  O     -5.254226    1.495556   -1.151805
  H     -5.508529   -1.460422   -0.112310

 Total Charge           Charge          ....    1
 Multiplicity           Mult            ....    1
 Number of Electrons    NEL             ....  214
 Basis Dimension        Dim             .... 3838

ORBITAL ENERGIES
----------------

  NO   OCC          E(Eh)            E(eV)
   0   2.0000     -20.806174      -566.1648
   1   2.0000     -20.744936      -564.4984
   2   2.0000     -20.595251      -560.4253
   3   2.0000     -15.797712      -429.8776
   4   2.0000     -15.671441      -426.4416
   5   2.0000     -11.494739      -312.7877
   6   2.0000     -11.430319      -311.0348
   7   2.0000     -11.410980      -310.5085
   8   2.0000     -11.408353      -310.4371
   9   2.0000     -11.400805      -310.2317
  10   2.0000     -11.384801      -309.7962
  11   2.0000     -11.375836      -309.5522
  12   2.0000     -11.370022      -309.3940
  13   2.0000     -11.369467      -309.3789
  14   2.0000     -11.366816      -309.3068
  15   2.0000     -11.356360      -309.0223
  16   2.0000     -11.355738      -309.0053
  17   2.0000     -11.343945      -308.6844
  18   2.0000     -11.343746      -308.6790
  19   2.0000     -11.343236      -308.6651
  20   2.0000     -11.342519      -308.6456
  21   2.0000     -11.341286      -308.6121
  22   2.0000     -11.340653      -308.5949
  23   2.0000     -11.335861      -308.4645
  24   2.0000     -11.330675      -308.3233
  25   2.0000     -11.329599      -308.2940
  26   2.0000     -11.327966      -308.2496
  27   2.0000     -11.326724      -308.2158
  28   2.0000     -11.309060      -307.7352
  29   2.0000      -1.641990       -44.6808
  30   2.0000      -1.578045       -42.9408
  31   2.0000      -1.467064       -39.9208
  32   2.0000      -1.333807       -36.2947
  33   2.0000      -1.301595       -35.4182
  34   2.0000      -1.295443       -35.2508
  35   2.0000      -1.269328       -34.5402
  36   2.0000      -1.227811       -33.4104
  37   2.0000      -1.193828       -32.4857
  38   2.0000      -1.159626       -31.5550
  39   2.0000      -1.150258       -31.3001
  40   2.0000      -1.136824       -30.9346
  41   2.0000      -1.132194       -30.8086
  42   2.0000      -1.114828       -30.3360
  43   2.0000      -1.075284       -29.2600
  44   2.0000      -1.067047       -29.0358
  45   2.0000      -1.056390       -28.7458
  46   2.0000      -1.053220       -28.6596
  47   2.0000      -1.049156       -28.5490
  48   2.0000      -0.969144       -26.3718
  49   2.0000      -0.963207       -26.2102
  50   2.0000      -0.957767       -26.0622
  51   2.0000      -0.949269       -25.8309
  52   2.0000      -0.945781       -25.7360
  53   2.0000      -0.917765       -24.9737
  54   2.0000      -0.898892       -24.4601
  55   2.0000      -0.882401       -24.0114
  56   2.0000      -0.856783       -23.3142
  57   2.0000      -0.831221       -22.6187
  58   2.0000      -0.818465       -22.2716
  59   2.0000      -0.810046       -22.0425
  60   2.0000      -0.808044       -21.9880
  61   2.0000      -0.806464       -21.9450
  62   2.0000      -0.789182       -21.4747
  63   2.0000      -0.779158       -21.2020
  64   2.0000      -0.771962       -21.0062
  65   2.0000      -0.758495       -20.6397
  66   2.0000      -0.752447       -20.4751
  67   2.0000      -0.744661       -20.2632
  68   2.0000      -0.734106       -19.9760
  69   2.0000      -0.723575       -19.6895
  70   2.0000      -0.722432       -19.6584
  71   2.0000      -0.719438       -19.5769
  72   2.0000      -0.711747       -19.3676
  73   2.0000      -0.707827       -19.2610
  74   2.0000      -0.703725       -19.1493
  75   2.0000      -0.698683       -19.0121
  76   2.0000      -0.694338       -18.8939
  77   2.0000      -0.686327       -18.6759
  78   2.0000      -0.683325       -18.5942
  79   2.0000      -0.682819       -18.5804
  80   2.0000      -0.673770       -18.3342
  81   2.0000      -0.662752       -18.0344
  82   2.0000      -0.656362       -17.8605
  83   2.0000      -0.649780       -17.6814
  84   2.0000      -0.644605       -17.5406
  85   2.0000      -0.640620       -17.4321
  86   2.0000      -0.638416       -17.3722
  87   2.0000      -0.634215       -17.2579
  88   2.0000      -0.630747       -17.1635
  89   2.0000      -0.628014       -17.0891
  90   2.0000      -0.622753       -16.9460
  91   2.0000      -0.619074       -16.8459
  92   2.0000      -0.609318       -16.5804
  93   2.0000      -0.604304       -16.4439
  94   2.0000      -0.601252       -16.3609
  95   2.0000      -0.598326       -16.2813
  96   2.0000      -0.597310       -16.2536
  97   2.0000      -0.588356       -16.0100
  98   2.0000      -0.574354       -15.6290
  99   2.0000      -0.568355       -15.4657
 100   2.0000      -0.508200       -13.8288
 101   2.0000      -0.505161       -13.7461
 102   2.0000      -0.481407       -13.0998
 103   2.0000      -0.470143       -12.7932
 104   2.0000      -0.449315       -12.2265
 105   2.0000      -0.445073       -12.1111
 106   2.0000      -0.433848       -11.8056
 107   0.0000      -0.146397        -3.9837
 108   0.0000      -0.055142        -1.5005
 109   0.0000      -0.048786        -1.3275
 110   0.0000      -0.046628        -1.2688
 111   0.0000      -0.042018        -1.1434

MULLIKEN ATOMIC CHARGES
-----------------------
   0 C :    1.903411
   1 C :    1.157198
   2 C :   -0.850548
   3 C :    1.830975
   4 C :   -1.184492
   5 H :    0.183457
   6 H :    0.083631
   7 H :    0.130753
   8 H :    0.274196
   9 H :    0.192885
  10 N :    1.774629
  11 O :   -1.593988
  12 C :   -1.531406
  13 H :    0.147609
  14 H :    0.320209
  15 H :    0.215334
  16 C :   -1.626582
  17 H :    0.551866
  18 H :    0.126535
  19 H :    0.195076
  20 C :   -1.271890
  21 H :    0.251210
  22 H :    0.180361
  23 H :    0.228400
  24 C :   -1.263834
  25 H :    0.061879
  26 H :    0.319966
  27 H :    0.246328
  28 C :    1.350087
  29 H :    0.435336
  30 H :    0.427986
  31 C :    0.338821
  32 C :   -0.382847
  33 C :   -0.415660
  34 C :   -0.630250
  35 H :    0.873393
  36 C :   -0.548153
  37 H :    0.211717
  38 C :   -0.274030
  39 H :    0.150671
  40 H :    0.218268
  41 O :   -1.616734
  42 H :    0.294836
  43 C :    1.357717
  44 C :   -0.597375
  45 C :   -0.628485
  46 C :   -0.618580
  47 H :    0.667967
  48 C :   -0.372800
  49 H :    0.325813
  50 C :   -0.238284
  51 H :    0.161338
  52 H :    0.258502
  53 H :    0.326739
  54 N :   -1.076520
  55 C :    1.005933
  56 C :   -0.913331
  57 H :    0.210640
  58 H :    0.292042
  59 H :    0.289266
  60 O :   -0.945268
  61 H :    0.008076
Sum of atomic charges:    1.0000000

LOEWDIN ATOMIC CHARGES
----------------------
   0 C :   -0.354252
   1 C :   -0.364182
   2 C :    0.536986
   3 C :   -0.019360
   4 C :    0.535204
   5 H :   -0.254304
   6 H :   -0.242096
   7 H :   -0.341216
   8 H :   -0.248375
   9 H :   -0.268656
  10 N :    0.204500
  11 O :    1.093070
  12 C :    0.921230
  13 H :   -0.254684
  14 H :   -0.291771
  15 H :   -0.255466
  16 C :    0.957552
  17 H :   -0.325608
  18 H :   -0.240971
  19 H :   -0.285197
  20 C :    0.923158
  21 H :   -0.274217
  22 H :   -0.259100
  23 H :   -0.256676
  24 C :    0.954258
  25 H :   -0.248751
  26 H :   -0.290655
  27 H :   -0.287414
  28 C :    0.055633
  29 H :   -0.303502
  30 H :   -0.895538
  31 C :   -0.037324
  32 C :    0.358619
  33 C :    0.359910
  34 C :    0.397571
  35 H :   -0.360216
  36 C :    0.391265
  37 H :   -0.300128
  38 C :    0.387202
  39 H :   -0.298873
  40 H :   -0.302277
  41 O :    0.974664
  42 H :   -0.294977
  43 C :   -0.453238
  44 C :    0.326312
  45 C :    0.337314
  46 C :    0.363601
  47 H :   -0.338885
  48 C :    0.363275
  49 H :   -0.298382
  50 C :    0.363536
  51 H :   -0.306170
  52 H :   -0.305180
  53 H :   -0.310074
  54 N :    0.878484
  55 C :   -0.806742
  56 C :    0.913605
  57 H :   -0.304488
  58 H :   -0.290566
  59 H :   -0.289983
  60 O :    0.741911
  61 H :   -0.479363

  Mayer bond orders larger than 0.100000
B(  0-C ,  1-C ) :   0.2788 B(  0-C ,  4-C ) :  -0.1472 B(  0-C ,  8-H ) :  -0.1731
B(  0-C , 10-N ) :   1.0747 B(  0-C , 12-C ) :  -0.2553 B(  0-C , 13-H ) :  -0.2597
B(  0-C , 14-H ) :  -0.2223 B(  0-C , 15-H ) :  -0.3437 B(  0-C , 16-C ) :   0.2832
B(  0-C , 17-H ) :  -0.2598 B(  0-C , 19-H ) :  -0.2325 B(  0-C , 30-H ) :  -0.1604
B(  1-C ,  2-C ) :   0.4618 B(  1-C ,  5-H ) :  -0.1282 B(  1-C ,  7-H ) :   0.1023
B(  1-C , 10-N ) :   0.8135 B(  1-C , 21-H ) :  -0.2320 B(  1-C , 22-H ) :  -0.2193
B(  1-C , 23-H ) :  -0.2511 B(  1-C , 24-C ) :   0.2676 B(  1-C , 26-H ) :  -0.1396
B(  1-C , 27-H ) :  -0.2367 B(  2-C ,  3-C ) :   0.3138 B(  2-C ,  4-C ) :  -0.1400
B(  2-C ,  5-H ) :   1.2016 B(  2-C ,  6-H ) :   1.2062 B(  2-C , 11-O ) :   0.1113
B(  3-C ,  4-C ) :   0.8301 B(  3-C ,  5-H ) :  -0.1270 B(  3-C ,  6-H ) :  -0.1538
B(  3-C ,  7-H ) :   1.0083 B(  3-C , 54-N ) :  -1.1768 B(  3-C , 61-H ) :  -0.4463
B(  4-C ,  8-H ) :   1.1331 B(  4-C ,  9-H ) :   1.1366 B(  4-C , 54-N ) :   0.5302
B(  7-H , 54-N ) :   0.1069 B(  9-H , 60-O ) :  -0.1426 B( 10-N , 11-O ) :   0.4294
B( 10-N , 12-C ) :  -0.1069 B( 10-N , 20-C ) :  -0.1754 B( 11-O , 12-C ) :  -0.1035
B( 11-O , 30-H ) :  -0.3885 B( 11-O , 43-C ) :  -0.1130 B( 12-C , 13-H ) :   1.2844
B( 12-C , 14-H ) :   0.9396 B( 12-C , 15-H ) :   1.3026 B( 12-C , 16-C ) :   0.1051
B( 16-C , 17-H ) :   0.7099 B( 16-C , 18-H ) :   1.1038 B( 16-C , 19-H ) :   1.1929
B( 16-C , 60-O ) :   0.1270 B( 17-H , 32-C ) :  -0.1030 B( 17-H , 34-C ) :  -0.1347
B( 20-C , 21-H ) :   1.0956 B( 20-C , 22-H ) :   1.2149 B( 20-C , 23-H ) :   1.2053
B( 20-C , 24-C ) :   0.1408 B( 24-C , 25-H ) :   1.2021 B( 24-C , 26-H ) :   0.9476
B( 24-C , 27-H ) :   1.1419 B( 28-C , 29-H ) :   1.1026 B( 28-C , 30-H ) :   0.3385
B( 28-C , 31-C ) :   0.3524 B( 28-C , 32-C ) :  -0.4537 B( 28-C , 33-C ) :  -0.2548
B( 28-C , 35-H ) :   0.1030 B( 28-C , 44-C ) :   0.1020 B( 29-H , 30-H ) :  -0.1629
B( 29-H , 31-C ) :  -0.1751 B( 29-H , 33-C ) :  -0.1242 B( 29-H , 41-O ) :  -0.1104
B( 30-H , 31-C ) :   0.2822 B( 30-H , 32-C ) :   0.1569 B( 30-H , 33-C ) :   0.1638
B( 31-C , 32-C ) :   1.3328 B( 31-C , 33-C ) :   0.9096 B( 31-C , 34-C ) :  -0.2508
B( 31-C , 35-H ) :  -0.1090 B( 31-C , 36-C ) :  -0.2358 B( 31-C , 38-C ) :   0.1019
B( 31-C , 41-O ) :   0.2516 B( 32-C , 33-C ) :  -0.3436 B( 32-C , 34-C ) :   1.2492
B( 32-C , 35-H ) :   0.3295 B( 32-C , 38-C ) :  -0.3323 B( 32-C , 43-C ) :   0.2118
B( 32-C , 44-C ) :   0.1644 B( 33-C , 34-C ) :   0.1575 B( 33-C , 36-C ) :   1.2681
B( 33-C , 37-H ) :   1.0952 B( 33-C , 38-C ) :  -0.1374 B( 33-C , 40-H ) :  -0.1438
B( 34-C , 35-H ) :  -0.2798 B( 34-C , 36-C ) :   0.2644 B( 34-C , 38-C ) :   1.3784
B( 34-C , 39-H ) :   1.1745 B( 34-C , 42-H ) :  -0.1598 B( 35-H , 44-C ) :  -0.1692
B( 36-C , 38-C ) :   1.1510 B( 36-C , 40-H ) :   1.1799 B( 36-C , 42-H ) :  -0.1222
B( 38-C , 42-H ) :   1.1425 B( 41-O , 43-C ) :   0.5841 B( 43-C , 44-C ) :   0.8270
B( 43-C , 45-C ) :   0.9273 B( 43-C , 46-C ) :  -0.3261 B( 43-C , 47-H ) :  -0.1117
B( 43-C , 48-C ) :  -0.2685 B( 43-C , 50-C ) :   0.1338 B( 44-C , 45-C ) :  -0.1217
B( 44-C , 46-C ) :   1.3140 B( 44-C , 47-H ) :   0.5576 B( 44-C , 50-C ) :  -0.1430
B( 44-C , 51-H ) :  -0.1001 B( 45-C , 46-C ) :   0.1546 B( 45-C , 48-C ) :   1.3418
B( 45-C , 49-H ) :   0.9147 B( 45-C , 52-H ) :  -0.1470 B( 46-C , 47-H ) :  -0.1512
B( 46-C , 48-C ) :   0.1760 B( 46-C , 50-C ) :   1.3227 B( 46-C , 51-H ) :   1.2083
B( 46-C , 53-H ) :  -0.1141 B( 48-C , 50-C ) :   1.1327 B( 48-C , 52-H ) :   1.1187
B( 48-C , 53-H ) :  -0.1097 B( 50-C , 53-H ) :   1.0532 B( 54-N , 55-C ) :   1.0840
B( 54-N , 60-O ) :   0.1517 B( 54-N , 61-H ) :   1.4293 B( 55-C , 56-C ) :   0.7105
B( 55-C , 57-H ) :  -0.1697 B( 55-C , 60-O ) :   0.9487 B( 56-C , 57-H ) :   1.0531
B( 56-C , 58-H ) :   0.9745 B( 56-C , 59-H ) :   0.9505

MP2 TOTAL ENERGY:    -1267.169765724 Eh
FINAL SINGLE POINT ENERGY     -1267.169765723710

DIPOLE MOMENT
-------------
                                X             Y             Z
Electronic contribution:     19.89056       1.73140       0.46254
Nuclear contribution   :    -19.35123      -2.04786       0.19596
                        -----------------------------------------
Total Dipole Moment    :      0.53933      -0.31645       0.65850
                        -----------------------------------------
Magnitude (a.u.)       :      0.90810
Magnitude (Debye)      :      2.30820

Rotational constants in cm-1:     0.009541     0.003000     0.002786
Rotational constants in MHz :   286.034538    89.930012    83.537121

                             ****ORCA TERMINATED NORMALLY****
TOTAL RUN TIME: 1 days 19 hours 14 minutes 56 seconds 466 msec
