                         Program Version 4.2.1 -  RELEASE  -
|  1> %pal
|  2>  nprocs 32
|  3> end
|  4> !RI-MP2 aug-cc-pVQZ aug-cc-pVQZ/C TightSCF
|  5> %maxcore 4500
|  6> *xyzfile 1 1  05_5P1.xyz
|  7>
|  8>
|  9>                          ****END OF INPUT****

CARTESIAN COORDINATES (ANGSTROEM)
---------------------------------
  C     -0.712446   -1.205197    0.000029
  C     -1.406019    0.000010    0.000056
  H     -1.229865    2.154512    0.000051
  H      1.278721    2.071148   -0.000050
  H     -1.229898   -2.154493    0.000051
  H     -2.489144    0.000020    0.000099
  C      0.662121   -1.182781   -0.000027
  C     -0.712425    1.205209    0.000029
  N      1.301968   -0.000011   -0.000052
  C      0.662139    1.182772   -0.000027
  H      1.278686   -2.071169   -0.000050
  H      2.317506   -0.000018   -0.000096

 Total Charge           Charge          ....    1
 Multiplicity           Mult            ....    1
 Number of Electrons    NEL             ....   42
 Basis Dimension        Dim             ....  756

ORBITAL ENERGIES
----------------

  NO   OCC          E(Eh)            E(eV)
   0   2.0000     -15.860097      -431.5752
   1   2.0000     -11.504947      -313.0655
   2   2.0000     -11.504918      -313.0647
   3   2.0000     -11.464108      -311.9542
   4   2.0000     -11.438248      -311.2506
   5   2.0000     -11.438209      -311.2495
   6   2.0000      -1.533354       -41.7247
   7   2.0000      -1.309397       -35.6305
   8   2.0000      -1.263318       -34.3766
   9   2.0000      -1.093734       -29.7620
  10   2.0000      -1.084658       -29.5150
  11   2.0000      -0.985342       -26.8125
  12   2.0000      -0.887405       -24.1475
  13   2.0000      -0.885210       -24.0878
  14   2.0000      -0.838636       -22.8205
  15   2.0000      -0.820609       -22.3299
  16   2.0000      -0.796663       -21.6783
  17   2.0000      -0.730223       -19.8704
  18   2.0000      -0.729243       -19.8437
  19   2.0000      -0.607132       -16.5209
  20   2.0000      -0.559521       -15.2254
  21   0.0000      -0.123896        -3.3714
  22   0.0000      -0.095489        -2.5984
  23   0.0000      -0.079582        -2.1655
  24   0.0000      -0.072090        -1.9617
  25   0.0000      -0.070385        -1.9153

MULLIKEN ATOMIC CHARGES
-----------------------
   0 C :   -0.222221
   1 C :   -0.162822
   2 H :    0.383505
   3 H :    0.486033
   4 H :    0.383491
   5 H :    0.325887
   6 C :   -0.152829
   7 C :   -0.222204
   8 N :   -0.323657
   9 C :   -0.152878
  10 H :    0.486030
  11 H :    0.171664
Sum of atomic charges:    1.0000000

LOEWDIN ATOMIC CHARGES
----------------------
   0 C :    0.424695
   1 C :    0.414978
   2 H :   -0.295160
   3 H :   -0.258733
   4 H :   -0.295161
   5 H :   -0.272048
   6 C :    0.318442
   7 C :    0.424695
   8 N :    0.885891
   9 C :    0.318442
  10 H :   -0.258733
  11 H :   -0.407308

  Mayer bond orders larger than 0.100000
B(  0-C ,  1-C ) :   1.1217 B(  0-C ,  4-H ) :   0.9438 B(  0-C ,  6-C ) :   1.2837
B(  1-C ,  5-H ) :   1.0153 B(  1-C ,  7-C ) :   1.1217 B(  2-H ,  7-C ) :   0.9438
B(  3-H ,  9-C ) :   0.8472 B(  6-C ,  8-N ) :   1.0396 B(  6-C , 10-H ) :   0.8472
B(  7-C ,  9-C ) :   1.2836 B(  8-N ,  9-C ) :   1.0396 B(  8-N , 11-H ) :   1.1170

MP2 TOTAL ENERGY:     -248.208431298 Eh
FINAL SINGLE POINT ENERGY      -248.208431298300

DIPOLE MOMENT
-------------
                                X             Y             Z
Electronic contribution:      0.80125      -0.00001      -0.00003
Nuclear contribution   :     -0.06689      -0.00000       0.00000
                        -----------------------------------------
Total Dipole Moment    :      0.73436      -0.00001      -0.00003
                        -----------------------------------------
Magnitude (a.u.)       :      0.73436
Magnitude (Debye)      :      1.86659

Rotational constants in cm-1:     0.194877     0.191092     0.096483
Rotational constants in MHz :  5842.254796  5728.807998  2892.487630

                             ****ORCA TERMINATED NORMALLY****
TOTAL RUN TIME: 0 days 0 hours 10 minutes 58 seconds 177 msec
