                         Program Version 4.2.1 -  RELEASE  -
|  1> %pal
|  2>  nprocs 32
|  3> end
|  4> !RI-MP2 aug-cc-pVQZ aug-cc-pVQZ/C TightSCF
|  5> %maxcore 4500
|  6> *xyzfile 0 1  09_13R2.xyz
|  7>
|  8>
|  9>                          ****END OF INPUT****

CARTESIAN COORDINATES (ANGSTROEM)
---------------------------------
  N      0.019836    1.048464    0.035810
  C      1.367835    0.661517   -0.218113
  C      1.632344   -0.640758   -0.076742
  S      0.197539   -1.555506    0.468495
  C     -0.792631   -0.114729    0.097635
  C      2.327683    1.735131   -0.614929
  H      1.921033    2.313550   -1.447668
  H      3.284377    1.317200   -0.921663
  H      2.520632    2.428830    0.207488
  C      2.902313   -1.390876   -0.290455
  H      3.728144   -0.717223   -0.515619
  H      2.809169   -2.104658   -1.113028
  H      3.169308   -1.958102    0.605624
  C     -0.144824    1.995338    1.143601
  H      0.211480    1.581459    2.095745
  H     -1.197538    2.250879    1.244763
  H      0.403558    2.911853    0.927147
  C     -2.085548   -0.170413   -0.222796
  C     -2.905346    0.996736   -0.644932
  H     -3.593682    1.309725    0.145564
  H     -3.506495    0.717717   -1.512686
  H     -2.262298    1.835521   -0.907854
  O     -2.800318   -1.335366   -0.182499
  H     -2.195566   -2.086657   -0.134039

 Total Charge           Charge          ....    0
 Multiplicity           Mult            ....    1
 Number of Electrons    NEL             ....   92
 Basis Dimension        Dim             .... 1482

ORBITAL ENERGIES
----------------

  NO   OCC          E(Eh)            E(eV)
   0   2.0000     -91.956177     -2502.2548
   1   2.0000     -20.576946      -559.9272
   2   2.0000     -15.572122      -423.7390
   3   2.0000     -11.288523      -307.1763
   4   2.0000     -11.269251      -306.6519
   5   2.0000     -11.267689      -306.6094
   6   2.0000     -11.255097      -306.2668
   7   2.0000     -11.254502      -306.2506
   8   2.0000     -11.232572      -305.6538
   9   2.0000     -11.231633      -305.6283
  10   2.0000     -11.221700      -305.3580
  11   2.0000      -8.958408      -243.7707
  12   2.0000      -6.639971      -180.6828
  13   2.0000      -6.639266      -180.6636
  14   2.0000      -6.638262      -180.6363
  15   2.0000      -1.394820       -37.9550
  16   2.0000      -1.272636       -34.6302
  17   2.0000      -1.094237       -29.7757
  18   2.0000      -1.063409       -28.9368
  19   2.0000      -1.010945       -27.5092
  20   2.0000      -0.982524       -26.7358
  21   2.0000      -0.928608       -25.2687
  22   2.0000      -0.917051       -24.9542
  23   2.0000      -0.845903       -23.0182
  24   2.0000      -0.773968       -21.0607
  25   2.0000      -0.731149       -19.8956
  26   2.0000      -0.684687       -18.6313
  27   2.0000      -0.639363       -17.3979
  28   2.0000      -0.624029       -16.9807
  29   2.0000      -0.609254       -16.5786
  30   2.0000      -0.603870       -16.4321
  31   2.0000      -0.587523       -15.9873
  32   2.0000      -0.580810       -15.8047
  33   2.0000      -0.578971       -15.7546
  34   2.0000      -0.567400       -15.4397
  35   2.0000      -0.552020       -15.0212
  36   2.0000      -0.549546       -14.9539
  37   2.0000      -0.546204       -14.8630
  38   2.0000      -0.527585       -14.3563
  39   2.0000      -0.518716       -14.1150
  40   2.0000      -0.495283       -13.4773
  41   2.0000      -0.467486       -12.7210
  42   2.0000      -0.457001       -12.4356
  43   2.0000      -0.382905       -10.4194
  44   2.0000      -0.352313        -9.5869
  45   2.0000      -0.267054        -7.2669
  46   0.0000       0.023032         0.6267
  47   0.0000       0.027262         0.7418
  48   0.0000       0.030905         0.8410
  49   0.0000       0.032829         0.8933
  50   0.0000       0.042110         1.1459

MULLIKEN ATOMIC CHARGES
-----------------------
   0 N :   -0.195715
   1 C :    0.274146
   2 C :   -0.165205
   3 S :   -0.089623
   4 C :   -0.630690
   5 C :   -0.832081
   6 H :    0.221149
   7 H :    0.308979
   8 H :    0.229761
   9 C :   -0.736884
  10 H :    0.254746
  11 H :    0.249873
  12 H :    0.237908
  13 C :   -1.030575
  14 H :    0.320628
  15 H :    0.393885
  16 H :    0.391714
  17 C :    1.468179
  18 C :   -0.877400
  19 H :    0.262216
  20 H :    0.298755
  21 H :    0.169579
  22 O :   -0.843781
  23 H :    0.320437
Sum of atomic charges:   -0.0000000

LOEWDIN ATOMIC CHARGES
----------------------
   0 N :    0.349776
   1 C :   -0.333640
   2 C :   -0.429829
   3 S :    1.368696
   4 C :   -0.658923
   5 C :    0.916863
   6 H :   -0.270406
   7 H :   -0.318417
   8 H :   -0.286529
   9 C :    0.827560
  10 H :   -0.326794
  11 H :   -0.293883
  12 H :   -0.300470
  13 C :    0.764360
  14 H :   -0.254804
  15 H :   -0.308356
  16 H :   -0.302612
  17 C :   -0.492731
  18 C :    0.878452
  19 H :   -0.277148
  20 H :   -0.292000
  21 H :   -0.324238
  22 O :    1.259503
  23 H :   -0.894431

  Mayer bond orders larger than 0.100000
B(  0-N ,  1-C ) :   0.8214 B(  0-N ,  4-C ) :   0.8241 B(  0-N , 13-C ) :   0.8298
B(  1-C ,  2-C ) :   1.5396 B(  1-C ,  5-C ) :   0.5581 B(  1-C ,  8-H ) :  -0.1122
B(  2-C ,  3-S ) :   0.8491 B(  2-C ,  4-C ) :  -0.2325 B(  2-C ,  9-C ) :   0.4866
B(  2-C , 10-H ) :  -0.1386 B(  2-C , 11-H ) :  -0.1120 B(  2-C , 12-H ) :  -0.1065
B(  3-S ,  4-C ) :   0.8899 B(  3-S , 17-C ) :  -0.2884 B(  4-C , 17-C ) :   1.1333
B(  4-C , 22-O ) :   0.4421 B(  5-C ,  6-H ) :   1.0328 B(  5-C ,  7-H ) :   0.9907
B(  5-C ,  8-H ) :   1.0320 B(  9-C , 10-H ) :   1.0349 B(  9-C , 11-H ) :   1.0217
B(  9-C , 12-H ) :   1.0322 B( 13-C , 14-H ) :   0.9132 B( 13-C , 15-H ) :   0.8807
B( 13-C , 16-H ) :   0.9191 B( 17-C , 18-C ) :   0.6758 B( 18-C , 19-H ) :   0.9549
B( 18-C , 20-H ) :   0.9699 B( 18-C , 21-H ) :   1.0651 B( 22-O , 23-H ) :   0.9273

MP2 TOTAL ENERGY:     -839.615724460 Eh
FINAL SINGLE POINT ENERGY      -839.615724460256

DIPOLE MOMENT
-------------
                                X             Y             Z
Electronic contribution:     -4.46338      -9.18780       1.30578
Nuclear contribution   :      5.28867       9.92074      -1.35531
                        -----------------------------------------
Total Dipole Moment    :      0.82528       0.73294      -0.04952
                        -----------------------------------------
Magnitude (a.u.)       :      1.10487
Magnitude (Debye)      :      2.80836

Rotational constants in cm-1:     0.048322     0.025970     0.018775
Rotational constants in MHz :  1448.654785   778.554877   562.854933

                             ****ORCA TERMINATED NORMALLY****
TOTAL RUN TIME: 0 days 1 hours 32 minutes 1 seconds 133 msec
