                         Program Version 4.2.1 -  RELEASE  -
|  1> %pal
|  2>  nprocs 32
|  3> end
|  4> !RI-MP2 aug-cc-pVQZ aug-cc-pVQZ/C TightSCF
|  5> %maxcore 4500
|  6> *xyzfile 0 1  03_38R1.xyz
|  7>
|  8>
|  9>                          ****END OF INPUT****

CARTESIAN COORDINATES (ANGSTROEM)
---------------------------------
  Cl     2.081345    2.181418   -0.073890
  C      1.574669    0.460567   -0.485420
  C      0.110869    0.277855   -0.206298
  C      2.454567   -0.487724    0.255854
  C     -0.752489   -0.062640   -1.232911
  C     -0.410558    0.408798    1.083319
  C      3.326066   -1.289305   -0.340117
  C     -2.107783   -0.282725   -1.001269
  C     -2.608023   -0.153527    0.287065
  C     -1.748507    0.196684    1.330576
  H      0.239895    0.699984    1.899427
  H     -2.750430   -0.546933   -1.828746
  O     -3.907666   -0.341704    0.629412
  H     -2.161427    0.301208    2.325677
  H     -0.370784   -0.163228   -2.242858
  C     -4.825300   -0.687139   -0.387675
  H     -5.792299   -0.785377    0.100071
  H     -4.558723   -1.638706   -0.857733
  H     -4.883383    0.093065   -1.152698
  C      4.205546   -2.271491    0.363264
  H      5.260276   -2.057250    0.169214
  H      4.017277   -3.289086    0.009644
  H      4.044932   -2.249286    1.442100
  H      3.422308   -1.241089   -1.423195
  H      2.338851   -0.508409    1.335805
  H      1.757631    0.378518   -1.554213

 Total Charge           Charge          ....    0
 Multiplicity           Mult            ....    1
 Number of Electrons    NEL             ....  104
 Basis Dimension        Dim             .... 1642

ORBITAL ENERGIES
----------------

  NO   OCC          E(Eh)            E(eV)
   0   2.0000    -104.809261     -2852.0050
   1   2.0000     -20.586280      -560.1812
   2   2.0000     -11.303336      -307.5794
   3   2.0000     -11.302692      -307.5619
   4   2.0000     -11.286552      -307.1227
   5   2.0000     -11.243611      -305.9542
   6   2.0000     -11.240616      -305.8727
   7   2.0000     -11.239822      -305.8511
   8   2.0000     -11.238681      -305.8201
   9   2.0000     -11.234034      -305.6936
  10   2.0000     -11.232788      -305.6597
  11   2.0000     -11.229651      -305.5743
  12   2.0000     -11.226575      -305.4906
  13   2.0000     -10.535006      -286.6721
  14   2.0000      -8.001912      -217.7431
  15   2.0000      -8.000336      -217.7002
  16   2.0000      -8.000322      -217.6998
  17   2.0000      -1.417131       -38.5621
  18   2.0000      -1.174681       -31.9647
  19   2.0000      -1.129666       -30.7398
  20   2.0000      -1.070990       -29.1431
  21   2.0000      -1.034161       -28.1410
  22   2.0000      -1.024282       -27.8721
  23   2.0000      -0.973202       -26.4822
  24   2.0000      -0.945944       -25.7405
  25   2.0000      -0.872458       -23.7408
  26   2.0000      -0.845586       -23.0096
  27   2.0000      -0.797205       -21.6931
  28   2.0000      -0.764909       -20.8142
  29   2.0000      -0.725308       -19.7366
  30   2.0000      -0.681433       -18.5427
  31   2.0000      -0.663336       -18.0503
  32   2.0000      -0.661144       -17.9906
  33   2.0000      -0.634254       -17.2589
  34   2.0000      -0.627218       -17.0675
  35   2.0000      -0.598214       -16.2782
  36   2.0000      -0.591403       -16.0929
  37   2.0000      -0.583282       -15.8719
  38   2.0000      -0.574603       -15.6357
  39   2.0000      -0.545468       -14.8429
  40   2.0000      -0.543750       -14.7962
  41   2.0000      -0.533293       -14.5116
  42   2.0000      -0.524789       -14.2802
  43   2.0000      -0.519406       -14.1338
  44   2.0000      -0.506553       -13.7840
  45   2.0000      -0.486239       -13.2312
  46   2.0000      -0.467722       -12.7274
  47   2.0000      -0.428959       -11.6726
  48   2.0000      -0.427922       -11.6443
  49   2.0000      -0.362568        -9.8660
  50   2.0000      -0.347342        -9.4517
  51   2.0000      -0.312035        -8.4909
  52   0.0000       0.020791         0.5657
  53   0.0000       0.025052         0.6817
  54   0.0000       0.027783         0.7560
  55   0.0000       0.035067         0.9542
  56   0.0000       0.037081         1.0090

MULLIKEN ATOMIC CHARGES
-----------------------
   0 Cl:   -0.535508
   1 C :    0.257578
   2 C :    0.708576
   3 C :   -0.438545
   4 C :   -0.493441
   5 C :   -0.542548
   6 C :   -0.352037
   7 C :   -0.465931
   8 C :    1.099600
   9 C :   -0.434190
  10 H :    0.184228
  11 H :    0.165149
  12 O :   -0.823696
  13 H :    0.231894
  14 H :    0.140519
  15 C :   -0.717778
  16 H :    0.506853
  17 H :    0.251852
  18 H :    0.254802
  19 C :   -0.738592
  20 H :    0.265323
  21 H :    0.245287
  22 H :    0.227100
  23 H :    0.364262
  24 H :    0.374721
  25 H :    0.264521
Sum of atomic charges:   -0.0000000

LOEWDIN ATOMIC CHARGES
----------------------
   0 Cl:    1.151360
   1 C :   -0.556689
   2 C :   -0.207917
   3 C :    0.247480
   4 C :    0.347472
   5 C :    0.302405
   6 C :    0.385024
   7 C :    0.343350
   8 C :   -0.456781
   9 C :    0.341199
  10 H :   -0.324656
  11 H :   -0.355882
  12 O :    0.879106
  13 H :   -0.321377
  14 H :   -0.309386
  15 C :    0.572084
  16 H :   -0.316819
  17 H :   -0.305675
  18 H :   -0.305317
  19 C :    0.899805
  20 H :   -0.292680
  21 H :   -0.292976
  22 H :   -0.312009
  23 H :   -0.316166
  24 H :   -0.340329
  25 H :   -0.454626

  Mayer bond orders larger than 0.100000
B(  0-Cl,  1-C ) :   0.5809 B(  0-Cl,  2-C ) :  -0.1445 B(  1-C ,  2-C ) :   0.8285
B(  1-C ,  3-C ) :   1.0490 B(  1-C ,  4-C ) :  -0.1748 B(  1-C ,  5-C ) :  -0.1791
B(  1-C ,  6-C ) :  -0.2050 B(  1-C , 25-H ) :   0.9317 B(  2-C ,  3-C ) :  -0.2313
B(  2-C ,  4-C ) :   0.8966 B(  2-C ,  5-C ) :   0.9785 B(  2-C ,  7-C ) :  -0.3923
B(  2-C ,  9-C ) :  -0.3051 B(  2-C , 10-H ) :  -0.1539 B(  2-C , 14-H ) :  -0.1220
B(  3-C ,  6-C ) :   1.3341 B(  3-C , 19-C ) :  -0.1812 B(  3-C , 24-H ) :   0.8343
B(  4-C ,  7-C ) :   0.9923 B(  4-C ,  9-C ) :   0.2147 B(  4-C , 11-H ) :  -0.1674
B(  4-C , 14-H ) :   1.1617 B(  5-C ,  8-C ) :  -0.2257 B(  5-C ,  9-C ) :   1.2779
B(  5-C , 10-H ) :   1.1504 B(  5-C , 13-H ) :  -0.1027 B(  6-C , 19-C ) :   0.8455
B(  6-C , 20-H ) :  -0.1017 B(  6-C , 23-H ) :   0.8608 B(  7-C ,  8-C ) :   1.3364
B(  7-C , 11-H ) :   1.2009 B(  7-C , 12-O ) :   0.2033 B(  7-C , 14-H ) :  -0.1923
B(  7-C , 15-C ) :   0.2047 B(  8-C ,  9-C ) :   1.1613 B(  8-C , 11-H ) :  -0.1063
B(  8-C , 13-H ) :  -0.1072 B(  8-C , 15-C ) :  -0.1745 B(  9-C , 10-H ) :  -0.1578
B(  9-C , 12-O ) :   0.2415 B(  9-C , 13-H ) :   1.0358 B( 12-O , 15-C ) :   0.9251
B( 15-C , 16-H ) :   0.7407 B( 15-C , 17-H ) :   0.9211 B( 15-C , 18-H ) :   0.9234
B( 19-C , 20-H ) :   1.0105 B( 19-C , 21-H ) :   0.9775 B( 19-C , 22-H ) :   0.9776

MP2 TOTAL ENERGY:     -961.052754604 Eh
FINAL SINGLE POINT ENERGY      -961.052754603746

DIPOLE MOMENT
-------------
                                X             Y             Z
Electronic contribution:      1.99493      12.90925       1.07860
Nuclear contribution   :     -2.45808     -14.03529      -1.65040
                        -----------------------------------------
Total Dipole Moment    :     -0.46315      -1.12604      -0.57181
                        -----------------------------------------
Magnitude (a.u.)       :      1.34515
Magnitude (Debye)      :      3.41911

Rotational constants in cm-1:     0.041840     0.010609     0.009513
Rotational constants in MHz :  1254.344409   318.037439   285.198508

                             ****ORCA TERMINATED NORMALLY****
TOTAL RUN TIME: 0 days 1 hours 43 minutes 2 seconds 994 msec
