                         Program Version 4.2.1 -  RELEASE  -
|  1> %pal
|  2>  nprocs 32
|  3> end
|  4> !RI-MP2 aug-cc-pVQZ aug-cc-pVQZ/C TightSCF
|  5> %maxcore 4500
|  6> *xyzfile 0 2  04_41TS.xyz
|  7>
|  8>
|  9>                          ****END OF INPUT****

CARTESIAN COORDINATES (ANGSTROEM)
---------------------------------
  N      0.567390    0.009357   -0.737660
  S     -0.479765   -1.163387   -0.226520
  O     -1.309237   -0.507705    1.011069
  C     -2.427565    0.354059    0.718037
  C     -1.987132    1.761949    0.345566
  H     -2.999688    0.361120    1.643842
  H     -3.027116   -0.102199   -0.071218
  C     -1.244142    1.851003   -0.961906
  H     -1.388072    2.178426    1.159207
  H     -2.894998    2.375590    0.283698
  H     -0.248847    1.027614   -0.940594
  H     -1.786350    1.466346   -1.825049
  C      1.755950    0.406256    0.063306
  C      2.841057   -0.647430   -0.199557
  C      1.505955    0.553117    1.565073
  C      2.208932    1.743603   -0.524783
  H      2.327497    1.667954   -1.606643
  H      3.167863    2.027792   -0.089217
  H      1.492671    2.537383   -0.305321
  H      2.553265   -1.616002    0.204074
  H      3.771158   -0.327921    0.275800
  H      3.013030   -0.752618   -1.271462
  H      1.197654   -0.389222    2.016031
  H      0.737336    1.299394    1.769507
  H      2.429498    0.877106    2.048965
  O      0.258500   -2.247388    0.365249
  O     -1.422500   -1.373492   -1.298523
  H     -0.772825    2.811264   -1.160440

 Total Charge           Charge          ....    0
 Multiplicity           Mult            ....    2
 Number of Electrons    NEL             ....  105
 Basis Dimension        Dim             .... 1700

ORBITAL ENERGIES
----------------
                 SPIN UP ORBITALS
  NO   OCC          E(Eh)            E(eV)
   0   1.0000     -92.221556     -2509.4761
   1   1.0000     -20.610148      -560.8306
   2   1.0000     -20.553703      -559.2947
   3   1.0000     -20.550120      -559.1972
   4   1.0000     -15.616641      -424.9504
   5   1.0000     -11.306576      -307.6676
   6   1.0000     -11.289852      -307.2125
   7   1.0000     -11.266171      -306.5681
   8   1.0000     -11.254439      -306.2488
   9   1.0000     -11.228377      -305.5397
  10   1.0000     -11.220454      -305.3241
  11   1.0000     -11.214676      -305.1669
  12   1.0000      -9.181778      -249.8489
  13   1.0000      -6.868598      -186.9040
  14   1.0000      -6.867113      -186.8636
  15   1.0000      -6.866709      -186.8526
  16   1.0000      -1.501062       -40.8460
  17   1.0000      -1.383249       -37.6401
  18   1.0000      -1.353132       -36.8206
  19   1.0000      -1.251871       -34.0651
  20   1.0000      -1.098476       -29.8911
  21   1.0000      -1.079089       -29.3635
  22   1.0000      -0.974756       -26.5245
  23   1.0000      -0.952903       -25.9298
  24   1.0000      -0.944464       -25.7002
  25   1.0000      -0.881716       -23.9927
  26   1.0000      -0.828928       -22.5563
  27   1.0000      -0.775337       -21.0980
  28   1.0000      -0.741161       -20.1680
  29   1.0000      -0.700697       -19.0669
  30   1.0000      -0.694498       -18.8983
  31   1.0000      -0.668716       -18.1967
  32   1.0000      -0.654515       -17.8103
  33   1.0000      -0.643615       -17.5136
  34   1.0000      -0.624429       -16.9916
  35   1.0000      -0.617182       -16.7944
  36   1.0000      -0.602583       -16.3971
  37   1.0000      -0.574168       -15.6239
  38   1.0000      -0.568210       -15.4618
  39   1.0000      -0.564676       -15.3656
  40   1.0000      -0.563869       -15.3437
  41   1.0000      -0.541548       -14.7363
  42   1.0000      -0.531632       -14.4664
  43   1.0000      -0.528256       -14.3746
  44   1.0000      -0.519246       -14.1294
  45   1.0000      -0.510710       -13.8971
  46   1.0000      -0.496100       -13.4996
  47   1.0000      -0.494009       -13.4427
  48   1.0000      -0.489278       -13.3139
  49   1.0000      -0.480124       -13.0648
  50   1.0000      -0.475384       -12.9359
  51   1.0000      -0.438938       -11.9441
  52   1.0000      -0.397155       -10.8071
  53   0.0000       0.016830         0.4580
  54   0.0000       0.024535         0.6676
  55   0.0000       0.027708         0.7540
  56   0.0000       0.032932         0.8961
  57   0.0000       0.039486         1.0745

                 SPIN DOWN ORBITALS
  NO   OCC          E(Eh)            E(eV)
   0   1.0000     -92.221941     -2509.4866
   1   1.0000     -20.610354      -560.8362
   2   1.0000     -20.552060      -559.2500
   3   1.0000     -20.550394      -559.2047
   4   1.0000     -15.592870      -424.3036
   5   1.0000     -11.306254      -307.6588
   6   1.0000     -11.291049      -307.2451
   7   1.0000     -11.255763      -306.2849
   8   1.0000     -11.249830      -306.1234
   9   1.0000     -11.228068      -305.5313
  10   1.0000     -11.220403      -305.3227
  11   1.0000     -11.213545      -305.1361
  12   1.0000      -9.182309      -249.8633
  13   1.0000      -6.868835      -186.9105
  14   1.0000      -6.868203      -186.8933
  15   1.0000      -6.867080      -186.8627
  16   1.0000      -1.498844       -40.7856
  17   1.0000      -1.382449       -37.6184
  18   1.0000      -1.351481       -36.7757
  19   1.0000      -1.203696       -32.7542
  20   1.0000      -1.083179       -29.4748
  21   1.0000      -1.064608       -28.9694
  22   1.0000      -0.952681       -25.9238
  23   1.0000      -0.951340       -25.8873
  24   1.0000      -0.938260       -25.5313
  25   1.0000      -0.863410       -23.4946
  26   1.0000      -0.819903       -22.3107
  27   1.0000      -0.772233       -21.0135
  28   1.0000      -0.717568       -19.5260
  29   1.0000      -0.691066       -18.8048
  30   1.0000      -0.680745       -18.5240
  31   1.0000      -0.648322       -17.6417
  32   1.0000      -0.643590       -17.5130
  33   1.0000      -0.636262       -17.3136
  34   1.0000      -0.620133       -16.8747
  35   1.0000      -0.612605       -16.6698
  36   1.0000      -0.593243       -16.1430
  37   1.0000      -0.566754       -15.4222
  38   1.0000      -0.563702       -15.3391
  39   1.0000      -0.557914       -15.1816
  40   1.0000      -0.553002       -15.0480
  41   1.0000      -0.531303       -14.4575
  42   1.0000      -0.528038       -14.3687
  43   1.0000      -0.515197       -14.0192
  44   1.0000      -0.510507       -13.8916
  45   1.0000      -0.502114       -13.6632
  46   1.0000      -0.492460       -13.4005
  47   1.0000      -0.487646       -13.2695
  48   1.0000      -0.486350       -13.2343
  49   1.0000      -0.476156       -12.9569
  50   1.0000      -0.460149       -12.5213
  51   1.0000      -0.412174       -11.2158
  52   0.0000       0.016694         0.4543
  53   0.0000       0.024561         0.6683
  54   0.0000       0.025958         0.7064
  55   0.0000       0.031755         0.8641
  56   0.0000       0.037964         1.0330

MULLIKEN ATOMIC CHARGES AND SPIN POPULATIONS
--------------------------------------------
   0 N :   -0.566487    0.752349
   1 S :    3.391065   -0.051944
   2 O :   -0.955454   -0.003574
   3 C :   -0.338953    0.008119
   4 C :   -0.477472   -0.078672
   5 H :    0.372476   -0.002759
   6 H :    0.297490   -0.001413
   7 C :   -0.549188    0.662326
   8 H :    0.221423    0.002874
   9 H :    0.327342    0.048210
  10 H :    0.394218   -0.260867
  11 H :    0.278719   -0.047640
  12 C :    1.638120   -0.073052
  13 C :   -1.139059    0.037062
  14 C :   -1.207643    0.005380
  15 C :   -1.184133    0.012134
  16 H :    0.255461    0.000217
  17 H :    0.235943   -0.004192
  18 H :    0.268407    0.005118
  19 H :    0.239797   -0.001143
  20 H :    0.262764    0.006501
  21 H :    0.258042   -0.002144
  22 H :    0.206820   -0.001298
  23 H :    0.299569   -0.001698
  24 H :    0.192336   -0.003514
  25 O :   -1.509115    0.030145
  26 O :   -1.443943   -0.004302
  27 H :    0.231455   -0.032221
Sum of atomic charges         :   -0.0000000

LOEWDIN ATOMIC CHARGES AND SPIN POPULATIONS
-------------------------------------------
   0 N :    0.608661    0.361316
   1 S :   -0.642862    0.040010
   2 O :    0.665363   -0.005090
   3 C :    0.145753    0.000467
   4 C :    0.522166    0.051843
   5 H :   -0.306758    0.000190
   6 H :   -0.348897   -0.000018
   7 C :    0.870679    0.226610
   8 H :   -0.287713    0.002236
   9 H :   -0.267828    0.015861
  10 H :   -0.790350    0.105321
  11 H :   -0.243371    0.058662
  12 C :   -0.500391    0.044481
  13 C :    0.891050    0.015314
  14 C :    0.896996   -0.003026
  15 C :    0.890927   -0.002977
  16 H :   -0.262816   -0.000933
  17 H :   -0.268060   -0.000195
  18 H :   -0.292361   -0.001194
  19 H :   -0.334719    0.002874
  20 H :   -0.272426    0.005404
  21 H :   -0.269920    0.002895
  22 H :   -0.307118   -0.000421
  23 H :   -0.293143   -0.000588
  24 H :   -0.266891   -0.000745
  25 O :    0.355216    0.025774
  26 O :    0.351991   -0.007008
  27 H :   -0.243179    0.062937

  Mayer bond orders larger than 0.100000
B(  0-N ,  1-S ) :   1.0327 B(  0-N , 10-H ) :   0.2694 B(  0-N , 12-C ) :   0.2447
B(  0-N , 13-C ) :   0.1059 B(  0-N , 15-C ) :   0.1141 B(  1-S ,  2-O ) :   0.4448
B(  1-S , 25-O ) :   0.6014 B(  1-S , 26-O ) :   0.8244 B(  2-O ,  3-C ) :   0.8226
B(  2-O , 10-H ) :  -0.1097 B(  2-O , 25-O ) :  -0.1104 B(  3-C ,  4-C ) :   0.9916
B(  3-C ,  5-H ) :   0.8445 B(  3-C ,  6-H ) :   0.9644 B(  4-C ,  7-C ) :   0.9136
B(  4-C ,  8-H ) :   0.9206 B(  4-C ,  9-H ) :   0.8621 B(  7-C , 10-H ) :   0.2302
B(  7-C , 11-H ) :   1.0584 B(  7-C , 27-H ) :   1.0165 B( 10-H , 11-H ) :  -0.1394
B( 10-H , 26-O ) :  -0.1913 B( 12-C , 14-C ) :   0.3501 B( 12-C , 15-C ) :   0.1728
B( 12-C , 16-H ) :  -0.1683 B( 12-C , 17-H ) :  -0.1253 B( 12-C , 18-H ) :  -0.1554
B( 12-C , 19-H ) :  -0.1784 B( 12-C , 20-H ) :  -0.1103 B( 12-C , 21-H ) :  -0.1530
B( 12-C , 22-H ) :  -0.1446 B( 12-C , 23-H ) :  -0.1238 B( 13-C , 14-C ) :   0.1377
B( 13-C , 15-C ) :   0.1443 B( 13-C , 19-H ) :   1.0700 B( 13-C , 20-H ) :   1.0147
B( 13-C , 21-H ) :   1.0988 B( 14-C , 15-C ) :   0.1178 B( 14-C , 22-H ) :   1.0914
B( 14-C , 23-H ) :   0.9856 B( 14-C , 24-H ) :   1.0948 B( 15-C , 16-H ) :   1.1005
B( 15-C , 17-H ) :   1.0680 B( 15-C , 18-H ) :   1.0340 B( 25-O , 26-O ) :   0.1217

MP2 TOTAL ENERGY:     -953.608174962 Eh
FINAL SINGLE POINT ENERGY      -953.608174961570

DIPOLE MOMENT
-------------
                                X             Y             Z
Electronic contribution:     -7.75574     -13.33882      -1.70142
Nuclear contribution   :      7.66506      15.64525       2.16725
                        -----------------------------------------
Total Dipole Moment    :     -0.09068       2.30643       0.46583
                        -----------------------------------------
Magnitude (a.u.)       :      2.35475
Magnitude (Debye)      :      5.98530

Rotational constants in cm-1:     0.036818     0.025932     0.019993
Rotational constants in MHz :  1103.764834   777.435738   599.373409

                             ****ORCA TERMINATED NORMALLY****
TOTAL RUN TIME: 0 days 4 hours 52 minutes 25 seconds 777 msec
