                         Program Version 4.2.1 -  RELEASE  -
|  1> %pal
|  2>  nprocs 32
|  3> end
|  4> !RI-MP2 aug-cc-pVQZ aug-cc-pVQZ/C TightSCF
|  5> %maxcore 4500
|  6> *xyzfile -1 1  08_2TS.xyz
|  7>
|  8>
|  9>                          ****END OF INPUT****

CARTESIAN COORDINATES (ANGSTROEM)
---------------------------------
  C      1.845914    0.134152   -0.000001
  O      1.588377    1.340761    0.000009
  C      3.307278   -0.321214    0.000007
  H      3.976435    0.538868   -0.000051
  H      3.496815   -0.939952   -0.879942
  H      3.496833   -0.939835    0.880035
  O      1.006662   -0.827270   -0.000011
  Cl    -3.188081    0.077128   -0.000001
  C     -0.950875   -0.325162   -0.000006
  H     -1.026085   -0.861433   -0.924866
  H     -1.026084   -0.861445    0.924848
  H     -0.694753    0.718027    0.000001

 Total Charge           Charge          ....   -1
 Multiplicity           Mult            ....    1
 Number of Electrons    NEL             ....   58
 Basis Dimension        Dim             ....  760

ORBITAL ENERGIES
----------------

  NO   OCC          E(Eh)            E(eV)
   0   2.0000    -104.589032     -2846.0123
   1   2.0000     -20.358865      -553.9929
   2   2.0000     -20.350334      -553.7607
   3   2.0000     -11.192664      -304.5679
   4   2.0000     -11.167412      -303.8807
   5   2.0000     -11.091186      -301.8065
   6   2.0000     -10.314780      -280.6794
   7   2.0000      -7.781345      -211.7412
   8   2.0000      -7.780819      -211.7269
   9   2.0000      -7.780817      -211.7268
  10   2.0000      -1.239053       -33.7163
  11   2.0000      -1.135120       -30.8882
  12   2.0000      -0.863435       -23.4952
  13   2.0000      -0.845651       -23.0113
  14   2.0000      -0.773023       -21.0350
  15   2.0000      -0.575331       -15.6555
  16   2.0000      -0.504174       -13.7193
  17   2.0000      -0.484923       -13.1954
  18   2.0000      -0.479877       -13.0581
  19   2.0000      -0.461711       -12.5638
  20   2.0000      -0.455515       -12.3952
  21   2.0000      -0.415141       -11.2966
  22   2.0000      -0.378663       -10.3039
  23   2.0000      -0.304656        -8.2901
  24   2.0000      -0.267472        -7.2783
  25   2.0000      -0.263786        -7.1780
  26   2.0000      -0.233562        -6.3556
  27   2.0000      -0.233183        -6.3452
  28   2.0000      -0.220102        -5.9893
  29   0.0000       0.105682         2.8757
  30   0.0000       0.119305         3.2464
  31   0.0000       0.119324         3.2470
  32   0.0000       0.134008         3.6465
  33   0.0000       0.141681         3.8553

MULLIKEN ATOMIC CHARGES
-----------------------
   0 C :    0.904827
   1 O :   -0.867227
   2 C :   -0.778144
   3 H :    0.297824
   4 H :    0.260715
   5 H :    0.260722
   6 O :   -0.895615
   7 Cl:   -0.851583
   8 C :   -0.466581
   9 H :    0.372785
  10 H :    0.372784
  11 H :    0.389492
Sum of atomic charges:   -1.0000000

LOEWDIN ATOMIC CHARGES
----------------------
   0 C :   -1.355783
   1 O :    0.586434
   2 C :    0.779376
   3 H :   -0.351640
   4 H :   -0.330610
   5 H :   -0.330606
   6 O :    0.638340
   7 Cl:    0.208867
   8 C :    0.500640
   9 H :   -0.434147
  10 H :   -0.434146
  11 H :   -0.476725

  Mayer bond orders larger than 0.100000
B(  0-C ,  1-O ) :   1.3378 B(  0-C ,  2-C ) :   0.8424 B(  0-C ,  6-O ) :   1.3013
B(  2-C ,  3-H ) :   0.9654 B(  2-C ,  4-H ) :   0.9448 B(  2-C ,  5-H ) :   0.9448
B(  6-O ,  8-C ) :   0.2012 B(  7-Cl,  8-C ) :   0.2770 B(  8-C ,  9-H ) :   0.8531
B(  8-C , 10-H ) :   0.8531 B(  8-C , 11-H ) :   0.8723

MP2 TOTAL ENERGY:     -727.785462473 Eh
FINAL SINGLE POINT ENERGY      -727.785462472567

DIPOLE MOMENT
-------------
                                X             Y             Z
Electronic contribution:    -10.70240       1.56249      -0.00003
Nuclear contribution   :     12.53452      -2.39255       0.00003
                        -----------------------------------------
Total Dipole Moment    :      1.83212      -0.83006      -0.00000
                        -----------------------------------------
Magnitude (a.u.)       :      2.01138
Magnitude (Debye)      :      5.11252

Rotational constants in cm-1:     0.337482     0.026132     0.024485
Rotational constants in MHz : 10117.461253   783.416095   734.054013

                             ****ORCA TERMINATED NORMALLY****
TOTAL RUN TIME: 0 days 0 hours 8 minutes 13 seconds 661 msec
