                         Program Version 4.2.1 -  RELEASE  -
|  1> %pal
|  2>  nprocs 32
|  3> end
|  4> !RI-MP2 aug-cc-pVQZ aug-cc-pVQZ/C TightSCF
|  5> %maxcore 4500
|  6> *xyzfile 0 1  05_11R2.xyz
|  7>
|  8>
|  9>                          ****END OF INPUT****

CARTESIAN COORDINATES (ANGSTROEM)
---------------------------------
  C     -1.429767   -1.259794    0.000014
  N     -2.004476    0.013392   -0.000065
  C     -1.360759    1.238259   -0.000100
  N      0.015882    1.128355   -0.000063
  C      0.677060   -0.072800    0.000008
  C      0.031491   -1.247016    0.000036
  O     -1.940376    2.294706   -0.000086
  C      2.161989    0.071470    0.000045
  O      2.704785    1.143056    0.000016
  O      2.801518   -1.096961    0.000111
  H     -3.015662    0.052120   -0.000056
  H      0.554604    1.984921   -0.000055
  O     -2.116889   -2.253560    0.000054
  H      3.752964   -0.919238    0.000129
  H      0.555861   -2.188670    0.000093

 Total Charge           Charge          ....    0
 Multiplicity           Mult            ....    1
 Number of Electrons    NEL             ....   80
 Basis Dimension        Dim             .... 1064

ORBITAL ENERGIES
----------------

  NO   OCC          E(Eh)            E(eV)
   0   2.0000     -20.655688      -562.0698
   1   2.0000     -20.597744      -560.4931
   2   2.0000     -20.552782      -559.2696
   3   2.0000     -20.547538      -559.1269
   4   2.0000     -15.641041      -425.6144
   5   2.0000     -15.632495      -425.3818
   6   2.0000     -11.439093      -311.2736
   7   2.0000     -11.420519      -310.7681
   8   2.0000     -11.390731      -309.9576
   9   2.0000     -11.354071      -308.9600
  10   2.0000     -11.277890      -306.8870
  11   2.0000      -1.519369       -41.3441
  12   2.0000      -1.445670       -39.3387
  13   2.0000      -1.417118       -38.5617
  14   2.0000      -1.414964       -38.5031
  15   2.0000      -1.320712       -35.9384
  16   2.0000      -1.253660       -34.1138
  17   2.0000      -1.114505       -30.3272
  18   2.0000      -0.987808       -26.8796
  19   2.0000      -0.913714       -24.8634
  20   2.0000      -0.876947       -23.8629
  21   2.0000      -0.814562       -22.1654
  22   2.0000      -0.780667       -21.2430
  23   2.0000      -0.759175       -20.6582
  24   2.0000      -0.744921       -20.2703
  25   2.0000      -0.695773       -18.9329
  26   2.0000      -0.689330       -18.7576
  27   2.0000      -0.673261       -18.3204
  28   2.0000      -0.667261       -18.1571
  29   2.0000      -0.646863       -17.6020
  30   2.0000      -0.626195       -17.0396
  31   2.0000      -0.620837       -16.8938
  32   2.0000      -0.583836       -15.8870
  33   2.0000      -0.547153       -14.8888
  34   2.0000      -0.520686       -14.1686
  35   2.0000      -0.518458       -14.1080
  36   2.0000      -0.488528       -13.2935
  37   2.0000      -0.459373       -12.5002
  38   2.0000      -0.445317       -12.1177
  39   2.0000      -0.382589       -10.4108
  40   0.0000       0.015042         0.4093
  41   0.0000       0.031592         0.8597
  42   0.0000       0.032224         0.8769
  43   0.0000       0.036739         0.9997
  44   0.0000       0.042991         1.1698

MULLIKEN ATOMIC CHARGES
-----------------------
   0 C :    1.316525
   1 N :   -0.720675
   2 C :    1.301523
   3 N :   -0.514128
   4 C :   -0.270294
   5 C :   -0.575654
   6 O :   -0.775917
   7 C :    1.556720
   8 O :   -0.765338
   9 O :   -0.649827
  10 H :    0.075725
  11 H :    0.182377
  12 O :   -0.780468
  13 H :    0.330757
  14 H :    0.288675
Sum of atomic charges:   -0.0000000

LOEWDIN ATOMIC CHARGES
----------------------
   0 C :   -0.846158
   1 N :    0.785610
   2 C :   -0.979167
   3 N :    0.785118
   4 C :   -0.277262
   5 C :    0.327460
   6 O :    0.701311
   7 C :   -1.022325
   8 O :    0.748676
   9 O :    1.266030
  10 H :   -0.513925
  11 H :   -0.541933
  12 O :    0.700910
  13 H :   -0.780510
  14 H :   -0.353835

  Mayer bond orders larger than 0.100000
B(  0-C ,  1-N ) :   0.9749 B(  0-C ,  4-C ) :  -0.3217 B(  0-C ,  5-C ) :   1.2590
B(  0-C , 12-O ) :   1.0202 B(  1-N ,  2-C ) :   1.1079 B(  1-N ,  6-O ) :   0.2284
B(  1-N , 10-H ) :   1.1984 B(  1-N , 12-O ) :   0.2087 B(  2-C ,  3-N ) :   1.2160
B(  2-C ,  6-O ) :   1.1265 B(  3-N ,  4-C ) :   0.6056 B(  3-N ,  6-O ) :   0.1852
B(  3-N ,  7-C ) :  -0.1459 B(  3-N , 11-H ) :   1.0974 B(  4-C ,  5-C ) :   1.2545
B(  4-C ,  7-C ) :   1.4063 B(  4-C ,  8-O ) :   0.4324 B(  4-C ,  9-O ) :   0.2260
B(  4-C , 11-H ) :  -0.1220 B(  5-C ,  7-C ) :  -0.2381 B(  5-C , 12-O ) :   0.3504
B(  5-C , 14-H ) :   0.9504 B(  7-C ,  8-O ) :   1.0836 B(  7-C ,  9-O ) :   0.7173
B(  8-O ,  9-O ) :   0.1269 B(  9-O , 13-H ) :   0.9178

MP2 TOTAL ENERGY:     -602.606349191 Eh
FINAL SINGLE POINT ENERGY      -602.606349190784

DIPOLE MOMENT
-------------
                                X             Y             Z
Electronic contribution:     -0.17892       0.61482      -0.00009
Nuclear contribution   :      1.78926      -1.02295       0.00011
                        -----------------------------------------
Total Dipole Moment    :      1.61034      -0.40813       0.00002
                        -----------------------------------------
Magnitude (a.u.)       :      1.66126
Magnitude (Debye)      :      4.22258

Rotational constants in cm-1:     0.058257     0.029927     0.019771
Rotational constants in MHz :  1746.496900   897.181262   592.706145

                             ****ORCA TERMINATED NORMALLY****
TOTAL RUN TIME: 0 days 0 hours 32 minutes 53 seconds 400 msec
