                         Program Version 4.2.1 -  RELEASE  -
|  1> %pal
|  2>  nprocs 32
|  3> end
|  4> !RI-MP2 aug-cc-pVQZ aug-cc-pVQZ/C TightSCF
|  5> %maxcore 4500
|  6> *xyzfile 0 1  02_6R.xyz
|  7>
|  8>
|  9>                          ****END OF INPUT****

CARTESIAN COORDINATES (ANGSTROEM)
---------------------------------
  C     -1.274407    1.085858    1.063936
  C     -2.308303    1.445423   -0.010956
  C     -2.924014    0.094422   -0.395957
  C     -1.772529   -0.882359   -0.290098
  C     -0.756886   -0.264666    0.603618
  H     -0.477413    1.821007    1.164158
  H     -1.762045    0.974424    2.038190
  H     -1.796128    1.880739   -0.872938
  H     -3.047047    2.167774    0.337927
  H     -3.695573   -0.182232    0.331371
  H     -3.387117    0.086936   -1.383175
  C      0.411792   -0.764995    0.889419
  C     -1.672554   -2.057331   -0.901322
  C      1.609746   -1.221644    1.105800
  C      2.795387   -0.926223    0.220054
  H      3.217875   -1.868176   -0.141972
  H      3.580583   -0.445115    0.810834
  C      2.460918   -0.059282   -0.996609
  H      3.331060    0.017693   -1.651682
  H      1.653328   -0.516761   -1.573293
  C      2.046625    1.295653   -0.642996
  N      1.735880    2.365629   -0.369518
  H     -0.808625   -2.695501   -0.755561
  H     -2.454412   -2.417870   -1.558634
  H      1.799703   -1.851461    1.972063

 Total Charge           Charge          ....    0
 Multiplicity           Mult            ....    1
 Number of Electrons    NEL             ....   86
 Basis Dimension        Dim             .... 1558

ORBITAL ENERGIES
----------------

  NO   OCC          E(Eh)            E(eV)
   0   2.0000     -15.559008      -423.3821
   1   2.0000     -11.279417      -306.9286
   2   2.0000     -11.266881      -306.5874
   3   2.0000     -11.259381      -306.3833
   4   2.0000     -11.245411      -306.0032
   5   2.0000     -11.244000      -305.9648
   6   2.0000     -11.242452      -305.9227
   7   2.0000     -11.241253      -305.8901
   8   2.0000     -11.224825      -305.4430
   9   2.0000     -11.222903      -305.3907
  10   2.0000     -11.219555      -305.2996
  11   2.0000     -11.216418      -305.2142
  12   2.0000      -1.219099       -33.1734
  13   2.0000      -1.153237       -31.3812
  14   2.0000      -1.114122       -30.3168
  15   2.0000      -1.042925       -28.3794
  16   2.0000      -1.022577       -27.8257
  17   2.0000      -0.981565       -26.7097
  18   2.0000      -0.910280       -24.7700
  19   2.0000      -0.878244       -23.8982
  20   2.0000      -0.810457       -22.0537
  21   2.0000      -0.766184       -20.8489
  22   2.0000      -0.703592       -19.1457
  23   2.0000      -0.676185       -18.3999
  24   2.0000      -0.663344       -18.0505
  25   2.0000      -0.655437       -17.8353
  26   2.0000      -0.646365       -17.5885
  27   2.0000      -0.599536       -16.3142
  28   2.0000      -0.585067       -15.9205
  29   2.0000      -0.562571       -15.3083
  30   2.0000      -0.554522       -15.0893
  31   2.0000      -0.553376       -15.0581
  32   2.0000      -0.544627       -14.8201
  33   2.0000      -0.530780       -14.4432
  34   2.0000      -0.527728       -14.3602
  35   2.0000      -0.499714       -13.5979
  36   2.0000      -0.489125       -13.3098
  37   2.0000      -0.472353       -12.8534
  38   2.0000      -0.455958       -12.4073
  39   2.0000      -0.455528       -12.3955
  40   2.0000      -0.408217       -11.1082
  41   2.0000      -0.365031        -9.9330
  42   2.0000      -0.316605        -8.6153
  43   0.0000       0.019673         0.5353
  44   0.0000       0.027253         0.7416
  45   0.0000       0.028166         0.7664
  46   0.0000       0.031561         0.8588
  47   0.0000       0.039382         1.0716

MULLIKEN ATOMIC CHARGES
-----------------------
   0 C :   -0.658748
   1 C :   -0.555067
   2 C :   -0.481229
   3 C :   -0.068391
   4 C :    0.343477
   5 H :    0.293141
   6 H :    0.334065
   7 H :    0.200482
   8 H :    0.317103
   9 H :    0.203950
  10 H :    0.260268
  11 C :    0.201764
  12 C :   -0.884168
  13 C :   -0.324890
  14 C :   -0.527862
  15 H :    0.277157
  16 H :    0.288506
  17 C :   -0.425649
  18 H :    0.393256
  19 H :    0.226321
  20 C :    0.399635
  21 N :   -0.793243
  22 H :    0.348645
  23 H :    0.300577
  24 H :    0.330901
Sum of atomic charges:    0.0000000

LOEWDIN ATOMIC CHARGES
----------------------
   0 C :    0.492319
   1 C :    0.527738
   2 C :    0.500273
   3 C :   -0.083335
   4 C :   -0.110833
   5 H :   -0.303610
   6 H :   -0.257228
   7 H :   -0.260018
   8 H :   -0.251246
   9 H :   -0.261339
  10 H :   -0.266136
  11 C :    0.195837
  12 C :    0.809814
  13 C :    0.357997
  14 C :    0.464062
  15 H :   -0.278024
  16 H :   -0.277841
  17 C :    0.429049
  18 H :   -0.288629
  19 H :   -0.300887
  20 C :   -0.265926
  21 N :    0.455670
  22 H :   -0.351350
  23 H :   -0.341643
  24 H :   -0.334712

  Mayer bond orders larger than 0.100000
B(  0-C ,  1-C ) :   1.0503 B(  0-C ,  4-C ) :   0.6254 B(  0-C ,  5-H ) :   0.9210
B(  0-C ,  6-H ) :   0.8839 B(  1-C ,  2-C ) :   1.1101 B(  1-C ,  4-C ) :  -0.1116
B(  1-C ,  7-H ) :   0.9545 B(  1-C ,  8-H ) :   0.9115 B(  2-C ,  3-C ) :   0.6534
B(  2-C ,  4-C ) :  -0.1926 B(  2-C ,  9-H ) :   0.9666 B(  2-C , 10-H ) :   1.0216
B(  3-C ,  4-C ) :   0.5338 B(  3-C , 10-H ) :  -0.1235 B(  3-C , 12-C ) :   1.4788
B(  3-C , 22-H ) :  -0.1437 B(  3-C , 23-H ) :  -0.1162 B(  4-C , 11-C ) :   1.4108
B(  4-C , 13-C ) :  -0.4801 B( 11-C , 13-C ) :   2.0801 B( 11-C , 14-C ) :  -0.1295
B( 12-C , 22-H ) :   0.9618 B( 12-C , 23-H ) :   1.0171 B( 13-C , 14-C ) :   0.9682
B( 13-C , 24-H ) :   0.8674 B( 14-C , 15-H ) :   0.9368 B( 14-C , 16-H ) :   0.8695
B( 14-C , 17-C ) :   0.9632 B( 17-C , 18-H ) :   0.8641 B( 17-C , 19-H ) :   0.8956
B( 17-C , 20-C ) :   0.9991 B( 17-C , 21-N ) :  -0.1154 B( 18-H , 20-C ) :  -0.1079
B( 20-C , 21-N ) :   2.4614

MP2 TOTAL ENERGY:     -480.787878174 Eh
FINAL SINGLE POINT ENERGY      -480.787878174039

DIPOLE MOMENT
-------------
                                X             Y             Z
Electronic contribution:      4.15164       1.85889       1.03208
Nuclear contribution   :     -3.89060      -3.05787      -1.30330
                        -----------------------------------------
Total Dipole Moment    :      0.26104      -1.19898      -0.27122
                        -----------------------------------------
Magnitude (a.u.)       :      1.25668
Magnitude (Debye)      :      3.19423

Rotational constants in cm-1:     0.046520     0.022744     0.018466
Rotational constants in MHz :  1394.629864   681.849494   553.604923

                             ****ORCA TERMINATED NORMALLY****
TOTAL RUN TIME: 0 days 1 hours 44 minutes 35 seconds 339 msec
