                         Program Version 4.2.1 -  RELEASE  -
|  1> %pal
|  2>  nprocs 32
|  3> end
|  4> !RI-MP2 aug-cc-pVQZ aug-cc-pVQZ/C TightSCF
|  5> %maxcore 4500
|  6> *xyzfile 0 1  06_5P.xyz
|  7>
|  8>
|  9>                          ****END OF INPUT****

CARTESIAN COORDINATES (ANGSTROEM)
---------------------------------
  C      3.314440   -1.414702   -0.490479
  C      2.199422   -0.615585   -0.631229
  C      2.208000    0.691319   -0.112320
  C      3.349857    1.163504    0.555299
  C      4.467773    0.361977    0.678986
  C      4.447086   -0.926141    0.156715
  H      3.304354   -2.425417   -0.877271
  H      1.307779   -1.008513   -1.102945
  H      3.349143    2.166363    0.966562
  H      5.349773    0.730727    1.186255
  H      5.318947   -1.560679    0.261430
  C      1.092896    1.574200   -0.256544
  C     -0.135588    1.302298   -0.903037
  C     -0.803484    0.908512    0.496882
  H      1.188599    2.542622    0.228525
  H     -0.163404    0.462042   -1.587014
  H     -0.683845    2.159760   -1.279480
  B     -2.081217   -0.095147    0.145339
  Cl    -2.886179   -0.425382    1.775338
  Cl    -1.416881   -1.680124   -0.605617
  Cl    -3.232351    0.752988   -1.032051
  H     -1.143865    1.803321    1.013508
  H     -0.161800    0.326006    1.157693

 Total Charge           Charge          ....    0
 Multiplicity           Mult            ....    1
 Number of Electrons    NEL             ....  120
 Basis Dimension        Dim             .... 1512

ORBITAL ENERGIES
----------------

  NO   OCC          E(Eh)            E(eV)
   0   2.0000    -104.771329     -2850.9728
   1   2.0000    -104.767074     -2850.8570
   2   2.0000    -104.763399     -2850.7570
   3   2.0000     -11.381070      -309.6947
   4   2.0000     -11.309153      -307.7377
   5   2.0000     -11.303945      -307.5960
   6   2.0000     -11.301088      -307.5182
   7   2.0000     -11.299293      -307.4694
   8   2.0000     -11.285678      -307.0989
   9   2.0000     -11.282695      -307.0177
  10   2.0000     -11.279321      -306.9259
  11   2.0000     -11.248087      -306.0760
  12   2.0000     -10.499095      -285.6949
  13   2.0000     -10.494813      -285.5784
  14   2.0000     -10.491049      -285.4759
  15   2.0000      -7.965882      -216.7627
  16   2.0000      -7.964960      -216.7376
  17   2.0000      -7.964924      -216.7366
  18   2.0000      -7.961628      -216.6469
  19   2.0000      -7.960624      -216.6196
  20   2.0000      -7.960610      -216.6192
  21   2.0000      -7.957865      -216.5445
  22   2.0000      -7.956815      -216.5159
  23   2.0000      -7.956804      -216.5156
  24   2.0000      -7.668516      -208.6709
  25   2.0000      -1.231873       -33.5210
  26   2.0000      -1.168805       -31.8048
  27   2.0000      -1.091362       -29.6975
  28   2.0000      -1.079830       -29.3837
  29   2.0000      -1.067231       -29.0408
  30   2.0000      -1.024259       -27.8715
  31   2.0000      -1.020595       -27.7718
  32   2.0000      -0.954521       -25.9738
  33   2.0000      -0.897752       -24.4291
  34   2.0000      -0.885692       -24.1009
  35   2.0000      -0.835543       -22.7363
  36   2.0000      -0.768627       -20.9154
  37   2.0000      -0.727870       -19.8063
  38   2.0000      -0.701723       -19.0949
  39   2.0000      -0.672795       -18.3077
  40   2.0000      -0.655810       -17.8455
  41   2.0000      -0.647871       -17.6295
  42   2.0000      -0.628814       -17.1109
  43   2.0000      -0.607589       -16.5333
  44   2.0000      -0.581236       -15.8162
  45   2.0000      -0.567444       -15.4409
  46   2.0000      -0.560479       -15.2514
  47   2.0000      -0.548458       -14.9243
  48   2.0000      -0.545614       -14.8469
  49   2.0000      -0.504953       -13.7405
  50   2.0000      -0.489888       -13.3305
  51   2.0000      -0.487145       -13.2559
  52   2.0000      -0.421670       -11.4742
  53   2.0000      -0.421004       -11.4561
  54   2.0000      -0.417044       -11.3484
  55   2.0000      -0.397038       -10.8040
  56   2.0000      -0.391933       -10.6650
  57   2.0000      -0.391343       -10.6490
  58   2.0000      -0.378202       -10.2914
  59   2.0000      -0.366934        -9.9848
  60   0.0000      -0.023382        -0.6363
  61   0.0000       0.003468         0.0944
  62   0.0000       0.012404         0.3375
  63   0.0000       0.020023         0.5449
  64   0.0000       0.028649         0.7796

MULLIKEN ATOMIC CHARGES
-----------------------
   0 C :   -0.356266
   1 C :   -0.259942
   2 C :    0.551877
   3 C :   -0.562016
   4 C :   -0.362817
   5 C :   -0.375099
   6 H :    0.261958
   7 H :    0.397703
   8 H :    0.256430
   9 H :    0.262075
  10 H :    0.338424
  11 C :   -0.080056
  12 C :   -0.502563
  13 C :   -0.537852
  14 H :    0.262488
  15 H :    0.332421
  16 H :    0.404112
  17 B :    0.964815
  18 Cl:   -0.534053
  19 Cl:   -0.576631
  20 Cl:   -0.563846
  21 H :    0.331476
  22 H :    0.347362
Sum of atomic charges:    0.0000000

LOEWDIN ATOMIC CHARGES
----------------------
   0 C :    0.397681
   1 C :    0.370021
   2 C :   -0.031634
   3 C :    0.367812
   4 C :    0.382262
   5 C :    0.377084
   6 H :   -0.306736
   7 H :   -0.367553
   8 H :   -0.301056
   9 H :   -0.313207
  10 H :   -0.299544
  11 C :    0.420330
  12 C :    0.480725
  13 C :    0.334914
  14 H :   -0.246786
  15 H :   -0.370004
  16 H :   -0.275185
  17 B :   -3.310569
  18 Cl:    1.103809
  19 Cl:    1.129971
  20 Cl:    1.115511
  21 H :   -0.303542
  22 H :   -0.354303

  Mayer bond orders larger than 0.100000
B(  0-C ,  1-C ) :   1.2158 B(  0-C ,  2-C ) :  -0.4226 B(  0-C ,  3-C ) :   0.1158
B(  0-C ,  5-C ) :   1.1703 B(  0-C ,  6-H ) :   1.0917 B(  0-C , 10-H ) :  -0.1202
B(  1-C ,  2-C ) :   1.0832 B(  1-C ,  3-C ) :   0.1235 B(  1-C ,  4-C ) :   0.1083
B(  1-C ,  7-H ) :   0.7689 B(  1-C , 11-C ) :  -0.2895 B(  1-C , 12-C ) :  -0.1234
B(  2-C ,  3-C ) :   0.7430 B(  2-C ,  4-C ) :  -0.4502 B(  2-C ,  8-H ) :  -0.1061
B(  2-C , 11-C ) :   0.5967 B(  2-C , 13-C ) :  -0.1025 B(  2-C , 14-H ) :  -0.1453
B(  3-C ,  4-C ) :   1.4048 B(  3-C ,  5-C ) :   0.2094 B(  3-C ,  8-H ) :   1.0082
B(  3-C ,  9-H ) :  -0.1573 B(  3-C , 11-C ) :  -0.2878 B(  4-C ,  5-C ) :   1.1747
B(  4-C ,  9-H ) :   1.1346 B(  5-C ,  9-H ) :  -0.1105 B(  5-C , 10-H ) :   1.0112
B( 11-C , 12-C ) :   1.1039 B( 11-C , 13-C ) :   0.2022 B( 11-C , 14-H ) :   1.0954
B( 11-C , 16-H ) :  -0.1183 B( 12-C , 13-C ) :   0.7146 B( 12-C , 15-H ) :   0.9776
B( 12-C , 16-H ) :   0.8629 B( 13-C , 17-B ) :   0.7251 B( 13-C , 21-H ) :   0.8638
B( 13-C , 22-H ) :   0.8503 B( 17-B , 18-Cl) :   0.6589 B( 17-B , 19-Cl) :   0.5825
B( 17-B , 20-Cl) :   0.6070

MP2 TOTAL ENERGY:    -1752.387478830 Eh
FINAL SINGLE POINT ENERGY     -1752.387478830167

DIPOLE MOMENT
-------------
                                X             Y             Z
Electronic contribution:    -23.49171      -5.25858       0.16302
Nuclear contribution   :     28.84602       6.90226      -0.33210
                        -----------------------------------------
Total Dipole Moment    :      5.35431       1.64368      -0.16909
                        -----------------------------------------
Magnitude (a.u.)       :      5.60347
Magnitude (Debye)      :     14.24289

Rotational constants in cm-1:     0.034894     0.008637     0.008318
Rotational constants in MHz :  1046.102968   258.916089   249.376542

                             ****ORCA TERMINATED NORMALLY****
TOTAL RUN TIME: 0 days 1 hours 51 minutes 27 seconds 333 msec
