                         Program Version 4.2.1 -  RELEASE  -
|  1> %pal
|  2>  nprocs 32
|  3> end
|  4> !RI-MP2 aug-cc-pVQZ aug-cc-pVQZ/C TightSCF
|  5> %maxcore 4500
|  6> *xyzfile 0 1  03_39P2.xyz
|  7>
|  8>
|  9>                          ****END OF INPUT****

CARTESIAN COORDINATES (ANGSTROEM)
---------------------------------
  O      1.267110    1.595611    0.000012
  C      1.237446    0.418137    0.000007
  C      0.035284   -0.478687    0.000024
  C     -1.280071    0.286811   -0.000009
  H      0.121928   -1.134956    0.871205
  H     -1.318356    0.943159    0.873733
  C     -2.485973   -0.647020    0.000019
  H     -1.318348    0.943096   -0.873799
  C     -3.809599    0.108456   -0.000022
  H     -2.437606   -1.302954    0.875886
  H     -2.437592   -1.303024   -0.875795
  H     -3.897131    0.748008    0.881882
  H     -4.659104   -0.577028    0.000002
  H     -3.897120    0.747933   -0.881980
  H      0.121939   -1.135019   -0.871107
  Cl     2.788352   -0.518840   -0.000014

 Total Charge           Charge          ....    0
 Multiplicity           Mult            ....    1
 Number of Electrons    NEL             ....   64
 Basis Dimension        Dim             ....  978

ORBITAL ENERGIES
----------------

  NO   OCC          E(Eh)            E(eV)
   0   2.0000    -104.840376     -2852.8517
   1   2.0000     -20.589858      -560.2785
   2   2.0000     -11.404286      -310.3264
   3   2.0000     -11.264716      -306.5285
   4   2.0000     -11.238085      -305.8038
   5   2.0000     -11.233680      -305.6840
   6   2.0000     -11.221566      -305.3543
   7   2.0000     -10.566390      -287.5261
   8   2.0000      -8.033240      -218.5956
   9   2.0000      -8.031693      -218.5535
  10   2.0000      -8.031608      -218.5512
  11   2.0000      -1.451627       -39.5008
  12   2.0000      -1.132751       -30.8237
  13   2.0000      -1.098268       -29.8854
  14   2.0000      -1.025259       -27.8987
  15   2.0000      -0.912606       -24.8333
  16   2.0000      -0.816640       -22.2219
  17   2.0000      -0.764842       -20.8124
  18   2.0000      -0.679925       -18.5017
  19   2.0000      -0.677161       -18.4265
  20   2.0000      -0.661542       -18.0015
  21   2.0000      -0.621961       -16.9244
  22   2.0000      -0.597587       -16.2612
  23   2.0000      -0.565133       -15.3781
  24   2.0000      -0.550048       -14.9676
  25   2.0000      -0.518140       -14.0993
  26   2.0000      -0.509773       -13.8716
  27   2.0000      -0.491257       -13.3678
  28   2.0000      -0.484086       -13.1726
  29   2.0000      -0.462806       -12.5936
  30   2.0000      -0.458571       -12.4783
  31   2.0000      -0.443748       -12.0750
  32   0.0000       0.021997         0.5986
  33   0.0000       0.030851         0.8395
  34   0.0000       0.031834         0.8662
  35   0.0000       0.035295         0.9604
  36   0.0000       0.048929         1.3314

MULLIKEN ATOMIC CHARGES
-----------------------
   0 O :   -0.666841
   1 C :    0.541305
   2 C :   -0.374160
   3 C :   -0.131361
   4 H :    0.271787
   5 H :    0.237019
   6 C :   -0.425455
   7 H :    0.237021
   8 C :   -0.890973
   9 H :    0.237972
  10 H :    0.237997
  11 H :    0.229984
  12 H :    0.261494
  13 H :    0.229996
  14 H :    0.271776
  15 Cl:   -0.267561
Sum of atomic charges:    0.0000000

LOEWDIN ATOMIC CHARGES
----------------------
   0 O :    0.626090
   1 C :   -1.347603
   2 C :    0.335059
   3 C :    0.471142
   4 H :   -0.314218
   5 H :   -0.272487
   6 C :    0.504752
   7 H :   -0.272485
   8 C :    0.929294
   9 H :   -0.269677
  10 H :   -0.269677
  11 H :   -0.281442
  12 H :   -0.280800
  13 H :   -0.281443
  14 H :   -0.314223
  15 Cl:    1.037719

  Mayer bond orders larger than 0.100000
B(  0-O ,  1-C ) :   1.4613 B(  0-O ,  2-C ) :   0.2420 B(  1-C ,  2-C ) :   0.9904
B(  1-C ,  3-C ) :  -0.2316 B(  1-C , 15-Cl) :   1.0052 B(  2-C ,  3-C ) :   0.9230
B(  2-C ,  4-H ) :   0.8605 B(  2-C , 14-H ) :   0.8605 B(  2-C , 15-Cl) :  -0.2221
B(  3-C ,  5-H ) :   0.8703 B(  3-C ,  6-C ) :   0.9301 B(  3-C ,  7-H ) :   0.8703
B(  6-C ,  8-C ) :   1.0095 B(  6-C ,  9-H ) :   0.8699 B(  6-C , 10-H ) :   0.8699
B(  8-C , 11-H ) :   0.9531 B(  8-C , 12-H ) :   1.0110 B(  8-C , 13-H ) :   0.9531

MP2 TOTAL ENERGY:     -730.469643337 Eh
FINAL SINGLE POINT ENERGY      -730.469643337046

DIPOLE MOMENT
-------------
                                X             Y             Z
Electronic contribution:     22.54110       0.53165      -0.00004
Nuclear contribution   :    -23.61547      -1.29922       0.00005
                        -----------------------------------------
Total Dipole Moment    :     -1.07437      -0.76756       0.00001
                        -----------------------------------------
Magnitude (a.u.)       :      1.32039
Magnitude (Debye)      :      3.35616

Rotational constants in cm-1:     0.219731     0.025636     0.023351
Rotational constants in MHz :  6587.380232   768.549506   700.041607

                             ****ORCA TERMINATED NORMALLY****
TOTAL RUN TIME: 0 days 0 hours 22 minutes 26 seconds 344 msec
